Title t= 235.00000 step= 117500
44389
    1GLY      N    1   6.490   3.985   1.202
    1GLY    HT1    2   6.541   4.002   1.113
    1GLY    HT2    3   6.418   3.911   1.189
    1GLY    HT3    4   6.560   3.949   1.269
    1GLY     CA    5   6.426   4.105   1.271
    1GLY    HA1    6   6.402   4.179   1.197
    1GLY    HA2    7   6.493   4.144   1.346
    1GLY      C    8   6.299   4.064   1.340
    1GLY      O    9   6.303   3.958   1.394
    2PRO      N   10   6.196   4.148   1.352
    2PRO     CD   11   6.198   4.296   1.339
    2PRO    HD1   12   6.158   4.306   1.236
    2PRO    HD2   13   6.299   4.338   1.355
    2PRO     CA   14   6.068   4.109   1.414
    2PRO     HA   15   6.078   4.076   1.516
    2PRO     CB   16   5.992   4.240   1.411
    2PRO    HB1   17   5.909   4.238   1.485
    2PRO    HB2   18   5.945   4.246   1.311
    2PRO     CG   19   6.094   4.351   1.434
    2PRO    HG1   20   6.056   4.453   1.410
    2PRO    HG2   21   6.127   4.347   1.540
    2PRO      C   22   5.980   3.995   1.359
    2PRO      O   23   5.969   3.978   1.237
    3GLY      N   24   5.906   3.920   1.443
    3GLY     HN   25   5.910   3.937   1.541
    3GLY     CA   26   5.802   3.817   1.416
    3GLY    HA1   27   5.717   3.852   1.360
    3GLY    HA2   28   5.777   3.787   1.516
    3GLY      C   29   5.848   3.693   1.341
    3GLY      O   30   5.965   3.678   1.309
    4ASP      N   31   5.756   3.603   1.314
    4ASP     HN   32   5.660   3.629   1.326
    4ASP     CA   33   5.770   3.476   1.252
    4ASP     HA   34   5.875   3.454   1.241
    4ASP     CB   35   5.702   3.367   1.349
    4ASP    HB1   36   5.705   3.270   1.293
    4ASP    HB2   37   5.602   3.394   1.388
    4ASP     CG   38   5.790   3.359   1.473
    4ASP    OD1   39   5.912   3.344   1.454
    4ASP    OD2   40   5.738   3.360   1.584
    4ASP      C   41   5.703   3.489   1.114
    4ASP      O   42   5.621   3.578   1.098
    5PRO      N   43   5.729   3.407   1.013
    5PRO     CD   44   5.847   3.311   1.022
    5PRO    HD1   45   5.834   3.226   1.092
    5PRO    HD2   46   5.938   3.361   1.063
    5PRO     CA   47   5.661   3.401   0.881
    5PRO     HA   48   5.673   3.492   0.824
    5PRO     CB   49   5.720   3.273   0.824
    5PRO    HB1   50   5.714   3.284   0.714
    5PRO    HB2   51   5.678   3.174   0.855
    5PRO     CG   52   5.869   3.272   0.874
    5PRO    HG1   53   5.922   3.177   0.852
    5PRO    HG2   54   5.920   3.359   0.829
    5PRO      C   55   5.518   3.386   0.894
    5PRO      O   56   5.472   3.345   1.003
    6GLY      N   57   5.445   3.402   0.785
    6GLY     HN   58   5.494   3.423   0.700
    6GLY     CA   59   5.300   3.417   0.775
    6GLY    HA1   60   5.254   3.321   0.787
    6GLY    HA2   61   5.271   3.460   0.680
    6GLY      C   62   5.237   3.504   0.887
    6GLY      O   63   5.270   3.623   0.909
    7SER      N   64   5.123   3.459   0.941
    7SER     HN   65   5.085   3.371   0.914
    7SER     CA   66   5.038   3.518   1.046
    7SER     HA   67   5.081   3.602   1.098
    7SER     CB   68   4.901   3.573   0.994
    7SER    HB1   69   4.850   3.624   1.079
    7SER    HB2   70   4.852   3.483   0.951
    7SER     OG   71   4.931   3.667   0.894
    7SER    HG1   72   4.963   3.620   0.816
    7SER      C   73   5.002   3.421   1.156
    7SER      O   74   4.984   3.298   1.143
    8GLY      N   75   4.982   3.479   1.279
    8GLY     HN   76   4.992   3.577   1.286
    8GLY     CA   77   4.923   3.416   1.393
    8GLY    HA1   78   4.913   3.491   1.470
    8GLY    HA2   79   4.984   3.331   1.417
    8GLY      C   80   4.785   3.371   1.367
    8GLY      O   81   4.716   3.432   1.290
    9ASN      N   82   4.737   3.268   1.441
    9ASN     HN   83   4.792   3.220   1.508
    9ASN     CA   84   4.599   3.223   1.426
    9ASN     HA   85   4.558   3.286   1.349
    9ASN     CB   86   4.587   3.081   1.358
    9ASN    HB1   87   4.626   3.009   1.433
    9ASN    HB2   88   4.655   3.065   1.271
    9ASN     CG   89   4.440   3.047   1.342
    9ASN    OD1   90   4.367   3.136   1.291
    9ASN    ND2   91   4.396   2.922   1.388
    9ASN   HD21   92   4.301   2.893   1.382
    9ASN   HD22   93   4.461   2.849   1.409
    9ASN      C   94   4.531   3.232   1.568
    9ASN      O   95   4.562   3.152   1.657
   10PRO      N   96   4.436   3.326   1.588
   10PRO     CD   97   4.429   3.447   1.500
   10PRO    HD1   98   4.369   3.423   1.410
   10PRO    HD2   99   4.529   3.495   1.485
   10PRO     CA  100   4.353   3.336   1.708
   10PRO     HA  101   4.421   3.363   1.787
   10PRO     CB  102   4.254   3.451   1.671
   10PRO    HB1  103   4.230   3.496   1.770
   10PRO    HB2  104   4.159   3.424   1.620
   10PRO     CG  105   4.346   3.542   1.588
   10PRO    HG1  106   4.289   3.620   1.535
   10PRO    HG2  107   4.416   3.589   1.660
   10PRO      C  108   4.279   3.203   1.745
   10PRO      O  109   4.203   3.154   1.671
   11GLY      N  110   4.302   3.155   1.872
   11GLY     HN  111   4.362   3.210   1.931
   11GLY     CA  112   4.213   3.050   1.929
   11GLY    HA1  113   4.253   3.011   2.022
   11GLY    HA2  114   4.200   2.980   1.847
   11GLY      C  115   4.077   3.090   1.967
   11GLY      O  116   4.038   3.201   1.944
   12SER      N  117   4.007   3.002   2.034
   12SER     HN  118   4.044   2.911   2.052
   12SER     CA  119   3.865   3.026   2.060
   12SER     HA  120   3.828   3.119   2.021
   12SER     CB  121   3.748   2.933   2.008
   12SER    HB1  122   3.732   2.966   1.903
   12SER    HB2  123   3.653   2.947   2.064
   12SER     OG  124   3.780   2.789   2.012
   12SER    HG1  125   3.753   2.757   2.098
   12SER      C  126   3.839   3.033   2.206
   12SER      O  127   3.782   3.125   2.257
   13GLY      N  128   3.874   2.930   2.284
   13GLY     HN  129   3.910   2.851   2.235
   13GLY     CA  130   3.842   2.922   2.430
   13GLY    HA1  131   3.850   3.019   2.476
   13GLY    HA2  132   3.912   2.853   2.475
   13GLY      C  133   3.698   2.880   2.466
   13GLY      O  134   3.608   2.900   2.387
   14ASP      N  135   3.675   2.817   2.580
   14ASP     HN  136   3.743   2.775   2.640
   14ASP     CA  137   3.542   2.781   2.630
   14ASP     HA  138   3.498   2.739   2.541
   14ASP     CB  139   3.540   2.679   2.748
   14ASP    HB1  140   3.439   2.684   2.795
   14ASP    HB2  141   3.610   2.700   2.831
   14ASP     CG  142   3.555   2.534   2.708
   14ASP    OD1  143   3.557   2.445   2.794
   14ASP    OD2  144   3.563   2.510   2.586
   14ASP      C  145   3.458   2.900   2.670
   14ASP      O  146   3.518   3.005   2.694
   15PRO      N  147   3.328   2.893   2.687
   15PRO     CD  148   3.248   2.791   2.626
   15PRO    HD1  149   3.209   2.719   2.701
   15PRO    HD2  150   3.308   2.734   2.552
   15PRO     CA  151   3.245   3.011   2.724
   15PRO     HA  152   3.270   3.096   2.663
   15PRO     CB  153   3.105   2.968   2.681
   15PRO    HB1  154   3.039   3.051   2.647
   15PRO    HB2  155   3.054   2.915   2.765
   15PRO     CG  156   3.133   2.872   2.565
   15PRO    HG1  157   3.053   2.799   2.539
   15PRO    HG2  158   3.171   2.927   2.476
   15PRO      C  159   3.259   3.049   2.863
   15PRO    OT1  160   3.234   2.967   2.955
   15PRO    OT2  161   3.304   3.166   2.891
   16SOD    SOD  162   5.019   4.548   0.931
   17SOD    SOD  163   1.233   3.097   1.443
   18SOD    SOD  164   2.510   6.623   3.502
   19SOD    SOD  165   7.207   4.878   5.063
   20SOD    SOD  166   2.952   2.787   3.162
   21SOD    SOD  167   6.162   0.756   5.590
   22SOD    SOD  168   4.615   4.558   5.146
   23SOD    SOD  169   1.198   7.511   3.468
   24SOD    SOD  170   1.165   6.630   0.552
   25SOD    SOD  171   5.092   6.990   5.770
   26SOD    SOD  172   2.206   4.518   4.444
   27SOD    SOD  173   1.070   3.558   4.347
   28SOD    SOD  174   7.219   1.881   4.968
   29SOD    SOD  175   0.423   7.128   0.168
   30SOD    SOD  176   2.751   0.163   5.607
   31SOD    SOD  177   2.864   2.384   1.669
   32SOD    SOD  178   5.800   1.655   4.517
   33SOD    SOD  179   6.201   5.354   2.174
   34SOD    SOD  180   7.152   5.860   6.418
   35SOD    SOD  181   6.973   5.372   0.854
   36SOD    SOD  182   1.313   4.718   0.416
   37SOD    SOD  183   0.185   5.075   5.118
   38SOD    SOD  184   6.273   2.013   5.716
   39SOD    SOD  185   2.921   3.422   3.337
   40SOD    SOD  186   3.387   3.635   6.363
   41SOD    SOD  187   7.182   1.191   2.357
   42SOD    SOD  188   6.928   5.527   4.082
   43SOD    SOD  189   6.587   2.990   4.448
   44SOD    SOD  190   8.260   1.875   5.907
   45SOD    SOD  191   2.997   2.587   0.406
   46SOD    SOD  192   2.412   3.723   5.978
   47SOD    SOD  193   4.393   6.622   2.786
   48SOD    SOD  194   3.586   0.132   3.844
   49SOD    SOD  195   0.132   2.297   2.701
   50SOD    SOD  196   4.171   3.527   4.727
   51SOD    SOD  197   5.125   3.821   0.238
   52SOD    SOD  198   4.189   4.991   6.540
   53SOD    SOD  199   4.857   0.693   0.352
   54SOD    SOD  200   1.009   5.251   2.107
   55SOD    SOD  201   1.089   6.646   2.567
   56SOD    SOD  202   2.150   3.533   4.801
   57SOD    SOD  203   7.825   0.527   6.386
   58SOD    SOD  204   8.298   7.189   0.724
   59SOD    SOD  205   2.760   4.247   3.472
   60CLA    CLA  206   1.155   7.215   2.527
   61CLA    CLA  207   2.080   7.736   4.825
   62CLA    CLA  208   1.290   1.282   6.192
   63CLA    CLA  209   2.600   1.614   1.017
   64CLA    CLA  210   6.478   2.376   6.462
   65CLA    CLA  211   7.903   4.726   5.927
   66CLA    CLA  212   7.664   2.680   6.645
   67CLA    CLA  213   7.114   0.544   4.026
   68CLA    CLA  214   3.753   4.023   4.580
   69CLA    CLA  215   2.909   4.331   0.650
   70CLA    CLA  216   7.926   2.148   3.987
   71CLA    CLA  217   2.275   6.935   4.694
   72CLA    CLA  218   7.027   0.179   6.469
   73CLA    CLA  219   0.354   4.151   3.562
   74CLA    CLA  220   7.318   5.737   5.117
   75CLA    CLA  221   7.733   2.394   0.511
   76CLA    CLA  222   1.329   6.728   5.870
   77CLA    CLA  223   6.113   6.865   1.366
   78CLA    CLA  224   2.731   1.398   5.545
   79CLA    CLA  225   4.458   4.327   2.108
   80CLA    CLA  226   7.709   0.514   0.914
   81CLA    CLA  227   4.671   1.772   4.178
   82CLA    CLA  228   1.066   2.889   5.238
   83CLA    CLA  229   7.142   6.173   6.047
   84CLA    CLA  230   6.730   4.838   4.815
   85CLA    CLA  231   5.075   4.308   1.351
   86CLA    CLA  232   6.863   6.835   2.790
   87CLA    CLA  233   2.568   5.064   1.143
   88CLA    CLA  234   8.240   5.615   3.281
   89CLA    CLA  235   3.546   0.332   4.789
   90CLA    CLA  236   4.962   6.316   3.158
   91CLA    CLA  237   5.465   6.239   1.374
   92CLA    CLA  238   0.453   2.554   2.470
   93CLA    CLA  239   6.771   6.092   3.355
   94CLA    CLA  240   3.194   4.515   4.082
   95CLA    CLA  241   1.967   4.481   4.599
   96CLA    CLA  242   2.347   6.826   4.054
   97CLA    CLA  243   0.379   2.176   3.964
   98CLA    CLA  244   6.877   5.203   3.331
   99CLA    CLA  245   3.819   5.110   4.948
  100CLA    CLA  246   4.694   6.745   5.891
  101CLA    CLA  247   5.844   2.129   4.580
  102TIP3   OH2  248   0.660   0.834   4.762
  102TIP3    H1  249   0.671   0.823   4.857
  102TIP3    H2  250   0.724   0.774   4.724
  103TIP3   OH2  251   2.905   2.988   4.467
  103TIP3    H1  252   2.990   2.947   4.452
  103TIP3    H2  253   2.905   3.065   4.410
  104TIP3   OH2  254   0.431   4.348  -0.026
  104TIP3    H1  255   0.408   4.433   0.010
  104TIP3    H2  256   0.473   4.301   0.047
  105TIP3   OH2  257   3.515   4.189   5.158
  105TIP3    H1  258   3.469   4.137   5.092
  105TIP3    H2  259   3.470   4.273   5.158
  106TIP3   OH2  260   6.317   3.815   1.020
  106TIP3    H1  261   6.269   3.750   0.969
  106TIP3    H2  262   6.325   3.890   0.962
  107TIP3   OH2  263   7.229   0.750   4.382
  107TIP3    H1  264   7.144   0.747   4.338
  107TIP3    H2  265   7.256   0.659   4.388
  108TIP3   OH2  266   5.760   1.183   4.852
  108TIP3    H1  267   5.746   1.242   4.926
  108TIP3    H2  268   5.822   1.230   4.796
  109TIP3   OH2  269   2.568   0.712   0.360
  109TIP3    H1  270   2.502   0.711   0.430
  109TIP3    H2  271   2.518   0.735   0.282
  110TIP3   OH2  272   6.787   7.478   3.156
  110TIP3    H1  273   6.882   7.473   3.165
  110TIP3    H2  274   6.767   7.426   3.078
  111TIP3   OH2  275   3.400   3.858   1.833
  111TIP3    H1  276   3.341   3.783   1.836
  111TIP3    H2  277   3.344   3.933   1.851
  112TIP3   OH2  278   0.128   7.135   1.379
  112TIP3    H1  279   0.217   7.149   1.411
  112TIP3    H2  280   0.073   7.136   1.457
  113TIP3   OH2  281   1.429   1.999   2.394
  113TIP3    H1  282   1.435   1.911   2.358
  113TIP3    H2  283   1.448   2.057   2.320
  114TIP3   OH2  284   4.836   0.802   0.558
  114TIP3    H1  285   4.812   0.890   0.588
  114TIP3    H2  286   4.827   0.747   0.637
  115TIP3   OH2  287   8.116   1.877   5.719
  115TIP3    H1  288   8.144   1.924   5.640
  115TIP3    H2  289   8.046   1.820   5.689
  116TIP3   OH2  290   6.761   6.345   5.046
  116TIP3    H1  291   6.759   6.266   4.992
  116TIP3    H2  292   6.807   6.410   4.993
  117TIP3   OH2  293   2.481   7.268   3.223
  117TIP3    H1  294   2.394   7.236   3.244
  117TIP3    H2  295   2.467   7.352   3.180
  118TIP3   OH2  296   2.299   7.670   4.342
  118TIP3    H1  297   2.287   7.575   4.348
  118TIP3    H2  298   2.278   7.702   4.429
  119TIP3   OH2  299   4.479  -0.009   5.516
  119TIP3    H1  300   4.544  -0.057   5.568
  119TIP3    H2  301   4.531   0.041   5.453
  120TIP3   OH2  302   4.051   3.201   2.652
  120TIP3    H1  303   4.008   3.255   2.586
  120TIP3    H2  304   4.014   3.230   2.735
  121TIP3   OH2  305   2.370   5.492   0.671
  121TIP3    H1  306   2.463   5.470   0.660
  121TIP3    H2  307   2.325   5.409   0.656
  122TIP3   OH2  308   4.665   4.229   6.792
  122TIP3    H1  309   4.656   4.141   6.828
  122TIP3    H2  310   4.740   4.224   6.733
  123TIP3   OH2  311   1.781   7.756   0.878
  123TIP3    H1  312   1.769   7.797   0.792
  123TIP3    H2  313   1.868   7.785   0.906
  124TIP3   OH2  314   6.073   0.269   6.545
  124TIP3    H1  315   6.082   0.192   6.601
  124TIP3    H2  316   6.048   0.340   6.605
  125TIP3   OH2  317   1.831   4.932   3.025
  125TIP3    H1  318   1.803   5.020   3.001
  125TIP3    H2  319   1.910   4.918   2.973
  126TIP3   OH2  320   6.612   6.111   6.107
  126TIP3    H1  321   6.677   6.150   6.166
  126TIP3    H2  322   6.663   6.057   6.047
  127TIP3   OH2  323   6.747   5.550   2.471
  127TIP3    H1  324   6.690   5.518   2.401
  127TIP3    H2  325   6.836   5.529   2.442
  128TIP3   OH2  326   8.326   6.814   2.721
  128TIP3    H1  327   8.237   6.847   2.729
  128TIP3    H2  328   8.382   6.890   2.739
  129TIP3   OH2  329   5.014   2.480   1.655
  129TIP3    H1  330   4.955   2.404   1.654
  129TIP3    H2  331   4.979   2.537   1.587
  130TIP3   OH2  332   4.440   3.069   6.042
  130TIP3    H1  333   4.380   3.144   6.035
  130TIP3    H2  334   4.443   3.049   6.135
  131TIP3   OH2  335   7.949   1.065   6.634
  131TIP3    H1  336   8.022   1.103   6.584
  131TIP3    H2  337   7.877   1.060   6.571
  132TIP3   OH2  338   0.568   5.245   0.255
  132TIP3    H1  339   0.557   5.319   0.315
  132TIP3    H2  340   0.642   5.269   0.201
  133TIP3   OH2  341   1.694   4.764   1.451
  133TIP3    H1  342   1.635   4.696   1.419
  133TIP3    H2  343   1.705   4.823   1.377
  134TIP3   OH2  344   4.834   3.245   3.635
  134TIP3    H1  345   4.742   3.265   3.620
  134TIP3    H2  346   4.834   3.194   3.716
  135TIP3   OH2  347   2.846   3.601   5.573
  135TIP3    H1  348   2.802   3.623   5.655
  135TIP3    H2  349   2.921   3.548   5.599
  136TIP3   OH2  350   0.511   5.965   0.887
  136TIP3    H1  351   0.416   5.966   0.873
  136TIP3    H2  352   0.548   5.940   0.802
  137TIP3   OH2  353   6.000   2.429   5.998
  137TIP3    H1  354   5.958   2.383   5.926
  137TIP3    H2  355   5.999   2.366   6.070
  138TIP3   OH2  356   3.254   7.664   5.645
  138TIP3    H1  357   3.184   7.605   5.672
  138TIP3    H2  358   3.283   7.705   5.726
  139TIP3   OH2  359   6.221   4.560   3.501
  139TIP3    H1  360   6.175   4.638   3.532
  139TIP3    H2  361   6.289   4.545   3.566
  140TIP3   OH2  362   0.657   2.786   1.203
  140TIP3    H1  363   0.603   2.738   1.267
  140TIP3    H2  364   0.607   2.780   1.121
  141TIP3   OH2  365   0.599   4.089   5.835
  141TIP3    H1  366   0.635   4.028   5.771
  141TIP3    H2  367   0.504   4.077   5.828
  142TIP3   OH2  368   1.428   4.097   3.084
  142TIP3    H1  369   1.465   4.170   3.036
  142TIP3    H2  370   1.450   4.115   3.176
  143TIP3   OH2  371   6.610   1.853   4.393
  143TIP3    H1  372   6.650   1.910   4.326
  143TIP3    H2  373   6.675   1.784   4.406
  144TIP3   OH2  374   7.628   7.443   3.931
  144TIP3    H1  375   7.704   7.477   3.977
  144TIP3    H2  376   7.665   7.388   3.862
  145TIP3   OH2  377   7.762   4.284   0.742
  145TIP3    H1  378   7.839   4.341   0.735
  145TIP3    H2  379   7.770   4.223   0.669
  146TIP3   OH2  380   6.055   6.817   3.268
  146TIP3    H1  381   5.995   6.781   3.333
  146TIP3    H2  382   6.102   6.740   3.235
  147TIP3   OH2  383   7.407   0.413   6.018
  147TIP3    H1  384   7.359   0.484   6.060
  147TIP3    H2  385   7.347   0.339   6.018
  148TIP3   OH2  386   0.687   1.948   2.750
  148TIP3    H1  387   0.595   1.951   2.722
  148TIP3    H2  388   0.700   2.029   2.800
  149TIP3   OH2  389   2.360   7.284   0.480
  149TIP3    H1  390   2.409   7.340   0.540
  149TIP3    H2  391   2.268   7.302   0.500
  150TIP3   OH2  392   2.026   2.858   4.386
  150TIP3    H1  393   1.954   2.917   4.364
  150TIP3    H2  394   2.028   2.795   4.314
  151TIP3   OH2  395   6.489   1.897   1.547
  151TIP3    H1  396   6.484   1.991   1.562
  151TIP3    H2  397   6.568   1.869   1.592
  152TIP3   OH2  398   8.087   1.745   4.041
  152TIP3    H1  399   8.178   1.735   4.014
  152TIP3    H2  400   8.089   1.818   4.104
  153TIP3   OH2  401   2.324   4.889   4.780
  153TIP3    H1  402   2.239   4.849   4.798
  153TIP3    H2  403   2.306   4.958   4.716
  154TIP3   OH2  404   2.895   6.056   5.713
  154TIP3    H1  405   2.867   5.967   5.733
  154TIP3    H2  406   2.874   6.106   5.792
  155TIP3   OH2  407   2.406   5.000   3.768
  155TIP3    H1  408   2.417   5.023   3.860
  155TIP3    H2  409   2.489   5.026   3.727
  156TIP3   OH2  410   7.530   7.690   6.694
  156TIP3    H1  411   7.541   7.597   6.715
  156TIP3    H2  412   7.459   7.692   6.630
  157TIP3   OH2  413   7.392   5.937   2.533
  157TIP3    H1  414   7.402   6.025   2.497
  157TIP3    H2  415   7.298   5.920   2.529
  158TIP3   OH2  416   7.888   5.526   5.720
  158TIP3    H1  417   7.947   5.560   5.652
  158TIP3    H2  418   7.943   5.517   5.797
  159TIP3   OH2  419   7.797   2.416   1.755
  159TIP3    H1  420   7.773   2.365   1.833
  159TIP3    H2  421   7.872   2.370   1.719
  160TIP3   OH2  422   5.340   5.626   0.962
  160TIP3    H1  423   5.356   5.715   0.930
  160TIP3    H2  424   5.254   5.631   1.003
  161TIP3   OH2  425   3.820   2.590   0.189
  161TIP3    H1  426   3.725   2.589   0.179
  161TIP3    H2  427   3.836   2.541   0.270
  162TIP3   OH2  428   4.787   4.278   5.971
  162TIP3    H1  429   4.786   4.334   5.894
  162TIP3    H2  430   4.698   4.285   6.006
  163TIP3   OH2  431   6.850   6.400   4.115
  163TIP3    H1  432   6.827   6.454   4.039
  163TIP3    H2  433   6.765   6.369   4.148
  164TIP3   OH2  434   1.929   5.277   3.122
  164TIP3    H1  435   1.884   5.311   3.200
  164TIP3    H2  436   1.933   5.351   3.062
  165TIP3   OH2  437   7.455   4.597   2.579
  165TIP3    H1  438   7.406   4.676   2.598
  165TIP3    H2  439   7.410   4.528   2.627
  166TIP3   OH2  440   7.892   7.144   4.336
  166TIP3    H1  441   7.961   7.077   4.334
  166TIP3    H2  442   7.905   7.193   4.255
  167TIP3   OH2  443   4.208   2.486   4.015
  167TIP3    H1  444   4.303   2.499   4.018
  167TIP3    H2  445   4.197   2.405   3.964
  168TIP3   OH2  446   3.693   1.313   2.527
  168TIP3    H1  447   3.778   1.327   2.486
  168TIP3    H2  448   3.629   1.335   2.458
  169TIP3   OH2  449   5.306   7.484   1.279
  169TIP3    H1  450   5.303   7.579   1.287
  169TIP3    H2  451   5.364   7.467   1.205
  170TIP3   OH2  452   4.111   3.535   3.949
  170TIP3    H1  453   4.073   3.607   3.899
  170TIP3    H2  454   4.036   3.490   3.988
  171TIP3   OH2  455   5.173   7.777   5.976
  171TIP3    H1  456   5.096   7.769   5.920
  171TIP3    H2  457   5.230   7.839   5.931
  172TIP3   OH2  458   4.844   2.086   4.355
  172TIP3    H1  459   4.781   2.031   4.309
  172TIP3    H2  460   4.849   2.167   4.304
  173TIP3   OH2  461   6.466   3.201   0.067
  173TIP3    H1  462   6.553   3.177   0.034
  173TIP3    H2  463   6.450   3.141   0.140
  174TIP3   OH2  464   4.034   2.468   5.769
  174TIP3    H1  465   4.028   2.391   5.825
  174TIP3    H2  466   4.014   2.541   5.826
  175TIP3   OH2  467   0.752   0.412   4.282
  175TIP3    H1  468   0.731   0.321   4.304
  175TIP3    H2  469   0.704   0.464   4.346
  176TIP3   OH2  470   7.323   0.377   0.958
  176TIP3    H1  471   7.279   0.301   0.996
  176TIP3    H2  472   7.252   0.437   0.937
  177TIP3   OH2  473   3.693   1.182   4.693
  177TIP3    H1  474   3.717   1.102   4.644
  177TIP3    H2  475   3.612   1.211   4.652
  178TIP3   OH2  476   6.047   2.335   1.004
  178TIP3    H1  477   5.995   2.268   0.960
  178TIP3    H2  478   6.070   2.397   0.935
  179TIP3   OH2  479   8.118   0.151   1.063
  179TIP3    H1  480   8.114   0.196   1.148
  179TIP3    H2  481   8.069   0.208   1.004
  180TIP3   OH2  482   5.682   4.872   6.034
  180TIP3    H1  483   5.764   4.864   6.082
  180TIP3    H2  484   5.653   4.962   6.052
  181TIP3   OH2  485   7.213  -0.027   0.274
  181TIP3    H1  486   7.205   0.051   0.329
  181TIP3    H2  487   7.180   0.001   0.189
  182TIP3   OH2  488   4.266   0.110   0.303
  182TIP3    H1  489   4.223   0.194   0.318
  182TIP3    H2  490   4.221   0.049   0.360
  183TIP3   OH2  491   7.647   2.359   1.157
  183TIP3    H1  492   7.566   2.309   1.149
  183TIP3    H2  493   7.625   2.446   1.124
  184TIP3   OH2  494   3.244   4.644   2.140
  184TIP3    H1  495   3.174   4.680   2.195
  184TIP3    H2  496   3.296   4.720   2.114
  185TIP3   OH2  497   5.420   1.648   2.494
  185TIP3    H1  498   5.382   1.576   2.443
  185TIP3    H2  499   5.508   1.617   2.517
  186TIP3   OH2  500   3.837   5.674   2.193
  186TIP3    H1  501   3.754   5.653   2.235
  186TIP3    H2  502   3.819   5.665   2.099
  187TIP3   OH2  503   4.139   1.243   2.254
  187TIP3    H1  504   4.117   1.335   2.268
  187TIP3    H2  505   4.104   1.223   2.167
  188TIP3   OH2  506   4.996   3.278   5.063
  188TIP3    H1  507   4.984   3.257   5.156
  188TIP3    H2  508   4.979   3.196   5.018
  189TIP3   OH2  509   3.761   4.311   3.546
  189TIP3    H1  510   3.831   4.252   3.573
  189TIP3    H2  511   3.703   4.316   3.623
  190TIP3   OH2  512   5.218   6.363   6.364
  190TIP3    H1  513   5.302   6.382   6.406
  190TIP3    H2  514   5.182   6.291   6.416
  191TIP3   OH2  515   2.704   6.309   0.447
  191TIP3    H1  516   2.754   6.377   0.494
  191TIP3    H2  517   2.754   6.293   0.368
  192TIP3   OH2  518   1.222   4.290   2.764
  192TIP3    H1  519   1.139   4.335   2.780
  192TIP3    H2  520   1.242   4.309   2.672
  193TIP3   OH2  521   5.530   6.021   4.400
  193TIP3    H1  522   5.562   6.053   4.485
  193TIP3    H2  523   5.592   5.952   4.377
  194TIP3   OH2  524   6.467   4.688   1.751
  194TIP3    H1  525   6.562   4.678   1.754
  194TIP3    H2  526   6.449   4.767   1.801
  195TIP3   OH2  527   0.164   3.670   1.135
  195TIP3    H1  528   0.122   3.656   1.220
  195TIP3    H2  529   0.140   3.759   1.110
  196TIP3   OH2  530   5.258   5.354   1.265
  196TIP3    H1  531   5.174   5.397   1.247
  196TIP3    H2  532   5.246   5.313   1.350
  197TIP3   OH2  533   7.194   1.412   2.964
  197TIP3    H1  534   7.238   1.497   2.967
  197TIP3    H2  535   7.246   1.356   3.021
  198TIP3   OH2  536   6.962   0.405   2.265
  198TIP3    H1  537   6.991   0.413   2.355
  198TIP3    H2  538   6.941   0.312   2.254
  199TIP3   OH2  539   5.022   1.900   6.698
  199TIP3    H1  540   4.993   1.812   6.720
  199TIP3    H2  541   5.097   1.915   6.756
  200TIP3   OH2  542   7.144   2.084   1.239
  200TIP3    H1  543   7.129   2.099   1.146
  200TIP3    H2  544   7.063   2.045   1.271
  201TIP3   OH2  545   5.467   5.640   1.187
  201TIP3    H1  546   5.390   5.644   1.244
  201TIP3    H2  547   5.431   5.638   1.099
  202TIP3   OH2  548   4.896   2.716   6.278
  202TIP3    H1  549   4.928   2.673   6.358
  202TIP3    H2  550   4.963   2.783   6.260
  203TIP3   OH2  551   6.683   5.096   3.990
  203TIP3    H1  552   6.766   5.096   3.942
  203TIP3    H2  553   6.619   5.062   3.928
  204TIP3   OH2  554   0.432   5.561   6.057
  204TIP3    H1  555   0.367   5.630   6.072
  204TIP3    H2  556   0.512   5.608   6.032
  205TIP3   OH2  557   1.908   5.477   2.937
  205TIP3    H1  558   1.903   5.550   2.999
  205TIP3    H2  559   1.879   5.513   2.854
  206TIP3   OH2  560   1.814   0.715   5.646
  206TIP3    H1  561   1.873   0.723   5.721
  206TIP3    H2  562   1.862   0.756   5.574
  207TIP3   OH2  563   7.232   3.123   6.086
  207TIP3    H1  564   7.284   3.043   6.079
  207TIP3    H2  565   7.179   3.124   6.006
  208TIP3   OH2  566   6.352   6.398   1.694
  208TIP3    H1  567   6.343   6.412   1.600
  208TIP3    H2  568   6.274   6.346   1.718
  209TIP3   OH2  569   0.929   4.172   3.865
  209TIP3    H1  570   0.858   4.133   3.916
  209TIP3    H2  571   0.922   4.266   3.883
  210TIP3   OH2  572   0.990   1.625   6.596
  210TIP3    H1  573   1.053   1.554   6.607
  210TIP3    H2  574   1.024   1.696   6.650
  211TIP3   OH2  575   3.166   7.539   2.967
  211TIP3    H1  576   3.164   7.458   2.916
  211TIP3    H2  577   3.115   7.518   3.046
  212TIP3   OH2  578   4.944   5.651   3.815
  212TIP3    H1  579   4.965   5.580   3.876
  212TIP3    H2  580   4.982   5.729   3.855
  213TIP3   OH2  581   5.479   1.297   1.583
  213TIP3    H1  582   5.427   1.253   1.650
  213TIP3    H2  583   5.518   1.226   1.532
  214TIP3   OH2  584   0.866   2.085   6.779
  214TIP3    H1  585   0.776   2.055   6.764
  214TIP3    H2  586   0.890   2.047   6.864
  215TIP3   OH2  587   0.095   0.934   1.280
  215TIP3    H1  588   0.185   0.936   1.314
  215TIP3    H2  589   0.104   0.958   1.187
  216TIP3   OH2  590   6.726   2.555   3.161
  216TIP3    H1  591   6.785   2.595   3.098
  216TIP3    H2  592   6.639   2.582   3.133
  217TIP3   OH2  593   1.402   6.763   1.589
  217TIP3    H1  594   1.350   6.844   1.584
  217TIP3    H2  595   1.405   6.731   1.499
  218TIP3   OH2  596   0.762   0.657   0.702
  218TIP3    H1  597   0.819   0.621   0.771
  218TIP3    H2  598   0.692   0.702   0.750
  219TIP3   OH2  599   0.288   7.203   2.367
  219TIP3    H1  600   0.213   7.188   2.309
  219TIP3    H2  601   0.354   7.241   2.310
  220TIP3   OH2  602   7.116   4.319   4.134
  220TIP3    H1  603   7.051   4.378   4.096
  220TIP3    H2  604   7.181   4.377   4.174
  221TIP3   OH2  605   2.547   3.921   3.281
  221TIP3    H1  606   2.509   4.008   3.293
  221TIP3    H2  607   2.631   3.925   3.326
  222TIP3   OH2  608   2.680   1.921   0.493
  222TIP3    H1  609   2.595   1.923   0.449
  222TIP3    H2  610   2.670   1.856   0.563
  223TIP3   OH2  611   4.862   4.892   4.417
  223TIP3    H1  612   4.953   4.909   4.396
  223TIP3    H2  613   4.812   4.948   4.358
  224TIP3   OH2  614   2.474   6.534   2.721
  224TIP3    H1  615   2.532   6.601   2.757
  224TIP3    H2  616   2.495   6.532   2.627
  225TIP3   OH2  617   1.842   5.032   4.256
  225TIP3    H1  618   1.772   5.098   4.259
  225TIP3    H2  619   1.923   5.083   4.254
  226TIP3   OH2  620   7.679   6.069   6.488
  226TIP3    H1  621   7.717   6.001   6.543
  226TIP3    H2  622   7.659   6.025   6.405
  227TIP3   OH2  623   6.934   2.298   0.397
  227TIP3    H1  624   7.011   2.285   0.341
  227TIP3    H2  625   6.863   2.253   0.352
  228TIP3   OH2  626   2.799   7.291   6.740
  228TIP3    H1  627   2.818   7.267   6.831
  228TIP3    H2  628   2.885   7.289   6.697
  229TIP3   OH2  629   1.019   0.133   0.947
  229TIP3    H1  630   1.062   0.079   0.881
  229TIP3    H2  631   1.079   0.207   0.960
  230TIP3   OH2  632   1.265   6.019   2.763
  230TIP3    H1  633   1.233   5.936   2.729
  230TIP3    H2  634   1.191   6.056   2.812
  231TIP3   OH2  635   3.624   4.873   5.044
  231TIP3    H1  636   3.668   4.833   5.120
  231TIP3    H2  637   3.680   4.948   5.022
  232TIP3   OH2  638   4.690   1.697   4.485
  232TIP3    H1  639   4.680   1.723   4.393
  232TIP3    H2  640   4.648   1.610   4.489
  233TIP3   OH2  641   2.178   3.812   2.651
  233TIP3    H1  642   2.090   3.795   2.618
  233TIP3    H2  643   2.165   3.867   2.728
  234TIP3   OH2  644   6.987   1.989   0.103
  234TIP3    H1  645   7.016   1.898   0.100
  234TIP3    H2  646   6.891   1.984   0.105
  235TIP3   OH2  647   1.156   3.364   3.615
  235TIP3    H1  648   1.093   3.435   3.625
  235TIP3    H2  649   1.103   3.284   3.617
  236TIP3   OH2  650   5.287   1.366   4.240
  236TIP3    H1  651   5.203   1.335   4.273
  236TIP3    H2  652   5.352   1.328   4.300
  237TIP3   OH2  653   4.257   7.040   4.503
  237TIP3    H1  654   4.263   6.998   4.418
  237TIP3    H2  655   4.297   7.126   4.491
  238TIP3   OH2  656   0.122   3.670   4.623
  238TIP3    H1  657   0.197   3.723   4.649
  238TIP3    H2  658   0.150   3.626   4.543
  239TIP3   OH2  659   0.936   4.828   1.685
  239TIP3    H1  660   0.861   4.779   1.651
  239TIP3    H2  661   0.991   4.843   1.608
  240TIP3   OH2  662   0.591   0.217   1.121
  240TIP3    H1  663   0.589   0.288   1.056
  240TIP3    H2  664   0.503   0.181   1.120
  241TIP3   OH2  665   4.225   2.489   0.257
  241TIP3    H1  666   4.138   2.498   0.219
  241TIP3    H2  667   4.222   2.543   0.336
  242TIP3   OH2  668   3.968   5.861   3.368
  242TIP3    H1  669   4.042   5.839   3.311
  242TIP3    H2  670   3.976   5.800   3.441
  243TIP3   OH2  671   1.101   2.642   2.102
  243TIP3    H1  672   1.147   2.558   2.100
  243TIP3    H2  673   1.010   2.619   2.119
  244TIP3   OH2  674   1.518   1.582   3.304
  244TIP3    H1  675   1.559   1.545   3.226
  244TIP3    H2  676   1.589   1.627   3.349
  245TIP3   OH2  677   7.143   5.971   1.432
  245TIP3    H1  678   7.111   5.887   1.466
  245TIP3    H2  679   7.160   6.023   1.511
  246TIP3   OH2  680   2.637   0.351   1.196
  246TIP3    H1  681   2.626   0.369   1.289
  246TIP3    H2  682   2.576   0.410   1.152
  247TIP3   OH2  683   7.218   3.767   4.670
  247TIP3    H1  684   7.162   3.797   4.742
  247TIP3    H2  685   7.203   3.832   4.601
  248TIP3   OH2  686   5.407   7.025   1.340
  248TIP3    H1  687   5.413   7.093   1.273
  248TIP3    H2  688   5.445   7.065   1.419
  249TIP3   OH2  689   4.683   1.547   3.440
  249TIP3    H1  690   4.603   1.563   3.489
  249TIP3    H2  691   4.679   1.608   3.366
  250TIP3   OH2  692   5.069   7.707   4.777
  250TIP3    H1  693   5.045   7.627   4.823
  250TIP3    H2  694   5.159   7.725   4.804
  251TIP3   OH2  695   6.031   0.207   5.793
  251TIP3    H1  696   5.991   0.238   5.875
  251TIP3    H2  697   6.104   0.152   5.821
  252TIP3   OH2  698   2.618   3.247   6.649
  252TIP3    H1  699   2.675   3.191   6.597
  252TIP3    H2  700   2.598   3.321   6.591
  253TIP3   OH2  701   7.928   2.237   3.020
  253TIP3    H1  702   7.878   2.264   3.098
  253TIP3    H2  703   7.933   2.141   3.027
  254TIP3   OH2  704   3.690   6.846   2.861
  254TIP3    H1  705   3.700   6.810   2.773
  254TIP3    H2  706   3.651   6.933   2.848
  255TIP3   OH2  707   0.080   2.990   6.312
  255TIP3    H1  708   0.137   2.985   6.236
  255TIP3    H2  709   0.058   3.083   6.320
  256TIP3   OH2  710   6.885   4.369   3.981
  256TIP3    H1  711   6.907   4.282   4.014
  256TIP3    H2  712   6.815   4.400   4.039
  257TIP3   OH2  713   6.030   2.590   5.709
  257TIP3    H1  714   6.074   2.626   5.786
  257TIP3    H2  715   6.062   2.643   5.636
  258TIP3   OH2  716   5.548   6.534   1.355
  258TIP3    H1  717   5.601   6.532   1.436
  258TIP3    H2  718   5.515   6.445   1.346
  259TIP3   OH2  719   5.551   1.878   2.617
  259TIP3    H1  720   5.524   1.890   2.526
  259TIP3    H2  721   5.511   1.796   2.644
  260TIP3   OH2  722   5.058   4.363   2.753
  260TIP3    H1  723   5.030   4.426   2.820
  260TIP3    H2  724   5.067   4.281   2.801
  261TIP3   OH2  725   2.109   1.625   2.958
  261TIP3    H1  726   2.082   1.665   2.876
  261TIP3    H2  727   2.174   1.685   2.995
  262TIP3   OH2  728   7.532   5.614   2.725
  262TIP3    H1  729   7.445   5.597   2.689
  262TIP3    H2  730   7.562   5.693   2.680
  263TIP3   OH2  731   7.290   4.520   4.217
  263TIP3    H1  732   7.351   4.553   4.151
  263TIP3    H2  733   7.226   4.590   4.227
  264TIP3   OH2  734   7.469   0.040   1.876
  264TIP3    H1  735   7.541   0.084   1.922
  264TIP3    H2  736   7.487   0.055   1.783
  265TIP3   OH2  737   3.038   6.347   3.936
  265TIP3    H1  738   3.068   6.381   3.852
  265TIP3    H2  739   2.951   6.311   3.919
  266TIP3   OH2  740   6.547   2.550   6.725
  266TIP3    H1  741   6.576   2.635   6.693
  266TIP3    H2  742   6.550   2.493   6.648
  267TIP3   OH2  743   3.148   6.570   2.281
  267TIP3    H1  744   3.104   6.540   2.201
  267TIP3    H2  745   3.139   6.496   2.342
  268TIP3   OH2  746   7.799   4.888   1.972
  268TIP3    H1  747   7.802   4.815   1.911
  268TIP3    H2  748   7.891   4.911   1.987
  269TIP3   OH2  749   7.970   3.039   6.512
  269TIP3    H1  750   7.950   3.115   6.568
  269TIP3    H2  751   8.010   2.975   6.571
  270TIP3   OH2  752   1.264   6.145   4.750
  270TIP3    H1  753   1.322   6.145   4.674
  270TIP3    H2  754   1.176   6.153   4.712
  271TIP3   OH2  755   2.234   2.902   4.173
  271TIP3    H1  756   2.223   2.893   4.267
  271TIP3    H2  757   2.159   2.857   4.135
  272TIP3   OH2  758   0.707   0.103   6.171
  272TIP3    H1  759   0.769   0.031   6.180
  272TIP3    H2  760   0.761   0.182   6.169
  273TIP3   OH2  761   0.333   0.103   3.624
  273TIP3    H1  762   0.424   0.078   3.615
  273TIP3    H2  763   0.287   0.055   3.555
  274TIP3   OH2  764   2.885   7.656   6.386
  274TIP3    H1  765   2.974   7.650   6.352
  274TIP3    H2  766   2.896   7.661   6.481
  275TIP3   OH2  767   2.221   3.698   5.838
  275TIP3    H1  768   2.189   3.608   5.846
  275TIP3    H2  769   2.156   3.742   5.783
  276TIP3   OH2  770   1.979   5.243   2.763
  276TIP3    H1  771   2.005   5.165   2.811
  276TIP3    H2  772   1.986   5.314   2.827
  277TIP3   OH2  773   5.665   1.571   6.056
  277TIP3    H1  774   5.640   1.509   5.987
  277TIP3    H2  775   5.603   1.553   6.128
  278TIP3   OH2  776   0.088   6.262   0.814
  278TIP3    H1  777   0.125   6.239   0.729
  278TIP3    H2  778   0.060   6.353   0.804
  279TIP3   OH2  779   0.901   3.372   6.314
  279TIP3    H1  780   0.821   3.423   6.328
  279TIP3    H2  781   0.955   3.390   6.391
  280TIP3   OH2  782   7.474   7.444   5.838
  280TIP3    H1  783   7.411   7.510   5.869
  280TIP3    H2  784   7.559   7.480   5.863
  281TIP3   OH2  785   0.269   3.249   3.658
  281TIP3    H1  786   0.210   3.200   3.602
  281TIP3    H2  787   0.213   3.312   3.704
  282TIP3   OH2  788   1.831   0.483   6.321
  282TIP3    H1  789   1.789   0.504   6.238
  282TIP3    H2  790   1.895   0.416   6.299
  283TIP3   OH2  791   5.221   4.549   4.758
  283TIP3    H1  792   5.177   4.634   4.751
  283TIP3    H2  793   5.214   4.511   4.670
  284TIP3   OH2  794   7.304   4.098   4.777
  284TIP3    H1  795   7.341   4.070   4.693
  284TIP3    H2  796   7.253   4.176   4.756
  285TIP3   OH2  797   3.875   0.410   1.069
  285TIP3    H1  798   3.856   0.432   0.978
  285TIP3    H2  799   3.860   0.492   1.117
  286TIP3   OH2  800   1.684   3.428   4.663
  286TIP3    H1  801   1.655   3.480   4.588
  286TIP3    H2  802   1.626   3.352   4.663
  287TIP3   OH2  803   5.644   0.434   5.822
  287TIP3    H1  804   5.655   0.343   5.850
  287TIP3    H2  805   5.675   0.486   5.896
  288TIP3   OH2  806   3.132   4.267   0.399
  288TIP3    H1  807   3.104   4.334   0.335
  288TIP3    H2  808   3.082   4.288   0.478
  289TIP3   OH2  809   0.996   0.587   3.337
  289TIP3    H1  810   0.927   0.654   3.326
  289TIP3    H2  811   1.017   0.591   3.430
  290TIP3   OH2  812   0.318   3.896   4.782
  290TIP3    H1  813   0.320   3.912   4.876
  290TIP3    H2  814   0.407   3.916   4.752
  291TIP3   OH2  815   4.172   6.252   1.742
  291TIP3    H1  816   4.112   6.324   1.758
  291TIP3    H2  817   4.125   6.196   1.679
  292TIP3   OH2  818   1.259   7.481   2.655
  292TIP3    H1  819   1.208   7.409   2.617
  292TIP3    H2  820   1.345   7.444   2.671
  293TIP3   OH2  821   1.348   6.135   2.035
  293TIP3    H1  822   1.381   6.140   1.945
  293TIP3    H2  823   1.262   6.177   2.032
  294TIP3   OH2  824   7.368   5.114   6.000
  294TIP3    H1  825   7.376   5.132   6.094
  294TIP3    H2  826   7.420   5.182   5.958
  295TIP3   OH2  827   1.880   6.186   2.923
  295TIP3    H1  828   1.813   6.211   2.859
  295TIP3    H2  829   1.896   6.265   2.974
  296TIP3   OH2  830   0.158   4.560   5.621
  296TIP3    H1  831   0.070   4.597   5.632
  296TIP3    H2  832   0.155   4.517   5.536
  297TIP3   OH2  833   2.721   1.007   2.079
  297TIP3    H1  834   2.644   0.954   2.059
  297TIP3    H2  835   2.686   1.096   2.091
  298TIP3   OH2  836   4.260   2.487   1.273
  298TIP3    H1  837   4.172   2.499   1.237
  298TIP3    H2  838   4.287   2.401   1.244
  299TIP3   OH2  839   3.536   2.591   3.443
  299TIP3    H1  840   3.529   2.495   3.438
  299TIP3    H2  841   3.549   2.610   3.535
  300TIP3   OH2  842   0.611   1.548   1.979
  300TIP3    H1  843   0.588   1.636   1.948
  300TIP3    H2  844   0.527   1.509   2.004
  301TIP3   OH2  845   1.873   2.911   5.334
  301TIP3    H1  846   1.919   2.982   5.378
  301TIP3    H2  847   1.835   2.952   5.256
  302TIP3   OH2  848   8.223   4.002   2.693
  302TIP3    H1  849   8.257   4.071   2.750
  302TIP3    H2  850   8.301   3.956   2.662
  303TIP3   OH2  851   7.617   4.721   5.303
  303TIP3    H1  852   7.657   4.681   5.380
  303TIP3    H2  853   7.646   4.666   5.230
  304TIP3   OH2  854   2.912   3.918   5.663
  304TIP3    H1  855   2.847   3.927   5.593
  304TIP3    H2  856   2.874   3.852   5.722
  305TIP3   OH2  857   0.240   5.668   0.559
  305TIP3    H1  858   0.330   5.661   0.527
  305TIP3    H2  859   0.195   5.720   0.493
  306TIP3   OH2  860   3.254   4.227   1.211
  306TIP3    H1  861   3.221   4.310   1.177
  306TIP3    H2  862   3.189   4.162   1.186
  307TIP3   OH2  863   3.626   1.620   1.287
  307TIP3    H1  864   3.557   1.586   1.229
  307TIP3    H2  865   3.668   1.689   1.236
  308TIP3   OH2  866   5.948   7.795   1.999
  308TIP3    H1  867   5.899   7.770   2.078
  308TIP3    H2  868   6.008   7.863   2.028
  309TIP3   OH2  869   1.282   1.999   0.260
  309TIP3    H1  870   1.353   1.963   0.314
  309TIP3    H2  871   1.306   2.091   0.248
  310TIP3   OH2  872   5.071   3.084   1.408
  310TIP3    H1  873   5.124   3.164   1.415
  310TIP3    H2  874   5.006   3.092   1.477
  311TIP3   OH2  875   5.760   6.521   0.877
  311TIP3    H1  876   5.680   6.571   0.861
  311TIP3    H2  877   5.732   6.445   0.929
  312TIP3   OH2  878   3.110   7.103   3.047
  312TIP3    H1  879   3.104   7.112   2.952
  312TIP3    H2  880   3.097   7.010   3.064
  313TIP3   OH2  881   7.380   6.915   4.009
  313TIP3    H1  882   7.414   7.000   4.036
  313TIP3    H2  883   7.414   6.902   3.920
  314TIP3   OH2  884   1.200   6.442   3.489
  314TIP3    H1  885   1.247   6.498   3.427
  314TIP3    H2  886   1.127   6.497   3.519
  315TIP3   OH2  887   1.013   2.653   4.376
  315TIP3    H1  888   1.051   2.740   4.363
  315TIP3    H2  889   0.934   2.653   4.321
  316TIP3   OH2  890   3.681   0.163   0.985
  316TIP3    H1  891   3.710   0.096   1.047
  316TIP3    H2  892   3.730   0.145   0.905
  317TIP3   OH2  893   2.279   6.833   2.875
  317TIP3    H1  894   2.332   6.886   2.815
  317TIP3    H2  895   2.194   6.877   2.878
  318TIP3   OH2  896   7.980   3.485   3.121
  318TIP3    H1  897   7.988   3.423   3.194
  318TIP3    H2  898   7.891   3.470   3.087
  319TIP3   OH2  899   7.765   1.871   4.305
  319TIP3    H1  900   7.844   1.892   4.354
  319TIP3    H2  901   7.732   1.791   4.345
  320TIP3   OH2  902   5.594   7.400   4.006
  320TIP3    H1  903   5.627   7.476   3.957
  320TIP3    H2  904   5.533   7.357   3.946
  321TIP3   OH2  905   6.009   4.231   0.414
  321TIP3    H1  906   6.042   4.144   0.439
  321TIP3    H2  907   6.084   4.274   0.374
  322TIP3   OH2  908   3.795   1.242   5.126
  322TIP3    H1  909   3.720   1.254   5.067
  322TIP3    H2  910   3.762   1.268   5.212
  323TIP3   OH2  911   8.078   4.466   4.120
  323TIP3    H1  912   8.059   4.406   4.048
  323TIP3    H2  913   8.054   4.552   4.087
  324TIP3   OH2  914   6.399   4.638   4.338
  324TIP3    H1  915   6.462   4.663   4.405
  324TIP3    H2  916   6.439   4.668   4.256
  325TIP3   OH2  917   3.667   5.634   3.235
  325TIP3    H1  918   3.690   5.590   3.153
  325TIP3    H2  919   3.673   5.565   3.302
  326TIP3   OH2  920   0.288   3.023   3.058
  326TIP3    H1  921   0.258   3.095   3.003
  326TIP3    H2  922   0.316   2.956   2.997
  327TIP3   OH2  923   2.758   4.560   4.430
  327TIP3    H1  924   2.755   4.571   4.525
  327TIP3    H2  925   2.848   4.531   4.412
  328TIP3   OH2  926   3.198   1.272   4.168
  328TIP3    H1  927   3.167   1.185   4.192
  328TIP3    H2  928   3.248   1.302   4.244
  329TIP3   OH2  929   1.120   4.787   1.070
  329TIP3    H1  930   1.187   4.804   1.135
  329TIP3    H2  931   1.154   4.825   0.989
  330TIP3   OH2  932   2.862   1.214   4.560
  330TIP3    H1  933   2.957   1.222   4.568
  330TIP3    H2  934   2.831   1.305   4.559
  331TIP3   OH2  935   4.225   1.902   1.134
  331TIP3    H1  936   4.274   1.956   1.072
  331TIP3    H2  937   4.148   1.874   1.086
  332TIP3   OH2  938   1.723   4.408   0.697
  332TIP3    H1  939   1.687   4.372   0.778
  332TIP3    H2  940   1.702   4.344   0.630
  333TIP3   OH2  941   7.938   5.895   2.690
  333TIP3    H1  942   7.861   5.886   2.747
  333TIP3    H2  943   7.914   5.965   2.629
  334TIP3   OH2  944   3.229   2.698   3.929
  334TIP3    H1  945   3.308   2.687   3.877
  334TIP3    H2  946   3.172   2.625   3.904
  335TIP3   OH2  947   7.271   3.550   0.255
  335TIP3    H1  948   7.235   3.476   0.206
  335TIP3    H2  949   7.363   3.526   0.271
  336TIP3   OH2  950   5.811   4.642   0.711
  336TIP3    H1  951   5.721   4.624   0.686
  336TIP3    H2  952   5.815   4.737   0.720
  337TIP3   OH2  953   0.971   4.011   2.302
  337TIP3    H1  954   0.961   4.105   2.285
  337TIP3    H2  955   1.028   4.006   2.378
  338TIP3   OH2  956   6.004   3.179   2.427
  338TIP3    H1  957   6.073   3.124   2.464
  338TIP3    H2  958   5.924   3.129   2.439
  339TIP3   OH2  959   5.357   5.157   2.319
  339TIP3    H1  960   5.392   5.224   2.260
  339TIP3    H2  961   5.266   5.148   2.293
  340TIP3   OH2  962   8.048   0.480   1.719
  340TIP3    H1  963   8.093   0.397   1.705
  340TIP3    H2  964   8.014   0.505   1.633
  341TIP3   OH2  965   2.088   4.599   3.131
  341TIP3    H1  966   2.023   4.602   3.201
  341TIP3    H2  967   2.167   4.637   3.169
  342TIP3   OH2  968   7.511   7.348   1.832
  342TIP3    H1  969   7.586   7.376   1.780
  342TIP3    H2  970   7.468   7.429   1.858
  343TIP3   OH2  971   3.106   3.546   3.375
  343TIP3    H1  972   3.190   3.529   3.333
  343TIP3    H2  973   3.121   3.622   3.430
  344TIP3   OH2  974   3.526   3.028   6.379
  344TIP3    H1  975   3.438   2.992   6.384
  344TIP3    H2  976   3.557   3.003   6.292
  345TIP3   OH2  977   6.031   4.626   5.551
  345TIP3    H1  978   5.962   4.682   5.587
  345TIP3    H2  979   6.025   4.638   5.456
  346TIP3   OH2  980   6.242   0.907   5.773
  346TIP3    H1  981   6.204   0.994   5.765
  346TIP3    H2  982   6.331   0.922   5.804
  347TIP3   OH2  983   6.965   4.128   1.119
  347TIP3    H1  984   6.947   4.046   1.165
  347TIP3    H2  985   7.048   4.113   1.075
  348TIP3   OH2  986   1.342   4.453   6.408
  348TIP3    H1  987   1.394   4.374   6.394
  348TIP3    H2  988   1.254   4.421   6.431
  349TIP3   OH2  989   1.006   4.471   2.828
  349TIP3    H1  990   1.048   4.548   2.791
  349TIP3    H2  991   0.958   4.503   2.904
  350TIP3   OH2  992   0.223   4.840   2.901
  350TIP3    H1  993   0.316   4.843   2.881
  350TIP3    H2  994   0.199   4.931   2.919
  351TIP3   OH2  995   4.412   4.453   6.784
  351TIP3    H1  996   4.348   4.460   6.856
  351TIP3    H2  997   4.469   4.380   6.810
  352TIP3   OH2  998   2.580   0.316   0.285
  352TIP3    H1  999   2.629   0.243   0.247
  352TIP3    H2 1000   2.500   0.277   0.318
  353TIP3   OH2 1001   8.054   4.490   0.919
  353TIP3    H1 1002   7.989   4.447   0.974
  353TIP3    H2 1003   8.137   4.478   0.966
  354TIP3   OH2 1004   3.608   0.347   1.693
  354TIP3    H1 1005   3.677   0.408   1.719
  354TIP3    H2 1006   3.640   0.261   1.720
  355TIP3   OH2 1007   2.845   1.260   0.463
  355TIP3    H1 1008   2.937   1.243   0.444
  355TIP3    H2 1009   2.803   1.174   0.457
  356TIP3   OH2 1010   6.915   3.690   3.845
  356TIP3    H1 1011   6.923   3.596   3.830
  356TIP3    H2 1012   6.943   3.730   3.763
  357TIP3   OH2 1013   3.692   2.408   4.991
  357TIP3    H1 1014   3.606   2.450   4.980
  357TIP3    H2 1015   3.688   2.367   5.077
  358TIP3   OH2 1016   6.485   1.655   5.962
  358TIP3    H1 1017   6.501   1.741   6.000
  358TIP3    H2 1018   6.395   1.633   5.988
  359TIP3   OH2 1019   7.221   0.451   6.529
  359TIP3    H1 1020   7.146   0.510   6.530
  359TIP3    H2 1021   7.183   0.365   6.510
  360TIP3   OH2 1022   6.837   2.095   3.197
  360TIP3    H1 1023   6.781   2.161   3.158
  360TIP3    H2 1024   6.891   2.063   3.125
  361TIP3   OH2 1025   5.256   0.191   1.404
  361TIP3    H1 1026   5.303   0.205   1.321
  361TIP3    H2 1027   5.324   0.198   1.471
  362TIP3   OH2 1028   1.611   0.509   1.706
  362TIP3    H1 1029   1.548   0.499   1.634
  362TIP3    H2 1030   1.676   0.440   1.691
  363TIP3   OH2 1031   0.074   6.549   2.623
  363TIP3    H1 1032   0.149   6.561   2.565
  363TIP3    H2 1033   0.055   6.637   2.656
  364TIP3   OH2 1034   7.743   4.012   4.342
  364TIP3    H1 1035   7.834   4.014   4.373
  364TIP3    H2 1036   7.750   3.994   4.248
  365TIP3   OH2 1037   0.335   3.349   0.874
  365TIP3    H1 1038   0.254   3.399   0.888
  365TIP3    H2 1039   0.405   3.410   0.894
  366TIP3   OH2 1040   1.645   5.536   3.548
  366TIP3    H1 1041   1.656   5.513   3.640
  366TIP3    H2 1042   1.731   5.568   3.521
  367TIP3   OH2 1043   8.067   6.682   2.086
  367TIP3    H1 1044   8.109   6.619   2.145
  367TIP3    H2 1045   8.121   6.761   2.094
  368TIP3   OH2 1046   6.099   3.354   1.934
  368TIP3    H1 1047   6.112   3.335   2.026
  368TIP3    H2 1048   6.028   3.419   1.933
  369TIP3   OH2 1049   7.496   2.750   4.773
  369TIP3    H1 1050   7.531   2.715   4.855
  369TIP3    H2 1051   7.494   2.675   4.714
  370TIP3   OH2 1052   5.822   7.542   2.581
  370TIP3    H1 1053   5.860   7.505   2.501
  370TIP3    H2 1054   5.898   7.564   2.636
  371TIP3   OH2 1055   3.821   7.131   1.395
  371TIP3    H1 1056   3.914   7.118   1.380
  371TIP3    H2 1057   3.803   7.218   1.358
  372TIP3   OH2 1058   1.137   1.457   3.094
  372TIP3    H1 1059   1.096   1.475   3.010
  372TIP3    H2 1060   1.072   1.405   3.142
  373TIP3   OH2 1061   5.255   2.880   3.034
  373TIP3    H1 1062   5.185   2.824   3.000
  373TIP3    H2 1063   5.209   2.959   3.063
  374TIP3   OH2 1064   4.318   5.484   4.893
  374TIP3    H1 1065   4.248   5.524   4.841
  374TIP3    H2 1066   4.280   5.403   4.926
  375TIP3   OH2 1067   5.579   4.330   6.087
  375TIP3    H1 1068   5.586   4.413   6.040
  375TIP3    H2 1069   5.584   4.263   6.019
  376TIP3   OH2 1070   5.703   2.360   1.105
  376TIP3    H1 1071   5.630   2.304   1.131
  376TIP3    H2 1072   5.697   2.363   1.009
  377TIP3   OH2 1073   8.175   1.510   2.080
  377TIP3    H1 1074   8.254   1.545   2.121
  377TIP3    H2 1075   8.177   1.416   2.100
  378TIP3   OH2 1076   3.259   6.846   0.359
  378TIP3    H1 1077   3.331   6.897   0.322
  378TIP3    H2 1078   3.193   6.842   0.289
  379TIP3   OH2 1079   2.583   5.281   6.615
  379TIP3    H1 1080   2.601   5.268   6.522
  379TIP3    H2 1081   2.489   5.267   6.623
  380TIP3   OH2 1082   1.157   6.247   2.593
  380TIP3    H1 1083   1.217   6.190   2.643
  380TIP3    H2 1084   1.187   6.238   2.502
  381TIP3   OH2 1085   4.272   7.260   2.187
  381TIP3    H1 1086   4.342   7.234   2.246
  381TIP3    H2 1087   4.241   7.343   2.222
  382TIP3   OH2 1088   4.641   6.662   0.689
  382TIP3    H1 1089   4.608   6.573   0.683
  382TIP3    H2 1090   4.582   6.713   0.633
  383TIP3   OH2 1091   0.533   0.633   2.833
  383TIP3    H1 1092   0.455   0.641   2.888
  383TIP3    H2 1093   0.606   0.651   2.892
  384TIP3   OH2 1094   1.764   4.456   3.201
  384TIP3    H1 1095   1.742   4.523   3.136
  384TIP3    H2 1096   1.768   4.503   3.284
  385TIP3   OH2 1097   2.747   4.756   1.560
  385TIP3    H1 1098   2.835   4.723   1.574
  385TIP3    H2 1099   2.758   4.837   1.511
  386TIP3   OH2 1100   5.935   7.703   4.219
  386TIP3    H1 1101   5.880   7.628   4.239
  386TIP3    H2 1102   5.882   7.779   4.242
  387TIP3   OH2 1103   6.016   7.201   5.837
  387TIP3    H1 1104   6.005   7.107   5.855
  387TIP3    H2 1105   6.016   7.207   5.741
  388TIP3   OH2 1106   1.734   7.694   2.665
  388TIP3    H1 1107   1.752   7.731   2.751
  388TIP3    H2 1108   1.699   7.768   2.614
  389TIP3   OH2 1109   1.838   2.771   6.156
  389TIP3    H1 1110   1.779   2.785   6.081
  389TIP3    H2 1111   1.878   2.686   6.138
  390TIP3   OH2 1112   2.208   0.063   2.670
  390TIP3    H1 1113   2.164   0.061   2.755
  390TIP3    H2 1114   2.277  -0.003   2.676
  391TIP3   OH2 1115   4.350   5.961   0.023
  391TIP3    H1 1116   4.330   6.054   0.018
  391TIP3    H2 1117   4.357   5.942   0.117
  392TIP3   OH2 1118   0.920   5.150   0.341
  392TIP3    H1 1119   0.872   5.211   0.396
  392TIP3    H2 1120   0.975   5.101   0.401
  393TIP3   OH2 1121   7.185   6.741   2.798
  393TIP3    H1 1122   7.093   6.755   2.775
  393TIP3    H2 1123   7.230   6.817   2.762
  394TIP3   OH2 1124   5.434   4.111   0.605
  394TIP3    H1 1125   5.415   4.024   0.640
  394TIP3    H2 1126   5.488   4.153   0.672
  395TIP3   OH2 1127   4.221   5.247   4.858
  395TIP3    H1 1128   4.267   5.163   4.863
  395TIP3    H2 1129   4.252   5.286   4.776
  396TIP3   OH2 1130   1.652   7.603   0.466
  396TIP3    H1 1131   1.667   7.524   0.517
  396TIP3    H2 1132   1.632   7.573   0.378
  397TIP3   OH2 1133   8.253   7.224   2.015
  397TIP3    H1 1134   8.273   7.292   1.950
  397TIP3    H2 1135   8.209   7.156   1.965
  398TIP3   OH2 1136   4.939   7.782   5.348
  398TIP3    H1 1137   4.870   7.844   5.326
  398TIP3    H2 1138   4.924   7.763   5.441
  399TIP3   OH2 1139   0.823   1.985   1.419
  399TIP3    H1 1140   0.791   1.982   1.329
  399TIP3    H2 1141   0.870   1.903   1.431
  400TIP3   OH2 1142   7.372   6.422   0.214
  400TIP3    H1 1143   7.380   6.517   0.199
  400TIP3    H2 1144   7.320   6.391   0.140
  401TIP3   OH2 1145   1.548   1.887   3.721
  401TIP3    H1 1146   1.465   1.841   3.733
  401TIP3    H2 1147   1.613   1.833   3.765
  402TIP3   OH2 1148   4.066   5.507   2.309
  402TIP3    H1 1149   4.032   5.424   2.341
  402TIP3    H2 1150   3.988   5.557   2.285
  403TIP3   OH2 1151   8.116   5.439   1.705
  403TIP3    H1 1152   8.198   5.422   1.659
  403TIP3    H2 1153   8.071   5.354   1.706
  404TIP3   OH2 1154   2.108   5.925   2.947
  404TIP3    H1 1155   2.187   5.941   2.895
  404TIP3    H2 1156   2.036   5.950   2.889
  405TIP3   OH2 1157   3.093   2.269   5.072
  405TIP3    H1 1158   3.093   2.216   5.152
  405TIP3    H2 1159   3.129   2.353   5.099
  406TIP3   OH2 1160   7.068   0.505   0.907
  406TIP3    H1 1161   6.976   0.489   0.886
  406TIP3    H2 1162   7.067   0.588   0.955
  407TIP3   OH2 1163   1.292   6.575   1.788
  407TIP3    H1 1164   1.325   6.621   1.711
  407TIP3    H2 1165   1.255   6.644   1.843
  408TIP3   OH2 1166   3.088   6.741   0.956
  408TIP3    H1 1167   3.119   6.662   0.912
  408TIP3    H2 1168   3.015   6.712   1.010
  409TIP3   OH2 1169   2.109   1.166   6.299
  409TIP3    H1 1170   2.042   1.127   6.242
  409TIP3    H2 1171   2.110   1.111   6.377
  410TIP3   OH2 1172   5.905   3.793   4.762
  410TIP3    H1 1173   5.965   3.802   4.689
  410TIP3    H2 1174   5.938   3.854   4.828
  411TIP3   OH2 1175   5.116   0.272   4.258
  411TIP3    H1 1176   5.094   0.219   4.335
  411TIP3    H2 1177   5.043   0.334   4.250
  412TIP3   OH2 1178   1.244   2.396   6.602
  412TIP3    H1 1179   1.216   2.336   6.533
  412TIP3    H2 1180   1.313   2.448   6.561
  413TIP3   OH2 1181   1.806   2.711   2.314
  413TIP3    H1 1182   1.749   2.787   2.326
  413TIP3    H2 1183   1.876   2.723   2.378
  414TIP3   OH2 1184   6.376   2.435   6.165
  414TIP3    H1 1185   6.361   2.379   6.241
  414TIP3    H2 1186   6.471   2.428   6.150
  415TIP3   OH2 1187   3.269   6.121   3.443
  415TIP3    H1 1188   3.349   6.171   3.426
  415TIP3    H2 1189   3.198   6.178   3.414
  416TIP3   OH2 1190   1.372   3.511   1.104
  416TIP3    H1 1191   1.386   3.452   1.030
  416TIP3    H2 1192   1.450   3.500   1.158
  417TIP3   OH2 1193   4.695   4.449   1.079
  417TIP3    H1 1194   4.653   4.464   0.994
  417TIP3    H2 1195   4.783   4.486   1.069
  418TIP3   OH2 1196   3.120   4.355   6.189
  418TIP3    H1 1197   3.101   4.276   6.138
  418TIP3    H2 1198   3.037   4.377   6.231
  419TIP3   OH2 1199   7.963   5.948   6.384
  419TIP3    H1 1200   7.922   5.870   6.421
  419TIP3    H2 1201   7.919   5.961   6.300
  420TIP3   OH2 1202   5.530   1.017   3.418
  420TIP3    H1 1203   5.540   0.989   3.508
  420TIP3    H2 1204   5.519   0.936   3.368
  421TIP3   OH2 1205   4.047   1.850   0.419
  421TIP3    H1 1206   4.029   1.833   0.327
  421TIP3    H2 1207   4.140   1.872   0.422
  422TIP3   OH2 1208   2.625   2.873   2.964
  422TIP3    H1 1209   2.625   2.962   2.928
  422TIP3    H2 1210   2.580   2.820   2.898
  423TIP3   OH2 1211   1.642   2.848   0.664
  423TIP3    H1 1212   1.651   2.754   0.680
  423TIP3    H2 1213   1.619   2.855   0.571
  424TIP3   OH2 1214   7.734   2.785   6.317
  424TIP3    H1 1215   7.683   2.761   6.394
  424TIP3    H2 1216   7.814   2.733   6.324
  425TIP3   OH2 1217   3.198   7.440   3.254
  425TIP3    H1 1218   3.133   7.388   3.301
  425TIP3    H2 1219   3.269   7.378   3.237
  426TIP3   OH2 1220   4.767   0.605   6.078
  426TIP3    H1 1221   4.825   0.589   6.153
  426TIP3    H2 1222   4.757   0.518   6.038
  427TIP3   OH2 1223   2.134   4.009   6.307
  427TIP3    H1 1224   2.093   3.991   6.222
  427TIP3    H2 1225   2.111   4.100   6.325
  428TIP3   OH2 1226   2.492   1.983   4.073
  428TIP3    H1 1227   2.402   1.982   4.041
  428TIP3    H2 1228   2.489   1.935   4.156
  429TIP3   OH2 1229   5.387   6.570   2.903
  429TIP3    H1 1230   5.335   6.495   2.933
  429TIP3    H2 1231   5.477   6.535   2.898
  430TIP3   OH2 1232   2.728   2.700   3.864
  430TIP3    H1 1233   2.816   2.728   3.887
  430TIP3    H2 1234   2.718   2.614   3.905
  431TIP3   OH2 1235   2.937   7.382   0.857
  431TIP3    H1 1236   3.008   7.365   0.920
  431TIP3    H2 1237   2.930   7.300   0.807
  432TIP3   OH2 1238   0.683   5.471   3.472
  432TIP3    H1 1239   0.753   5.442   3.530
  432TIP3    H2 1240   0.708   5.440   3.386
  433TIP3   OH2 1241   1.990   2.205   4.954
  433TIP3    H1 1242   1.965   2.119   4.987
  433TIP3    H2 1243   1.915   2.261   4.973
  434TIP3   OH2 1244   4.503   3.639   2.885
  434TIP3    H1 1245   4.543   3.702   2.944
  434TIP3    H2 1246   4.409   3.657   2.892
  435TIP3   OH2 1247   5.251   6.833   3.270
  435TIP3    H1 1248   5.318   6.765   3.259
  435TIP3    H2 1249   5.296   6.915   3.247
  436TIP3   OH2 1250   7.206   5.553   4.890
  436TIP3    H1 1251   7.245   5.601   4.963
  436TIP3    H2 1252   7.259   5.577   4.814
  437TIP3   OH2 1253   3.234   6.272   3.073
  437TIP3    H1 1254   3.189   6.191   3.098
  437TIP3    H2 1255   3.165   6.327   3.036
  438TIP3   OH2 1256   1.074   2.319   6.404
  438TIP3    H1 1257   1.085   2.275   6.320
  438TIP3    H2 1258   1.069   2.412   6.381
  439TIP3   OH2 1259   3.486   0.079   5.493
  439TIP3    H1 1260   3.556   0.097   5.556
  439TIP3    H2 1261   3.498   0.144   5.424
  440TIP3   OH2 1262   5.021   2.311   0.188
  440TIP3    H1 1263   4.972   2.308   0.106
  440TIP3    H2 1264   4.984   2.240   0.241
  441TIP3   OH2 1265   7.540   7.549   0.795
  441TIP3    H1 1266   7.483   7.605   0.849
  441TIP3    H2 1267   7.499   7.549   0.709
  442TIP3   OH2 1268   2.906   6.395   1.330
  442TIP3    H1 1269   2.994   6.363   1.350
  442TIP3    H2 1270   2.849   6.347   1.390
  443TIP3   OH2 1271   5.586   7.527   2.754
  443TIP3    H1 1272   5.588   7.437   2.786
  443TIP3    H2 1273   5.669   7.538   2.707
  444TIP3   OH2 1274   4.039   5.616   1.603
  444TIP3    H1 1275   4.046   5.532   1.648
  444TIP3    H2 1276   4.021   5.680   1.671
  445TIP3   OH2 1277   5.965   3.777   4.292
  445TIP3    H1 1278   5.970   3.713   4.221
  445TIP3    H2 1279   6.009   3.854   4.258
  446TIP3   OH2 1280   2.097   1.309   5.789
  446TIP3    H1 1281   2.128   1.325   5.700
  446TIP3    H2 1282   2.080   1.215   5.793
  447TIP3   OH2 1283   7.984   6.886   5.548
  447TIP3    H1 1284   8.072   6.894   5.583
  447TIP3    H2 1285   7.982   6.946   5.473
  448TIP3   OH2 1286   1.396   3.188   5.941
  448TIP3    H1 1287   1.484   3.152   5.951
  448TIP3    H2 1288   1.407   3.283   5.948
  449TIP3   OH2 1289   6.648   7.763   3.307
  449TIP3    H1 1290   6.719   7.822   3.329
  449TIP3    H2 1291   6.639   7.705   3.383
  450TIP3   OH2 1292   6.686   4.259   3.697
  450TIP3    H1 1293   6.706   4.352   3.706
  450TIP3    H2 1294   6.771   4.216   3.707
  451TIP3   OH2 1295   7.591   3.494   2.869
  451TIP3    H1 1296   7.566   3.558   2.935
  451TIP3    H2 1297   7.660   3.442   2.910
  452TIP3   OH2 1298   2.555   4.443   1.381
  452TIP3    H1 1299   2.540   4.536   1.395
  452TIP3    H2 1300   2.582   4.437   1.289
  453TIP3   OH2 1301   7.402   7.509   4.738
  453TIP3    H1 1302   7.494   7.483   4.739
  453TIP3    H2 1303   7.394   7.568   4.663
  454TIP3   OH2 1304   7.890   7.547   3.503
  454TIP3    H1 1305   7.979   7.521   3.477
  454TIP3    H2 1306   7.884   7.522   3.595
  455TIP3   OH2 1307   1.666   4.181   3.279
  455TIP3    H1 1308   1.679   4.274   3.260
  455TIP3    H2 1309   1.590   4.179   3.338
  456TIP3   OH2 1310   5.182   3.697   4.181
  456TIP3    H1 1311   5.251   3.631   4.175
  456TIP3    H2 1312   5.135   3.692   4.097
  457TIP3   OH2 1313   5.880   6.204   6.215
  457TIP3    H1 1314   5.972   6.178   6.209
  457TIP3    H2 1315   5.836   6.127   6.251
  458TIP3   OH2 1316   5.138   0.445   6.230
  458TIP3    H1 1317   5.181   0.507   6.171
  458TIP3    H2 1318   5.210   0.397   6.270
  459TIP3   OH2 1319   0.565   7.765   0.368
  459TIP3    H1 1320   0.535   7.821   0.439
  459TIP3    H2 1321   0.559   7.676   0.403
  460TIP3   OH2 1322   6.961   6.264   5.800
  460TIP3    H1 1323   7.029   6.331   5.799
  460TIP3    H2 1324   6.994   6.197   5.861
  461TIP3   OH2 1325   0.887   0.393   6.454
  461TIP3    H1 1326   0.798   0.366   6.475
  461TIP3    H2 1327   0.941   0.317   6.479
  462TIP3   OH2 1328   1.250   0.969   5.875
  462TIP3    H1 1329   1.283   1.059   5.877
  462TIP3    H2 1330   1.172   0.971   5.931
  463TIP3   OH2 1331   4.285   2.896   3.365
  463TIP3    H1 1332   4.308   2.883   3.273
  463TIP3    H2 1333   4.361   2.942   3.402
  464TIP3   OH2 1334   4.073   5.346   1.753
  464TIP3    H1 1335   4.099   5.353   1.845
  464TIP3    H2 1336   4.142   5.295   1.712
  465TIP3   OH2 1337   2.014   0.249   0.606
  465TIP3    H1 1338   1.947   0.305   0.644
  465TIP3    H2 1339   1.980   0.228   0.518
  466TIP3   OH2 1340   8.025   3.818   5.731
  466TIP3    H1 1341   7.945   3.824   5.679
  466TIP3    H2 1342   8.057   3.908   5.735
  467TIP3   OH2 1343   1.883   4.067   6.521
  467TIP3    H1 1344   1.855   4.132   6.585
  467TIP3    H2 1345   1.942   4.115   6.463
  468TIP3   OH2 1346   6.526   7.080   3.471
  468TIP3    H1 1347   6.533   7.117   3.383
  468TIP3    H2 1348   6.445   7.118   3.506
  469TIP3   OH2 1349   3.777   3.968   5.379
  469TIP3    H1 1350   3.789   3.903   5.310
  469TIP3    H2 1351   3.713   3.928   5.438
  470TIP3   OH2 1352   2.240   1.973   3.952
  470TIP3    H1 1353   2.166   1.935   4.000
  470TIP3    H2 1354   2.200   2.039   3.895
  471TIP3   OH2 1355   4.739   6.988   1.176
  471TIP3    H1 1356   4.796   6.983   1.099
  471TIP3    H2 1357   4.792   6.956   1.248
  472TIP3   OH2 1358   3.863   4.980   1.760
  472TIP3    H1 1359   3.895   5.047   1.699
  472TIP3    H2 1360   3.933   4.971   1.825
  473TIP3   OH2 1361   4.967   1.066   4.592
  473TIP3    H1 1362   5.052   1.094   4.625
  473TIP3    H2 1363   4.904   1.117   4.644
  474TIP3   OH2 1364   7.661   4.979   0.023
  474TIP3    H1 1365   7.675   5.065  -0.016
  474TIP3    H2 1366   7.713   4.980   0.103
  475TIP3   OH2 1367   7.980   0.571   4.375
  475TIP3    H1 1368   8.003   0.658   4.342
  475TIP3    H2 1369   8.039   0.558   4.450
  476TIP3   OH2 1370   3.172   2.019   3.095
  476TIP3    H1 1371   3.099   2.012   3.156
  476TIP3    H2 1372   3.138   1.988   3.012
  477TIP3   OH2 1373   3.428   5.188   5.148
  477TIP3    H1 1374   3.452   5.177   5.056
  477TIP3    H2 1375   3.511   5.194   5.195
  478TIP3   OH2 1376   0.652   5.924   4.494
  478TIP3    H1 1377   0.707   5.959   4.423
  478TIP3    H2 1378   0.697   5.950   4.574
  479TIP3   OH2 1379   3.667   0.399   0.225
  479TIP3    H1 1380   3.655   0.444   0.141
  479TIP3    H2 1381   3.695   0.310   0.201
  480TIP3   OH2 1382   7.074   1.070   2.801
  480TIP3    H1 1383   7.051   0.993   2.749
  480TIP3    H2 1384   7.157   1.099   2.765
  481TIP3   OH2 1385   4.546   3.777   5.384
  481TIP3    H1 1386   4.481   3.726   5.335
  481TIP3    H2 1387   4.498   3.812   5.459
  482TIP3   OH2 1388   4.777   5.079   0.621
  482TIP3    H1 1389   4.760   5.048   0.532
  482TIP3    H2 1390   4.697   5.128   0.645
  483TIP3   OH2 1391   2.965   4.287   5.157
  483TIP3    H1 1392   2.975   4.292   5.061
  483TIP3    H2 1393   3.015   4.361   5.190
  484TIP3   OH2 1394   5.801   1.281   6.235
  484TIP3    H1 1395   5.781   1.193   6.264
  484TIP3    H2 1396   5.809   1.273   6.139
  485TIP3   OH2 1397   2.627   6.594   0.721
  485TIP3    H1 1398   2.703   6.584   0.664
  485TIP3    H2 1399   2.654   6.557   0.805
  486TIP3   OH2 1400   3.866   4.812   4.481
  486TIP3    H1 1401   3.833   4.787   4.395
  486TIP3    H2 1402   3.830   4.900   4.496
  487TIP3   OH2 1403   2.347   3.954   2.940
  487TIP3    H1 1404   2.272   4.013   2.945
  487TIP3    H2 1405   2.413   4.002   2.891
  488TIP3   OH2 1406   8.149   7.379   2.261
  488TIP3    H1 1407   8.189   7.357   2.177
  488TIP3    H2 1408   8.166   7.302   2.316
  489TIP3   OH2 1409   0.827   6.700   2.502
  489TIP3    H1 1410   0.734   6.678   2.501
  489TIP3    H2 1411   0.839   6.759   2.428
  490TIP3   OH2 1412   5.111   6.128   2.894
  490TIP3    H1 1413   5.022   6.163   2.882
  490TIP3    H2 1414   5.104   6.036   2.870
  491TIP3   OH2 1415   6.871   4.364   1.006
  491TIP3    H1 1416   6.884   4.287   1.060
  491TIP3    H2 1417   6.935   4.355   0.936
  492TIP3   OH2 1418   8.132   5.829   4.285
  492TIP3    H1 1419   8.219   5.792   4.301
  492TIP3    H2 1420   8.108   5.870   4.368
  493TIP3   OH2 1421   1.305   4.545   6.785
  493TIP3    H1 1422   1.288   4.472   6.726
  493TIP3    H2 1423   1.351   4.610   6.731
  494TIP3   OH2 1424   7.201   4.568   6.533
  494TIP3    H1 1425   7.241   4.655   6.537
  494TIP3    H2 1426   7.149   4.569   6.452
  495TIP3   OH2 1427   2.525   5.469   0.394
  495TIP3    H1 1428   2.493   5.384   0.363
  495TIP3    H2 1429   2.614   5.452   0.422
  496TIP3   OH2 1430   0.909   3.536   4.862
  496TIP3    H1 1431   0.906   3.584   4.945
  496TIP3    H2 1432   0.969   3.463   4.879
  497TIP3   OH2 1433   5.377   0.366   6.541
  497TIP3    H1 1434   5.400   0.277   6.514
  497TIP3    H2 1435   5.375   0.362   6.637
  498TIP3   OH2 1436   6.020   4.221   1.775
  498TIP3    H1 1437   6.113   4.199   1.763
  498TIP3    H2 1438   5.973   4.162   1.717
  499TIP3   OH2 1439   2.236   4.407   2.171
  499TIP3    H1 1440   2.166   4.372   2.116
  499TIP3    H2 1441   2.311   4.416   2.113
  500TIP3   OH2 1442   4.572   7.583   2.927
  500TIP3    H1 1443   4.521   7.508   2.897
  500TIP3    H2 1444   4.656   7.545   2.954
  501TIP3   OH2 1445   7.090   2.400   1.434
  501TIP3    H1 1446   7.039   2.322   1.411
  501TIP3    H2 1447   7.040   2.472   1.396
  502TIP3   OH2 1448   0.822   0.737   1.148
  502TIP3    H1 1449   0.875   0.811   1.177
  502TIP3    H2 1450   0.805   0.687   1.229
  503TIP3   OH2 1451   2.303   1.195   5.932
  503TIP3    H1 1452   2.318   1.146   5.851
  503TIP3    H2 1453   2.239   1.263   5.908
  504TIP3   OH2 1454   6.199   0.532   5.654
  504TIP3    H1 1455   6.276   0.488   5.692
  504TIP3    H2 1456   6.151   0.462   5.611
  505TIP3   OH2 1457   8.255   0.761   4.255
  505TIP3    H1 1458   8.259   0.806   4.339
  505TIP3    H2 1459   8.277   0.828   4.190
  506TIP3   OH2 1460   0.874   1.651   3.985
  506TIP3    H1 1461   0.809   1.720   3.971
  506TIP3    H2 1462   0.879   1.604   3.902
  507TIP3   OH2 1463   1.033   7.408   3.623
  507TIP3    H1 1464   1.041   7.365   3.707
  507TIP3    H2 1465   0.939   7.414   3.607
  508TIP3   OH2 1466   6.406   1.341   6.079
  508TIP3    H1 1467   6.316   1.368   6.099
  508TIP3    H2 1468   6.419   1.368   5.988
  509TIP3   OH2 1469   1.456   1.334   3.394
  509TIP3    H1 1470   1.463   1.255   3.341
  509TIP3    H2 1471   1.491   1.404   3.338
  510TIP3   OH2 1472   5.338   7.348   5.014
  510TIP3    H1 1473   5.336   7.279   4.948
  510TIP3    H2 1474   5.426   7.385   5.007
  511TIP3   OH2 1475   6.442   6.492   3.262
  511TIP3    H1 1476   6.495   6.434   3.315
  511TIP3    H2 1477   6.470   6.581   3.286
  512TIP3   OH2 1478   3.055   4.771   0.440
  512TIP3    H1 1479   3.095   4.695   0.483
  512TIP3    H2 1480   2.964   4.770   0.468
  513TIP3   OH2 1481   7.704   5.732   5.766
  513TIP3    H1 1482   7.769   5.667   5.739
  513TIP3    H2 1483   7.734   5.763   5.851
  514TIP3   OH2 1484   2.994   3.112   5.057
  514TIP3    H1 1485   2.994   3.208   5.061
  514TIP3    H2 1486   3.079   3.087   5.092
  515TIP3   OH2 1487   0.553   1.031   3.181
  515TIP3    H1 1488   0.519   1.080   3.106
  515TIP3    H2 1489   0.642   1.006   3.156
  516TIP3   OH2 1490   3.145   5.554   4.567
  516TIP3    H1 1491   3.090   5.551   4.645
  516TIP3    H2 1492   3.217   5.494   4.586
  517TIP3   OH2 1493   4.843   4.703   3.422
  517TIP3    H1 1494   4.862   4.618   3.460
  517TIP3    H2 1495   4.751   4.698   3.396
  518TIP3   OH2 1496   4.569   0.355   4.759
  518TIP3    H1 1497   4.567   0.431   4.702
  518TIP3    H2 1498   4.647   0.368   4.814
  519TIP3   OH2 1499   0.075   4.053   2.092
  519TIP3    H1 1500  -0.007   4.028   2.049
  519TIP3    H2 1501   0.140   4.054   2.021
  520TIP3   OH2 1502   7.728   3.412   0.681
  520TIP3    H1 1503   7.782   3.380   0.753
  520TIP3    H2 1504   7.678   3.335   0.653
  521TIP3   OH2 1505   1.350   1.349   0.577
  521TIP3    H1 1506   1.293   1.377   0.505
  521TIP3    H2 1507   1.291   1.343   0.652
  522TIP3   OH2 1508   4.233   5.979   4.176
  522TIP3    H1 1509   4.216   6.062   4.220
  522TIP3    H2 1510   4.290   6.003   4.103
  523TIP3   OH2 1511   0.957   7.571   1.666
  523TIP3    H1 1512   0.995   7.609   1.586
  523TIP3    H2 1513   0.896   7.505   1.634
  524TIP3   OH2 1514   4.027   5.269   2.062
  524TIP3    H1 1515   4.053   5.361   2.074
  524TIP3    H2 1516   4.110   5.221   2.065
  525TIP3   OH2 1517   2.495   0.365   5.322
  525TIP3    H1 1518   2.420   0.423   5.307
  525TIP3    H2 1519   2.563   0.399   5.265
  526TIP3   OH2 1520   4.664   7.774   6.107
  526TIP3    H1 1521   4.748   7.738   6.079
  526TIP3    H2 1522   4.604   7.754   6.035
  527TIP3   OH2 1523   8.334   3.144   2.203
  527TIP3    H1 1524   8.284   3.189   2.134
  527TIP3    H2 1525   8.306   3.053   2.197
  528TIP3   OH2 1526   3.146   4.379   4.638
  528TIP3    H1 1527   3.171   4.471   4.633
  528TIP3    H2 1528   3.211   4.333   4.585
  529TIP3   OH2 1529   1.318   5.622   4.694
  529TIP3    H1 1530   1.229   5.616   4.730
  529TIP3    H2 1531   1.357   5.697   4.738
  530TIP3   OH2 1532   2.666   0.649   4.360
  530TIP3    H1 1533   2.642   0.676   4.271
  530TIP3    H2 1534   2.673   0.730   4.409
  531TIP3   OH2 1535   5.930   1.733   3.668
  531TIP3    H1 1536   5.923   1.668   3.597
  531TIP3    H2 1537   5.897   1.814   3.629
  532TIP3   OH2 1538   7.883   4.444   3.259
  532TIP3    H1 1539   7.832   4.366   3.238
  532TIP3    H2 1540   7.893   4.490   3.176
  533TIP3   OH2 1541   6.722   5.248   5.679
  533TIP3    H1 1542   6.758   5.326   5.721
  533TIP3    H2 1543   6.716   5.272   5.587
  534TIP3   OH2 1544   5.770   3.767   5.874
  534TIP3    H1 1545   5.798   3.851   5.911
  534TIP3    H2 1546   5.849   3.731   5.834
  535TIP3   OH2 1547   0.848   2.985   2.707
  535TIP3    H1 1548   0.881   3.037   2.780
  535TIP3    H2 1549   0.911   3.001   2.636
  536TIP3   OH2 1550   0.811   4.081   4.827
  536TIP3    H1 1551   0.831   4.174   4.835
  536TIP3    H2 1552   0.871   4.049   4.759
  537TIP3   OH2 1553   4.347   5.237   3.168
  537TIP3    H1 1554   4.333   5.178   3.243
  537TIP3    H2 1555   4.323   5.184   3.092
  538TIP3   OH2 1556   2.029   6.597   5.918
  538TIP3    H1 1557   1.994   6.516   5.881
  538TIP3    H2 1558   2.120   6.577   5.939
  539TIP3   OH2 1559   6.749   0.006   0.769
  539TIP3    H1 1560   6.802   0.086   0.761
  539TIP3    H2 1561   6.682   0.028   0.833
  540TIP3   OH2 1562   2.314   3.244   6.065
  540TIP3    H1 1563   2.288   3.197   5.986
  540TIP3    H2 1564   2.243   3.227   6.127
  541TIP3   OH2 1565   6.271   0.530   1.285
  541TIP3    H1 1566   6.315   0.586   1.221
  541TIP3    H2 1567   6.182   0.520   1.251
  542TIP3   OH2 1568   7.000   5.382   4.873
  542TIP3    H1 1569   6.958   5.417   4.952
  542TIP3    H2 1570   7.064   5.449   4.848
  543TIP3   OH2 1571   4.469   1.916   3.988
  543TIP3    H1 1572   4.477   1.922   4.083
  543TIP3    H2 1573   4.556   1.889   3.958
  544TIP3   OH2 1574   5.722   5.390   5.763
  544TIP3    H1 1575   5.745   5.458   5.826
  544TIP3    H2 1576   5.781   5.318   5.783
  545TIP3   OH2 1577   3.130   4.383   2.353
  545TIP3    H1 1578   3.197   4.319   2.377
  545TIP3    H2 1579   3.131   4.446   2.425
  546TIP3   OH2 1580   0.829   1.919   3.745
  546TIP3    H1 1581   0.901   1.951   3.798
  546TIP3    H2 1582   0.751   1.933   3.799
  547TIP3   OH2 1583   8.306   5.511   2.574
  547TIP3    H1 1584   8.261   5.507   2.658
  547TIP3    H2 1585   8.244   5.557   2.516
  548TIP3   OH2 1586   1.713   0.767   1.022
  548TIP3    H1 1587   1.743   0.807   1.104
  548TIP3    H2 1588   1.637   0.715   1.048
  549TIP3   OH2 1589   1.131   2.794   3.459
  549TIP3    H1 1590   1.119   2.888   3.446
  549TIP3    H2 1591   1.218   2.787   3.500
  550TIP3   OH2 1592   5.492   6.131   5.254
  550TIP3    H1 1593   5.422   6.154   5.193
  550TIP3    H2 1594   5.466   6.170   5.337
  551TIP3   OH2 1595   1.582   4.080   1.354
  551TIP3    H1 1596   1.521   4.142   1.314
  551TIP3    H2 1597   1.667   4.102   1.316
  552TIP3   OH2 1598   0.288   2.892   1.421
  552TIP3    H1 1599   0.271   2.921   1.510
  552TIP3    H2 1600   0.363   2.833   1.428
  553TIP3   OH2 1601   7.165   0.656   2.049
  553TIP3    H1 1602   7.131   0.570   2.073
  553TIP3    H2 1603   7.087   0.708   2.028
  554TIP3   OH2 1604   1.115   2.002   6.649
  554TIP3    H1 1605   1.120   1.987   6.555
  554TIP3    H2 1606   1.021   2.009   6.668
  555TIP3   OH2 1607   6.579   1.260   3.830
  555TIP3    H1 1608   6.574   1.244   3.924
  555TIP3    H2 1609   6.493   1.233   3.796
  556TIP3   OH2 1610   6.109   4.346   6.270
  556TIP3    H1 1611   6.113   4.291   6.191
  556TIP3    H2 1612   6.038   4.408   6.253
  557TIP3   OH2 1613   2.983   5.958   5.473
  557TIP3    H1 1614   2.975   6.013   5.551
  557TIP3    H2 1615   3.054   5.898   5.493
  558TIP3   OH2 1616   6.175   3.625   1.469
  558TIP3    H1 1617   6.104   3.662   1.416
  558TIP3    H2 1618   6.213   3.556   1.413
  559TIP3   OH2 1619   2.446   6.071   4.095
  559TIP3    H1 1620   2.523   6.018   4.115
  559TIP3    H2 1621   2.407   6.090   4.181
  560TIP3   OH2 1622   0.978   6.570   4.253
  560TIP3    H1 1623   0.990   6.519   4.333
  560TIP3    H2 1624   0.884   6.561   4.234
  561TIP3   OH2 1625   7.446   0.973   0.671
  561TIP3    H1 1626   7.482   1.017   0.594
  561TIP3    H2 1627   7.448   0.880   0.648
  562TIP3   OH2 1628   1.022   0.939   2.558
  562TIP3    H1 1629   1.044   0.851   2.528
  562TIP3    H2 1630   0.996   0.986   2.478
  563TIP3   OH2 1631   6.768   0.569   6.477
  563TIP3    H1 1632   6.799   0.588   6.388
  563TIP3    H2 1633   6.680   0.605   6.479
  564TIP3   OH2 1634   8.261   3.925   3.414
  564TIP3    H1 1635   8.226   3.913   3.325
  564TIP3    H2 1636   8.297   3.839   3.437
  565TIP3   OH2 1637   5.739   5.751   2.065
  565TIP3    H1 1638   5.780   5.833   2.040
  565TIP3    H2 1639   5.651   5.756   2.028
  566TIP3   OH2 1640   5.624   4.553   0.525
  566TIP3    H1 1641   5.554   4.489   0.537
  566TIP3    H2 1642   5.699   4.501   0.498
  567TIP3   OH2 1643   1.331   1.706   4.946
  567TIP3    H1 1644   1.423   1.683   4.935
  567TIP3    H2 1645   1.306   1.748   4.863
  568TIP3   OH2 1646   3.778   5.038   1.075
  568TIP3    H1 1647   3.829   4.957   1.079
  568TIP3    H2 1648   3.759   5.059   1.167
  569TIP3   OH2 1649   5.725   0.227   1.677
  569TIP3    H1 1650   5.736   0.279   1.597
  569TIP3    H2 1651   5.801   0.250   1.731
  570TIP3   OH2 1652   7.648   1.172   0.134
  570TIP3    H1 1653   7.732   1.216   0.128
  570TIP3    H2 1654   7.667   1.089   0.179
  571TIP3   OH2 1655   0.866   5.585   2.226
  571TIP3    H1 1656   0.948   5.548   2.194
  571TIP3    H2 1657   0.823   5.620   2.148
  572TIP3   OH2 1658   0.648   3.063   3.944
  572TIP3    H1 1659   0.640   2.972   3.972
  572TIP3    H2 1660   0.634   3.061   3.850
  573TIP3   OH2 1661   4.355   1.651   4.228
  573TIP3    H1 1662   4.292   1.722   4.240
  573TIP3    H2 1663   4.439   1.695   4.218
  574TIP3   OH2 1664   2.071   4.651   3.941
  574TIP3    H1 1665   2.021   4.608   3.872
  574TIP3    H2 1666   2.005   4.691   3.998
  575TIP3   OH2 1667   6.019   1.241   5.178
  575TIP3    H1 1668   5.982   1.295   5.108
  575TIP3    H2 1669   6.102   1.283   5.199
  576TIP3   OH2 1670   4.915   7.407   2.685
  576TIP3    H1 1671   4.855   7.481   2.678
  576TIP3    H2 1672   4.984   7.436   2.745
  577TIP3   OH2 1673   1.408   0.188   1.069
  577TIP3    H1 1674   1.406   0.093   1.072
  577TIP3    H2 1675   1.316   0.214   1.077
  578TIP3   OH2 1676   6.114   6.357   3.026
  578TIP3    H1 1677   6.140   6.449   3.014
  578TIP3    H2 1678   6.197   6.310   3.028
  579TIP3   OH2 1679   2.141   2.164   2.755
  579TIP3    H1 1680   2.152   2.101   2.827
  579TIP3    H2 1681   2.230   2.192   2.735
  580TIP3   OH2 1682   2.860   7.577   0.585
  580TIP3    H1 1683   2.781   7.558   0.535
  580TIP3    H2 1684   2.932   7.556   0.525
  581TIP3   OH2 1685   2.176   1.053   5.423
  581TIP3    H1 1686   2.159   1.100   5.341
  581TIP3    H2 1687   2.242   0.988   5.400
  582TIP3   OH2 1688   1.056   4.500   2.006
  582TIP3    H1 1689   1.143   4.490   2.045
  582TIP3    H2 1690   1.049   4.594   1.987
  583TIP3   OH2 1691   4.978   3.879   3.995
  583TIP3    H1 1692   4.914   3.896   3.925
  583TIP3    H2 1693   5.037   3.814   3.958
  584TIP3   OH2 1694   1.772   2.696   5.453
  584TIP3    H1 1695   1.834   2.705   5.525
  584TIP3    H2 1696   1.801   2.760   5.389
  585TIP3   OH2 1697   3.736   5.093   4.392
  585TIP3    H1 1698   3.773   5.141   4.466
  585TIP3    H2 1699   3.649   5.067   4.421
  586TIP3   OH2 1700   6.992   1.174   2.243
  586TIP3    H1 1701   6.896   1.175   2.244
  586TIP3    H2 1702   7.015   1.088   2.206
  587TIP3   OH2 1703   3.517   5.403   5.611
  587TIP3    H1 1704   3.539   5.312   5.593
  587TIP3    H2 1705   3.591   5.437   5.661
  588TIP3   OH2 1706   6.903   4.949   5.362
  588TIP3    H1 1707   6.871   5.027   5.316
  588TIP3    H2 1708   6.880   4.964   5.453
  589TIP3   OH2 1709   5.250   4.587   6.728
  589TIP3    H1 1710   5.242   4.638   6.647
  589TIP3    H2 1711   5.212   4.644   6.795
  590TIP3   OH2 1712   4.919   1.402   6.730
  590TIP3    H1 1713   4.925   1.359   6.645
  590TIP3    H2 1714   5.009   1.415   6.757
  591TIP3   OH2 1715   7.943   4.076   3.854
  591TIP3    H1 1716   7.963   4.169   3.845
  591TIP3    H2 1717   7.974   4.037   3.772
  592TIP3   OH2 1718   0.067   4.902   6.019
  592TIP3    H1 1719   0.103   4.815   6.003
  592TIP3    H2 1720   0.064   4.943   5.932
  593TIP3   OH2 1721   6.446   0.956   3.049
  593TIP3    H1 1722   6.523   1.013   3.052
  593TIP3    H2 1723   6.383   0.997   3.107
  594TIP3   OH2 1724   2.316   3.107   6.380
  594TIP3    H1 1725   2.320   3.029   6.435
  594TIP3    H2 1726   2.257   3.166   6.427
  595TIP3   OH2 1727   6.771   1.132   1.137
  595TIP3    H1 1728   6.795   1.157   1.048
  595TIP3    H2 1729   6.822   1.192   1.193
  596TIP3   OH2 1730   7.008   4.288  -0.038
  596TIP3    H1 1731   7.028   4.199  -0.010
  596TIP3    H2 1732   6.913   4.288  -0.050
  597TIP3   OH2 1733   6.273   0.355   2.492
  597TIP3    H1 1734   6.284   0.289   2.561
  597TIP3    H2 1735   6.292   0.308   2.411
  598TIP3   OH2 1736   6.630   0.215   5.730
  598TIP3    H1 1737   6.578   0.139   5.706
  598TIP3    H2 1738   6.600   0.237   5.819
  599TIP3   OH2 1739   2.807   6.258   5.176
  599TIP3    H1 1740   2.763   6.335   5.139
  599TIP3    H2 1741   2.868   6.294   5.240
  600TIP3   OH2 1742   5.180   3.882   2.511
  600TIP3    H1 1743   5.185   3.963   2.562
  600TIP3    H2 1744   5.096   3.889   2.464
  601TIP3   OH2 1745   4.674   3.706   4.141
  601TIP3    H1 1746   4.639   3.634   4.193
  601TIP3    H2 1747   4.759   3.725   4.182
  602TIP3   OH2 1748   3.222   2.636   6.451
  602TIP3    H1 1749   3.160   2.597   6.511
  602TIP3    H2 1750   3.173   2.706   6.407
  603TIP3   OH2 1751   6.617   6.811   5.053
  603TIP3    H1 1752   6.594   6.768   4.971
  603TIP3    H2 1753   6.660   6.743   5.105
  604TIP3   OH2 1754   0.915   3.556   1.622
  604TIP3    H1 1755   0.965   3.536   1.543
  604TIP3    H2 1756   0.869   3.638   1.601
  605TIP3   OH2 1757   0.049   5.091   0.928
  605TIP3    H1 1758   0.090   5.037   0.995
  605TIP3    H2 1759   0.109   5.086   0.854
  606TIP3   OH2 1760   2.195   6.971   3.600
  606TIP3    H1 1761   2.177   6.940   3.689
  606TIP3    H2 1762   2.258   7.042   3.612
  607TIP3   OH2 1763   4.501   5.660   4.164
  607TIP3    H1 1764   4.421   5.608   4.170
  607TIP3    H2 1765   4.480   5.740   4.214
  608TIP3   OH2 1766   7.486   7.531   5.121
  608TIP3    H1 1767   7.437   7.454   5.149
  608TIP3    H2 1768   7.491   7.523   5.026
  609TIP3   OH2 1769   0.374   1.952   6.281
  609TIP3    H1 1770   0.297   1.896   6.291
  609TIP3    H2 1771   0.342   2.029   6.234
  610TIP3   OH2 1772   6.563   1.639   5.282
  610TIP3    H1 1773   6.508   1.711   5.314
  610TIP3    H2 1774   6.516   1.560   5.307
  611TIP3   OH2 1775   3.145   0.515   3.767
  611TIP3    H1 1776   3.097   0.594   3.740
  611TIP3    H2 1777   3.139   0.457   3.692
  612TIP3   OH2 1778   3.412   7.600   2.116
  612TIP3    H1 1779   3.419   7.534   2.047
  612TIP3    H2 1780   3.425   7.683   2.071
  613TIP3   OH2 1781   8.271   1.066   4.815
  613TIP3    H1 1782   8.267   1.025   4.901
  613TIP3    H2 1783   8.342   1.020   4.770
  614TIP3   OH2 1784   3.841   3.246   1.637
  614TIP3    H1 1785   3.783   3.296   1.695
  614TIP3    H2 1786   3.888   3.312   1.587
  615TIP3   OH2 1787  -0.017   2.374   5.527
  615TIP3    H1 1788   0.059   2.316   5.530
  615TIP3    H2 1789  -0.057   2.366   5.614
  616TIP3   OH2 1790   8.069   2.287   4.781
  616TIP3    H1 1791   8.133   2.222   4.751
  616TIP3    H2 1792   8.068   2.353   4.712
  617TIP3   OH2 1793   7.667   0.687   4.058
  617TIP3    H1 1794   7.692   0.731   4.139
  617TIP3    H2 1795   7.725   0.611   4.053
  618TIP3   OH2 1796   5.415   5.402   3.126
  618TIP3    H1 1797   5.395   5.362   3.041
  618TIP3    H2 1798   5.360   5.481   3.128
  619TIP3   OH2 1799   6.526   1.051   0.691
  619TIP3    H1 1800   6.587   1.082   0.624
  619TIP3    H2 1801   6.480   0.978   0.650
  620TIP3   OH2 1802   5.123   6.686   0.160
  620TIP3    H1 1803   5.111   6.636   0.241
  620TIP3    H2 1804   5.034   6.710   0.133
  621TIP3   OH2 1805   5.817   5.793   1.221
  621TIP3    H1 1806   5.745   5.741   1.256
  621TIP3    H2 1807   5.877   5.728   1.182
  622TIP3   OH2 1808   7.344   4.839   4.376
  622TIP3    H1 1809   7.403   4.832   4.451
  622TIP3    H2 1810   7.262   4.799   4.406
  623TIP3   OH2 1811   0.041   6.806   6.461
  623TIP3    H1 1812   0.135   6.800   6.477
  623TIP3    H2 1813   0.016   6.718   6.431
  624TIP3   OH2 1814   5.932   3.852   5.319
  624TIP3    H1 1815   5.941   3.945   5.295
  624TIP3    H2 1816   5.987   3.842   5.397
  625TIP3   OH2 1817   0.277   6.255   1.011
  625TIP3    H1 1818   0.203   6.247   0.952
  625TIP3    H2 1819   0.352   6.269   0.953
  626TIP3   OH2 1820   6.597   2.392   0.662
  626TIP3    H1 1821   6.619   2.382   0.754
  626TIP3    H2 1822   6.667   2.447   0.627
  627TIP3   OH2 1823   7.009   7.677   4.306
  627TIP3    H1 1824   7.092   7.724   4.302
  627TIP3    H2 1825   6.983   7.665   4.215
  628TIP3   OH2 1826   2.500   5.599   5.380
  628TIP3    H1 1827   2.435   5.550   5.329
  628TIP3    H2 1828   2.527   5.537   5.448
  629TIP3   OH2 1829   2.412   5.523   6.234
  629TIP3    H1 1830   2.406   5.448   6.175
  629TIP3    H2 1831   2.501   5.520   6.268
  630TIP3   OH2 1832   3.196   5.289   5.869
  630TIP3    H1 1833   3.258   5.362   5.870
  630TIP3    H2 1834   3.226   5.233   5.798
  631TIP3   OH2 1835   5.087   4.622   0.406
  631TIP3    H1 1836   5.176   4.657   0.404
  631TIP3    H2 1837   5.066   4.606   0.314
  632TIP3   OH2 1838   5.306   5.771   5.344
  632TIP3    H1 1839   5.356   5.698   5.380
  632TIP3    H2 1840   5.235   5.730   5.294
  633TIP3   OH2 1841   0.316   5.934   5.629
  633TIP3    H1 1842   0.327   5.879   5.706
  633TIP3    H2 1843   0.336   6.023   5.660
  634TIP3   OH2 1844   3.276   4.389   3.448
  634TIP3    H1 1845   3.334   4.312   3.442
  634TIP3    H2 1846   3.333   4.463   3.429
  635TIP3   OH2 1847   2.274   3.637   0.232
  635TIP3    H1 1848   2.201   3.579   0.254
  635TIP3    H2 1849   2.236   3.705   0.177
  636TIP3   OH2 1850   0.526   2.935   6.068
  636TIP3    H1 1851   0.588   2.916   5.997
  636TIP3    H2 1852   0.580   2.975   6.136
  637TIP3   OH2 1853   1.468   7.449   3.005
  637TIP3    H1 1854   1.491   7.541   3.014
  637TIP3    H2 1855   1.536   7.403   3.054
  638TIP3   OH2 1856   2.286   2.792   3.319
  638TIP3    H1 1857   2.232   2.806   3.242
  638TIP3    H2 1858   2.373   2.823   3.293
  639TIP3   OH2 1859   1.354   4.382   5.155
  639TIP3    H1 1860   1.261   4.382   5.132
  639TIP3    H2 1861   1.397   4.421   5.078
  640TIP3   OH2 1862   1.464   7.637   0.208
  640TIP3    H1 1863   1.383   7.589   0.226
  640TIP3    H2 1864   1.455   7.720   0.255
  641TIP3   OH2 1865   6.210   7.056   1.984
  641TIP3    H1 1866   6.182   7.052   2.075
  641TIP3    H2 1867   6.250   6.971   1.968
  642TIP3   OH2 1868   5.243   1.770   4.783
  642TIP3    H1 1869   5.160   1.759   4.831
  642TIP3    H2 1870   5.233   1.854   4.738
  643TIP3   OH2 1871   8.174   5.524   5.319
  643TIP3    H1 1872   8.187   5.616   5.294
  643TIP3    H2 1873   8.262   5.489   5.331
  644TIP3   OH2 1874   6.692   7.551   1.025
  644TIP3    H1 1875   6.684   7.555   1.121
  644TIP3    H2 1876   6.622   7.492   0.998
  645TIP3   OH2 1877   7.326   0.235   1.296
  645TIP3    H1 1878   7.367   0.149   1.307
  645TIP3    H2 1879   7.263   0.222   1.225
  646TIP3   OH2 1880   6.810   0.134   2.024
  646TIP3    H1 1881   6.770   0.053   1.992
  646TIP3    H2 1882   6.808   0.192   1.948
  647TIP3   OH2 1883   1.006   7.383   3.071
  647TIP3    H1 1884   1.006   7.446   2.999
  647TIP3    H2 1885   1.057   7.309   3.038
  648TIP3   OH2 1886   7.482   1.589   6.496
  648TIP3    H1 1887   7.415   1.540   6.543
  648TIP3    H2 1888   7.517   1.527   6.432
  649TIP3   OH2 1889   5.913   4.529   2.961
  649TIP3    H1 1890   5.887   4.533   2.869
  649TIP3    H2 1891   5.840   4.569   3.009
  650TIP3   OH2 1892   4.262   5.163   1.669
  650TIP3    H1 1893   4.284   5.100   1.600
  650TIP3    H2 1894   4.345   5.176   1.716
  651TIP3   OH2 1895   0.974   0.111   5.538
  651TIP3    H1 1896   1.057   0.152   5.562
  651TIP3    H2 1897   0.998   0.031   5.493
  652TIP3   OH2 1898   3.781   7.386   4.367
  652TIP3    H1 1899   3.687   7.367   4.369
  652TIP3    H2 1900   3.812   7.359   4.454
  653TIP3   OH2 1901   3.712   4.416   1.442
  653TIP3    H1 1902   3.681   4.471   1.514
  653TIP3    H2 1903   3.633   4.388   1.396
  654TIP3   OH2 1904   4.415   0.573   5.715
  654TIP3    H1 1905   4.451   0.542   5.798
  654TIP3    H2 1906   4.321   0.576   5.729
  655TIP3   OH2 1907   0.617   7.657   5.944
  655TIP3    H1 1908   0.586   7.579   5.990
  655TIP3    H2 1909   0.612   7.634   5.851
  656TIP3   OH2 1910   1.066   5.045   6.575
  656TIP3    H1 1911   1.147   5.012   6.536
  656TIP3    H2 1912   1.036   5.114   6.516
  657TIP3   OH2 1913   0.872   6.952   0.615
  657TIP3    H1 1914   0.869   7.042   0.648
  657TIP3    H2 1915   0.898   6.961   0.523
  658TIP3   OH2 1916   3.983   7.556   2.922
  658TIP3    H1 1917   4.043   7.627   2.942
  658TIP3    H2 1918   3.956   7.522   3.008
  659TIP3   OH2 1919   0.778   5.485   2.735
  659TIP3    H1 1920   0.692   5.490   2.776
  659TIP3    H2 1921   0.768   5.532   2.652
  660TIP3   OH2 1922   5.656   3.348   0.340
  660TIP3    H1 1923   5.581   3.394   0.378
  660TIP3    H2 1924   5.731   3.403   0.362
  661TIP3   OH2 1925   0.134   2.947   0.613
  661TIP3    H1 1926   0.199   2.962   0.682
  661TIP3    H2 1927   0.125   2.852   0.609
  662TIP3   OH2 1928   2.514   4.094   6.349
  662TIP3    H1 1929   2.573   4.078   6.423
  662TIP3    H2 1930   2.463   4.014   6.341
  663TIP3   OH2 1931   6.483   3.002   5.763
  663TIP3    H1 1932   6.416   3.062   5.731
  663TIP3    H2 1933   6.555   3.058   5.791
  664TIP3   OH2 1934   0.431   5.996   1.713
  664TIP3    H1 1935   0.420   5.942   1.791
  664TIP3    H2 1936   0.403   6.084   1.740
  665TIP3   OH2 1937   2.534   6.209   6.403
  665TIP3    H1 1938   2.574   6.200   6.317
  665TIP3    H2 1939   2.495   6.296   6.403
  666TIP3   OH2 1940   0.590   3.587   5.241
  666TIP3    H1 1941   0.575   3.582   5.336
  666TIP3    H2 1942   0.534   3.659   5.212
  667TIP3   OH2 1943   5.258   4.755   0.663
  667TIP3    H1 1944   5.178   4.735   0.713
  667TIP3    H2 1945   5.236   4.835   0.615
  668TIP3   OH2 1946   4.154   7.350   4.392
  668TIP3    H1 1947   4.165   7.436   4.350
  668TIP3    H2 1948   4.243   7.322   4.411
  669TIP3   OH2 1949   6.528   2.905   3.198
  669TIP3    H1 1950   6.561   2.988   3.164
  669TIP3    H2 1951   6.594   2.877   3.262
  670TIP3   OH2 1952   6.825   3.336   2.107
  670TIP3    H1 1953   6.830   3.416   2.054
  670TIP3    H2 1954   6.863   3.268   2.052
  671TIP3   OH2 1955   3.067   7.285   6.686
  671TIP3    H1 1956   3.074   7.225   6.612
  671TIP3    H2 1957   3.101   7.235   6.760
  672TIP3   OH2 1958   0.849   2.655   0.665
  672TIP3    H1 1959   0.819   2.579   0.716
  672TIP3    H2 1960   0.824   2.731   0.719
  673TIP3   OH2 1961   7.454   0.121   0.811
  673TIP3    H1 1962   7.371   0.169   0.805
  673TIP3    H2 1963   7.505   0.169   0.876
  674TIP3   OH2 1964   2.849   2.752   0.341
  674TIP3    H1 1965   2.783   2.801   0.391
  674TIP3    H2 1966   2.857   2.801   0.259
  675TIP3   OH2 1967   1.105   4.934   5.158
  675TIP3    H1 1968   1.037   4.993   5.125
  675TIP3    H2 1969   1.176   4.992   5.185
  676TIP3   OH2 1970   4.684   7.032   5.961
  676TIP3    H1 1971   4.655   7.059   6.048
  676TIP3    H2 1972   4.670   6.937   5.959
  677TIP3   OH2 1973   5.516   7.447   0.201
  677TIP3    H1 1974   5.504   7.542   0.204
  677TIP3    H2 1975   5.606   7.433   0.233
  678TIP3   OH2 1976   1.278   2.268   3.787
  678TIP3    H1 1977   1.277   2.216   3.707
  678TIP3    H2 1978   1.269   2.359   3.756
  679TIP3   OH2 1979   5.702   0.737   5.923
  679TIP3    H1 1980   5.623   0.713   5.874
  679TIP3    H2 1981   5.748   0.800   5.867
  680TIP3   OH2 1982   2.646   7.805   1.969
  680TIP3    H1 1983   2.703   7.876   1.939
  680TIP3    H2 1984   2.665   7.797   2.062
  681TIP3   OH2 1985   2.096   7.310   2.421
  681TIP3    H1 1986   2.114   7.325   2.514
  681TIP3    H2 1987   2.121   7.220   2.405
  682TIP3   OH2 1988   3.058   7.212   2.246
  682TIP3    H1 1989   3.070   7.307   2.250
  682TIP3    H2 1990   3.099   7.186   2.164
  683TIP3   OH2 1991   0.480   2.929   0.025
  683TIP3    H1 1992   0.403   2.872   0.029
  683TIP3    H2 1993   0.521   2.908  -0.059
  684TIP3   OH2 1994   7.025   7.552   0.481
  684TIP3    H1 1995   6.949   7.508   0.444
  684TIP3    H2 1996   6.998   7.576   0.570
  685TIP3   OH2 1997   2.693   6.029   2.435
  685TIP3    H1 1998   2.786   6.032   2.415
  685TIP3    H2 1999   2.660   5.953   2.387
  686TIP3   OH2 2000   6.286   1.612   1.740
  686TIP3    H1 2001   6.252   1.523   1.730
  686TIP3    H2 2002   6.258   1.638   1.828
  687TIP3   OH2 2003   0.001   3.069   0.948
  687TIP3    H1 2004  -0.023   2.976   0.947
  687TIP3    H2 2005   0.088   3.071   0.908
  688TIP3   OH2 2006   2.308   1.035   3.101
  688TIP3    H1 2007   2.307   1.077   3.015
  688TIP3    H2 2008   2.223   1.057   3.139
  689TIP3   OH2 2009   5.687   2.006   3.224
  689TIP3    H1 2010   5.782   2.014   3.223
  689TIP3    H2 2011   5.656   2.090   3.256
  690TIP3   OH2 2012   1.602   1.339   6.276
  690TIP3    H1 2013   1.616   1.278   6.203
  690TIP3    H2 2014   1.507   1.339   6.289
  691TIP3   OH2 2015   7.132   7.153   3.154
  691TIP3    H1 2016   7.140   7.057   3.153
  691TIP3    H2 2017   7.087   7.174   3.072
  692TIP3   OH2 2018   5.498   1.720   6.515
  692TIP3    H1 2019   5.519   1.723   6.422
  692TIP3    H2 2020   5.477   1.810   6.539
  693TIP3   OH2 2021   7.074   3.630   6.685
  693TIP3    H1 2022   6.981   3.608   6.688
  693TIP3    H2 2023   7.078   3.723   6.707
  694TIP3   OH2 2024   3.442   2.993   1.338
  694TIP3    H1 2025   3.476   2.988   1.427
  694TIP3    H2 2026   3.507   2.946   1.285
  695TIP3   OH2 2027   5.465   1.370   5.924
  695TIP3    H1 2028   5.385   1.413   5.955
  695TIP3    H2 2029   5.440   1.326   5.843
  696TIP3   OH2 2030   3.903   4.061   5.829
  696TIP3    H1 2031   3.886   4.090   5.919
  696TIP3    H2 2032   3.842   3.988   5.816
  697TIP3   OH2 2033   6.432   6.511   3.701
  697TIP3    H1 2034   6.436   6.462   3.783
  697TIP3    H2 2035   6.523   6.538   3.685
  698TIP3   OH2 2036   2.091   3.279   3.620
  698TIP3    H1 2037   2.059   3.198   3.581
  698TIP3    H2 2038   2.150   3.251   3.690
  699TIP3   OH2 2039   6.853   5.569   0.814
  699TIP3    H1 2040   6.885   5.613   0.893
  699TIP3    H2 2041   6.769   5.610   0.796
  700TIP3   OH2 2042   4.128   0.418   3.138
  700TIP3    H1 2043   4.129   0.423   3.233
  700TIP3    H2 2044   4.038   0.440   3.113
  701TIP3   OH2 2045   1.494   4.299   5.391
  701TIP3    H1 2046   1.558   4.237   5.356
  701TIP3    H2 2047   1.439   4.322   5.317
  702TIP3   OH2 2048   6.319   6.426   5.645
  702TIP3    H1 2049   6.232   6.423   5.685
  702TIP3    H2 2050   6.377   6.448   5.718
  703TIP3   OH2 2051   2.405   4.707   6.368
  703TIP3    H1 2052   2.432   4.697   6.459
  703TIP3    H2 2053   2.415   4.620   6.330
  704TIP3   OH2 2054   4.372   1.743   5.493
  704TIP3    H1 2055   4.325   1.668   5.531
  704TIP3    H2 2056   4.333   1.754   5.406
  705TIP3   OH2 2057   2.251   6.781   5.977
  705TIP3    H1 2058   2.318   6.732   6.025
  705TIP3    H2 2059   2.198   6.823   6.044
  706TIP3   OH2 2060   4.555   5.205   0.714
  706TIP3    H1 2061   4.525   5.207   0.805
  706TIP3    H2 2062   4.598   5.290   0.701
  707TIP3   OH2 2063   5.606   3.697   0.103
  707TIP3    H1 2064   5.612   3.745   0.020
  707TIP3    H2 2065   5.541   3.628   0.086
  708TIP3   OH2 2066   3.782   3.355   4.518
  708TIP3    H1 2067   3.724   3.424   4.488
  708TIP3    H2 2068   3.865   3.372   4.473
  709TIP3   OH2 2069   1.775   6.708   4.693
  709TIP3    H1 2070   1.870   6.713   4.690
  709TIP3    H2 2071   1.752   6.642   4.628
  710TIP3   OH2 2072   6.928   2.395   1.705
  710TIP3    H1 2073   6.889   2.378   1.791
  710TIP3    H2 2074   7.001   2.453   1.723
  711TIP3   OH2 2075   6.499   4.453   6.561
  711TIP3    H1 2076   6.482   4.521   6.496
  711TIP3    H2 2077   6.413   4.432   6.597
  712TIP3   OH2 2078   6.719   3.083   5.949
  712TIP3    H1 2079   6.763   3.010   5.992
  712TIP3    H2 2080   6.787   3.150   5.939
  713TIP3   OH2 2081   7.283   0.411   3.142
  713TIP3    H1 2082   7.311   0.335   3.193
  713TIP3    H2 2083   7.249   0.472   3.207
  714TIP3   OH2 2084   0.559   1.643   3.692
  714TIP3    H1 2085   0.515   1.559   3.702
  714TIP3    H2 2086   0.493   1.707   3.721
  715TIP3   OH2 2087   4.364   5.702   1.479
  715TIP3    H1 2088   4.446   5.655   1.492
  715TIP3    H2 2089   4.352   5.753   1.560
  716TIP3   OH2 2090   4.424   2.588   0.563
  716TIP3    H1 2091   4.505   2.637   0.575
  716TIP3    H2 2092   4.367   2.647   0.515
  717TIP3   OH2 2093   2.427   0.134   1.587
  717TIP3    H1 2094   2.449   0.054   1.539
  717TIP3    H2 2095   2.424   0.106   1.678
  718TIP3   OH2 2096   2.609   0.150   5.113
  718TIP3    H1 2097   2.639   0.236   5.084
  718TIP3    H2 2098   2.569   0.111   5.036
  719TIP3   OH2 2099   4.297   7.679   6.452
  719TIP3    H1 2100   4.365   7.679   6.384
  719TIP3    H2 2101   4.263   7.768   6.451
  720TIP3   OH2 2102   3.203   2.016   3.469
  720TIP3    H1 2103   3.278   1.959   3.451
  720TIP3    H2 2104   3.228   2.101   3.433
  721TIP3   OH2 2105   8.123   6.728   1.624
  721TIP3    H1 2106   8.201   6.694   1.670
  721TIP3    H2 2107   8.057   6.738   1.693
  722TIP3   OH2 2108   4.239   0.704   4.824
  722TIP3    H1 2109   4.163   0.721   4.881
  722TIP3    H2 2110   4.305   0.668   4.883
  723TIP3   OH2 2111   2.733   2.304   2.305
  723TIP3    H1 2112   2.664   2.294   2.239
  723TIP3    H2 2113   2.686   2.314   2.388
  724TIP3   OH2 2114   3.699   2.311   6.671
  724TIP3    H1 2115   3.712   2.380   6.606
  724TIP3    H2 2116   3.604   2.297   6.672
  725TIP3   OH2 2117   7.559   5.318   4.531
  725TIP3    H1 2118   7.578   5.412   4.524
  725TIP3    H2 2119   7.636   5.281   4.574
  726TIP3   OH2 2120   4.134   2.397   4.268
  726TIP3    H1 2121   4.163   2.430   4.183
  726TIP3    H2 2122   4.203   2.336   4.295
  727TIP3   OH2 2123   4.268   2.230   1.474
  727TIP3    H1 2124   4.275   2.138   1.447
  727TIP3    H2 2125   4.199   2.266   1.418
  728TIP3   OH2 2126   6.752   6.179   1.438
  728TIP3    H1 2127   6.702   6.187   1.357
  728TIP3    H2 2128   6.686   6.165   1.506
  729TIP3   OH2 2129   5.007   5.583   0.390
  729TIP3    H1 2130   4.933   5.585   0.450
  729TIP3    H2 2131   5.079   5.546   0.443
  730TIP3   OH2 2132   8.168   3.832   5.338
  730TIP3    H1 2133   8.237   3.876   5.288
  730TIP3    H2 2134   8.088   3.845   5.286
  731TIP3   OH2 2135   3.227   2.651   5.469
  731TIP3    H1 2136   3.299   2.611   5.420
  731TIP3    H2 2137   3.159   2.666   5.404
  732TIP3   OH2 2138   6.780   6.682   2.526
  732TIP3    H1 2139   6.726   6.754   2.492
  732TIP3    H2 2140   6.816   6.715   2.608
  733TIP3   OH2 2141   0.643   6.599   6.277
  733TIP3    H1 2142   0.567   6.541   6.287
  733TIP3    H2 2143   0.689   6.565   6.200
  734TIP3   OH2 2144   8.212   1.708   1.217
  734TIP3    H1 2145   8.285   1.663   1.173
  734TIP3    H2 2146   8.224   1.688   1.310
  735TIP3   OH2 2147   4.428   1.507   5.800
  735TIP3    H1 2148   4.454   1.431   5.852
  735TIP3    H2 2149   4.401   1.471   5.716
  736TIP3   OH2 2150   3.779   5.626   5.451
  736TIP3    H1 2151   3.789   5.549   5.506
  736TIP3    H2 2152   3.766   5.592   5.362
  737TIP3   OH2 2153   1.931   5.004   6.335
  737TIP3    H1 2154   1.996   5.065   6.372
  737TIP3    H2 2155   1.974   4.919   6.336
  738TIP3   OH2 2156   6.000   7.565   5.827
  738TIP3    H1 2157   5.917   7.579   5.781
  738TIP3    H2 2158   6.060   7.533   5.759
  739TIP3   OH2 2159   1.294   3.910   1.069
  739TIP3    H1 2160   1.348   3.889   1.146
  739TIP3    H2 2161   1.204   3.899   1.100
  740TIP3   OH2 2162   5.833   6.832   1.221
  740TIP3    H1 2163   5.770   6.833   1.293
  740TIP3    H2 2164   5.912   6.795   1.260
  741TIP3   OH2 2165   1.627   7.349   6.469
  741TIP3    H1 2166   1.613   7.379   6.380
  741TIP3    H2 2167   1.631   7.253   6.462
  742TIP3   OH2 2168   2.398   6.890   5.227
  742TIP3    H1 2169   2.303   6.897   5.224
  742TIP3    H2 2170   2.417   6.806   5.184
  743TIP3   OH2 2171   2.969   6.899   5.257
  743TIP3    H1 2172   2.929   6.889   5.171
  743TIP3    H2 2173   2.897   6.884   5.319
  744TIP3   OH2 2174   5.306   4.734   2.245
  744TIP3    H1 2175   5.265   4.677   2.310
  744TIP3    H2 2176   5.396   4.745   2.276
  745TIP3   OH2 2177   1.713   2.419   6.748
  745TIP3    H1 2178   1.692   2.345   6.691
  745TIP3    H2 2179   1.794   2.394   6.792
  746TIP3   OH2 2180   7.885   7.206   0.341
  746TIP3    H1 2181   7.850   7.295   0.348
  746TIP3    H2 2182   7.970   7.217   0.298
  747TIP3   OH2 2183   1.406   0.721   1.356
  747TIP3    H1 2184   1.408   0.800   1.302
  747TIP3    H2 2185   1.497   0.709   1.384
  748TIP3   OH2 2186   6.764   4.450   0.539
  748TIP3    H1 2187   6.777   4.444   0.633
  748TIP3    H2 2188   6.781   4.542   0.519
  749TIP3   OH2 2189   3.525   7.816   1.108
  749TIP3    H1 2190   3.455   7.775   1.158
  749TIP3    H2 2191   3.534   7.761   1.029
  750TIP3   OH2 2192   3.880   4.484   5.126
  750TIP3    H1 2193   3.854   4.394   5.143
  750TIP3    H2 2194   3.934   4.479   5.047
  751TIP3   OH2 2195   3.160   0.556   0.307
  751TIP3    H1 2196   3.086   0.583   0.362
  751TIP3    H2 2197   3.121   0.541   0.221
  752TIP3   OH2 2198   5.369   1.607   5.244
  752TIP3    H1 2199   5.389   1.625   5.152
  752TIP3    H2 2200   5.294   1.549   5.241
  753TIP3   OH2 2201   6.872   4.982   0.171
  753TIP3    H1 2202   6.957   4.971   0.214
  753TIP3    H2 2203   6.851   4.895   0.136
  754TIP3   OH2 2204   1.058   6.794   0.729
  754TIP3    H1 2205   0.993   6.835   0.671
  754TIP3    H2 2206   1.019   6.800   0.816
  755TIP3   OH2 2207   0.490   2.372   5.724
  755TIP3    H1 2208   0.406   2.402   5.688
  755TIP3    H2 2209   0.548   2.447   5.716
  756TIP3   OH2 2210   2.096   2.326   3.381
  756TIP3    H1 2211   2.011   2.358   3.352
  756TIP3    H2 2212   2.077   2.276   3.461
  757TIP3   OH2 2213   6.941   4.038   3.960
  757TIP3    H1 2214   7.010   4.055   3.895
  757TIP3    H2 2215   6.862   4.027   3.908
  758TIP3   OH2 2216   4.714   4.059   4.660
  758TIP3    H1 2217   4.739   4.096   4.575
  758TIP3    H2 2218   4.788   4.004   4.685
  759TIP3   OH2 2219   4.393   4.615   6.374
  759TIP3    H1 2220   4.358   4.601   6.286
  759TIP3    H2 2221   4.421   4.528   6.403
  760TIP3   OH2 2222   7.548   2.909   3.493
  760TIP3    H1 2223   7.479   2.853   3.457
  760TIP3    H2 2224   7.566   2.872   3.580
  761TIP3   OH2 2225   5.128   3.535   4.429
  761TIP3    H1 2226   5.105   3.538   4.336
  761TIP3    H2 2227   5.182   3.457   4.438
  762TIP3   OH2 2228   7.953   1.804   0.765
  762TIP3    H1 2229   7.964   1.823   0.858
  762TIP3    H2 2230   7.862   1.829   0.747
  763TIP3   OH2 2231   5.567   4.957   2.385
  763TIP3    H1 2232   5.651   4.997   2.364
  763TIP3    H2 2233   5.502   5.013   2.342
  764TIP3   OH2 2234   1.497   5.546   0.486
  764TIP3    H1 2235   1.496   5.539   0.391
  764TIP3    H2 2236   1.434   5.480   0.516
  765TIP3   OH2 2237   6.220   0.598   2.552
  765TIP3    H1 2238   6.272   0.519   2.538
  765TIP3    H2 2239   6.130   0.570   2.535
  766TIP3   OH2 2240   1.575   5.240   5.727
  766TIP3    H1 2241   1.610   5.179   5.794
  766TIP3    H2 2242   1.491   5.202   5.702
  767TIP3   OH2 2243   1.670   6.998   2.707
  767TIP3    H1 2244   1.588   7.034   2.670
  767TIP3    H2 2245   1.670   6.907   2.680
  768TIP3   OH2 2246   7.391   6.045   2.120
  768TIP3    H1 2247   7.297   6.033   2.131
  768TIP3    H2 2248   7.399   6.119   2.060
  769TIP3   OH2 2249   3.396   3.705   3.421
  769TIP3    H1 2250   3.434   3.764   3.487
  769TIP3    H2 2251   3.306   3.735   3.412
  770TIP3   OH2 2252   3.827   2.456   3.446
  770TIP3    H1 2253   3.832   2.404   3.527
  770TIP3    H2 2254   3.918   2.463   3.417
  771TIP3   OH2 2255   5.070   0.711   1.617
  771TIP3    H1 2256   5.025   0.642   1.567
  771TIP3    H2 2257   5.007   0.783   1.621
  772TIP3   OH2 2258   5.377   1.111   2.601
  772TIP3    H1 2259   5.328   1.068   2.531
  772TIP3    H2 2260   5.458   1.060   2.608
  773TIP3   OH2 2261   1.300   4.193   6.741
  773TIP3    H1 2262   1.395   4.181   6.735
  773TIP3    H2 2263   1.274   4.136   6.813
  774TIP3   OH2 2264   3.791   3.023   0.821
  774TIP3    H1 2265   3.738   3.100   0.799
  774TIP3    H2 2266   3.855   3.056   0.885
  775TIP3   OH2 2267   5.773   7.377   3.334
  775TIP3    H1 2268   5.770   7.473   3.336
  775TIP3    H2 2269   5.687   7.351   3.301
  776TIP3   OH2 2270   0.326   7.341   6.428
  776TIP3    H1 2271   0.246   7.322   6.378
  776TIP3    H2 2272   0.298   7.400   6.498
  777TIP3   OH2 2273   2.938   7.715   5.654
  777TIP3    H1 2274   2.871   7.651   5.675
  777TIP3    H2 2275   2.987   7.677   5.581
  778TIP3   OH2 2276   0.470   3.707   1.461
  778TIP3    H1 2277   0.534   3.711   1.390
  778TIP3    H2 2278   0.391   3.748   1.425
  779TIP3   OH2 2279   5.675   6.518   0.469
  779TIP3    H1 2280   5.729   6.584   0.513
  779TIP3    H2 2281   5.588   6.528   0.508
  780TIP3   OH2 2282   0.397   2.459   4.061
  780TIP3    H1 2283   0.376   2.382   4.008
  780TIP3    H2 2284   0.429   2.424   4.144
  781TIP3   OH2 2285   1.467   0.951   1.197
  781TIP3    H1 2286   1.557   0.932   1.169
  781TIP3    H2 2287   1.469   1.043   1.223
  782TIP3   OH2 2288   3.804   7.507   2.443
  782TIP3    H1 2289   3.877   7.463   2.400
  782TIP3    H2 2290   3.734   7.508   2.377
  783TIP3   OH2 2291   7.414   6.898   0.558
  783TIP3    H1 2292   7.389   6.806   0.551
  783TIP3    H2 2293   7.484   6.899   0.623
  784TIP3   OH2 2294   3.087   7.078   6.525
  784TIP3    H1 2295   3.057   7.012   6.588
  784TIP3    H2 2296   3.058   7.044   6.440
  785TIP3   OH2 2297   3.394   5.348   3.661
  785TIP3    H1 2298   3.454   5.422   3.667
  785TIP3    H2 2299   3.378   5.337   3.567
  786TIP3   OH2 2300   1.781   7.547   2.040
  786TIP3    H1 2301   1.753   7.638   2.049
  786TIP3    H2 2302   1.712   7.496   2.084
  787TIP3   OH2 2303   7.506   5.631   2.403
  787TIP3    H1 2304   7.466   5.687   2.469
  787TIP3    H2 2305   7.448   5.555   2.398
  788TIP3   OH2 2306   2.347   5.486   5.172
  788TIP3    H1 2307   2.290   5.424   5.218
  788TIP3    H2 2308   2.308   5.494   5.085
  789TIP3   OH2 2309   2.511   5.986   6.755
  789TIP3    H1 2310   2.594   6.001   6.710
  789TIP3    H2 2311   2.515   5.895   6.784
  790TIP3   OH2 2312   5.658   6.831   1.410
  790TIP3    H1 2313   5.588   6.772   1.440
  790TIP3    H2 2314   5.645   6.911   1.460
  791TIP3   OH2 2315   7.652   6.408   1.456
  791TIP3    H1 2316   7.712   6.418   1.530
  791TIP3    H2 2317   7.565   6.422   1.494
  792TIP3   OH2 2318   0.251   1.244   2.803
  792TIP3    H1 2319   0.201   1.305   2.748
  792TIP3    H2 2320   0.199   1.164   2.804
  793TIP3   OH2 2321   6.812   4.982   5.622
  793TIP3    H1 2322   6.779   4.950   5.705
  793TIP3    H2 2323   6.768   5.066   5.609
  794TIP3   OH2 2324   1.683   2.937   4.600
  794TIP3    H1 2325   1.628   3.002   4.643
  794TIP3    H2 2326   1.772   2.967   4.615
  795TIP3   OH2 2327   7.294   7.007   1.031
  795TIP3    H1 2328   7.209   7.050   1.035
  795TIP3    H2 2329   7.329   7.014   1.120
  796TIP3   OH2 2330   5.302   0.645   3.873
  796TIP3    H1 2331   5.361   0.719   3.887
  796TIP3    H2 2332   5.294   0.604   3.959
  797TIP3   OH2 2333   6.671   7.108   3.805
  797TIP3    H1 2334   6.581   7.109   3.837
  797TIP3    H2 2335   6.725   7.105   3.884
  798TIP3   OH2 2336   0.909   1.605   2.207
  798TIP3    H1 2337   0.968   1.675   2.178
  798TIP3    H2 2338   0.826   1.649   2.223
  799TIP3   OH2 2339   4.453   3.561   5.084
  799TIP3    H1 2340   4.416   3.576   5.171
  799TIP3    H2 2341   4.475   3.649   5.052
  800TIP3   OH2 2342   1.990   5.645   3.916
  800TIP3    H1 2343   2.055   5.696   3.964
  800TIP3    H2 2344   1.962   5.577   3.978
  801TIP3   OH2 2345   2.789   4.195   4.535
  801TIP3    H1 2346   2.819   4.279   4.569
  801TIP3    H2 2347   2.710   4.175   4.585
  802TIP3   OH2 2348   2.500   5.483   2.876
  802TIP3    H1 2349   2.478   5.392   2.857
  802TIP3    H2 2350   2.478   5.495   2.968
  803TIP3   OH2 2351   2.780   7.156   2.665
  803TIP3    H1 2352   2.686   7.167   2.676
  803TIP3    H2 2353   2.789   7.091   2.596
  804TIP3   OH2 2354   4.383   0.106   3.262
  804TIP3    H1 2355   4.370   0.025   3.213
  804TIP3    H2 2356   4.402   0.172   3.196
  805TIP3   OH2 2357   5.123   2.037   0.644
  805TIP3    H1 2358   5.191   2.006   0.705
  805TIP3    H2 2359   5.139   1.987   0.564
  806TIP3   OH2 2360   2.255   4.761   5.328
  806TIP3    H1 2361   2.311   4.738   5.253
  806TIP3    H2 2362   2.293   4.842   5.362
  807TIP3   OH2 2363   5.577   4.563   6.519
  807TIP3    H1 2364   5.518   4.534   6.450
  807TIP3    H2 2365   5.589   4.657   6.504
  808TIP3   OH2 2366   4.432   7.162   2.389
  808TIP3    H1 2367   4.510   7.218   2.389
  808TIP3    H2 2368   4.466   7.074   2.370
  809TIP3   OH2 2369   4.508   0.385   2.082
  809TIP3    H1 2370   4.560   0.305   2.087
  809TIP3    H2 2371   4.561   0.445   2.029
  810TIP3   OH2 2372   6.516   4.117   5.412
  810TIP3    H1 2373   6.606   4.104   5.442
  810TIP3    H2 2374   6.520   4.193   5.354
  811TIP3   OH2 2375   3.739   3.463   1.761
  811TIP3    H1 2376   3.644   3.466   1.774
  811TIP3    H2 2377   3.759   3.541   1.710
  812TIP3   OH2 2378   0.581   0.220   2.007
  812TIP3    H1 2379   0.535   0.304   2.012
  812TIP3    H2 2380   0.594   0.205   1.914
  813TIP3   OH2 2381   4.477   1.911   1.719
  813TIP3    H1 2382   4.437   1.978   1.775
  813TIP3    H2 2383   4.402   1.862   1.685
  814TIP3   OH2 2384   8.280   2.845   4.671
  814TIP3    H1 2385   8.333   2.859   4.749
  814TIP3    H2 2386   8.234   2.763   4.688
  815TIP3   OH2 2387   1.231   6.718   3.790
  815TIP3    H1 2388   1.246   6.764   3.708
  815TIP3    H2 2389   1.136   6.708   3.795
  816TIP3   OH2 2390   1.353   1.760   3.868
  816TIP3    H1 2391   1.320   1.709   3.942
  816TIP3    H2 2392   1.309   1.722   3.792
  817TIP3   OH2 2393   5.497   7.360   1.852
  817TIP3    H1 2394   5.442   7.323   1.783
  817TIP3    H2 2395   5.534   7.440   1.814
  818TIP3   OH2 2396   5.800   2.678   2.092
  818TIP3    H1 2397   5.766   2.764   2.068
  818TIP3    H2 2398   5.725   2.620   2.088
  819TIP3   OH2 2399   3.070   1.563   3.368
  819TIP3    H1 2400   3.078   1.482   3.417
  819TIP3    H2 2401   3.021   1.539   3.289
  820TIP3   OH2 2402   6.572   0.466   3.751
  820TIP3    H1 2403   6.656   0.439   3.787
  820TIP3    H2 2404   6.585   0.466   3.656
  821TIP3   OH2 2405   7.240   2.558   5.050
  821TIP3    H1 2406   7.333   2.540   5.036
  821TIP3    H2 2407   7.238   2.616   5.126
  822TIP3   OH2 2408   0.426   2.608   3.845
  822TIP3    H1 2409   0.460   2.551   3.776
  822TIP3    H2 2410   0.444   2.561   3.926
  823TIP3   OH2 2411   6.657   6.755   2.189
  823TIP3    H1 2412   6.650   6.759   2.285
  823TIP3    H2 2413   6.571   6.723   2.161
  824TIP3   OH2 2414   5.965   2.856   0.130
  824TIP3    H1 2415   6.026   2.919   0.092
  824TIP3    H2 2416   6.003   2.832   0.214
  825TIP3   OH2 2417   5.405   2.105   4.818
  825TIP3    H1 2418   5.451   2.094   4.735
  825TIP3    H2 2419   5.474   2.112   4.884
  826TIP3   OH2 2420   1.009   5.313   1.871
  826TIP3    H1 2421   0.944   5.375   1.837
  826TIP3    H2 2422   1.085   5.324   1.815
  827TIP3   OH2 2423   7.573   6.539   3.597
  827TIP3    H1 2424   7.576   6.595   3.675
  827TIP3    H2 2425   7.592   6.598   3.524
  828TIP3   OH2 2426   4.680   6.861   4.105
  828TIP3    H1 2427   4.628   6.920   4.051
  828TIP3    H2 2428   4.771   6.885   4.087
  829TIP3   OH2 2429   2.389   0.683   6.029
  829TIP3    H1 2430   2.323   0.721   5.972
  829TIP3    H2 2431   2.460   0.748   6.029
  830TIP3   OH2 2432   8.181   1.770   6.092
  830TIP3    H1 2433   8.150   1.686   6.057
  830TIP3    H2 2434   8.162   1.765   6.186
  831TIP3   OH2 2435   2.532   1.179   5.687
  831TIP3    H1 2436   2.560   1.096   5.648
  831TIP3    H2 2437   2.571   1.246   5.631
  832TIP3   OH2 2438   2.424   4.604   5.084
  832TIP3    H1 2439   2.510   4.646   5.084
  832TIP3    H2 2440   2.393   4.613   4.994
  833TIP3   OH2 2441   8.198   1.546   4.746
  833TIP3    H1 2442   8.111   1.507   4.731
  833TIP3    H2 2443   8.252   1.472   4.775
  834TIP3   OH2 2444   4.376   2.378   6.311
  834TIP3    H1 2445   4.285   2.353   6.326
  834TIP3    H2 2446   4.372   2.473   6.295
  835TIP3   OH2 2447   0.083   5.459   1.219
  835TIP3    H1 2448   0.041   5.537   1.255
  835TIP3    H2 2449   0.040   5.386   1.264
  836TIP3   OH2 2450   2.447   7.075   4.472
  836TIP3    H1 2451   2.387   7.054   4.543
  836TIP3    H2 2452   2.390   7.102   4.400
  837TIP3   OH2 2453   0.064   7.430   4.535
  837TIP3    H1 2454   0.141   7.417   4.479
  837TIP3    H2 2455   0.007   7.356   4.513
  838TIP3   OH2 2456   6.763   5.904   1.547
  838TIP3    H1 2457   6.792   5.976   1.602
  838TIP3    H2 2458   6.841   5.851   1.532
  839TIP3   OH2 2459   2.835   6.944   4.725
  839TIP3    H1 2460   2.780   7.009   4.682
  839TIP3    H2 2461   2.922   6.958   4.688
  840TIP3   OH2 2462   4.833   3.109   0.650
  840TIP3    H1 2463   4.764   3.125   0.587
  840TIP3    H2 2464   4.870   3.025   0.625
  841TIP3   OH2 2465   2.884   6.372   6.738
  841TIP3    H1 2466   2.925   6.288   6.759
  841TIP3    H2 2467   2.859   6.408   6.823
  842TIP3   OH2 2468   5.889   5.290   0.467
  842TIP3    H1 2469   5.863   5.240   0.390
  842TIP3    H2 2470   5.809   5.333   0.496
  843TIP3   OH2 2471   7.546   6.648   4.496
  843TIP3    H1 2472   7.516   6.719   4.552
  843TIP3    H2 2473   7.528   6.677   4.407
  844TIP3   OH2 2474   0.344   3.690   3.801
  844TIP3    H1 2475   0.424   3.714   3.754
  844TIP3    H2 2476   0.333   3.759   3.867
  845TIP3   OH2 2477   7.357   5.578   5.558
  845TIP3    H1 2478   7.295   5.641   5.521
  845TIP3    H2 2479   7.440   5.599   5.517
  846TIP3   OH2 2480   0.363   2.597   1.943
  846TIP3    H1 2481   0.394   2.629   2.028
  846TIP3    H2 2482   0.351   2.503   1.956
  847TIP3   OH2 2483   2.095   6.715   3.764
  847TIP3    H1 2484   2.003   6.742   3.772
  847TIP3    H2 2485   2.141   6.770   3.828
  848TIP3   OH2 2486   5.717  -0.014   5.957
  848TIP3    H1 2487   5.734   0.076   5.982
  848TIP3    H2 2488   5.644  -0.009   5.894
  849TIP3   OH2 2489   2.570   1.022   0.096
  849TIP3    H1 2490   2.506   0.954   0.116
  849TIP3    H2 2491   2.625   0.983   0.028
  850TIP3   OH2 2492   7.116   2.422   2.495
  850TIP3    H1 2493   7.169   2.420   2.574
  850TIP3    H2 2494   7.027   2.443   2.525
  851TIP3   OH2 2495   2.102   4.157   2.065
  851TIP3    H1 2496   2.068   4.128   2.150
  851TIP3    H2 2497   2.025   4.184   2.016
  852TIP3   OH2 2498   6.984   2.686   6.451
  852TIP3    H1 2499   6.935   2.734   6.518
  852TIP3    H2 2500   7.047   2.749   6.416
  853TIP3   OH2 2501   2.442   6.728   5.711
  853TIP3    H1 2502   2.393   6.806   5.736
  853TIP3    H2 2503   2.376   6.657   5.712
  854TIP3   OH2 2504   2.487   2.408   5.182
  854TIP3    H1 2505   2.410   2.378   5.135
  854TIP3    H2 2506   2.549   2.433   5.113
  855TIP3   OH2 2507   4.627   5.990   5.394
  855TIP3    H1 2508   4.648   5.907   5.352
  855TIP3    H2 2509   4.578   5.965   5.472
  856TIP3   OH2 2510   0.068   0.067   3.762
  856TIP3    H1 2511   0.154   0.072   3.719
  856TIP3    H2 2512   0.086   0.021   3.844
  857TIP3   OH2 2513   6.435   2.511   0.315
  857TIP3    H1 2514   6.374   2.573   0.353
  857TIP3    H2 2515   6.510   2.564   0.288
  858TIP3   OH2 2516   5.710   4.394   2.690
  858TIP3    H1 2517   5.668   4.407   2.604
  858TIP3    H2 2518   5.785   4.453   2.689
  859TIP3   OH2 2519   6.870   2.037   2.383
  859TIP3    H1 2520   6.878   2.008   2.474
  859TIP3    H2 2521   6.933   2.108   2.376
  860TIP3   OH2 2522   5.065   6.733   1.055
  860TIP3    H1 2523   5.036   6.819   1.026
  860TIP3    H2 2524   5.139   6.711   0.999
  861TIP3   OH2 2525   4.869   2.939   5.835
  861TIP3    H1 2526   4.826   2.950   5.750
  861TIP3    H2 2527   4.815   2.991   5.895
  862TIP3   OH2 2528   5.296   1.199   4.028
  862TIP3    H1 2529   5.319   1.242   4.110
  862TIP3    H2 2530   5.266   1.270   3.971
  863TIP3   OH2 2531   2.699   6.850   6.278
  863TIP3    H1 2532   2.671   6.888   6.195
  863TIP3    H2 2533   2.637   6.883   6.343
  864TIP3   OH2 2534   7.520   3.459   6.451
  864TIP3    H1 2535   7.557   3.502   6.528
  864TIP3    H2 2536   7.429   3.489   6.449
  865TIP3   OH2 2537   4.660   1.784   5.332
  865TIP3    H1 2538   4.621   1.871   5.329
  865TIP3    H2 2539   4.644   1.748   5.245
  866TIP3   OH2 2540   8.109   2.618   1.123
  866TIP3    H1 2541   8.025   2.613   1.077
  866TIP3    H2 2542   8.110   2.540   1.179
  867TIP3   OH2 2543   8.102   3.212   2.032
  867TIP3    H1 2544   8.075   3.142   1.973
  867TIP3    H2 2545   8.108   3.290   1.977
  868TIP3   OH2 2546   1.625   4.644   3.811
  868TIP3    H1 2547   1.613   4.550   3.823
  868TIP3    H2 2548   1.572   4.683   3.881
  869TIP3   OH2 2549   5.920   5.499   3.534
  869TIP3    H1 2550   5.831   5.521   3.505
  869TIP3    H2 2551   5.948   5.430   3.474
  870TIP3   OH2 2552   1.084   2.981   4.087
  870TIP3    H1 2553   1.137   2.922   4.140
  870TIP3    H2 2554   1.090   2.946   3.998
  871TIP3   OH2 2555   3.552   0.255   5.298
  871TIP3    H1 2556   3.592   0.255   5.211
  871TIP3    H2 2557   3.598   0.324   5.346
  872TIP3   OH2 2558   5.693   5.330   1.338
  872TIP3    H1 2559   5.732   5.262   1.282
  872TIP3    H2 2560   5.679   5.285   1.422
  873TIP3   OH2 2561   3.978   1.798   5.033
  873TIP3    H1 2562   4.027   1.718   5.015
  873TIP3    H2 2563   3.942   1.784   5.121
  874TIP3   OH2 2564   5.405   1.629   2.831
  874TIP3    H1 2565   5.499   1.647   2.821
  874TIP3    H2 2566   5.396   1.536   2.811
  875TIP3   OH2 2567   0.138   7.731   3.877
  875TIP3    H1 2568   0.198   7.793   3.834
  875TIP3    H2 2569   0.128   7.766   3.965
  876TIP3   OH2 2570   3.613   3.484   2.965
  876TIP3    H1 2571   3.522   3.461   2.951
  876TIP3    H2 2572   3.654   3.475   2.878
  877TIP3   OH2 2573   3.535   3.618   4.733
  877TIP3    H1 2574   3.571   3.543   4.782
  877TIP3    H2 2575   3.582   3.618   4.650
  878TIP3   OH2 2576   2.175   4.888   2.636
  878TIP3    H1 2577   2.244   4.831   2.669
  878TIP3    H2 2578   2.206   4.915   2.549
  879TIP3   OH2 2579   4.170   1.277   1.036
  879TIP3    H1 2580   4.100   1.335   1.007
  879TIP3    H2 2581   4.186   1.219   0.961
  880TIP3   OH2 2582   2.195   2.551   1.901
  880TIP3    H1 2583   2.137   2.500   1.844
  880TIP3    H2 2584   2.168   2.642   1.886
  881TIP3   OH2 2585   4.954   1.465   0.188
  881TIP3    H1 2586   4.894   1.420   0.248
  881TIP3    H2 2587   4.925   1.556   0.187
  882TIP3   OH2 2588   2.641   1.099   4.471
  882TIP3    H1 2589   2.684   1.052   4.542
  882TIP3    H2 2590   2.691   1.179   4.461
  883TIP3   OH2 2591   3.958   1.797   6.259
  883TIP3    H1 2592   4.006   1.825   6.336
  883TIP3    H2 2593   3.971   1.702   6.256
  884TIP3   OH2 2594   2.623   3.761   6.096
  884TIP3    H1 2595   2.667   3.676   6.098
  884TIP3    H2 2596   2.645   3.802   6.179
  885TIP3   OH2 2597   0.657   7.537   3.881
  885TIP3    H1 2598   0.580   7.481   3.878
  885TIP3    H2 2599   0.644   7.599   3.809
  886TIP3   OH2 2600   2.477   4.466   0.749
  886TIP3    H1 2601   2.388   4.503   0.756
  886TIP3    H2 2602   2.477   4.393   0.810
  887TIP3   OH2 2603   7.404   7.125   0.816
  887TIP3    H1 2604   7.434   7.039   0.787
  887TIP3    H2 2605   7.382   7.112   0.909
  888TIP3   OH2 2606   6.686   4.752   2.674
  888TIP3    H1 2607   6.709   4.695   2.601
  888TIP3    H2 2608   6.636   4.696   2.733
  889TIP3   OH2 2609   1.983   7.097   1.090
  889TIP3    H1 2610   1.969   7.173   1.147
  889TIP3    H2 2611   1.896   7.077   1.056
  890TIP3   OH2 2612   2.731   1.852   4.009
  890TIP3    H1 2613   2.669   1.905   4.059
  890TIP3    H2 2614   2.681   1.774   3.985
  891TIP3   OH2 2615   2.016   0.042   0.021
  891TIP3    H1 2616   2.076   0.100  -0.027
  891TIP3    H2 2617   2.070  -0.035   0.043
  892TIP3   OH2 2618   6.093   4.304   2.776
  892TIP3    H1 2619   6.020   4.347   2.819
  892TIP3    H2 2620   6.161   4.298   2.843
  893TIP3   OH2 2621   1.100   1.011   4.013
  893TIP3    H1 2622   1.124   0.941   4.073
  893TIP3    H2 2623   1.177   1.023   3.957
  894TIP3   OH2 2624   0.565   5.066   1.751
  894TIP3    H1 2625   0.575   5.078   1.845
  894TIP3    H2 2626   0.471   5.081   1.735
  895TIP3   OH2 2627   7.880   5.725   0.656
  895TIP3    H1 2628   7.927   5.676   0.723
  895TIP3    H2 2629   7.790   5.692   0.662
  896TIP3   OH2 2630   4.020   3.989   6.102
  896TIP3    H1 2631   3.997   4.043   6.178
  896TIP3    H2 2632   4.095   4.035   6.063
  897TIP3   OH2 2633   2.499   2.809   4.991
  897TIP3    H1 2634   2.499   2.897   5.029
  897TIP3    H2 2635   2.590   2.793   4.967
  898TIP3   OH2 2636   5.431   1.712   5.605
  898TIP3    H1 2637   5.447   1.746   5.517
  898TIP3    H2 2638   5.343   1.675   5.601
  899TIP3   OH2 2639   3.646   7.477   2.226
  899TIP3    H1 2640   3.651   7.390   2.187
  899TIP3    H2 2641   3.557   7.507   2.205
  900TIP3   OH2 2642   4.861   1.250   6.199
  900TIP3    H1 2643   4.897   1.192   6.131
  900TIP3    H2 2644   4.778   1.281   6.163
  901TIP3   OH2 2645   3.353   2.967   2.096
  901TIP3    H1 2646   3.272   2.932   2.132
  901TIP3    H2 2647   3.416   2.896   2.103
  902TIP3   OH2 2648   7.131   3.242   3.344
  902TIP3    H1 2649   7.045   3.265   3.379
  902TIP3    H2 2650   7.134   3.283   3.258
  903TIP3   OH2 2651   7.333   5.038   0.550
  903TIP3    H1 2652   7.375   5.124   0.546
  903TIP3    H2 2653   7.379   4.986   0.484
  904TIP3   OH2 2654   8.036   1.014   3.515
  904TIP3    H1 2655   7.946   0.983   3.525
  904TIP3    H2 2656   8.038   1.096   3.565
  905TIP3   OH2 2657   1.679   4.759   4.784
  905TIP3    H1 2658   1.669   4.781   4.876
  905TIP3    H2 2659   1.686   4.843   4.739
  906TIP3   OH2 2660   4.657   2.887   5.334
  906TIP3    H1 2661   4.649   2.951   5.264
  906TIP3    H2 2662   4.592   2.915   5.399
  907TIP3   OH2 2663   4.390   3.585   4.342
  907TIP3    H1 2664   4.404   3.656   4.404
  907TIP3    H2 2665   4.467   3.529   4.353
  908TIP3   OH2 2666   0.741   3.094   1.033
  908TIP3    H1 2667   0.775   3.070   1.119
  908TIP3    H2 2668   0.750   3.014   0.981
  909TIP3   OH2 2669   5.952   2.791   1.282
  909TIP3    H1 2670   5.996   2.841   1.350
  909TIP3    H2 2671   5.977   2.701   1.298
  910TIP3   OH2 2672   1.499   2.192   2.190
  910TIP3    H1 2673   1.520   2.249   2.116
  910TIP3    H2 2674   1.567   2.213   2.255
  911TIP3   OH2 2675   5.709   0.840   4.768
  911TIP3    H1 2676   5.794   0.801   4.747
  911TIP3    H2 2677   5.715   0.862   4.861
  912TIP3   OH2 2678   2.102   1.240   2.805
  912TIP3    H1 2679   2.167   1.225   2.874
  912TIP3    H2 2680   2.096   1.335   2.798
  913TIP3   OH2 2681   0.697   2.186   0.572
  913TIP3    H1 2682   0.623   2.153   0.623
  913TIP3    H2 2683   0.769   2.190   0.634
  914TIP3   OH2 2684   8.041   1.984   3.090
  914TIP3    H1 2685   8.015   1.964   3.000
  914TIP3    H2 2686   7.987   1.927   3.144
  915TIP3   OH2 2687   7.627   4.661   6.037
  915TIP3    H1 2688   7.717   4.660   6.004
  915TIP3    H2 2689   7.575   4.699   5.966
  916TIP3   OH2 2690   6.366   6.285   4.221
  916TIP3    H1 2691   6.311   6.350   4.177
  916TIP3    H2 2692   6.322   6.202   4.206
  917TIP3   OH2 2693   5.500   2.785   2.926
  917TIP3    H1 2694   5.414   2.793   2.968
  917TIP3    H2 2695   5.562   2.782   2.998
  918TIP3   OH2 2696   1.905   4.250   3.082
  918TIP3    H1 2697   1.836   4.303   3.122
  918TIP3    H2 2698   1.887   4.253   2.988
  919TIP3   OH2 2699   3.073   3.248   6.378
  919TIP3    H1 2700   3.053   3.234   6.471
  919TIP3    H2 2701   3.097   3.161   6.346
  920TIP3   OH2 2702   3.941   3.471   4.737
  920TIP3    H1 2703   3.876   3.428   4.682
  920TIP3    H2 2704   3.894   3.494   4.817
  921TIP3   OH2 2705   1.199   1.398   6.474
  921TIP3    H1 2706   1.230   1.345   6.400
  921TIP3    H2 2707   1.138   1.340   6.521
  922TIP3   OH2 2708   1.569   3.007   0.408
  922TIP3    H1 2709   1.547   3.074   0.472
  922TIP3    H2 2710   1.569   3.053   0.324
  923TIP3   OH2 2711   7.741   2.429   3.954
  923TIP3    H1 2712   7.729   2.351   4.008
  923TIP3    H2 2713   7.820   2.470   3.987
  924TIP3   OH2 2714   0.620   0.032   2.756
  924TIP3    H1 2715   0.695  -0.011   2.714
  924TIP3    H2 2716   0.547  -0.027   2.739
  925TIP3   OH2 2717   4.439   6.250   5.663
  925TIP3    H1 2718   4.400   6.163   5.653
  925TIP3    H2 2719   4.531   6.238   5.639
  926TIP3   OH2 2720   1.593   7.444   6.217
  926TIP3    H1 2721   1.537   7.455   6.141
  926TIP3    H2 2722   1.681   7.432   6.180
  927TIP3   OH2 2723   5.721   1.959   4.142
  927TIP3    H1 2724   5.769   2.041   4.153
  927TIP3    H2 2725   5.757   1.922   4.061
  928TIP3   OH2 2726   0.175   6.325   3.732
  928TIP3    H1 2727   0.223   6.262   3.679
  928TIP3    H2 2728   0.142   6.275   3.807
  929TIP3   OH2 2729   3.080   4.567   2.558
  929TIP3    H1 2730   3.127   4.580   2.640
  929TIP3    H2 2731   2.988   4.574   2.581
  930TIP3   OH2 2732   0.890   6.960   6.391
  930TIP3    H1 2733   0.870   7.047   6.425
  930TIP3    H2 2734   0.983   6.947   6.411
  931TIP3   OH2 2735   0.209   0.022   3.391
  931TIP3    H1 2736   0.257  -0.026   3.323
  931TIP3    H2 2737   0.191   0.107   3.352
  932TIP3   OH2 2738   2.430   5.906   6.236
  932TIP3    H1 2739   2.479   5.825   6.253
  932TIP3    H2 2740   2.428   5.950   6.321
  933TIP3   OH2 2741   3.158   1.731   3.066
  933TIP3    H1 2742   3.126   1.772   3.146
  933TIP3    H2 2743   3.124   1.785   2.995
  934TIP3   OH2 2744   0.665   7.425   4.176
  934TIP3    H1 2745   0.666   7.471   4.092
  934TIP3    H2 2746   0.574   7.433   4.206
  935TIP3   OH2 2747   1.851   0.222   5.637
  935TIP3    H1 2748   1.806   0.210   5.554
  935TIP3    H2 2749   1.919   0.154   5.639
  936TIP3   OH2 2750   4.977   0.605   3.355
  936TIP3    H1 2751   5.010   0.527   3.400
  936TIP3    H2 2752   5.056   0.655   3.333
  937TIP3   OH2 2753   4.066   2.669   2.336
  937TIP3    H1 2754   3.978   2.653   2.302
  937TIP3    H2 2755   4.079   2.601   2.402
  938TIP3   OH2 2756   4.127   1.170   3.705
  938TIP3    H1 2757   4.165   1.090   3.670
  938TIP3    H2 2758   4.033   1.163   3.684
  939TIP3   OH2 2759   6.197   3.037   2.569
  939TIP3    H1 2760   6.286   3.049   2.603
  939TIP3    H2 2761   6.174   2.947   2.592
  940TIP3   OH2 2762   5.172   6.805   2.885
  940TIP3    H1 2763   5.088   6.787   2.929
  940TIP3    H2 2764   5.213   6.720   2.875
  941TIP3   OH2 2765   1.027   7.363   6.313
  941TIP3    H1 2766   1.024   7.315   6.230
  941TIP3    H2 2767   0.975   7.311   6.373
  942TIP3   OH2 2768   0.283   3.859   2.914
  942TIP3    H1 2769   0.262   3.936   2.862
  942TIP3    H2 2770   0.336   3.893   2.987
  943TIP3   OH2 2771   1.466   4.852   5.427
  943TIP3    H1 2772   1.429   4.887   5.346
  943TIP3    H2 2773   1.555   4.826   5.403
  944TIP3   OH2 2774   2.816   1.383   4.852
  944TIP3    H1 2775   2.788   1.475   4.844
  944TIP3    H2 2776   2.911   1.388   4.857
  945TIP3   OH2 2777   6.132   0.942   0.650
  945TIP3    H1 2778   6.086   0.889   0.586
  945TIP3    H2 2779   6.219   0.955   0.612
  946TIP3   OH2 2780   6.808   1.506   2.915
  946TIP3    H1 2781   6.722   1.484   2.878
  946TIP3    H2 2782   6.870   1.452   2.865
  947TIP3   OH2 2783   7.174   3.092   5.817
  947TIP3    H1 2784   7.155   3.116   5.727
  947TIP3    H2 2785   7.250   3.034   5.811
  948TIP3   OH2 2786   0.958   6.537   3.552
  948TIP3    H1 2787   0.911   6.587   3.619
  948TIP3    H2 2788   0.908   6.455   3.545
  949TIP3   OH2 2789   4.387   3.602   4.706
  949TIP3    H1 2790   4.424   3.654   4.635
  949TIP3    H2 2791   4.462   3.577   4.759
  950TIP3   OH2 2792   3.077   4.846   3.532
  950TIP3    H1 2793   3.168   4.868   3.514
  950TIP3    H2 2794   3.079   4.752   3.550
  951TIP3   OH2 2795   0.205   0.824   5.045
  951TIP3    H1 2796   0.237   0.743   5.087
  951TIP3    H2 2797   0.227   0.813   4.953
  952TIP3   OH2 2798   4.368   7.045   2.812
  952TIP3    H1 2799   4.296   7.035   2.750
  952TIP3    H2 2800   4.348   7.126   2.859
  953TIP3   OH2 2801   3.050   3.150   5.961
  953TIP3    H1 2802   2.978   3.162   5.899
  953TIP3    H2 2803   3.115   3.098   5.912
  954TIP3   OH2 2804   1.719   5.022   5.965
  954TIP3    H1 2805   1.647   5.075   5.999
  954TIP3    H2 2806   1.795   5.051   6.016
  955TIP3   OH2 2807   2.025   1.455   5.169
  955TIP3    H1 2808   1.949   1.487   5.219
  955TIP3    H2 2809   2.050   1.530   5.115
  956TIP3   OH2 2810   0.265   0.675   6.488
  956TIP3    H1 2811   0.211   0.600   6.513
  956TIP3    H2 2812   0.272   0.669   6.393
  957TIP3   OH2 2813   8.057   1.193   0.740
  957TIP3    H1 2814   8.097   1.280   0.732
  957TIP3    H2 2815   7.993   1.190   0.669
  958TIP3   OH2 2816   2.522   6.629   3.895
  958TIP3    H1 2817   2.492   6.637   3.805
  958TIP3    H2 2818   2.459   6.679   3.947
  959TIP3   OH2 2819   7.257   7.027   5.302
  959TIP3    H1 2820   7.183   7.032   5.242
  959TIP3    H2 2821   7.330   6.997   5.248
  960TIP3   OH2 2822   0.822   2.198   4.504
  960TIP3    H1 2823   0.864   2.125   4.549
  960TIP3    H2 2824   0.895   2.252   4.472
  961TIP3   OH2 2825   4.465   7.644   6.221
  961TIP3    H1 2826   4.471   7.555   6.185
  961TIP3    H2 2827   4.547   7.686   6.196
  962TIP3   OH2 2828   1.559   6.534   3.955
  962TIP3    H1 2829   1.614   6.612   3.964
  962TIP3    H2 2830   1.612   6.474   3.902
  963TIP3   OH2 2831   7.037   3.843   5.657
  963TIP3    H1 2832   7.058   3.869   5.568
  963TIP3    H2 2833   6.947   3.873   5.670
  964TIP3   OH2 2834   5.538   3.385   6.372
  964TIP3    H1 2835   5.495   3.470   6.367
  964TIP3    H2 2836   5.589   3.378   6.292
  965TIP3   OH2 2837   2.962   6.839   6.592
  965TIP3    H1 2838   2.960   6.780   6.516
  965TIP3    H2 2839   2.876   6.829   6.632
  966TIP3   OH2 2840   7.898   5.646   4.742
  966TIP3    H1 2841   7.870   5.555   4.741
  966TIP3    H2 2842   7.976   5.648   4.687
  967TIP3   OH2 2843   2.456   5.101   0.692
  967TIP3    H1 2844   2.506   5.092   0.611
  967TIP3    H2 2845   2.372   5.136   0.664
  968TIP3   OH2 2846   4.004   0.906   2.824
  968TIP3    H1 2847   3.949   0.917   2.746
  968TIP3    H2 2848   3.972   0.970   2.887
  969TIP3   OH2 2849   6.415   4.074   4.835
  969TIP3    H1 2850   6.481   4.044   4.898
  969TIP3    H2 2851   6.462   4.080   4.752
  970TIP3   OH2 2852   5.768   0.514   6.089
  970TIP3    H1 2853   5.842   0.523   6.149
  970TIP3    H2 2854   5.761   0.600   6.047
  971TIP3   OH2 2855   5.389   6.847   2.675
  971TIP3    H1 2856   5.312   6.851   2.618
  971TIP3    H2 2857   5.357   6.872   2.762
  972TIP3   OH2 2858   2.209   6.505   2.780
  972TIP3    H1 2859   2.184   6.414   2.769
  972TIP3    H2 2860   2.303   6.503   2.795
  973TIP3   OH2 2861   8.122   4.572   6.638
  973TIP3    H1 2862   8.195   4.510   6.642
  973TIP3    H2 2863   8.044   4.518   6.627
  974TIP3   OH2 2864   1.123   1.017   1.911
  974TIP3    H1 2865   1.171   0.960   1.971
  974TIP3    H2 2866   1.075   0.956   1.854
  975TIP3   OH2 2867   0.489   1.234   0.913
  975TIP3    H1 2868   0.444   1.172   0.969
  975TIP3    H2 2869   0.520   1.302   0.972
  976TIP3   OH2 2870   5.751   2.453   3.788
  976TIP3    H1 2871   5.724   2.361   3.782
  976TIP3    H2 2872   5.758   2.482   3.697
  977TIP3   OH2 2873   2.332   2.677   4.771
  977TIP3    H1 2874   2.376   2.760   4.790
  977TIP3    H2 2875   2.240   2.694   4.792
  978TIP3   OH2 2876   2.871   5.154   2.117
  978TIP3    H1 2877   2.823   5.237   2.113
  978TIP3    H2 2878   2.955   5.173   2.075
  979TIP3   OH2 2879   3.170   5.093   0.158
  979TIP3    H1 2880   3.185   5.000   0.175
  979TIP3    H2 2881   3.218   5.138   0.227
  980TIP3   OH2 2882   3.333   2.119   0.225
  980TIP3    H1 2883   3.422   2.085   0.220
  980TIP3    H2 2884   3.277   2.041   0.226
  981TIP3   OH2 2885   5.611   7.737   4.801
  981TIP3    H1 2886   5.594   7.783   4.883
  981TIP3    H2 2887   5.525   7.714   4.767
  982TIP3   OH2 2888   6.472   1.853   3.694
  982TIP3    H1 2889   6.420   1.814   3.624
  982TIP3    H2 2890   6.562   1.850   3.662
  983TIP3   OH2 2891   4.773   4.941   3.549
  983TIP3    H1 2892   4.830   4.869   3.522
  983TIP3    H2 2893   4.709   4.949   3.478
  984TIP3   OH2 2894   7.334   4.442   5.490
  984TIP3    H1 2895   7.384   4.523   5.475
  984TIP3    H2 2896   7.252   4.472   5.529
  985TIP3   OH2 2897   7.935   0.677   5.920
  985TIP3    H1 2898   7.870   0.717   5.976
  985TIP3    H2 2899   7.998   0.637   5.980
  986TIP3   OH2 2900   3.276   2.912   0.962
  986TIP3    H1 2901   3.235   2.902   1.048
  986TIP3    H2 2902   3.365   2.943   0.981
  987TIP3   OH2 2903   7.133   6.215   4.643
  987TIP3    H1 2904   7.212   6.161   4.642
  987TIP3    H2 2905   7.129   6.248   4.733
  988TIP3   OH2 2906   1.917   1.799   4.335
  988TIP3    H1 2907   1.989   1.736   4.325
  988TIP3    H2 2908   1.940   1.851   4.411
  989TIP3   OH2 2909   0.925   1.976   3.030
  989TIP3    H1 2910   0.889   2.035   2.964
  989TIP3    H2 2911   0.872   1.992   3.108
  990TIP3   OH2 2912   5.534   5.340   0.426
  990TIP3    H1 2913   5.530   5.244   0.434
  990TIP3    H2 2914   5.454   5.363   0.379
  991TIP3   OH2 2915   6.117   0.666   4.051
  991TIP3    H1 2916   6.072   0.583   4.040
  991TIP3    H2 2917   6.059   0.731   4.010
  992TIP3   OH2 2918   8.061   4.326   3.849
  992TIP3    H1 2919   8.054   4.400   3.789
  992TIP3    H2 2920   8.155   4.308   3.853
  993TIP3   OH2 2921   1.045   4.914   3.785
  993TIP3    H1 2922   1.084   4.948   3.704
  993TIP3    H2 2923   1.004   4.989   3.826
  994TIP3   OH2 2924   6.682   3.832   6.408
  994TIP3    H1 2925   6.763   3.850   6.359
  994TIP3    H2 2926   6.679   3.736   6.413
  995TIP3   OH2 2927   3.257   6.442   1.738
  995TIP3    H1 2928   3.296   6.488   1.812
  995TIP3    H2 2929   3.265   6.502   1.664
  996TIP3   OH2 2930   1.316   2.474   5.694
  996TIP3    H1 2931   1.330   2.458   5.787
  996TIP3    H2 2932   1.334   2.568   5.683
  997TIP3   OH2 2933   0.100   4.725   2.515
  997TIP3    H1 2934   0.022   4.725   2.460
  997TIP3    H2 2935   0.082   4.660   2.583
  998TIP3   OH2 2936   8.068   4.931   1.981
  998TIP3    H1 2937   8.117   4.853   1.956
  998TIP3    H2 2938   8.125   4.977   2.043
  999TIP3   OH2 2939   5.252   4.088   4.316
  999TIP3    H1 2940   5.232   4.176   4.350
  999TIP3    H2 2941   5.343   4.094   4.288
 1000TIP3   OH2 2942   8.222   4.198   5.299
 1000TIP3    H1 2943   8.164   4.193   5.375
 1000TIP3    H2 2944   8.272   4.116   5.302
 1001TIP3   OH2 2945   8.037   0.426   5.383
 1001TIP3    H1 2946   8.005   0.339   5.359
 1001TIP3    H2 2947   7.959   0.473   5.413
 1002TIP3   OH2 2948   3.291   2.080   5.996
 1002TIP3    H1 2949   3.248   2.073   5.911
 1002TIP3    H2 2950   3.294   2.174   6.014
 1003TIP3   OH2 2951   6.697   5.338   5.407
 1003TIP3    H1 2952   6.609   5.354   5.442
 1003TIP3    H2 2953   6.702   5.393   5.328
 1004TIP3   OH2 2954   3.021   5.733   2.100
 1004TIP3    H1 2955   2.989   5.789   2.171
 1004TIP3    H2 2956   3.108   5.705   2.130
 1005TIP3   OH2 2957   2.169   2.600   6.712
 1005TIP3    H1 2958   2.130   2.583   6.627
 1005TIP3    H2 2959   2.112   2.667   6.751
 1006TIP3   OH2 2960   0.983   2.217   1.355
 1006TIP3    H1 2961   0.940   2.148   1.406
 1006TIP3    H2 2962   1.074   2.189   1.350
 1007TIP3   OH2 2963   6.980   7.439   2.001
 1007TIP3    H1 2964   6.888   7.460   1.989
 1007TIP3    H2 2965   6.996   7.364   1.944
 1008TIP3   OH2 2966   7.425   3.118   3.352
 1008TIP3    H1 2967   7.484   3.061   3.401
 1008TIP3    H2 2968   7.339   3.103   3.390
 1009TIP3   OH2 2969   0.439   1.807   0.618
 1009TIP3    H1 2970   0.529   1.841   0.618
 1009TIP3    H2 2971   0.417   1.798   0.711
 1010TIP3   OH2 2972   7.234   5.455   4.334
 1010TIP3    H1 2973   7.284   5.515   4.389
 1010TIP3    H2 2974   7.217   5.505   4.254
 1011TIP3   OH2 2975   4.607   0.544   5.193
 1011TIP3    H1 2976   4.690   0.499   5.175
 1011TIP3    H2 2977   4.633   0.634   5.214
 1012TIP3   OH2 2978   3.218   0.253   3.172
 1012TIP3    H1 2979   3.192   0.190   3.239
 1012TIP3    H2 2980   3.254   0.200   3.102
 1013TIP3   OH2 2981   3.065   3.153   6.656
 1013TIP3    H1 2982   3.050   3.059   6.646
 1013TIP3    H2 2983   3.013   3.177   6.733
 1014TIP3   OH2 2984   5.884   5.969   2.935
 1014TIP3    H1 2985   5.962   5.999   2.981
 1014TIP3    H2 2986   5.861   6.041   2.876
 1015TIP3   OH2 2987   2.076   7.722   5.846
 1015TIP3    H1 2988   2.127   7.669   5.907
 1015TIP3    H2 2989   2.013   7.768   5.900
 1016TIP3   OH2 2990   2.708   5.808   2.267
 1016TIP3    H1 2991   2.791   5.786   2.310
 1016TIP3    H2 2992   2.733   5.839   2.181
 1017TIP3   OH2 2993   3.316   5.251   1.601
 1017TIP3    H1 2994   3.385   5.200   1.559
 1017TIP3    H2 2995   3.353   5.276   1.686
 1018TIP3   OH2 2996   2.939   7.121   0.751
 1018TIP3    H1 2997   2.859   7.077   0.782
 1018TIP3    H2 2998   2.979   7.058   0.691
 1019TIP3   OH2 2999   4.893   1.811   0.605
 1019TIP3    H1 3000   4.979   1.806   0.563
 1019TIP3    H2 3001   4.913   1.831   0.697
 1020TIP3   OH2 3002   5.929   4.188   6.453
 1020TIP3    H1 3003   5.880   4.187   6.371
 1020TIP3    H2 3004   5.999   4.252   6.438
 1021TIP3   OH2 3005   6.740   0.733   2.931
 1021TIP3    H1 3006   6.743   0.704   3.022
 1021TIP3    H2 3007   6.794   0.812   2.929
 1022TIP3   OH2 3008   1.806   7.494   3.350
 1022TIP3    H1 3009   1.837   7.513   3.261
 1022TIP3    H2 3010   1.814   7.578   3.396
 1023TIP3   OH2 3011   1.202   6.101   6.573
 1023TIP3    H1 3012   1.243   6.015   6.583
 1023TIP3    H2 3013   1.231   6.151   6.650
 1024TIP3   OH2 3014   6.730   3.643   2.410
 1024TIP3    H1 3015   6.647   3.669   2.369
 1024TIP3    H2 3016   6.720   3.549   2.427
 1025TIP3   OH2 3017   1.326   2.807   2.240
 1025TIP3    H1 3018   1.263   2.754   2.190
 1025TIP3    H2 3019   1.381   2.742   2.284
 1026TIP3   OH2 3020   0.588   2.252   6.528
 1026TIP3    H1 3021   0.580   2.347   6.518
 1026TIP3    H2 3022   0.681   2.238   6.546
 1027TIP3   OH2 3023   3.318   2.388   3.691
 1027TIP3    H1 3024   3.283   2.304   3.722
 1027TIP3    H2 3025   3.276   2.454   3.747
 1028TIP3   OH2 3026   3.325   0.044   4.536
 1028TIP3    H1 3027   3.254  -0.016   4.561
 1028TIP3    H2 3028   3.305   0.125   4.583
 1029TIP3   OH2 3029   6.478   1.219   3.292
 1029TIP3    H1 3030   6.491   1.264   3.209
 1029TIP3    H2 3031   6.566   1.200   3.324
 1030TIP3   OH2 3032   6.108   3.197   3.728
 1030TIP3    H1 3033   6.165   3.133   3.685
 1030TIP3    H2 3034   6.033   3.146   3.757
 1031TIP3   OH2 3035   0.819   6.482   1.357
 1031TIP3    H1 3036   0.826   6.428   1.279
 1031TIP3    H2 3037   0.877   6.556   1.340
 1032TIP3   OH2 3038   1.608   3.078   3.441
 1032TIP3    H1 3039   1.654   3.088   3.358
 1032TIP3    H2 3040   1.520   3.048   3.417
 1033TIP3   OH2 3041   4.377   1.633   1.955
 1033TIP3    H1 3042   4.291   1.665   1.982
 1033TIP3    H2 3043   4.433   1.711   1.953
 1034TIP3   OH2 3044   3.448   4.400   0.330
 1034TIP3    H1 3045   3.498   4.345   0.390
 1034TIP3    H2 3046   3.413   4.340   0.265
 1035TIP3   OH2 3047   4.674   2.087   1.591
 1035TIP3    H1 3048   4.607   2.022   1.610
 1035TIP3    H2 3049   4.741   2.040   1.541
 1036TIP3   OH2 3050   7.865   3.693   4.418
 1036TIP3    H1 3051   7.877   3.672   4.510
 1036TIP3    H2 3052   7.898   3.783   4.410
 1037TIP3   OH2 3053   1.437   7.528   3.338
 1037TIP3    H1 3054   1.501   7.572   3.282
 1037TIP3    H2 3055   1.485   7.454   3.375
 1038TIP3   OH2 3056   4.223   1.067   1.336
 1038TIP3    H1 3057   4.196   1.015   1.260
 1038TIP3    H2 3058   4.141   1.092   1.378
 1039TIP3   OH2 3059   1.724   6.372   6.059
 1039TIP3    H1 3060   1.725   6.368   6.154
 1039TIP3    H2 3061   1.635   6.347   6.034
 1040TIP3   OH2 3062   0.468   3.470   4.434
 1040TIP3    H1 3063   0.489   3.505   4.520
 1040TIP3    H2 3064   0.375   3.488   4.422
 1041TIP3   OH2 3065   1.356   1.453   0.209
 1041TIP3    H1 3066   1.340   1.477   0.117
 1041TIP3    H2 3067   1.270   1.452   0.249
 1042TIP3   OH2 3068   7.257   5.855   4.198
 1042TIP3    H1 3069   7.200   5.873   4.124
 1042TIP3    H2 3070   7.310   5.934   4.208
 1043TIP3   OH2 3071   4.059   2.373   1.741
 1043TIP3    H1 3072   4.125   2.436   1.770
 1043TIP3    H2 3073   4.025   2.410   1.659
 1044TIP3   OH2 3074   2.468   2.458   3.956
 1044TIP3    H1 3075   2.551   2.482   3.996
 1044TIP3    H2 3076   2.451   2.527   3.892
 1045TIP3   OH2 3077   2.993   3.710   5.349
 1045TIP3    H1 3078   2.930   3.713   5.277
 1045TIP3    H2 3079   2.941   3.685   5.425
 1046TIP3   OH2 3080   3.308   3.647   2.062
 1046TIP3    H1 3081   3.349   3.720   2.109
 1046TIP3    H2 3082   3.222   3.682   2.035
 1047TIP3   OH2 3083   4.762   0.180   1.283
 1047TIP3    H1 3084   4.774   0.085   1.286
 1047TIP3    H2 3085   4.686   0.193   1.226
 1048TIP3   OH2 3086   6.523   3.723   2.927
 1048TIP3    H1 3087   6.464   3.784   2.972
 1048TIP3    H2 3088   6.571   3.777   2.865
 1049TIP3   OH2 3089   6.055   5.614   0.646
 1049TIP3    H1 3090   6.036   5.533   0.694
 1049TIP3    H2 3091   6.146   5.634   0.668
 1050TIP3   OH2 3092   3.979   3.503   3.640
 1050TIP3    H1 3093   4.040   3.432   3.661
 1050TIP3    H2 3094   3.907   3.492   3.702
 1051TIP3   OH2 3095   6.314   3.202   0.391
 1051TIP3    H1 3096   6.340   3.291   0.414
 1051TIP3    H2 3097   6.384   3.147   0.428
 1052TIP3   OH2 3098   5.668   4.355   4.967
 1052TIP3    H1 3099   5.659   4.388   4.877
 1052TIP3    H2 3100   5.625   4.269   4.965
 1053TIP3   OH2 3101   1.893   3.390   4.400
 1053TIP3    H1 3102   1.863   3.406   4.310
 1053TIP3    H2 3103   1.915   3.477   4.433
 1054TIP3   OH2 3104   5.507   6.458   2.510
 1054TIP3    H1 3105   5.578   6.505   2.555
 1054TIP3    H2 3106   5.511   6.369   2.546
 1055TIP3   OH2 3107   7.612   1.043   4.726
 1055TIP3    H1 3108   7.653   1.105   4.786
 1055TIP3    H2 3109   7.518   1.055   4.739
 1056TIP3   OH2 3110   4.496   4.407   6.509
 1056TIP3    H1 3111   4.523   4.423   6.600
 1056TIP3    H2 3112   4.492   4.312   6.501
 1057TIP3   OH2 3113   6.765   2.566   0.560
 1057TIP3    H1 3114   6.809   2.580   0.476
 1057TIP3    H2 3115   6.795   2.639   0.615
 1058TIP3   OH2 3116   4.125   2.604   6.568
 1058TIP3    H1 3117   4.152   2.684   6.613
 1058TIP3    H2 3118   4.066   2.561   6.629
 1059TIP3   OH2 3119   5.784   3.439   2.040
 1059TIP3    H1 3120   5.769   3.346   2.056
 1059TIP3    H2 3121   5.711   3.466   1.985
 1060TIP3   OH2 3122   7.960   3.118   6.006
 1060TIP3    H1 3123   8.017   3.041   6.009
 1060TIP3    H2 3124   7.919   3.121   6.092
 1061TIP3   OH2 3125   0.671   3.628   0.362
 1061TIP3    H1 3126   0.714   3.627   0.448
 1061TIP3    H2 3127   0.635   3.540   0.351
 1062TIP3   OH2 3128   6.450   5.057  -0.011
 1062TIP3    H1 3129   6.487   5.140  -0.042
 1062TIP3    H2 3130   6.433   5.072   0.082
 1063TIP3   OH2 3131   6.206   3.636   0.815
 1063TIP3    H1 3132   6.188   3.598   0.729
 1063TIP3    H2 3133   6.144   3.593   0.874
 1064TIP3   OH2 3134   0.233   4.058   0.060
 1064TIP3    H1 3135   0.273   4.057  -0.027
 1064TIP3    H2 3136   0.307   4.045   0.120
 1065TIP3   OH2 3137   5.471   7.109   0.757
 1065TIP3    H1 3138   5.561   7.077   0.760
 1065TIP3    H2 3139   5.455   7.128   0.664
 1066TIP3   OH2 3140   3.697   1.868   1.822
 1066TIP3    H1 3141   3.693   1.799   1.756
 1066TIP3    H2 3142   3.788   1.869   1.852
 1067TIP3   OH2 3143   1.076   1.041   1.620
 1067TIP3    H1 3144   1.057   1.113   1.681
 1067TIP3    H2 3145   1.087   1.084   1.535
 1068TIP3   OH2 3146   7.384   7.391   4.238
 1068TIP3    H1 3147   7.433   7.465   4.199
 1068TIP3    H2 3148   7.449   7.321   4.244
 1069TIP3   OH2 3149   7.593   7.112   2.909
 1069TIP3    H1 3150   7.617   7.195   2.950
 1069TIP3    H2 3151   7.605   7.127   2.815
 1070TIP3   OH2 3152   4.613   1.507   3.764
 1070TIP3    H1 3153   4.579   1.594   3.784
 1070TIP3    H2 3154   4.542   1.447   3.787
 1071TIP3   OH2 3155   6.983   6.038   0.754
 1071TIP3    H1 3156   7.057   6.085   0.717
 1071TIP3    H2 3157   6.915   6.105   0.764
 1072TIP3   OH2 3158   7.821   2.362   4.498
 1072TIP3    H1 3159   7.883   2.328   4.434
 1072TIP3    H2 3160   7.761   2.290   4.515
 1073TIP3   OH2 3161   4.325   2.714   6.048
 1073TIP3    H1 3162   4.340   2.633   5.997
 1073TIP3    H2 3163   4.413   2.743   6.072
 1074TIP3   OH2 3164   3.551   7.105   2.730
 1074TIP3    H1 3165   3.563   7.168   2.659
 1074TIP3    H2 3166   3.569   7.155   2.810
 1075TIP3   OH2 3167   4.190   5.879   2.537
 1075TIP3    H1 3168   4.243   5.948   2.497
 1075TIP3    H2 3169   4.201   5.803   2.479
 1076TIP3   OH2 3170   1.164   5.265   1.501
 1076TIP3    H1 3171   1.075   5.290   1.526
 1076TIP3    H2 3172   1.217   5.341   1.525
 1077TIP3   OH2 3173   4.277   0.004  -0.017
 1077TIP3    H1 3174   4.195   0.050  -0.038
 1077TIP3    H2 3175   4.287   0.015   0.078
 1078TIP3   OH2 3176   3.100   2.426   4.168
 1078TIP3    H1 3177   3.140   2.401   4.251
 1078TIP3    H2 3178   3.012   2.387   4.171
 1079TIP3   OH2 3179   4.252   6.757   2.659
 1079TIP3    H1 3180   4.182   6.774   2.721
 1079TIP3    H2 3181   4.208   6.729   2.579
 1080TIP3   OH2 3182   0.463   1.236   5.774
 1080TIP3    H1 3183   0.472   1.316   5.826
 1080TIP3    H2 3184   0.484   1.166   5.836
 1081TIP3   OH2 3185   1.643   1.576   3.728
 1081TIP3    H1 3186   1.568   1.577   3.670
 1081TIP3    H2 3187   1.714   1.540   3.675
 1082TIP3   OH2 3188   3.735   0.595   2.691
 1082TIP3    H1 3189   3.828   0.600   2.668
 1082TIP3    H2 3190   3.732   0.537   2.768
 1083TIP3   OH2 3191   2.644   1.902   2.389
 1083TIP3    H1 3192   2.601   1.904   2.303
 1083TIP3    H2 3193   2.735   1.878   2.369
 1084TIP3   OH2 3194   6.244   1.147   1.781
 1084TIP3    H1 3195   6.246   1.078   1.716
 1084TIP3    H2 3196   6.336   1.174   1.790
 1085TIP3   OH2 3197   1.823   3.690   4.572
 1085TIP3    H1 3198   1.818   3.783   4.593
 1085TIP3    H2 3199   1.749   3.675   4.512
 1086TIP3   OH2 3200   3.536   7.146   4.569
 1086TIP3    H1 3201   3.495   7.207   4.631
 1086TIP3    H2 3202   3.484   7.066   4.576
 1087TIP3   OH2 3203   0.999   3.768   6.096
 1087TIP3    H1 3204   0.985   3.811   6.180
 1087TIP3    H2 3205   1.093   3.772   6.082
 1088TIP3   OH2 3206   1.580   6.749   0.263
 1088TIP3    H1 3207   1.616   6.790   0.185
 1088TIP3    H2 3208   1.539   6.669   0.232
 1089TIP3   OH2 3209   5.592   6.960   1.647
 1089TIP3    H1 3210   5.672   7.010   1.632
 1089TIP3    H2 3211   5.523   7.025   1.651
 1090TIP3   OH2 3212   2.363   6.395  -0.017
 1090TIP3    H1 3213   2.286   6.438  -0.054
 1090TIP3    H2 3214   2.370   6.431   0.072
 1091TIP3   OH2 3215   7.249   0.152   5.060
 1091TIP3    H1 3216   7.299   0.233   5.060
 1091TIP3    H2 3217   7.170   0.172   5.009
 1092TIP3   OH2 3218   0.349   3.203   4.941
 1092TIP3    H1 3219   0.405   3.146   4.889
 1092TIP3    H2 3220   0.408   3.245   5.004
 1093TIP3   OH2 3221   4.682   0.876   2.385
 1093TIP3    H1 3222   4.762   0.906   2.342
 1093TIP3    H2 3223   4.613   0.897   2.322
 1094TIP3   OH2 3224   7.174   7.502   2.343
 1094TIP3    H1 3225   7.179   7.544   2.429
 1094TIP3    H2 3226   7.221   7.419   2.356
 1095TIP3   OH2 3227   1.935   3.630   1.462
 1095TIP3    H1 3228   1.921   3.554   1.519
 1095TIP3    H2 3229   1.985   3.596   1.388
 1096TIP3   OH2 3230   2.432   1.529   4.725
 1096TIP3    H1 3231   2.418   1.476   4.803
 1096TIP3    H2 3232   2.362   1.594   4.726
 1097TIP3   OH2 3233   1.001   7.131   0.882
 1097TIP3    H1 3234   1.092   7.158   0.873
 1097TIP3    H2 3235   0.958   7.161   0.802
 1098TIP3   OH2 3236   0.840   7.694   0.690
 1098TIP3    H1 3237   0.756   7.651   0.675
 1098TIP3    H2 3238   0.816   7.786   0.707
 1099TIP3   OH2 3239   5.939   5.607   0.389
 1099TIP3    H1 3240   5.996   5.636   0.460
 1099TIP3    H2 3241   5.990   5.539   0.344
 1100TIP3   OH2 3242   1.101   5.731   6.514
 1100TIP3    H1 3243   1.038   5.784   6.465
 1100TIP3    H2 3244   1.048   5.684   6.578
 1101TIP3   OH2 3245   3.735   4.917   5.786
 1101TIP3    H1 3246   3.711   4.988   5.845
 1101TIP3    H2 3247   3.692   4.839   5.822
 1102TIP3   OH2 3248   5.990   7.739   6.196
 1102TIP3    H1 3249   6.067   7.792   6.178
 1102TIP3    H2 3250   5.959   7.769   6.281
 1103TIP3   OH2 3251   4.917   2.715   3.236
 1103TIP3    H1 3252   4.971   2.726   3.158
 1103TIP3    H2 3253   4.945   2.785   3.295
 1104TIP3   OH2 3254   6.533   4.444   3.117
 1104TIP3    H1 3255   6.468   4.491   3.170
 1104TIP3    H2 3256   6.617   4.466   3.159
 1105TIP3   OH2 3257   2.876   2.100   2.776
 1105TIP3    H1 3258   2.900   2.178   2.727
 1105TIP3    H2 3259   2.851   2.132   2.862
 1106TIP3   OH2 3260   5.427   7.190   1.127
 1106TIP3    H1 3261   5.383   7.250   1.066
 1106TIP3    H2 3262   5.451   7.115   1.073
 1107TIP3   OH2 3263   5.866   4.066   2.020
 1107TIP3    H1 3264   5.848   4.126   1.948
 1107TIP3    H2 3265   5.951   4.026   1.998
 1108TIP3   OH2 3266   2.632   5.490   2.405
 1108TIP3    H1 3267   2.707   5.537   2.370
 1108TIP3    H2 3268   2.625   5.521   2.495
 1109TIP3   OH2 3269   1.089   6.837   2.706
 1109TIP3    H1 3270   1.139   6.913   2.734
 1109TIP3    H2 3271   1.016   6.832   2.768
 1110TIP3   OH2 3272   5.099   5.301   0.130
 1110TIP3    H1 3273   5.010   5.270   0.150
 1110TIP3    H2 3274   5.125   5.251   0.053
 1111TIP3   OH2 3275   5.829   6.353   1.140
 1111TIP3    H1 3276   5.737   6.330   1.150
 1111TIP3    H2 3277   5.850   6.402   1.219
 1112TIP3   OH2 3278   5.610   1.203   0.215
 1112TIP3    H1 3279   5.533   1.214   0.158
 1112TIP3    H2 3280   5.574   1.170   0.297
 1113TIP3   OH2 3281   7.850   5.018   0.252
 1113TIP3    H1 3282   7.896   5.045   0.332
 1113TIP3    H2 3283   7.760   5.047   0.266
 1114TIP3   OH2 3284   3.729   3.852   5.830
 1114TIP3    H1 3285   3.712   3.767   5.869
 1114TIP3    H2 3286   3.698   3.845   5.740
 1115TIP3   OH2 3287   3.097   6.301   1.548
 1115TIP3    H1 3288   3.093   6.219   1.597
 1115TIP3    H2 3289   3.145   6.361   1.607
 1116TIP3   OH2 3290   1.498   3.814   3.893
 1116TIP3    H1 3291   1.408   3.841   3.875
 1116TIP3    H2 3292   1.552   3.880   3.849
 1117TIP3   OH2 3293   5.768   0.354   4.840
 1117TIP3    H1 3294   5.680   0.390   4.826
 1117TIP3    H2 3295   5.759   0.261   4.818
 1118TIP3   OH2 3296   4.649   4.702   5.838
 1118TIP3    H1 3297   4.604   4.729   5.758
 1118TIP3    H2 3298   4.578   4.674   5.896
 1119TIP3   OH2 3299   6.683   3.393   2.346
 1119TIP3    H1 3300   6.708   3.309   2.385
 1119TIP3    H2 3301   6.725   3.392   2.259
 1120TIP3   OH2 3302   3.787   3.669   0.499
 1120TIP3    H1 3303   3.831   3.707   0.575
 1120TIP3    H2 3304   3.702   3.641   0.533
 1121TIP3   OH2 3305   4.473   5.557   0.126
 1121TIP3    H1 3306   4.557   5.551   0.080
 1121TIP3    H2 3307   4.496   5.592   0.212
 1122TIP3   OH2 3308   3.946   0.753   2.162
 1122TIP3    H1 3309   3.894   0.826   2.130
 1122TIP3    H2 3310   4.002   0.729   2.088
 1123TIP3   OH2 3311   5.890   3.785   6.614
 1123TIP3    H1 3312   5.893   3.739   6.530
 1123TIP3    H2 3313   5.853   3.871   6.593
 1124TIP3   OH2 3314   3.601   6.251   5.558
 1124TIP3    H1 3315   3.589   6.166   5.600
 1124TIP3    H2 3316   3.686   6.245   5.514
 1125TIP3   OH2 3317   5.617   7.050   6.606
 1125TIP3    H1 3318   5.707   7.082   6.606
 1125TIP3    H2 3319   5.590   7.052   6.515
 1126TIP3   OH2 3320   3.880   6.058   4.342
 1126TIP3    H1 3321   3.882   6.108   4.423
 1126TIP3    H2 3322   3.900   6.122   4.273
 1127TIP3   OH2 3323   8.196   6.472   1.143
 1127TIP3    H1 3324   8.192   6.481   1.238
 1127TIP3    H2 3325   8.121   6.418   1.121
 1128TIP3   OH2 3326   7.168   7.690   2.592
 1128TIP3    H1 3327   7.202   7.774   2.622
 1128TIP3    H2 3328   7.086   7.713   2.546
 1129TIP3   OH2 3329   6.777   7.385   4.865
 1129TIP3    H1 3330   6.843   7.320   4.841
 1129TIP3    H2 3331   6.825   7.468   4.867
 1130TIP3   OH2 3332   4.452   0.301   3.106
 1130TIP3    H1 3333   4.402   0.295   3.024
 1130TIP3    H2 3334   4.543   0.313   3.077
 1131TIP3   OH2 3335   6.292   4.526   5.345
 1131TIP3    H1 3336   6.198   4.532   5.332
 1131TIP3    H2 3337   6.324   4.615   5.334
 1132TIP3   OH2 3338   4.807   6.505   1.556
 1132TIP3    H1 3339   4.786   6.596   1.537
 1132TIP3    H2 3340   4.820   6.503   1.651
 1133TIP3   OH2 3341   0.036   1.775   1.767
 1133TIP3    H1 3342  -0.042   1.822   1.796
 1133TIP3    H2 3343   0.106   1.807   1.823
 1134TIP3   OH2 3344   2.394   4.528   6.162
 1134TIP3    H1 3345   2.465   4.465   6.175
 1134TIP3    H2 3346   2.411   4.567   6.076
 1135TIP3   OH2 3347   7.970   3.098   4.756
 1135TIP3    H1 3348   7.983   3.066   4.666
 1135TIP3    H2 3349   8.024   3.040   4.809
 1136TIP3   OH2 3350   0.738   7.068   5.624
 1136TIP3    H1 3351   0.753   7.152   5.667
 1136TIP3    H2 3352   0.804   7.010   5.662
 1137TIP3   OH2 3353   2.973   1.289   1.307
 1137TIP3    H1 3354   2.947   1.197   1.317
 1137TIP3    H2 3355   2.891   1.335   1.288
 1138TIP3   OH2 3356   1.137   2.942   6.453
 1138TIP3    H1 3357   1.053   2.985   6.435
 1138TIP3    H2 3358   1.203   3.004   6.419
 1139TIP3   OH2 3359   4.345   5.396   1.125
 1139TIP3    H1 3360   4.278   5.461   1.105
 1139TIP3    H2 3361   4.348   5.392   1.221
 1140TIP3   OH2 3362   0.917   7.052   3.055
 1140TIP3    H1 3363   0.878   6.967   3.035
 1140TIP3    H2 3364   0.947   7.085   2.970
 1141TIP3   OH2 3365   5.617   3.840   4.030
 1141TIP3    H1 3366   5.686   3.906   4.038
 1141TIP3    H2 3367   5.536   3.889   4.044
 1142TIP3   OH2 3368   7.762   0.449   4.710
 1142TIP3    H1 3369   7.790   0.486   4.794
 1142TIP3    H2 3370   7.730   0.361   4.732
 1143TIP3   OH2 3371   4.209   5.447   0.396
 1143TIP3    H1 3372   4.137   5.452   0.333
 1143TIP3    H2 3373   4.245   5.536   0.398
 1144TIP3   OH2 3374   6.768   6.871  -0.016
 1144TIP3    H1 3375   6.831   6.819   0.032
 1144TIP3    H2 3376   6.727   6.809  -0.077
 1145TIP3   OH2 3377   3.226   6.460   2.615
 1145TIP3    H1 3378   3.287   6.493   2.681
 1145TIP3    H2 3379   3.184   6.539   2.581
 1146TIP3   OH2 3380   4.521   3.045   3.525
 1146TIP3    H1 3381   4.526   3.084   3.437
 1146TIP3    H2 3382   4.556   3.112   3.583
 1147TIP3   OH2 3383   2.979   2.155   3.260
 1147TIP3    H1 3384   2.934   2.211   3.324
 1147TIP3    H2 3385   2.923   2.077   3.254
 1148TIP3   OH2 3386   5.730   5.774   6.656
 1148TIP3    H1 3387   5.796   5.770   6.587
 1148TIP3    H2 3388   5.762   5.840   6.717
 1149TIP3   OH2 3389   3.240   4.685   4.903
 1149TIP3    H1 3390   3.328   4.670   4.868
 1149TIP3    H2 3391   3.224   4.778   4.889
 1150TIP3   OH2 3392   6.195   0.024   1.935
 1150TIP3    H1 3393   6.248   0.104   1.930
 1150TIP3    H2 3394   6.105   0.054   1.926
 1151TIP3   OH2 3395   4.746   4.467   3.998
 1151TIP3    H1 3396   4.660   4.488   4.033
 1151TIP3    H2 3397   4.808   4.503   4.062
 1152TIP3   OH2 3398   8.214   3.578   6.414
 1152TIP3    H1 3399   8.200   3.486   6.436
 1152TIP3    H2 3400   8.207   3.581   6.318
 1153TIP3   OH2 3401   5.380   5.007   3.228
 1153TIP3    H1 3402   5.308   5.069   3.240
 1153TIP3    H2 3403   5.406   4.983   3.317
 1154TIP3   OH2 3404   0.768   5.685   0.853
 1154TIP3    H1 3405   0.676   5.659   0.845
 1154TIP3    H2 3406   0.766   5.780   0.868
 1155TIP3   OH2 3407   4.799   0.040   0.889
 1155TIP3    H1 3408   4.885   0.004   0.912
 1155TIP3    H2 3409   4.806   0.062   0.797
 1156TIP3   OH2 3410   1.903   5.765   3.045
 1156TIP3    H1 3411   1.843   5.836   3.066
 1156TIP3    H2 3412   1.987   5.808   3.029
 1157TIP3   OH2 3413   8.044   2.214   5.479
 1157TIP3    H1 3414   8.068   2.207   5.387
 1157TIP3    H2 3415   8.069   2.303   5.504
 1158TIP3   OH2 3416   7.946   3.934   1.602
 1158TIP3    H1 3417   7.944   3.876   1.678
 1158TIP3    H2 3418   8.039   3.942   1.581
 1159TIP3   OH2 3419   3.008   2.653   5.049
 1159TIP3    H1 3420   3.076   2.590   5.074
 1159TIP3    H2 3421   3.056   2.735   5.034
 1160TIP3   OH2 3422   5.523   0.689   5.361
 1160TIP3    H1 3423   5.449   0.701   5.301
 1160TIP3    H2 3424   5.492   0.625   5.425
 1161TIP3   OH2 3425   7.343   0.944   5.239
 1161TIP3    H1 3426   7.380   1.031   5.228
 1161TIP3    H2 3427   7.365   0.898   5.158
 1162TIP3   OH2 3428   4.912   6.324   2.237
 1162TIP3    H1 3429   4.905   6.320   2.142
 1162TIP3    H2 3430   4.967   6.249   2.260
 1163TIP3   OH2 3431   4.879   2.532   3.456
 1163TIP3    H1 3432   4.897   2.446   3.418
 1163TIP3    H2 3433   4.814   2.571   3.396
 1164TIP3   OH2 3434   6.220   4.853   1.531
 1164TIP3    H1 3435   6.286   4.809   1.478
 1164TIP3    H2 3436   6.219   4.943   1.499
 1165TIP3   OH2 3437   6.923   7.766   2.479
 1165TIP3    H1 3438   6.925   7.830   2.408
 1165TIP3    H2 3439   6.844   7.788   2.529
 1166TIP3   OH2 3440   5.837   2.754   4.584
 1166TIP3    H1 3441   5.836   2.660   4.566
 1166TIP3    H2 3442   5.755   2.786   4.546
 1167TIP3   OH2 3443   4.835   5.392   5.348
 1167TIP3    H1 3444   4.846   5.343   5.267
 1167TIP3    H2 3445   4.809   5.480   5.320
 1168TIP3   OH2 3446   2.998   3.684   0.403
 1168TIP3    H1 3447   3.029   3.752   0.344
 1168TIP3    H2 3448   3.078   3.647   0.441
 1169TIP3   OH2 3449   5.971   5.767   3.948
 1169TIP3    H1 3450   5.969   5.674   3.971
 1169TIP3    H2 3451   6.029   5.771   3.872
 1170TIP3   OH2 3452   0.705   1.568   0.685
 1170TIP3    H1 3453   0.611   1.566   0.707
 1170TIP3    H2 3454   0.747   1.524   0.759
 1171TIP3   OH2 3455   1.925   2.514   1.809
 1171TIP3    H1 3456   1.950   2.450   1.875
 1171TIP3    H2 3457   1.868   2.575   1.855
 1172TIP3   OH2 3458   2.163   0.404   2.961
 1172TIP3    H1 3459   2.160   0.483   2.906
 1172TIP3    H2 3460   2.083   0.407   3.013
 1173TIP3   OH2 3461   4.382   2.983   4.073
 1173TIP3    H1 3462   4.350   2.896   4.051
 1173TIP3    H2 3463   4.315   3.043   4.038
 1174TIP3   OH2 3464   6.648   7.186   1.577
 1174TIP3    H1 3465   6.615   7.162   1.663
 1174TIP3    H2 3466   6.654   7.103   1.529
 1175TIP3   OH2 3467   6.274   0.251   3.829
 1175TIP3    H1 3468   6.264   0.181   3.764
 1175TIP3    H2 3469   6.225   0.219   3.905
 1176TIP3   OH2 3470   6.714   7.464   2.163
 1176TIP3    H1 3471   6.634   7.493   2.207
 1176TIP3    H2 3472   6.785   7.491   2.221
 1177TIP3   OH2 3473   4.355   0.943   0.265
 1177TIP3    H1 3474   4.383   0.887   0.338
 1177TIP3    H2 3475   4.315   1.019   0.307
 1178TIP3   OH2 3476   2.451   7.535   3.100
 1178TIP3    H1 3477   2.370   7.549   3.051
 1178TIP3    H2 3478   2.519   7.527   3.033
 1179TIP3   OH2 3479   4.005   2.055   3.761
 1179TIP3    H1 3480   3.944   1.992   3.799
 1179TIP3    H2 3481   4.066   2.076   3.832
 1180TIP3   OH2 3482   7.465   5.889   4.903
 1180TIP3    H1 3483   7.534   5.836   4.863
 1180TIP3    H2 3484   7.419   5.830   4.962
 1181TIP3   OH2 3485   0.067   5.190   6.016
 1181TIP3    H1 3486   0.092   5.113   6.068
 1181TIP3    H2 3487   0.047   5.257   6.082
 1182TIP3   OH2 3488   3.523   2.509   2.318
 1182TIP3    H1 3489   3.535   2.509   2.413
 1182TIP3    H2 3490   3.502   2.418   2.297
 1183TIP3   OH2 3491   4.514   3.016   5.524
 1183TIP3    H1 3492   4.606   3.032   5.544
 1183TIP3    H2 3493   4.494   2.934   5.569
 1184TIP3   OH2 3494   2.834   1.079   0.728
 1184TIP3    H1 3495   2.910   1.087   0.787
 1184TIP3    H2 3496   2.779   1.154   0.750
 1185TIP3   OH2 3497   8.153   6.244   1.855
 1185TIP3    H1 3498   8.185   6.332   1.877
 1185TIP3    H2 3499   8.219   6.209   1.796
 1186TIP3   OH2 3500   1.496   7.374   2.741
 1186TIP3    H1 3501   1.554   7.308   2.780
 1186TIP3    H2 3502   1.456   7.417   2.817
 1187TIP3   OH2 3503   5.035   1.252   0.356
 1187TIP3    H1 3504   5.032   1.327   0.296
 1187TIP3    H2 3505   4.965   1.269   0.419
 1188TIP3   OH2 3506   4.319   0.236   2.846
 1188TIP3    H1 3507   4.397   0.245   2.792
 1188TIP3    H2 3508   4.269   0.317   2.833
 1189TIP3   OH2 3509   8.013   2.590   1.877
 1189TIP3    H1 3510   7.967   2.536   1.813
 1189TIP3    H2 3511   8.048   2.663   1.826
 1190TIP3   OH2 3512   4.151   6.644   5.215
 1190TIP3    H1 3513   4.056   6.652   5.228
 1190TIP3    H2 3514   4.186   6.638   5.304
 1191TIP3   OH2 3515   1.732   5.265   4.043
 1191TIP3    H1 3516   1.812   5.291   3.997
 1191TIP3    H2 3517   1.714   5.177   4.012
 1192TIP3   OH2 3518   8.283   0.624   0.344
 1192TIP3    H1 3519   8.251   0.539   0.374
 1192TIP3    H2 3520   8.347   0.603   0.276
 1193TIP3   OH2 3521   1.670   7.693   4.913
 1193TIP3    H1 3522   1.705   7.782   4.907
 1193TIP3    H2 3523   1.706   7.648   4.836
 1194TIP3   OH2 3524   2.796   5.922   4.792
 1194TIP3    H1 3525   2.809   5.970   4.874
 1194TIP3    H2 3526   2.780   5.832   4.819
 1195TIP3   OH2 3527   4.336   1.330   4.398
 1195TIP3    H1 3528   4.416   1.374   4.371
 1195TIP3    H2 3529   4.365   1.264   4.461
 1196TIP3   OH2 3530   5.751   7.815   6.030
 1196TIP3    H1 3531   5.759   7.888   5.968
 1196TIP3    H2 3532   5.837   7.774   6.029
 1197TIP3   OH2 3533   6.362   2.353   0.113
 1197TIP3    H1 3534   6.390   2.415   0.181
 1197TIP3    H2 3535   6.443   2.326   0.070
 1198TIP3   OH2 3536   7.966   5.544   1.496
 1198TIP3    H1 3537   7.881   5.500   1.509
 1198TIP3    H2 3538   8.020   5.514   1.569
 1199TIP3   OH2 3539   6.624   4.504   5.787
 1199TIP3    H1 3540   6.563   4.447   5.740
 1199TIP3    H2 3541   6.594   4.501   5.878
 1200TIP3   OH2 3542   5.686   6.608   4.711
 1200TIP3    H1 3543   5.640   6.578   4.790
 1200TIP3    H2 3544   5.618   6.609   4.643
 1201TIP3   OH2 3545   6.427   3.304   2.493
 1201TIP3    H1 3546   6.484   3.229   2.513
 1201TIP3    H2 3547   6.460   3.338   2.410
 1202TIP3   OH2 3548   0.613   5.974   0.632
 1202TIP3    H1 3549   0.689   5.966   0.574
 1202TIP3    H2 3550   0.565   6.049   0.597
 1203TIP3   OH2 3551   3.699   3.980   0.987
 1203TIP3    H1 3552   3.682   4.021   1.072
 1203TIP3    H2 3553   3.615   3.986   0.940
 1204TIP3   OH2 3554   4.605   2.814   0.588
 1204TIP3    H1 3555   4.528   2.868   0.605
 1204TIP3    H2 3556   4.654   2.817   0.671
 1205TIP3   OH2 3557   7.668   7.274   3.518
 1205TIP3    H1 3558   7.593   7.264   3.576
 1205TIP3    H2 3559   7.641   7.343   3.457
 1206TIP3   OH2 3560   0.670   5.029   3.009
 1206TIP3    H1 3561   0.585   5.047   3.047
 1206TIP3    H2 3562   0.723   5.107   3.029
 1207TIP3   OH2 3563   3.605   6.758   4.352
 1207TIP3    H1 3564   3.652   6.818   4.294
 1207TIP3    H2 3565   3.543   6.713   4.296
 1208TIP3   OH2 3566   2.851   6.514   5.671
 1208TIP3    H1 3567   2.830   6.436   5.620
 1208TIP3    H2 3568   2.940   6.497   5.704
 1209TIP3   OH2 3569   0.278   6.682   3.440
 1209TIP3    H1 3570   0.223   6.693   3.363
 1209TIP3    H2 3571   0.217   6.655   3.509
 1210TIP3   OH2 3572   2.318   3.258   0.486
 1210TIP3    H1 3573   2.373   3.319   0.535
 1210TIP3    H2 3574   2.379   3.200   0.442
 1211TIP3   OH2 3575   3.309   4.105   3.232
 1211TIP3    H1 3576   3.308   4.010   3.218
 1211TIP3    H2 3577   3.315   4.142   3.144
 1212TIP3   OH2 3578   1.464   5.646   2.689
 1212TIP3    H1 3579   1.505   5.666   2.773
 1212TIP3    H2 3580   1.498   5.713   2.629
 1213TIP3   OH2 3581   3.562   6.756   2.071
 1213TIP3    H1 3582   3.564   6.690   2.002
 1213TIP3    H2 3583   3.598   6.712   2.148
 1214TIP3   OH2 3584   6.734   4.390   5.341
 1214TIP3    H1 3585   6.801   4.452   5.310
 1214TIP3    H2 3586   6.764   4.364   5.428
 1215TIP3   OH2 3587   1.915   3.271   3.159
 1215TIP3    H1 3588   1.990   3.222   3.123
 1215TIP3    H2 3589   1.936   3.362   3.140
 1216TIP3   OH2 3590   2.996   2.166   1.580
 1216TIP3    H1 3591   3.045   2.232   1.530
 1216TIP3    H2 3592   2.995   2.089   1.523
 1217TIP3   OH2 3593   6.605   0.111   4.412
 1217TIP3    H1 3594   6.693   0.148   4.404
 1217TIP3    H2 3595   6.563   0.133   4.329
 1218TIP3   OH2 3596   3.963   1.448   5.417
 1218TIP3    H1 3597   4.005   1.533   5.404
 1218TIP3    H2 3598   4.010   1.409   5.491
 1219TIP3   OH2 3599   3.861   1.517   6.491
 1219TIP3    H1 3600   3.796   1.491   6.426
 1219TIP3    H2 3601   3.942   1.527   6.442
 1220TIP3   OH2 3602   6.224  -0.028   5.202
 1220TIP3    H1 3603   6.181  -0.031   5.288
 1220TIP3    H2 3604   6.292   0.039   5.212
 1221TIP3   OH2 3605   0.538   4.237   5.390
 1221TIP3    H1 3606   0.578   4.150   5.389
 1221TIP3    H2 3607   0.558   4.274   5.304
 1222TIP3   OH2 3608   0.529   1.606   5.679
 1222TIP3    H1 3609   0.465   1.658   5.631
 1222TIP3    H2 3610   0.604   1.600   5.619
 1223TIP3   OH2 3611   5.620   5.995   1.119
 1223TIP3    H1 3612   5.678   5.999   1.195
 1223TIP3    H2 3613   5.542   6.043   1.145
 1224TIP3   OH2 3614   1.383   0.459   0.159
 1224TIP3    H1 3615   1.316   0.402   0.121
 1224TIP3    H2 3616   1.343   0.546   0.162
 1225TIP3   OH2 3617   7.827   6.837   4.704
 1225TIP3    H1 3618   7.879   6.773   4.655
 1225TIP3    H2 3619   7.768   6.875   4.639
 1226TIP3   OH2 3620   3.598   5.627   5.044
 1226TIP3    H1 3621   3.516   5.677   5.037
 1226TIP3    H2 3622   3.611   5.590   4.957
 1227TIP3   OH2 3623   7.002   6.935   1.168
 1227TIP3    H1 3624   6.978   6.963   1.256
 1227TIP3    H2 3625   7.024   7.017   1.123
 1228TIP3   OH2 3626   3.257   7.321   6.237
 1228TIP3    H1 3627   3.165   7.321   6.263
 1228TIP3    H2 3628   3.300   7.267   6.303
 1229TIP3   OH2 3629   6.672   1.815   0.975
 1229TIP3    H1 3630   6.684   1.910   0.966
 1229TIP3    H2 3631   6.671   1.800   1.069
 1230TIP3   OH2 3632   8.167   1.367   4.024
 1230TIP3    H1 3633   8.206   1.281   4.008
 1230TIP3    H2 3634   8.119   1.356   4.106
 1231TIP3   OH2 3635   5.153   6.075   0.768
 1231TIP3    H1 3636   5.139   6.164   0.733
 1231TIP3    H2 3637   5.163   6.021   0.689
 1232TIP3   OH2 3638   5.520   5.514   6.467
 1232TIP3    H1 3639   5.468   5.572   6.522
 1232TIP3    H2 3640   5.582   5.572   6.422
 1233TIP3   OH2 3641   8.208   3.144   5.643
 1233TIP3    H1 3642   8.227   3.236   5.626
 1233TIP3    H2 3643   8.261   3.122   5.719
 1234TIP3   OH2 3644   5.121   1.352   6.540
 1234TIP3    H1 3645   5.137   1.270   6.494
 1234TIP3    H2 3646   5.191   1.358   6.605
 1235TIP3   OH2 3647   5.248   2.308   3.430
 1235TIP3    H1 3648   5.168   2.256   3.429
 1235TIP3    H2 3649   5.223   2.391   3.470
 1236TIP3   OH2 3650   3.809   0.470   0.819
 1236TIP3    H1 3651   3.719   0.473   0.787
 1236TIP3    H2 3652   3.862   0.500   0.745
 1237TIP3   OH2 3653   3.372   3.547   2.800
 1237TIP3    H1 3654   3.297   3.490   2.820
 1237TIP3    H2 3655   3.375   3.549   2.705
 1238TIP3   OH2 3656   4.967   5.869   5.179
 1238TIP3    H1 3657   4.906   5.795   5.176
 1238TIP3    H2 3658   5.013   5.865   5.096
 1239TIP3   OH2 3659   2.765   1.985   3.291
 1239TIP3    H1 3660   2.827   1.921   3.325
 1239TIP3    H2 3661   2.701   1.995   3.362
 1240TIP3   OH2 3662   5.172   3.844   0.788
 1240TIP3    H1 3663   5.113   3.866   0.860
 1240TIP3    H2 3664   5.226   3.773   0.822
 1241TIP3   OH2 3665   2.038   0.483   3.440
 1241TIP3    H1 3666   2.045   0.461   3.533
 1241TIP3    H2 3667   1.958   0.439   3.411
 1242TIP3   OH2 3668   0.620   5.208   5.167
 1242TIP3    H1 3669   0.647   5.201   5.076
 1242TIP3    H2 3670   0.527   5.190   5.167
 1243TIP3   OH2 3671   2.237   1.725   4.664
 1243TIP3    H1 3672   2.167   1.713   4.599
 1243TIP3    H2 3673   2.290   1.796   4.629
 1244TIP3   OH2 3674   6.365   3.392   0.911
 1244TIP3    H1 3675   6.288   3.443   0.934
 1244TIP3    H2 3676   6.329   3.310   0.876
 1245TIP3   OH2 3677   5.936   5.160   1.270
 1245TIP3    H1 3678   5.937   5.158   1.366
 1245TIP3    H2 3679   5.896   5.077   1.245
 1246TIP3   OH2 3680   5.665   2.408   0.838
 1246TIP3    H1 3681   5.575   2.383   0.818
 1246TIP3    H2 3682   5.671   2.500   0.811
 1247TIP3   OH2 3683   6.719   6.450   3.552
 1247TIP3    H1 3684   6.765   6.534   3.549
 1247TIP3    H2 3685   6.777   6.390   3.506
 1248TIP3   OH2 3686   3.270   0.688   2.349
 1248TIP3    H1 3687   3.208   0.702   2.420
 1248TIP3    H2 3688   3.347   0.741   2.373
 1249TIP3   OH2 3689   7.751   0.661   3.769
 1249TIP3    H1 3690   7.693   0.606   3.717
 1249TIP3    H2 3691   7.719   0.651   3.859
 1250TIP3   OH2 3692   3.973   7.619   6.457
 1250TIP3    H1 3693   3.998   7.658   6.373
 1250TIP3    H2 3694   3.963   7.694   6.516
 1251TIP3   OH2 3695   6.980   5.231   5.979
 1251TIP3    H1 3696   6.993   5.265   5.890
 1251TIP3    H2 3697   6.991   5.136   5.971
 1252TIP3   OH2 3698   7.906   6.479   1.975
 1252TIP3    H1 3699   7.853   6.439   2.043
 1252TIP3    H2 3700   7.943   6.557   2.017
 1253TIP3   OH2 3701   0.844   2.302   6.596
 1253TIP3    H1 3702   0.906   2.298   6.523
 1253TIP3    H2 3703   0.868   2.227   6.651
 1254TIP3   OH2 3704   5.091   5.721   5.647
 1254TIP3    H1 3705   5.070   5.792   5.586
 1254TIP3    H2 3706   5.071   5.641   5.599
 1255TIP3   OH2 3707   2.104   4.667   2.289
 1255TIP3    H1 3708   2.025   4.720   2.297
 1255TIP3    H2 3709   2.093   4.621   2.205
 1256TIP3   OH2 3710   3.257   2.335   0.067
 1256TIP3    H1 3711   3.328   2.399   0.073
 1256TIP3    H2 3712   3.286   2.262   0.122
 1257TIP3   OH2 3713   3.875   7.519   3.162
 1257TIP3    H1 3714   3.787   7.555   3.177
 1257TIP3    H2 3715   3.929   7.557   3.231
 1258TIP3   OH2 3716   7.160   1.218   6.733
 1258TIP3    H1 3717   7.251   1.195   6.751
 1258TIP3    H2 3718   7.142   1.180   6.647
 1259TIP3   OH2 3719   3.331   0.623   4.586
 1259TIP3    H1 3720   3.353   0.605   4.495
 1259TIP3    H2 3721   3.388   0.565   4.637
 1260TIP3   OH2 3722   1.731   4.844   4.445
 1260TIP3    H1 3723   1.747   4.894   4.525
 1260TIP3    H2 3724   1.776   4.893   4.377
 1261TIP3   OH2 3725   0.914   4.693   6.259
 1261TIP3    H1 3726   0.957   4.754   6.199
 1261TIP3    H2 3727   0.868   4.748   6.321
 1262TIP3   OH2 3728   0.818   7.328   0.361
 1262TIP3    H1 3729   0.888   7.275   0.321
 1262TIP3    H2 3730   0.790   7.387   0.291
 1263TIP3   OH2 3731   1.239   0.193   5.523
 1263TIP3    H1 3732   1.315   0.151   5.564
 1263TIP3    H2 3733   1.237   0.158   5.434
 1264TIP3   OH2 3734   8.047   5.176   1.564
 1264TIP3    H1 3735   8.040   5.121   1.642
 1264TIP3    H2 3736   7.968   5.156   1.513
 1265TIP3   OH2 3737   5.155   3.275   6.298
 1265TIP3    H1 3738   5.226   3.268   6.235
 1265TIP3    H2 3739   5.195   3.313   6.376
 1266TIP3   OH2 3740   0.369   3.418   3.135
 1266TIP3    H1 3741   0.373   3.498   3.188
 1266TIP3    H2 3742   0.443   3.425   3.075
 1267TIP3   OH2 3743   6.933   4.359   5.057
 1267TIP3    H1 3744   6.990   4.388   4.986
 1267TIP3    H2 3745   6.852   4.408   5.045
 1268TIP3   OH2 3746   0.718   4.986   5.507
 1268TIP3    H1 3747   0.713   5.074   5.544
 1268TIP3    H2 3748   0.810   4.975   5.483
 1269TIP3   OH2 3749   1.580   5.468   1.994
 1269TIP3    H1 3750   1.664   5.503   2.023
 1269TIP3    H2 3751   1.552   5.412   2.067
 1270TIP3   OH2 3752   3.458   1.266   3.379
 1270TIP3    H1 3753   3.470   1.175   3.408
 1270TIP3    H2 3754   3.506   1.318   3.443
 1271TIP3   OH2 3755   0.339   2.414   0.464
 1271TIP3    H1 3756   0.338   2.319   0.452
 1271TIP3    H2 3757   0.424   2.432   0.506
 1272TIP3   OH2 3758   5.836   1.152   5.380
 1272TIP3    H1 3759   5.906   1.184   5.323
 1272TIP3    H2 3760   5.835   1.057   5.365
 1273TIP3   OH2 3761   3.178   1.691   1.987
 1273TIP3    H1 3762   3.135   1.674   2.071
 1273TIP3    H2 3763   3.240   1.761   2.005
 1274TIP3   OH2 3764   6.420   5.397   0.191
 1274TIP3    H1 3765   6.441   5.315   0.236
 1274TIP3    H2 3766   6.481   5.400   0.118
 1275TIP3   OH2 3767   0.509   4.485   1.220
 1275TIP3    H1 3768   0.520   4.564   1.167
 1275TIP3    H2 3769   0.549   4.506   1.304
 1276TIP3   OH2 3770   2.796   1.843   6.414
 1276TIP3    H1 3771   2.885   1.877   6.416
 1276TIP3    H2 3772   2.780   1.822   6.322
 1277TIP3   OH2 3773   2.514   7.132   0.713
 1277TIP3    H1 3774   2.563   7.143   0.632
 1277TIP3    H2 3775   2.486   7.221   0.737
 1278TIP3   OH2 3776   3.981   5.410   1.247
 1278TIP3    H1 3777   3.994   5.325   1.287
 1278TIP3    H2 3778   4.008   5.398   1.156
 1279TIP3   OH2 3779   2.291   4.096   3.689
 1279TIP3    H1 3780   2.303   4.185   3.720
 1279TIP3    H2 3781   2.201   4.074   3.711
 1280TIP3   OH2 3782   7.680   6.995   4.177
 1280TIP3    H1 3783   7.653   6.993   4.085
 1280TIP3    H2 3784   7.774   7.013   4.174
 1281TIP3   OH2 3785   2.368   1.223   2.896
 1281TIP3    H1 3786   2.374   1.169   2.818
 1281TIP3    H2 3787   2.426   1.297   2.879
 1282TIP3   OH2 3788   4.565   4.775   1.869
 1282TIP3    H1 3789   4.606   4.745   1.950
 1282TIP3    H2 3790   4.511   4.701   1.841
 1283TIP3   OH2 3791   6.456   1.561   2.654
 1283TIP3    H1 3792   6.483   1.575   2.564
 1283TIP3    H2 3793   6.400   1.636   2.675
 1284TIP3   OH2 3794   2.127   3.670   1.741
 1284TIP3    H1 3795   2.077   3.751   1.746
 1284TIP3    H2 3796   2.201   3.690   1.685
 1285TIP3   OH2 3797   5.114   7.192   1.630
 1285TIP3    H1 3798   5.091   7.285   1.638
 1285TIP3    H2 3799   5.044   7.146   1.677
 1286TIP3   OH2 3800   0.483   7.583   1.092
 1286TIP3    H1 3801   0.474   7.625   1.007
 1286TIP3    H2 3802   0.416   7.624   1.146
 1287TIP3   OH2 3803   5.804   4.884   3.061
 1287TIP3    H1 3804   5.755   4.809   3.026
 1287TIP3    H2 3805   5.737   4.939   3.102
 1288TIP3   OH2 3806   2.555   3.269   0.866
 1288TIP3    H1 3807   2.649   3.272   0.847
 1288TIP3    H2 3808   2.518   3.340   0.813
 1289TIP3   OH2 3809   3.744   5.047   2.886
 1289TIP3    H1 3810   3.657   5.019   2.915
 1289TIP3    H2 3811   3.731   5.075   2.795
 1290TIP3   OH2 3812   2.766   0.285   4.263
 1290TIP3    H1 3813   2.776   0.335   4.181
 1290TIP3    H2 3814   2.770   0.194   4.236
 1291TIP3   OH2 3815   7.167   0.958   3.042
 1291TIP3    H1 3816   7.177   0.872   3.001
 1291TIP3    H2 3817   7.129   1.012   2.973
 1292TIP3   OH2 3818   2.985   1.489   6.376
 1292TIP3    H1 3819   2.935   1.408   6.383
 1292TIP3    H2 3820   3.059   1.467   6.319
 1293TIP3   OH2 3821   5.179   2.139   4.957
 1293TIP3    H1 3822   5.247   2.106   4.899
 1293TIP3    H2 3823   5.224   2.200   5.016
 1294TIP3   OH2 3824   3.814   0.598   0.422
 1294TIP3    H1 3825   3.780   0.671   0.473
 1294TIP3    H2 3826   3.783   0.614   0.333
 1295TIP3   OH2 3827   4.635   4.539   3.755
 1295TIP3    H1 3828   4.686   4.614   3.723
 1295TIP3    H2 3829   4.690   4.501   3.823
 1296TIP3   OH2 3830   7.797   6.069   3.800
 1296TIP3    H1 3831   7.749   6.133   3.748
 1296TIP3    H2 3832   7.850   6.021   3.736
 1297TIP3   OH2 3833   7.131   5.563   2.252
 1297TIP3    H1 3834   7.088   5.551   2.337
 1297TIP3    H2 3835   7.080   5.509   2.191
 1298TIP3   OH2 3836   5.656   5.466   3.256
 1298TIP3    H1 3837   5.576   5.466   3.204
 1298TIP3    H2 3838   5.658   5.551   3.298
 1299TIP3   OH2 3839   7.646   0.535   0.353
 1299TIP3    H1 3840   7.641   0.450   0.396
 1299TIP3    H2 3841   7.736   0.542   0.322
 1300TIP3   OH2 3842   1.892   6.747   0.322
 1300TIP3    H1 3843   1.931   6.833   0.307
 1300TIP3    H2 3844   1.826   6.739   0.252
 1301TIP3   OH2 3845   6.338   2.104   6.538
 1301TIP3    H1 3846   6.378   2.059   6.612
 1301TIP3    H2 3847   6.373   2.193   6.542
 1302TIP3   OH2 3848   0.421   5.363   4.955
 1302TIP3    H1 3849   0.456   5.409   5.032
 1302TIP3    H2 3850   0.343   5.413   4.931
 1303TIP3   OH2 3851   5.866   4.549   4.561
 1303TIP3    H1 3852   5.948   4.597   4.550
 1303TIP3    H2 3853   5.887   4.458   4.538
 1304TIP3   OH2 3854   2.354   0.274   2.837
 1304TIP3    H1 3855   2.349   0.181   2.859
 1304TIP3    H2 3856   2.283   0.314   2.888
 1305TIP3   OH2 3857   3.208   5.082   4.321
 1305TIP3    H1 3858   3.275   5.129   4.370
 1305TIP3    H2 3859   3.240   5.079   4.232
 1306TIP3   OH2 3860   6.810   5.278   4.703
 1306TIP3    H1 3861   6.882   5.306   4.761
 1306TIP3    H2 3862   6.854   5.245   4.624
 1307TIP3   OH2 3863   2.986   3.296   3.524
 1307TIP3    H1 3864   2.923   3.275   3.592
 1307TIP3    H2 3865   3.038   3.217   3.513
 1308TIP3   OH2 3866   7.967   0.868   1.118
 1308TIP3    H1 3867   7.876   0.863   1.087
 1308TIP3    H2 3868   8.008   0.933   1.062
 1309TIP3   OH2 3869   1.981   1.966   2.640
 1309TIP3    H1 3870   2.046   1.929   2.580
 1309TIP3    H2 3871   2.032   2.020   2.701
 1310TIP3   OH2 3872   3.650   5.587   2.559
 1310TIP3    H1 3873   3.626   5.569   2.650
 1310TIP3    H2 3874   3.736   5.629   2.565
 1311TIP3   OH2 3875   0.386   1.959   2.436
 1311TIP3    H1 3876   0.328   2.028   2.405
 1311TIP3    H2 3877   0.379   1.891   2.369
 1312TIP3   OH2 3878   4.894   6.107   1.247
 1312TIP3    H1 3879   4.802   6.116   1.221
 1312TIP3    H2 3880   4.896   6.140   1.337
 1313TIP3   OH2 3881   1.389   1.341   2.982
 1313TIP3    H1 3882   1.378   1.360   2.889
 1313TIP3    H2 3883   1.302   1.355   3.020
 1314TIP3   OH2 3884   1.000   5.628   0.656
 1314TIP3    H1 3885   0.999   5.533   0.661
 1314TIP3    H2 3886   0.934   5.656   0.719
 1315TIP3   OH2 3887   2.233   7.697   1.018
 1315TIP3    H1 3888   2.214   7.678   1.110
 1315TIP3    H2 3889   2.329   7.703   1.014
 1316TIP3   OH2 3890   2.336   5.554   0.942
 1316TIP3    H1 3891   2.406   5.502   0.981
 1316TIP3    H2 3892   2.319   5.512   0.858
 1317TIP3   OH2 3893   8.291   7.073   3.336
 1317TIP3    H1 3894   8.290   7.088   3.241
 1317TIP3    H2 3895   8.234   6.996   3.348
 1318TIP3   OH2 3896   1.183   2.514   4.950
 1318TIP3    H1 3897   1.272   2.513   4.987
 1318TIP3    H2 3898   1.177   2.432   4.902
 1319TIP3   OH2 3899   3.611   6.496   5.705
 1319TIP3    H1 3900   3.689   6.532   5.662
 1319TIP3    H2 3901   3.592   6.416   5.657
 1320TIP3   OH2 3902   8.189   0.586   6.090
 1320TIP3    H1 3903   8.205   0.565   5.998
 1320TIP3    H2 3904   8.252   0.655   6.110
 1321TIP3   OH2 3905   2.826   6.950   2.275
 1321TIP3    H1 3906   2.792   7.036   2.299
 1321TIP3    H2 3907   2.919   6.953   2.298
 1322TIP3   OH2 3908   6.750   4.155   5.180
 1322TIP3    H1 3909   6.732   4.232   5.233
 1322TIP3    H2 3910   6.780   4.089   5.243
 1323TIP3   OH2 3911   1.355   6.796   4.076
 1323TIP3    H1 3912   1.329   6.722   4.132
 1323TIP3    H2 3913   1.323   6.773   3.989
 1324TIP3   OH2 3914   2.171   7.515   0.811
 1324TIP3    H1 3915   2.197   7.581   0.876
 1324TIP3    H2 3916   2.087   7.482   0.844
 1325TIP3   OH2 3917   0.893   0.485   2.518
 1325TIP3    H1 3918   0.971   0.430   2.512
 1325TIP3    H2 3919   0.846   0.452   2.594
 1326TIP3   OH2 3920   7.612   0.931   3.008
 1326TIP3    H1 3921   7.684   0.895   3.059
 1326TIP3    H2 3922   7.653   0.963   2.928
 1327TIP3   OH2 3923   2.687   6.830   5.270
 1327TIP3    H1 3924   2.597   6.861   5.280
 1327TIP3    H2 3925   2.707   6.785   5.353
 1328TIP3   OH2 3926   4.346   1.049   5.478
 1328TIP3    H1 3927   4.375   1.008   5.559
 1328TIP3    H2 3928   4.372   0.988   5.409
 1329TIP3   OH2 3929   4.649   5.007   1.944
 1329TIP3    H1 3930   4.642   4.964   2.029
 1329TIP3    H2 3931   4.635   4.937   1.880
 1330TIP3   OH2 3932   4.520   4.106   6.511
 1330TIP3    H1 3933   4.592   4.053   6.546
 1330TIP3    H2 3934   4.448   4.092   6.572
 1331TIP3   OH2 3935   1.208   5.750   2.685
 1331TIP3    H1 3936   1.139   5.713   2.739
 1331TIP3    H2 3937   1.279   5.686   2.688
 1332TIP3   OH2 3938   0.683   3.345   0.695
 1332TIP3    H1 3939   0.634   3.421   0.665
 1332TIP3    H2 3940   0.625   3.270   0.679
 1333TIP3   OH2 3941   8.209   0.736   1.655
 1333TIP3    H1 3942   8.155   0.670   1.698
 1333TIP3    H2 3943   8.257   0.687   1.587
 1334TIP3   OH2 3944   2.264   0.972   4.214
 1334TIP3    H1 3945   2.199   0.941   4.151
 1334TIP3    H2 3946   2.217   1.038   4.266
 1335TIP3   OH2 3947   5.063   3.781   6.288
 1335TIP3    H1 3948   5.007   3.792   6.211
 1335TIP3    H2 3949   5.093   3.870   6.308
 1336TIP3   OH2 3950   4.887   1.786   3.553
 1336TIP3    H1 3951   4.880   1.691   3.564
 1336TIP3    H2 3952   4.818   1.808   3.491
 1337TIP3   OH2 3953   2.772   6.900   5.840
 1337TIP3    H1 3954   2.779   6.885   5.746
 1337TIP3    H2 3955   2.863   6.899   5.871
 1338TIP3   OH2 3956   5.055   5.041   3.919
 1338TIP3    H1 3957   5.015   5.086   3.845
 1338TIP3    H2 3958   5.144   5.021   3.890
 1339TIP3   OH2 3959   2.883   2.126   5.500
 1339TIP3    H1 3960   2.854   2.037   5.516
 1339TIP3    H2 3961   2.803   2.179   5.504
 1340TIP3   OH2 3962   1.534   4.599   2.034
 1340TIP3    H1 3963   1.456   4.636   1.993
 1340TIP3    H2 3964   1.606   4.651   2.000
 1341TIP3   OH2 3965   0.239   7.112   0.027
 1341TIP3    H1 3966   0.167   7.048   0.023
 1341TIP3    H2 3967   0.246   7.145  -0.062
 1342TIP3   OH2 3968   4.412   7.288   4.491
 1342TIP3    H1 3969   4.473   7.337   4.435
 1342TIP3    H2 3970   4.458   7.279   4.574
 1343TIP3   OH2 3971   1.488   7.376   4.691
 1343TIP3    H1 3972   1.452   7.424   4.765
 1343TIP3    H2 3973   1.463   7.427   4.614
 1344TIP3   OH2 3974   0.993   6.237   0.850
 1344TIP3    H1 3975   0.927   6.168   0.851
 1344TIP3    H2 3976   1.066   6.199   0.801
 1345TIP3   OH2 3977   7.029   6.826   6.327
 1345TIP3    H1 3978   7.074   6.805   6.408
 1345TIP3    H2 3979   7.003   6.918   6.338
 1346TIP3   OH2 3980   1.567   5.450   0.233
 1346TIP3    H1 3981   1.654   5.412   0.220
 1346TIP3    H2 3982   1.506   5.381   0.207
 1347TIP3   OH2 3983   2.641   0.121   3.938
 1347TIP3    H1 3984   2.580   0.156   3.873
 1347TIP3    H2 3985   2.693   0.197   3.965
 1348TIP3   OH2 3986   4.405   3.856   1.929
 1348TIP3    H1 3987   4.439   3.930   1.979
 1348TIP3    H2 3988   4.373   3.894   1.847
 1349TIP3   OH2 3989   2.906   3.486   1.195
 1349TIP3    H1 3990   2.861   3.539   1.261
 1349TIP3    H2 3991   2.839   3.425   1.165
 1350TIP3   OH2 3992   6.602   6.148   0.158
 1350TIP3    H1 3993   6.572   6.058   0.169
 1350TIP3    H2 3994   6.540   6.187   0.096
 1351TIP3   OH2 3995   4.138   3.668   3.419
 1351TIP3    H1 3996   4.062   3.616   3.391
 1351TIP3    H2 3997   4.143   3.739   3.355
 1352TIP3   OH2 3998   6.615   4.236   1.926
 1352TIP3    H1 3999   6.597   4.295   2.000
 1352TIP3    H2 4000   6.685   4.279   1.878
 1353TIP3   OH2 4001   7.258   3.086   1.210
 1353TIP3    H1 4002   7.248   3.108   1.303
 1353TIP3    H2 4003   7.347   3.052   1.202
 1354TIP3   OH2 4004   3.595   5.847   0.309
 1354TIP3    H1 4005   3.579   5.925   0.362
 1354TIP3    H2 4006   3.612   5.777   0.373
 1355TIP3   OH2 4007   7.595   5.138   4.949
 1355TIP3    H1 4008   7.596   5.167   5.040
 1355TIP3    H2 4009   7.567   5.215   4.900
 1356TIP3   OH2 4010   2.537   3.582   6.487
 1356TIP3    H1 4011   2.524   3.525   6.411
 1356TIP3    H2 4012   2.452   3.583   6.531
 1357TIP3   OH2 4013   0.136   3.719   6.528
 1357TIP3    H1 4014   0.115   3.806   6.494
 1357TIP3    H2 4015   0.072   3.661   6.487
 1358TIP3   OH2 4016   0.040   0.708   3.798
 1358TIP3    H1 4017  -0.034   0.684   3.743
 1358TIP3    H2 4018   0.082   0.625   3.821
 1359TIP3   OH2 4019   6.518   5.395   4.412
 1359TIP3    H1 4020   6.593   5.360   4.365
 1359TIP3    H2 4021   6.442   5.368   4.360
 1360TIP3   OH2 4022   5.784   2.590   1.528
 1360TIP3    H1 4023   5.872   2.557   1.508
 1360TIP3    H2 4024   5.792   2.685   1.522
 1361TIP3   OH2 4025   2.938   4.136   1.657
 1361TIP3    H1 4026   2.842   4.126   1.655
 1361TIP3    H2 4027   2.959   4.148   1.749
 1362TIP3   OH2 4028   5.200   0.344   0.480
 1362TIP3    H1 4029   5.292   0.370   0.487
 1362TIP3    H2 4030   5.189   0.323   0.387
 1363TIP3   OH2 4031   4.451   4.961   6.649
 1363TIP3    H1 4032   4.526   4.991   6.597
 1363TIP3    H2 4033   4.458   4.866   6.648
 1364TIP3   OH2 4034   5.218   5.907   4.138
 1364TIP3    H1 4035   5.202   5.817   4.165
 1364TIP3    H2 4036   5.293   5.936   4.190
 1365TIP3   OH2 4037   6.387   3.267   1.614
 1365TIP3    H1 4038   6.295   3.274   1.640
 1365TIP3    H2 4039   6.385   3.217   1.532
 1366TIP3   OH2 4040   2.169   3.502   3.085
 1366TIP3    H1 4041   2.259   3.524   3.060
 1366TIP3    H2 4042   2.169   3.507   3.181
 1367TIP3   OH2 4043   1.004   2.401   0.617
 1367TIP3    H1 4044   0.932   2.371   0.673
 1367TIP3    H2 4045   0.961   2.446   0.545
 1368TIP3   OH2 4046   6.197   7.035   0.646
 1368TIP3    H1 4047   6.210   7.029   0.551
 1368TIP3    H2 4048   6.264   7.096   0.676
 1369TIP3   OH2 4049   2.202   2.500   2.955
 1369TIP3    H1 4050   2.252   2.448   3.018
 1369TIP3    H2 4051   2.112   2.495   2.986
 1370TIP3   OH2 4052   3.544   1.200   1.866
 1370TIP3    H1 4053   3.467   1.162   1.823
 1370TIP3    H2 4054   3.601   1.227   1.794
 1371TIP3   OH2 4055   1.324   5.163   3.343
 1371TIP3    H1 4056   1.300   5.075   3.314
 1371TIP3    H2 4057   1.377   5.198   3.272
 1372TIP3   OH2 4058   0.091   4.540   3.566
 1372TIP3    H1 4059   0.132   4.530   3.480
 1372TIP3    H2 4060   0.004   4.503   3.555
 1373TIP3   OH2 4061   2.675   0.515   1.672
 1373TIP3    H1 4062   2.598   0.515   1.729
 1373TIP3    H2 4063   2.738   0.571   1.718
 1374TIP3   OH2 4064   4.809   7.524   1.701
 1374TIP3    H1 4065   4.790   7.548   1.610
 1374TIP3    H2 4066   4.729   7.548   1.749
 1375TIP3   OH2 4067   2.318   6.328   1.023
 1375TIP3    H1 4068   2.299   6.327   0.929
 1375TIP3    H2 4069   2.241   6.287   1.064
 1376TIP3   OH2 4070   4.079   4.738   5.925
 1376TIP3    H1 4071   4.103   4.672   5.990
 1376TIP3    H2 4072   4.150   4.735   5.861
 1377TIP3   OH2 4073   5.794   2.288   0.644
 1377TIP3    H1 4074   5.864   2.250   0.697
 1377TIP3    H2 4075   5.736   2.330   0.708
 1378TIP3   OH2 4076   6.367   1.753   4.867
 1378TIP3    H1 4077   6.447   1.800   4.842
 1378TIP3    H2 4078   6.340   1.792   4.950
 1379TIP3   OH2 4079   1.419   1.783   1.562
 1379TIP3    H1 4080   1.450   1.872   1.573
 1379TIP3    H2 4081   1.400   1.776   1.468
 1380TIP3   OH2 4082   0.615   5.970   2.577
 1380TIP3    H1 4083   0.697   5.950   2.531
 1380TIP3    H2 4084   0.642   6.019   2.655
 1381TIP3   OH2 4085   7.291   2.452   0.295
 1381TIP3    H1 4086   7.243   2.528   0.260
 1381TIP3    H2 4087   7.225   2.383   0.301
 1382TIP3   OH2 4088   3.329   3.250   3.952
 1382TIP3    H1 4089   3.304   3.168   3.909
 1382TIP3    H2 4090   3.248   3.302   3.953
 1383TIP3   OH2 4091   5.223   4.908   3.669
 1383TIP3    H1 4092   5.152   4.878   3.612
 1383TIP3    H2 4093   5.295   4.929   3.609
 1384TIP3   OH2 4094   7.884   3.208   6.722
 1384TIP3    H1 4095   7.918   3.141   6.782
 1384TIP3    H2 4096   7.925   3.289   6.751
 1385TIP3   OH2 4097   7.170   1.662   5.053
 1385TIP3    H1 4098   7.089   1.649   5.004
 1385TIP3    H2 4099   7.174   1.588   5.113
 1386TIP3   OH2 4100   5.097   5.887   6.485
 1386TIP3    H1 4101   5.087   5.966   6.537
 1386TIP3    H2 4102   5.027   5.892   6.420
 1387TIP3   OH2 4103   4.902   4.463   6.476
 1387TIP3    H1 4104   4.873   4.540   6.526
 1387TIP3    H2 4105   4.827   4.441   6.421
 1388TIP3   OH2 4106   2.131   3.563   2.320
 1388TIP3    H1 4107   2.045   3.587   2.355
 1388TIP3    H2 4108   2.149   3.629   2.253
 1389TIP3   OH2 4109   6.544   3.005   3.956
 1389TIP3    H1 4110   6.531   3.016   3.862
 1389TIP3    H2 4111   6.493   3.076   3.995
 1390TIP3   OH2 4112   3.831   2.067   2.531
 1390TIP3    H1 4113   3.758   2.126   2.550
 1390TIP3    H2 4114   3.814   2.037   2.442
 1391TIP3   OH2 4115   4.221   1.983   0.690
 1391TIP3    H1 4116   4.150   1.922   0.669
 1391TIP3    H2 4117   4.276   1.984   0.612
 1392TIP3   OH2 4118   4.893   0.401   1.116
 1392TIP3    H1 4119   4.908   0.368   1.027
 1392TIP3    H2 4120   4.868   0.323   1.166
 1393TIP3   OH2 4121   5.661   0.606   2.906
 1393TIP3    H1 4122   5.707   0.610   2.990
 1393TIP3    H2 4123   5.685   0.687   2.861
 1394TIP3   OH2 4124   3.806   1.092   2.267
 1394TIP3    H1 4125   3.870   1.098   2.338
 1394TIP3    H2 4126   3.801   1.181   2.233
 1395TIP3   OH2 4127   1.432   0.139   6.253
 1395TIP3    H1 4128   1.342   0.169   6.257
 1395TIP3    H2 4129   1.484   0.218   6.238
 1396TIP3   OH2 4130   2.645   4.781   1.861
 1396TIP3    H1 4131   2.581   4.709   1.863
 1396TIP3    H2 4132   2.695   4.766   1.781
 1397TIP3   OH2 4133   4.835   6.574   4.673
 1397TIP3    H1 4134   4.862   6.663   4.650
 1397TIP3    H2 4135   4.917   6.527   4.685
 1398TIP3   OH2 4136   3.455   1.654   4.192
 1398TIP3    H1 4137   3.444   1.651   4.287
 1398TIP3    H2 4138   3.485   1.566   4.168
 1399TIP3   OH2 4139   4.672   3.111   5.904
 1399TIP3    H1 4140   4.666   3.207   5.910
 1399TIP3    H2 4141   4.599   3.080   5.957
 1400TIP3   OH2 4142   8.094   2.450   4.563
 1400TIP3    H1 4143   8.122   2.505   4.490
 1400TIP3    H2 4144   7.999   2.449   4.557
 1401TIP3   OH2 4145   5.485   0.920   1.809
 1401TIP3    H1 4146   5.553   0.876   1.860
 1401TIP3    H2 4147   5.459   0.856   1.743
 1402TIP3   OH2 4148   7.754   6.289   2.119
 1402TIP3    H1 4149   7.683   6.254   2.172
 1402TIP3    H2 4150   7.785   6.214   2.068
 1403TIP3   OH2 4151   8.271   5.137   5.746
 1403TIP3    H1 4152   8.211   5.063   5.758
 1403TIP3    H2 4153   8.304   5.155   5.833
 1404TIP3   OH2 4154   6.705   3.803   0.847
 1404TIP3    H1 4155   6.777   3.741   0.845
 1404TIP3    H2 4156   6.626   3.750   0.844
 1405TIP3   OH2 4157   5.275   7.768   1.256
 1405TIP3    H1 4158   5.187   7.807   1.258
 1405TIP3    H2 4159   5.334   7.840   1.237
 1406TIP3   OH2 4160   3.486   3.893   6.388
 1406TIP3    H1 4161   3.428   3.969   6.397
 1406TIP3    H2 4162   3.547   3.918   6.318
 1407TIP3   OH2 4163   4.236   1.610   4.992
 1407TIP3    H1 4164   4.256   1.567   4.908
 1407TIP3    H2 4165   4.181   1.547   5.038
 1408TIP3   OH2 4166   6.941   5.166   3.796
 1408TIP3    H1 4167   6.909   5.088   3.752
 1408TIP3    H2 4168   7.029   5.143   3.826
 1409TIP3   OH2 4169   5.818   5.772   1.550
 1409TIP3    H1 4170   5.871   5.816   1.484
 1409TIP3    H2 4171   5.802   5.685   1.514
 1410TIP3   OH2 4172   6.220   2.954   5.895
 1410TIP3    H1 4173   6.237   2.971   5.803
 1410TIP3    H2 4174   6.178   2.867   5.896
 1411TIP3   OH2 4175   1.696   0.825   1.695
 1411TIP3    H1 4176   1.692   0.903   1.639
 1411TIP3    H2 4177   1.717   0.859   1.782
 1412TIP3   OH2 4178   8.253   1.985   5.515
 1412TIP3    H1 4179   8.307   2.064   5.525
 1412TIP3    H2 4180   8.211   1.995   5.430
 1413TIP3   OH2 4181   0.216   5.604   3.446
 1413TIP3    H1 4182   0.269   5.679   3.421
 1413TIP3    H2 4183   0.131   5.620   3.404
 1414TIP3   OH2 4184   6.254   6.303   0.204
 1414TIP3    H1 4185   6.210   6.350   0.133
 1414TIP3    H2 4186   6.216   6.215   0.201
 1415TIP3   OH2 4187   5.492   3.981   4.545
 1415TIP3    H1 4188   5.417   3.925   4.526
 1415TIP3    H2 4189   5.536   3.992   4.460
 1416TIP3   OH2 4190   0.976   1.398   2.364
 1416TIP3    H1 4191   0.946   1.472   2.312
 1416TIP3    H2 4192   0.912   1.391   2.434
 1417TIP3   OH2 4193   8.236   3.298   0.455
 1417TIP3    H1 4194   8.148   3.299   0.494
 1417TIP3    H2 4195   8.286   3.359   0.509
 1418TIP3   OH2 4196   1.366   0.553   5.688
 1418TIP3    H1 4197   1.412   0.605   5.754
 1418TIP3    H2 4198   1.372   0.463   5.720
 1419TIP3   OH2 4199   7.668   3.335   1.542
 1419TIP3    H1 4200   7.638   3.309   1.455
 1419TIP3    H2 4201   7.728   3.407   1.526
 1420TIP3   OH2 4202   6.142   4.824   3.534
 1420TIP3    H1 4203   6.117   4.900   3.481
 1420TIP3    H2 4204   6.183   4.862   3.612
 1421TIP3   OH2 4205   2.628   1.892   1.154
 1421TIP3    H1 4206   2.653   1.813   1.105
 1421TIP3    H2 4207   2.561   1.862   1.216
 1422TIP3   OH2 4208   1.411   5.008   1.478
 1422TIP3    H1 4209   1.466   5.059   1.538
 1422TIP3    H2 4210   1.322   5.020   1.511
 1423TIP3   OH2 4211   5.915   0.356   1.242
 1423TIP3    H1 4212   5.849   0.378   1.308
 1423TIP3    H2 4213   5.981   0.306   1.289
 1424TIP3   OH2 4214   1.697   2.198   5.629
 1424TIP3    H1 4215   1.734   2.145   5.700
 1424TIP3    H2 4216   1.603   2.200   5.647
 1425TIP3   OH2 4217   4.072   0.497   0.183
 1425TIP3    H1 4218   3.984   0.529   0.166
 1425TIP3    H2 4219   4.129   0.571   0.163
 1426TIP3   OH2 4220   5.834   2.215   2.553
 1426TIP3    H1 4221   5.892   2.145   2.525
 1426TIP3    H2 4222   5.755   2.204   2.500
 1427TIP3   OH2 4223   0.370   1.390   1.936
 1427TIP3    H1 4224   0.352   1.369   2.027
 1427TIP3    H2 4225   0.300   1.450   1.911
 1428TIP3   OH2 4226   3.292   0.610   6.306
 1428TIP3    H1 4227   3.319   0.601   6.397
 1428TIP3    H2 4228   3.196   0.610   6.310
 1429TIP3   OH2 4229   1.885   1.342   5.483
 1429TIP3    H1 4230   1.972   1.317   5.514
 1429TIP3    H2 4231   1.845   1.260   5.455
 1430TIP3   OH2 4232   1.165   2.546   0.967
 1430TIP3    H1 4233   1.083   2.537   1.016
 1430TIP3    H2 4234   1.231   2.563   1.034
 1431TIP3   OH2 4235   7.331   3.671   1.294
 1431TIP3    H1 4236   7.309   3.623   1.374
 1431TIP3    H2 4237   7.287   3.756   1.305
 1432TIP3   OH2 4238   5.276   0.105   6.600
 1432TIP3    H1 4239   5.346   0.117   6.664
 1432TIP3    H2 4240   5.252   0.012   6.608
 1433TIP3   OH2 4241   5.898   2.538   1.883
 1433TIP3    H1 4242   5.867   2.599   1.950
 1433TIP3    H2 4243   5.819   2.493   1.853
 1434TIP3   OH2 4244   4.339   6.774   3.732
 1434TIP3    H1 4245   4.291   6.691   3.734
 1434TIP3    H2 4246   4.282   6.833   3.683
 1435TIP3   OH2 4247   2.347   0.836   5.373
 1435TIP3    H1 4248   2.325   0.838   5.466
 1435TIP3    H2 4249   2.424   0.892   5.366
 1436TIP3   OH2 4250   8.343   1.215   1.373
 1436TIP3    H1 4251   8.282   1.219   1.447
 1436TIP3    H2 4252   8.288   1.224   1.295
 1437TIP3   OH2 4253   5.476   2.975   5.239
 1437TIP3    H1 4254   5.397   3.029   5.240
 1437TIP3    H2 4255   5.548   3.037   5.230
 1438TIP3   OH2 4256   0.270   5.438   4.680
 1438TIP3    H1 4257   0.197   5.471   4.627
 1438TIP3    H2 4258   0.256   5.476   4.766
 1439TIP3   OH2 4259   1.163   4.041   4.027
 1439TIP3    H1 4260   1.125   4.124   3.999
 1439TIP3    H2 4261   1.193   4.058   4.117
 1440TIP3   OH2 4262   4.374   3.825   0.944
 1440TIP3    H1 4263   4.318   3.840   1.021
 1440TIP3    H2 4264   4.391   3.913   0.910
 1441TIP3   OH2 4265   3.049   7.705   0.299
 1441TIP3    H1 4266   2.957   7.686   0.283
 1441TIP3    H2 4267   3.051   7.752   0.382
 1442TIP3   OH2 4268   6.044   3.069   1.164
 1442TIP3    H1 4269   6.139   3.054   1.160
 1442TIP3    H2 4270   6.007   3.001   1.107
 1443TIP3   OH2 4271   3.834   4.358   0.332
 1443TIP3    H1 4272   3.797   4.419   0.268
 1443TIP3    H2 4273   3.863   4.414   0.404
 1444TIP3   OH2 4274   7.111   2.927   5.199
 1444TIP3    H1 4275   7.024   2.948   5.234
 1444TIP3    H2 4276   7.093   2.882   5.117
 1445TIP3   OH2 4277   0.078   5.716   2.866
 1445TIP3    H1 4278  -0.016   5.727   2.849
 1445TIP3    H2 4279   0.121   5.745   2.785
 1446TIP3   OH2 4280   7.043   4.013   0.022
 1446TIP3    H1 4281   7.130   3.987  -0.010
 1446TIP3    H2 4282   7.052   4.012   0.117
 1447TIP3   OH2 4283   7.998   0.126   5.768
 1447TIP3    H1 4284   7.929   0.157   5.709
 1447TIP3    H2 4285   8.066   0.193   5.763
 1448TIP3   OH2 4286   7.257   5.772   0.412
 1448TIP3    H1 4287   7.237   5.721   0.333
 1448TIP3    H2 4288   7.210   5.854   0.401
 1449TIP3   OH2 4289   2.524   2.714   0.420
 1449TIP3    H1 4290   2.519   2.743   0.511
 1449TIP3    H2 4291   2.508   2.619   0.425
 1450TIP3   OH2 4292   2.061   4.020   2.305
 1450TIP3    H1 4293   2.138   4.004   2.359
 1450TIP3    H2 4294   2.002   3.946   2.324
 1451TIP3   OH2 4295   0.733   0.090   3.018
 1451TIP3    H1 4296   0.825   0.096   3.042
 1451TIP3    H2 4297   0.732   0.040   2.937
 1452TIP3   OH2 4298   4.957   6.273   0.124
 1452TIP3    H1 4299   4.991   6.334   0.058
 1452TIP3    H2 4300   5.015   6.197   0.118
 1453TIP3   OH2 4301   2.817   4.663   0.175
 1453TIP3    H1 4302   2.774   4.748   0.179
 1453TIP3    H2 4303   2.873   4.668   0.097
 1454TIP3   OH2 4304   6.454   4.322   5.246
 1454TIP3    H1 4305   6.378   4.373   5.275
 1454TIP3    H2 4306   6.525   4.386   5.243
 1455TIP3   OH2 4307   5.778   1.974   1.100
 1455TIP3    H1 4308   5.716   2.015   1.160
 1455TIP3    H2 4309   5.847   1.938   1.156
 1456TIP3   OH2 4310   2.194   2.814   0.991
 1456TIP3    H1 4311   2.199   2.904   1.022
 1456TIP3    H2 4312   2.107   2.808   0.952
 1457TIP3   OH2 4313   0.314   1.928   4.929
 1457TIP3    H1 4314   0.226   1.895   4.947
 1457TIP3    H2 4315   0.321   1.926   4.834
 1458TIP3   OH2 4316   0.197   4.897   3.483
 1458TIP3    H1 4317   0.269   4.903   3.420
 1458TIP3    H2 4318   0.241   4.888   3.568
 1459TIP3   OH2 4319   5.835   2.828   6.380
 1459TIP3    H1 4320   5.897   2.805   6.311
 1459TIP3    H2 4321   5.867   2.781   6.457
 1460TIP3   OH2 4322   1.449   5.874   2.041
 1460TIP3    H1 4323   1.437   5.892   1.948
 1460TIP3    H2 4324   1.417   5.953   2.085
 1461TIP3   OH2 4325   2.793   3.211   1.738
 1461TIP3    H1 4326   2.806   3.229   1.832
 1461TIP3    H2 4327   2.829   3.288   1.694
 1462TIP3   OH2 4328   5.885   4.932   2.402
 1462TIP3    H1 4329   5.893   4.858   2.341
 1462TIP3    H2 4330   5.948   4.996   2.370
 1463TIP3   OH2 4331   5.451   5.884   5.159
 1463TIP3    H1 4332   5.455   5.976   5.182
 1463TIP3    H2 4333   5.388   5.846   5.221
 1464TIP3   OH2 4334   5.443   4.258   2.293
 1464TIP3    H1 4335   5.504   4.189   2.267
 1464TIP3    H2 4336   5.362   4.212   2.314
 1465TIP3   OH2 4337   6.650   1.282   4.859
 1465TIP3    H1 4338   6.599   1.363   4.859
 1465TIP3    H2 4339   6.597   1.221   4.808
 1466TIP3   OH2 4340   0.791   3.789   4.597
 1466TIP3    H1 4341   0.833   3.710   4.563
 1466TIP3    H2 4342   0.836   3.861   4.552
 1467TIP3   OH2 4343   0.798   0.599   1.746
 1467TIP3    H1 4344   0.884   0.605   1.704
 1467TIP3    H2 4345   0.751   0.533   1.696
 1468TIP3   OH2 4346   6.259   6.505   6.657
 1468TIP3    H1 4347   6.188   6.569   6.653
 1468TIP3    H2 4348   6.299   6.520   6.743
 1469TIP3   OH2 4349   4.949   0.432   5.389
 1469TIP3    H1 4350   4.992   0.387   5.462
 1469TIP3    H2 4351   4.881   0.485   5.431
 1470TIP3   OH2 4352   5.323   6.084   2.643
 1470TIP3    H1 4353   5.334   6.026   2.719
 1470TIP3    H2 4354   5.411   6.117   2.626
 1471TIP3   OH2 4355   7.543   1.669   0.650
 1471TIP3    H1 4356   7.496   1.632   0.725
 1471TIP3    H2 4357   7.576   1.753   0.681
 1472TIP3   OH2 4358   0.417   2.077   5.905
 1472TIP3    H1 4359   0.470   2.001   5.929
 1472TIP3    H2 4360   0.481   2.147   5.890
 1473TIP3   OH2 4361   0.549   0.168   1.503
 1473TIP3    H1 4362   0.489   0.122   1.444
 1473TIP3    H2 4363   0.605   0.099   1.539
 1474TIP3   OH2 4364   5.892   6.792   6.228
 1474TIP3    H1 4365   5.857   6.806   6.141
 1474TIP3    H2 4366   5.983   6.823   6.223
 1475TIP3   OH2 4367   4.489   0.699   2.507
 1475TIP3    H1 4368   4.418   0.764   2.502
 1475TIP3    H2 4369   4.561   0.738   2.458
 1476TIP3   OH2 4370   0.280   7.060   3.848
 1476TIP3    H1 4371   0.276   7.155   3.834
 1476TIP3    H2 4372   0.252   7.048   3.939
 1477TIP3   OH2 4373   5.408   0.418   4.850
 1477TIP3    H1 4374   5.332   0.406   4.794
 1477TIP3    H2 4375   5.392   0.361   4.926
 1478TIP3   OH2 4376   6.076   7.423   0.362
 1478TIP3    H1 4377   6.122   7.385   0.287
 1478TIP3    H2 4378   6.063   7.349   0.421
 1479TIP3   OH2 4379   7.590   6.227   0.820
 1479TIP3    H1 4380   7.507   6.255   0.781
 1479TIP3    H2 4381   7.572   6.141   0.857
 1480TIP3   OH2 4382   5.165   3.200   2.735
 1480TIP3    H1 4383   5.070   3.190   2.742
 1480TIP3    H2 4384   5.177   3.262   2.663
 1481TIP3   OH2 4385   4.715   2.085   4.854
 1481TIP3    H1 4386   4.701   2.037   4.772
 1481TIP3    H2 4387   4.800   2.055   4.885
 1482TIP3   OH2 4388   2.216   1.106   3.837
 1482TIP3    H1 4389   2.128   1.125   3.869
 1482TIP3    H2 4390   2.206   1.025   3.787
 1483TIP3   OH2 4391   2.351   4.330   0.973
 1483TIP3    H1 4392   2.264   4.326   0.935
 1483TIP3    H2 4393   2.360   4.420   1.004
 1484TIP3   OH2 4394   7.460   7.227   1.382
 1484TIP3    H1 4395   7.434   7.209   1.473
 1484TIP3    H2 4396   7.554   7.208   1.381
 1485TIP3   OH2 4397   3.532   3.515   0.240
 1485TIP3    H1 4398   3.534   3.609   0.258
 1485TIP3    H2 4399   3.441   3.489   0.253
 1486TIP3   OH2 4400   0.154   2.911   4.866
 1486TIP3    H1 4401   0.223   2.847   4.886
 1486TIP3    H2 4402   0.133   2.950   4.950
 1487TIP3   OH2 4403   3.634   4.017   1.271
 1487TIP3    H1 4404   3.539   4.030   1.268
 1487TIP3    H2 4405   3.670   4.103   1.247
 1488TIP3   OH2 4406   6.328   6.371   5.390
 1488TIP3    H1 4407   6.323   6.384   5.485
 1488TIP3    H2 4408   6.381   6.293   5.378
 1489TIP3   OH2 4409   5.654   1.774   0.437
 1489TIP3    H1 4410   5.568   1.764   0.477
 1489TIP3    H2 4411   5.636   1.784   0.343
 1490TIP3   OH2 4412   2.542   0.855   1.618
 1490TIP3    H1 4413   2.634   0.830   1.622
 1490TIP3    H2 4414   2.537   0.936   1.668
 1491TIP3   OH2 4415   7.061   7.232   0.462
 1491TIP3    H1 4416   7.078   7.325   0.444
 1491TIP3    H2 4417   7.139   7.201   0.506
 1492TIP3   OH2 4418   3.077   5.437   2.091
 1492TIP3    H1 4419   3.077   5.366   2.026
 1492TIP3    H2 4420   3.159   5.483   2.075
 1493TIP3   OH2 4421   7.906   5.400   0.072
 1493TIP3    H1 4422   7.918   5.465   0.003
 1493TIP3    H2 4423   7.985   5.346   0.069
 1494TIP3   OH2 4424   0.864   3.586   5.166
 1494TIP3    H1 4425   0.774   3.603   5.194
 1494TIP3    H2 4426   0.860   3.501   5.122
 1495TIP3   OH2 4427   8.049   1.291   5.667
 1495TIP3    H1 4428   8.131   1.289   5.619
 1495TIP3    H2 4429   8.045   1.378   5.706
 1496TIP3   OH2 4430   3.067   0.546   4.660
 1496TIP3    H1 4431   3.152   0.590   4.660
 1496TIP3    H2 4432   3.025   0.576   4.741
 1497TIP3   OH2 4433   0.706   2.423   2.804
 1497TIP3    H1 4434   0.725   2.516   2.791
 1497TIP3    H2 4435   0.686   2.390   2.717
 1498TIP3   OH2 4436   3.746   5.037   1.371
 1498TIP3    H1 4437   3.787   4.955   1.344
 1498TIP3    H2 4438   3.799   5.066   1.446
 1499TIP3   OH2 4439   7.330   5.738   6.538
 1499TIP3    H1 4440   7.418   5.750   6.576
 1499TIP3    H2 4441   7.302   5.653   6.571
 1500TIP3   OH2 4442   3.013   2.509   0.192
 1500TIP3    H1 4443   3.002   2.555   0.109
 1500TIP3    H2 4444   3.065   2.432   0.169
 1501TIP3   OH2 4445   6.758   2.271   6.353
 1501TIP3    H1 4446   6.682   2.313   6.392
 1501TIP3    H2 4447   6.807   2.343   6.312
 1502TIP3   OH2 4448   0.348   3.565   3.398
 1502TIP3    H1 4449   0.253   3.554   3.407
 1502TIP3    H2 4450   0.361   3.659   3.405
 1503TIP3   OH2 4451   3.993   0.492   5.454
 1503TIP3    H1 4452   4.034   0.576   5.430
 1503TIP3    H2 4453   3.975   0.450   5.370
 1504TIP3   OH2 4454   4.090   0.693   0.976
 1504TIP3    H1 4455   4.170   0.651   1.007
 1504TIP3    H2 4456   4.040   0.623   0.935
 1505TIP3   OH2 4457   6.852   6.158   4.857
 1505TIP3    H1 4458   6.847   6.088   4.791
 1505TIP3    H2 4459   6.945   6.182   4.859
 1506TIP3   OH2 4460   2.203   6.456   0.789
 1506TIP3    H1 4461   2.211   6.526   0.724
 1506TIP3    H2 4462   2.118   6.417   0.772
 1507TIP3   OH2 4463   5.566   6.412   2.251
 1507TIP3    H1 4464   5.532   6.479   2.192
 1507TIP3    H2 4465   5.533   6.437   2.337
 1508TIP3   OH2 4466   3.372   1.400   2.074
 1508TIP3    H1 4467   3.329   1.456   2.139
 1508TIP3    H2 4468   3.354   1.311   2.104
 1509TIP3   OH2 4469   1.682   5.630   5.798
 1509TIP3    H1 4470   1.632   5.640   5.718
 1509TIP3    H2 4471   1.660   5.542   5.829
 1510TIP3   OH2 4472   7.510   0.664   2.275
 1510TIP3    H1 4473   7.562   0.724   2.329
 1510TIP3    H2 4474   7.575   0.621   2.219
 1511TIP3   OH2 4475   1.522   0.428   0.815
 1511TIP3    H1 4476   1.457   0.498   0.821
 1511TIP3    H2 4477   1.506   0.388   0.730
 1512TIP3   OH2 4478   5.245   2.119   1.095
 1512TIP3    H1 4479   5.242   2.203   1.049
 1512TIP3    H2 4480   5.229   2.140   1.186
 1513TIP3   OH2 4481   2.022   1.652   5.542
 1513TIP3    H1 4482   2.033   1.590   5.613
 1513TIP3    H2 4483   2.015   1.598   5.463
 1514TIP3   OH2 4484   0.408   4.164   4.112
 1514TIP3    H1 4485   0.368   4.250   4.100
 1514TIP3    H2 4486   0.499   4.182   4.132
 1515TIP3   OH2 4487   8.252   3.611   0.293
 1515TIP3    H1 4488   8.227   3.692   0.247
 1515TIP3    H2 4489   8.348   3.610   0.288
 1516TIP3   OH2 4490   8.001   7.867   3.005
 1516TIP3    H1 4491   7.925   7.809   3.015
 1516TIP3    H2 4492   8.028   7.854   2.914
 1517TIP3   OH2 4493   3.825   4.636   4.678
 1517TIP3    H1 4494   3.848   4.697   4.608
 1517TIP3    H2 4495   3.835   4.687   4.758
 1518TIP3   OH2 4496   3.074   6.423   5.823
 1518TIP3    H1 4497   3.044   6.478   5.896
 1518TIP3    H2 4498   3.169   6.435   5.821
 1519TIP3   OH2 4499   0.729   2.131   0.285
 1519TIP3    H1 4500   0.659   2.065   0.289
 1519TIP3    H2 4501   0.729   2.171   0.372
 1520TIP3   OH2 4502   5.432   4.871   5.473
 1520TIP3    H1 4503   5.489   4.947   5.462
 1520TIP3    H2 4504   5.385   4.864   5.390
 1521TIP3   OH2 4505   5.001   0.207   3.198
 1521TIP3    H1 4506   4.963   0.291   3.173
 1521TIP3    H2 4507   5.089   0.208   3.161
 1522TIP3   OH2 4508   4.716   3.270   4.897
 1522TIP3    H1 4509   4.786   3.322   4.855
 1522TIP3    H2 4510   4.759   3.187   4.920
 1523TIP3   OH2 4511   7.424   3.550   5.138
 1523TIP3    H1 4512   7.464   3.527   5.054
 1523TIP3    H2 4513   7.388   3.637   5.124
 1524TIP3   OH2 4514   4.027   1.040   5.494
 1524TIP3    H1 4515   4.119   1.045   5.467
 1524TIP3    H2 4516   4.030   0.998   5.580
 1525TIP3   OH2 4517   0.923   2.988   0.793
 1525TIP3    H1 4518   0.963   3.068   0.827
 1525TIP3    H2 4519   0.984   2.958   0.725
 1526TIP3   OH2 4520   1.212   0.825   4.205
 1526TIP3    H1 4521   1.150   0.770   4.252
 1526TIP3    H2 4522   1.252   0.880   4.273
 1527TIP3   OH2 4523   5.615   0.621   2.573
 1527TIP3    H1 4524   5.520   0.611   2.569
 1527TIP3    H2 4525   5.630   0.690   2.638
 1528TIP3   OH2 4526   1.133   2.322   4.757
 1528TIP3    H1 4527   1.073   2.247   4.757
 1528TIP3    H2 4528   1.163   2.328   4.667
 1529TIP3   OH2 4529   3.489   3.646   5.732
 1529TIP3    H1 4530   3.455   3.702   5.801
 1529TIP3    H2 4531   3.559   3.596   5.774
 1530TIP3   OH2 4532   7.238   7.002   0.370
 1530TIP3    H1 4533   7.280   7.087   0.385
 1530TIP3    H2 4534   7.290   6.940   0.421
 1531TIP3   OH2 4535   3.967   5.480   0.787
 1531TIP3    H1 4536   3.921   5.481   0.871
 1531TIP3    H2 4537   4.055   5.449   0.808
 1532TIP3   OH2 4538   5.874   4.653   2.703
 1532TIP3    H1 4539   5.819   4.730   2.716
 1532TIP3    H2 4540   5.962   4.689   2.687
 1533TIP3   OH2 4541   4.452   1.287   5.995
 1533TIP3    H1 4542   4.521   1.228   6.026
 1533TIP3    H2 4543   4.415   1.243   5.919
 1534TIP3   OH2 4544   1.548   1.159   0.575
 1534TIP3    H1 4545   1.468   1.210   0.588
 1534TIP3    H2 4546   1.536   1.117   0.490
 1535TIP3   OH2 4547   4.351   1.549   2.366
 1535TIP3    H1 4548   4.302   1.621   2.406
 1535TIP3    H2 4549   4.290   1.511   2.302
 1536TIP3   OH2 4550   2.766   2.738   4.933
 1536TIP3    H1 4551   2.760   2.771   4.844
 1536TIP3    H2 4552   2.860   2.722   4.947
 1537TIP3   OH2 4553   3.681   1.198   1.078
 1537TIP3    H1 4554   3.711   1.201   0.987
 1537TIP3    H2 4555   3.622   1.273   1.086
 1538TIP3   OH2 4556   4.405   2.958   0.721
 1538TIP3    H1 4557   4.321   3.000   0.740
 1538TIP3    H2 4558   4.465   2.994   0.787
 1539TIP3   OH2 4559   0.505   2.001   0.248
 1539TIP3    H1 4560   0.450   1.939   0.296
 1539TIP3    H2 4561   0.460   2.015   0.165
 1540TIP3   OH2 4562   0.381   3.455   1.919
 1540TIP3    H1 4563   0.400   3.514   1.846
 1540TIP3    H2 4564   0.318   3.503   1.973
 1541TIP3   OH2 4565   4.325   6.911   1.335
 1541TIP3    H1 4566   4.401   6.853   1.330
 1541TIP3    H2 4567   4.318   6.948   1.246
 1542TIP3   OH2 4568   3.152   1.064   4.557
 1542TIP3    H1 4569   3.093   1.000   4.517
 1542TIP3    H2 4570   3.192   1.016   4.630
 1543TIP3   OH2 4571   7.096   2.182   2.363
 1543TIP3    H1 4572   7.139   2.212   2.444
 1543TIP3    H2 4573   7.164   2.137   2.314
 1544TIP3   OH2 4574   0.508   6.557   3.474
 1544TIP3    H1 4575   0.420   6.577   3.443
 1544TIP3    H2 4576   0.494   6.503   3.552
 1545TIP3   OH2 4577   0.035   3.990   5.840
 1545TIP3    H1 4578   0.081   4.011   5.921
 1545TIP3    H2 4579   0.078   3.910   5.808
 1546TIP3   OH2 4580   4.591   7.356   2.378
 1546TIP3    H1 4581   4.606   7.413   2.454
 1546TIP3    H2 4582   4.654   7.386   2.313
 1547TIP3   OH2 4583   7.153   3.673   2.758
 1547TIP3    H1 4584   7.087   3.711   2.699
 1547TIP3    H2 4585   7.213   3.627   2.699
 1548TIP3   OH2 4586   5.418   2.358   6.568
 1548TIP3    H1 4587   5.465   2.437   6.539
 1548TIP3    H2 4588   5.326   2.377   6.551
 1549TIP3   OH2 4589   4.061   7.355   4.702
 1549TIP3    H1 4590   4.066   7.304   4.621
 1549TIP3    H2 4591   4.106   7.302   4.767
 1550TIP3   OH2 4592   3.264   3.327   5.619
 1550TIP3    H1 4593   3.246   3.315   5.525
 1550TIP3    H2 4594   3.261   3.238   5.655
 1551TIP3   OH2 4595   4.061   7.671   6.205
 1551TIP3    H1 4596   4.149   7.709   6.202
 1551TIP3    H2 4597   4.043   7.646   6.114
 1552TIP3   OH2 4598   4.506   6.525   0.161
 1552TIP3    H1 4599   4.467   6.466   0.097
 1552TIP3    H2 4600   4.600   6.522   0.143
 1553TIP3   OH2 4601   6.271   5.080   0.842
 1553TIP3    H1 4602   6.330   5.132   0.786
 1553TIP3    H2 4603   6.330   5.029   0.898
 1554TIP3   OH2 4604   6.309   5.523   2.059
 1554TIP3    H1 4605   6.337   5.610   2.086
 1554TIP3    H2 4606   6.248   5.539   1.987
 1555TIP3   OH2 4607   0.451   6.186   5.175
 1555TIP3    H1 4608   0.471   6.128   5.102
 1555TIP3    H2 4609   0.429   6.128   5.248
 1556TIP3   OH2 4610   0.621   4.699   3.271
 1556TIP3    H1 4611   0.593   4.683   3.361
 1556TIP3    H2 4612   0.635   4.612   3.234
 1557TIP3   OH2 4613   2.606   4.509   0.222
 1557TIP3    H1 4614   2.701   4.514   0.210
 1557TIP3    H2 4615   2.573   4.593   0.190
 1558TIP3   OH2 4616   4.501   3.277   5.383
 1558TIP3    H1 4617   4.467   3.194   5.351
 1558TIP3    H2 4618   4.535   3.321   5.305
 1559TIP3   OH2 4619   3.326   5.935   1.446
 1559TIP3    H1 4620   3.311   5.937   1.352
 1559TIP3    H2 4621   3.239   5.947   1.484
 1560TIP3   OH2 4622   7.330   4.448   1.878
 1560TIP3    H1 4623   7.279   4.368   1.866
 1560TIP3    H2 4624   7.274   4.505   1.929
 1561TIP3   OH2 4625   7.314   6.000   0.201
 1561TIP3    H1 4626   7.366   5.923   0.175
 1561TIP3    H2 4627   7.380   6.066   0.223
 1562TIP3   OH2 4628   5.659   5.281   3.889
 1562TIP3    H1 4629   5.589   5.237   3.937
 1562TIP3    H2 4630   5.736   5.273   3.945
 1563TIP3   OH2 4631   4.892   2.124   0.339
 1563TIP3    H1 4632   4.854   2.172   0.413
 1563TIP3    H2 4633   4.851   2.038   0.343
 1564TIP3   OH2 4634   6.795   1.998   1.590
 1564TIP3    H1 4635   6.842   2.078   1.612
 1564TIP3    H2 4636   6.758   1.969   1.673
 1565TIP3   OH2 4637   7.898   1.453   1.131
 1565TIP3    H1 4638   7.991   1.433   1.128
 1565TIP3    H2 4639   7.879   1.495   1.047
 1566TIP3   OH2 4640   3.635   7.608   6.106
 1566TIP3    H1 4641   3.716   7.558   6.111
 1566TIP3    H2 4642   3.639   7.651   6.020
 1567TIP3   OH2 4643   4.205   6.235   4.238
 1567TIP3    H1 4644   4.294   6.267   4.223
 1567TIP3    H2 4645   4.153   6.274   4.167
 1568TIP3   OH2 4646   5.714   7.670   3.038
 1568TIP3    H1 4647   5.683   7.708   2.956
 1568TIP3    H2 4648   5.637   7.669   3.095
 1569TIP3   OH2 4649   1.558   5.811   4.570
 1569TIP3    H1 4650   1.511   5.733   4.599
 1569TIP3    H2 4651   1.642   5.807   4.617
 1570TIP3   OH2 4652   0.220   6.870   1.028
 1570TIP3    H1 4653   0.296   6.873   1.086
 1570TIP3    H2 4654   0.221   6.783   0.990
 1571TIP3   OH2 4655   4.625   2.323   6.434
 1571TIP3    H1 4656   4.651   2.232   6.418
 1571TIP3    H2 4657   4.551   2.338   6.376
 1572TIP3   OH2 4658   7.393   6.195   3.756
 1572TIP3    H1 4659   7.458   6.126   3.769
 1572TIP3    H2 4660   7.354   6.207   3.843
 1573TIP3   OH2 4661   3.031   4.801   2.239
 1573TIP3    H1 4662   2.984   4.855   2.303
 1573TIP3    H2 4663   2.997   4.829   2.154
 1574TIP3   OH2 4664   3.949  -0.023   4.214
 1574TIP3    H1 4665   3.924  -0.046   4.124
 1574TIP3    H2 4666   4.020   0.040   4.203
 1575TIP3   OH2 4667   3.525   2.938   3.858
 1575TIP3    H1 4668   3.431   2.946   3.877
 1575TIP3    H2 4669   3.561   3.024   3.879
 1576TIP3   OH2 4670   0.703   3.326   2.966
 1576TIP3    H1 4671   0.773   3.384   2.935
 1576TIP3    H2 4672   0.624   3.358   2.921
 1577TIP3   OH2 4673   0.421   7.108   0.789
 1577TIP3    H1 4674   0.405   7.151   0.873
 1577TIP3    H2 4675   0.334   7.095   0.752
 1578TIP3   OH2 4676   1.615   5.022   3.992
 1578TIP3    H1 4677   1.527   5.032   3.955
 1578TIP3    H2 4678   1.599   5.003   4.085
 1579TIP3   OH2 4679   2.618   7.510   5.919
 1579TIP3    H1 4680   2.608   7.471   6.006
 1579TIP3    H2 4681   2.554   7.581   5.917
 1580TIP3   OH2 4682   2.390   3.656   0.788
 1580TIP3    H1 4683   2.369   3.735   0.738
 1580TIP3    H2 4684   2.367   3.678   0.878
 1581TIP3   OH2 4685   5.736   7.529   4.189
 1581TIP3    H1 4686   5.668   7.569   4.243
 1581TIP3    H2 4687   5.695   7.519   4.103
 1582TIP3   OH2 4688   4.498   1.951   2.839
 1582TIP3    H1 4689   4.538   1.869   2.811
 1582TIP3    H2 4690   4.572   2.009   2.859
 1583TIP3   OH2 4691   2.916   6.838   3.622
 1583TIP3    H1 4692   2.866   6.863   3.700
 1583TIP3    H2 4693   2.982   6.777   3.654
 1584TIP3   OH2 4694   3.263   5.931   1.171
 1584TIP3    H1 4695   3.178   5.975   1.172
 1584TIP3    H2 4696   3.323   5.996   1.134
 1585TIP3   OH2 4697   1.330   5.348   2.871
 1585TIP3    H1 4698   1.235   5.343   2.871
 1585TIP3    H2 4699   1.349   5.441   2.860
 1586TIP3   OH2 4700   4.792   5.559   6.428
 1586TIP3    H1 4701   4.870   5.510   6.403
 1586TIP3    H2 4702   4.784   5.546   6.522
 1587TIP3   OH2 4703   2.744   5.021   1.405
 1587TIP3    H1 4704   2.833   5.006   1.372
 1587TIP3    H2 4705   2.691   5.036   1.327
 1588TIP3   OH2 4706   7.004   6.891   4.688
 1588TIP3    H1 4707   6.956   6.826   4.636
 1588TIP3    H2 4708   7.094   6.884   4.658
 1589TIP3   OH2 4709   4.000   3.601   2.492
 1589TIP3    H1 4710   3.952   3.592   2.574
 1589TIP3    H2 4711   3.981   3.520   2.445
 1590TIP3   OH2 4712   4.334   7.417   3.772
 1590TIP3    H1 4713   4.302   7.507   3.781
 1590TIP3    H2 4714   4.274   7.365   3.826
 1591TIP3   OH2 4715   5.887   7.705   0.241
 1591TIP3    H1 4716   5.795   7.697   0.215
 1591TIP3    H2 4717   5.884   7.757   0.321
 1592TIP3   OH2 4718   2.093   1.084   1.440
 1592TIP3    H1 4719   2.022   1.044   1.390
 1592TIP3    H2 4720   2.173   1.055   1.395
 1593TIP3   OH2 4721   2.592   2.219   4.186
 1593TIP3    H1 4722   2.572   2.128   4.161
 1593TIP3    H2 4723   2.524   2.271   4.143
 1594TIP3   OH2 4724   5.806   1.031   3.137
 1594TIP3    H1 4725   5.894   1.032   3.100
 1594TIP3    H2 4726   5.775   1.121   3.130
 1595TIP3   OH2 4727   1.641   1.084   2.238
 1595TIP3    H1 4728   1.735   1.081   2.224
 1595TIP3    H2 4729   1.623   1.015   2.302
 1596TIP3   OH2 4730   7.433   2.302   2.070
 1596TIP3    H1 4731   7.360   2.345   2.114
 1596TIP3    H2 4732   7.400   2.282   1.982
 1597TIP3   OH2 4733   3.226   3.638   6.533
 1597TIP3    H1 4734   3.237   3.701   6.604
 1597TIP3    H2 4735   3.194   3.559   6.576
 1598TIP3   OH2 4736   1.745   2.682   6.412
 1598TIP3    H1 4737   1.800   2.758   6.391
 1598TIP3    H2 4738   1.657   2.718   6.424
 1599TIP3   OH2 4739   5.035   5.897   1.771
 1599TIP3    H1 4740   5.026   5.988   1.798
 1599TIP3    H2 4741   4.957   5.880   1.717
 1600TIP3   OH2 4742   0.976   7.360   2.286
 1600TIP3    H1 4743   1.028   7.330   2.360
 1600TIP3    H2 4744   1.006   7.449   2.268
 1601TIP3   OH2 4745   3.596   0.706   2.051
 1601TIP3    H1 4746   3.534   0.639   2.080
 1601TIP3    H2 4747   3.569   0.786   2.097
 1602TIP3   OH2 4748   4.838   5.977   5.584
 1602TIP3    H1 4749   4.872   5.955   5.497
 1602TIP3    H2 4750   4.746   5.950   5.580
 1603TIP3   OH2 4751   2.120   7.280   0.277
 1603TIP3    H1 4752   2.125   7.270   0.372
 1603TIP3    H2 4753   2.077   7.365   0.264
 1604TIP3   OH2 4754   7.447   4.441   6.691
 1604TIP3    H1 4755   7.478   4.512   6.634
 1604TIP3    H2 4756   7.515   4.374   6.685
 1605TIP3   OH2 4757   3.284   5.094   2.702
 1605TIP3    H1 4758   3.316   5.021   2.755
 1605TIP3    H2 4759   3.259   5.055   2.619
 1606TIP3   OH2 4760   6.113   6.184   1.778
 1606TIP3    H1 4761   6.039   6.197   1.837
 1606TIP3    H2 4762   6.073   6.150   1.698
 1607TIP3   OH2 4763   4.934   2.555   0.630
 1607TIP3    H1 4764   4.945   2.504   0.550
 1607TIP3    H2 4765   5.023   2.581   0.655
 1608TIP3   OH2 4766   2.521   4.311   0.004
 1608TIP3    H1 4767   2.433   4.330   0.036
 1608TIP3    H2 4768   2.557   4.249   0.068
 1609TIP3   OH2 4769   5.720   7.105   5.995
 1609TIP3    H1 4770   5.740   7.018   5.961
 1609TIP3    H2 4771   5.797   7.129   6.045
 1610TIP3   OH2 4772   6.509   6.686   1.669
 1610TIP3    H1 4773   6.528   6.625   1.597
 1610TIP3    H2 4774   6.451   6.751   1.631
 1611TIP3   OH2 4775   7.302   5.203   5.690
 1611TIP3    H1 4776   7.369   5.270   5.700
 1611TIP3    H2 4777   7.335   5.129   5.742
 1612TIP3   OH2 4778   2.438   3.324   1.554
 1612TIP3    H1 4779   2.510   3.380   1.524
 1612TIP3    H2 4780   2.442   3.331   1.650
 1613TIP3   OH2 4781   2.845   4.449   5.530
 1613TIP3    H1 4782   2.886   4.380   5.583
 1613TIP3    H2 4783   2.757   4.416   5.512
 1614TIP3   OH2 4784   0.338   7.519   4.466
 1614TIP3    H1 4785   0.344   7.461   4.541
 1614TIP3    H2 4786   0.303   7.601   4.501
 1615TIP3   OH2 4787   6.695   1.873   2.103
 1615TIP3    H1 4788   6.772   1.912   2.144
 1615TIP3    H2 4789   6.728   1.797   2.056
 1616TIP3   OH2 4790   5.223   6.041   4.922
 1616TIP3    H1 4791   5.154   6.070   4.863
 1616TIP3    H2 4792   5.245   6.119   4.974
 1617TIP3   OH2 4793   4.045   7.288   6.697
 1617TIP3    H1 4794   4.076   7.201   6.671
 1617TIP3    H2 4795   3.952   7.275   6.716
 1618TIP3   OH2 4796   4.343   6.570   1.455
 1618TIP3    H1 4797   4.296   6.487   1.450
 1618TIP3    H2 4798   4.380   6.582   1.368
 1619TIP3   OH2 4799   7.847   7.646   2.578
 1619TIP3    H1 4800   7.883   7.677   2.495
 1619TIP3    H2 4801   7.820   7.556   2.560
 1620TIP3   OH2 4802   2.922   0.184   1.421
 1620TIP3    H1 4803   2.916   0.177   1.326
 1620TIP3    H2 4804   3.001   0.134   1.444
 1621TIP3   OH2 4805   4.763   1.296   3.089
 1621TIP3    H1 4806   4.852   1.283   3.056
 1621TIP3    H2 4807   4.764   1.257   3.176
 1622TIP3   OH2 4808   0.457   0.750   0.360
 1622TIP3    H1 4809   0.475   0.740   0.267
 1622TIP3    H2 4810   0.410   0.834   0.366
 1623TIP3   OH2 4811   0.275   2.709   5.013
 1623TIP3    H1 4812   0.189   2.667   5.014
 1623TIP3    H2 4813   0.283   2.750   5.099
 1624TIP3   OH2 4814   6.767   4.710   1.089
 1624TIP3    H1 4815   6.748   4.632   1.037
 1624TIP3    H2 4816   6.681   4.742   1.117
 1625TIP3   OH2 4817   3.019   3.743   2.933
 1625TIP3    H1 4818   3.035   3.733   2.840
 1625TIP3    H2 4819   2.926   3.726   2.944
 1626TIP3   OH2 4820   7.939   3.250   3.311
 1626TIP3    H1 4821   7.948   3.188   3.383
 1626TIP3    H2 4822   7.908   3.196   3.237
 1627TIP3   OH2 4823   7.442   1.672   2.522
 1627TIP3    H1 4824   7.373   1.736   2.541
 1627TIP3    H2 4825   7.412   1.628   2.442
 1628TIP3   OH2 4826   6.962   5.720   2.623
 1628TIP3    H1 4827   6.880   5.711   2.575
 1628TIP3    H2 4828   6.962   5.647   2.685
 1629TIP3   OH2 4829   7.260   2.073   4.510
 1629TIP3    H1 4830   7.249   1.994   4.457
 1629TIP3    H2 4831   7.216   2.142   4.460
 1630TIP3   OH2 4832   0.332   4.614   1.531
 1630TIP3    H1 4833   0.261   4.677   1.545
 1630TIP3    H2 4834   0.315   4.545   1.596
 1631TIP3   OH2 4835   7.171   1.852   3.093
 1631TIP3    H1 4836   7.207   1.921   3.149
 1631TIP3    H2 4837   7.220   1.773   3.119
 1632TIP3   OH2 4838   4.515   1.341   4.139
 1632TIP3    H1 4839   4.544   1.284   4.068
 1632TIP3    H2 4840   4.425   1.365   4.116
 1633TIP3   OH2 4841   0.619   3.301   1.988
 1633TIP3    H1 4842   0.535   3.348   1.985
 1633TIP3    H2 4843   0.681   3.359   1.945
 1634TIP3   OH2 4844   6.582   2.187   5.482
 1634TIP3    H1 4845   6.569   2.229   5.397
 1634TIP3    H2 4846   6.494   2.166   5.512
 1635TIP3   OH2 4847   0.630   3.885   6.612
 1635TIP3    H1 4848   0.722   3.910   6.621
 1635TIP3    H2 4849   0.613   3.829   6.688
 1636TIP3   OH2 4850   5.026   6.794   1.593
 1636TIP3    H1 4851   5.020   6.883   1.625
 1636TIP3    H2 4852   4.970   6.792   1.515
 1637TIP3   OH2 4853   1.241   4.569   3.141
 1637TIP3    H1 4854   1.310   4.602   3.085
 1637TIP3    H2 4855   1.162   4.616   3.113
 1638TIP3   OH2 4856   6.897   2.687   2.996
 1638TIP3    H1 4857   6.928   2.767   3.039
 1638TIP3    H2 4858   6.881   2.713   2.905
 1639TIP3   OH2 4859   8.304   1.977   3.461
 1639TIP3    H1 4860   8.281   1.899   3.512
 1639TIP3    H2 4861   8.221   2.010   3.428
 1640TIP3   OH2 4862   1.857   4.322   2.797
 1640TIP3    H1 4863   1.819   4.350   2.713
 1640TIP3    H2 4864   1.904   4.399   2.828
 1641TIP3   OH2 4865   4.452   3.430   6.296
 1641TIP3    H1 4866   4.365   3.446   6.333
 1641TIP3    H2 4867   4.492   3.367   6.355
 1642TIP3   OH2 4868   4.587   7.351   0.672
 1642TIP3    H1 4869   4.505   7.363   0.624
 1642TIP3    H2 4870   4.622   7.268   0.641
 1643TIP3   OH2 4871   2.288   7.048   1.352
 1643TIP3    H1 4872   2.322   6.969   1.394
 1643TIP3    H2 4873   2.219   7.017   1.293
 1644TIP3   OH2 4874   5.722   0.298   5.473
 1644TIP3    H1 4875   5.626   0.290   5.470
 1644TIP3    H2 4876   5.754   0.222   5.426
 1645TIP3   OH2 4877   6.528   6.264   1.204
 1645TIP3    H1 4878   6.571   6.265   1.118
 1645TIP3    H2 4879   6.444   6.222   1.188
 1646TIP3   OH2 4880   0.375   4.172   4.388
 1646TIP3    H1 4881   0.387   4.171   4.293
 1646TIP3    H2 4882   0.286   4.140   4.402
 1647TIP3   OH2 4883   6.708   2.765   3.334
 1647TIP3    H1 4884   6.798   2.797   3.343
 1647TIP3    H2 4885   6.718   2.671   3.317
 1648TIP3   OH2 4886   2.918   2.948   1.127
 1648TIP3    H1 4887   2.903   2.894   1.049
 1648TIP3    H2 4888   2.930   2.885   1.198
 1649TIP3   OH2 4889   5.937   1.579   4.695
 1649TIP3    H1 4890   5.895   1.512   4.750
 1649TIP3    H2 4891   6.029   1.552   4.690
 1650TIP3   OH2 4892   1.120   7.544   2.884
 1650TIP3    H1 4893   1.164   7.523   2.802
 1650TIP3    H2 4894   1.129   7.639   2.892
 1651TIP3   OH2 4895   2.293   0.857   3.770
 1651TIP3    H1 4896   2.381   0.823   3.786
 1651TIP3    H2 4897   2.269   0.822   3.684
 1652TIP3   OH2 4898   6.021   3.753   1.059
 1652TIP3    H1 4899   5.996   3.762   1.151
 1652TIP3    H2 4900   5.940   3.728   1.015
 1653TIP3   OH2 4901   7.179   0.183   1.055
 1653TIP3    H1 4902   7.168   0.098   1.012
 1653TIP3    H2 4903   7.090   0.215   1.069
 1654TIP3   OH2 4904   2.475   6.285   0.668
 1654TIP3    H1 4905   2.565   6.286   0.701
 1654TIP3    H2 4906   2.460   6.375   0.638
 1655TIP3   OH2 4907   4.473   3.187   2.805
 1655TIP3    H1 4908   4.408   3.223   2.745
 1655TIP3    H2 4909   4.489   3.098   2.774
 1656TIP3   OH2 4910   3.232   2.990   4.361
 1656TIP3    H1 4911   3.221   2.905   4.318
 1656TIP3    H2 4912   3.287   3.040   4.300
 1657TIP3   OH2 4913   0.088   5.382   2.163
 1657TIP3    H1 4914   0.122   5.460   2.207
 1657TIP3    H2 4915   0.076   5.318   2.233
 1658TIP3   OH2 4916   5.823   6.807   0.531
 1658TIP3    H1 4917   5.762   6.864   0.578
 1658TIP3    H2 4918   5.909   6.831   0.563
 1659TIP3   OH2 4919   8.097   6.740   0.111
 1659TIP3    H1 4920   8.151   6.673   0.070
 1659TIP3    H2 4921   8.011   6.731   0.070
 1660TIP3   OH2 4922   1.225   7.529   6.138
 1660TIP3    H1 4923   1.186   7.466   6.199
 1660TIP3    H2 4924   1.308   7.488   6.113
 1661TIP3   OH2 4925   6.888   2.273   2.873
 1661TIP3    H1 4926   6.932   2.348   2.913
 1661TIP3    H2 4927   6.928   2.197   2.914
 1662TIP3   OH2 4928   2.372   5.661   0.308
 1662TIP3    H1 4929   2.359   5.712   0.388
 1662TIP3    H2 4930   2.422   5.584   0.337
 1663TIP3   OH2 4931   3.550   1.891   0.565
 1663TIP3    H1 4932   3.477   1.832   0.546
 1663TIP3    H2 4933   3.549   1.955   0.494
 1664TIP3   OH2 4934   5.749   3.293   6.519
 1664TIP3    H1 4935   5.823   3.339   6.479
 1664TIP3    H2 4936   5.671   3.337   6.483
 1665TIP3   OH2 4937   0.201   0.392   1.230
 1665TIP3    H1 4938   0.242   0.472   1.261
 1665TIP3    H2 4939   0.108   0.404   1.247
 1666TIP3   OH2 4940   3.978   4.411   4.204
 1666TIP3    H1 4941   4.044   4.463   4.250
 1666TIP3    H2 4942   4.001   4.320   4.224
 1667TIP3   OH2 4943   1.664   2.762   1.043
 1667TIP3    H1 4944   1.604   2.794   0.976
 1667TIP3    H2 4945   1.692   2.840   1.091
 1668TIP3   OH2 4946   1.214   7.017   1.152
 1668TIP3    H1 4947   1.245   6.952   1.090
 1668TIP3    H2 4948   1.222   7.101   1.106
 1669TIP3   OH2 4949   1.210   2.585   0.695
 1669TIP3    H1 4950   1.144   2.525   0.660
 1669TIP3    H2 4951   1.204   2.575   0.790
 1670TIP3   OH2 4952   2.185   0.055   2.954
 1670TIP3    H1 4953   2.115   0.104   2.997
 1670TIP3    H2 4954   2.156  -0.036   2.959
 1671TIP3   OH2 4955   1.719   1.458   0.496
 1671TIP3    H1 4956   1.799   1.405   0.500
 1671TIP3    H2 4957   1.682   1.438   0.410
 1672TIP3   OH2 4958   1.106   1.846   1.806
 1672TIP3    H1 4959   1.067   1.932   1.825
 1672TIP3    H2 4960   1.034   1.784   1.814
 1673TIP3   OH2 4961   6.472   5.882   0.154
 1673TIP3    H1 4962   6.544   5.837   0.111
 1673TIP3    H2 4963   6.394   5.849   0.109
 1674TIP3   OH2 4964   4.738   1.918   0.414
 1674TIP3    H1 4965   4.650   1.919   0.450
 1674TIP3    H2 4966   4.792   1.881   0.484
 1675TIP3   OH2 4967   3.153   7.709   2.383
 1675TIP3    H1 4968   3.181   7.656   2.308
 1675TIP3    H2 4969   3.216   7.688   2.452
 1676TIP3   OH2 4970   3.688   3.045   1.173
 1676TIP3    H1 4971   3.709   3.095   1.252
 1676TIP3    H2 4972   3.770   2.999   1.151
 1677TIP3   OH2 4973   4.744   1.751   4.966
 1677TIP3    H1 4974   4.796   1.828   4.945
 1677TIP3    H2 4975   4.657   1.785   4.989
 1678TIP3   OH2 4976   8.189   7.443   3.191
 1678TIP3    H1 4977   8.114   7.391   3.161
 1678TIP3    H2 4978   8.174   7.457   3.284
 1679TIP3   OH2 4979   7.542   2.961   0.245
 1679TIP3    H1 4980   7.490   2.881   0.255
 1679TIP3    H2 4981   7.633   2.932   0.252
 1680TIP3   OH2 4982   7.096   1.017   3.297
 1680TIP3    H1 4983   7.187   1.040   3.313
 1680TIP3    H2 4984   7.094   0.987   3.207
 1681TIP3   OH2 4985   1.274   4.100   4.280
 1681TIP3    H1 4986   1.357   4.127   4.241
 1681TIP3    H2 4987   1.236   4.180   4.314
 1682TIP3   OH2 4988   7.483   4.807   0.388
 1682TIP3    H1 4989   7.522   4.720   0.391
 1682TIP3    H2 4990   7.523   4.849   0.312
 1683TIP3   OH2 4991   1.342   4.029   6.505
 1683TIP3    H1 4992   1.338   4.108   6.559
 1683TIP3    H2 4993   1.385   4.057   6.424
 1684TIP3   OH2 4994   6.822   5.161  -0.032
 1684TIP3    H1 4995   6.829   5.101   0.043
 1684TIP3    H2 4996   6.910   5.197  -0.042
 1685TIP3   OH2 4997   1.046   5.356   0.704
 1685TIP3    H1 4998   1.035   5.291   0.773
 1685TIP3    H2 4999   1.082   5.308   0.630
 1686TIP3   OH2 5000   5.234   5.597   1.810
 1686TIP3    H1 5001   5.224   5.663   1.742
 1686TIP3    H2 5002   5.293   5.532   1.772
 1687TIP3   OH2 5003   1.566   2.861   6.606
 1687TIP3    H1 5004   1.618   2.858   6.686
 1687TIP3    H2 5005   1.480   2.828   6.632
 1688TIP3   OH2 5006   7.385   4.614   0.104
 1688TIP3    H1 5007   7.392   4.586   0.195
 1688TIP3    H2 5008   7.405   4.707   0.106
 1689TIP3   OH2 5009   2.093   6.042   1.917
 1689TIP3    H1 5010   2.121   6.100   1.988
 1689TIP3    H2 5011   2.111   6.092   1.837
 1690TIP3   OH2 5012   7.361   1.044   5.915
 1690TIP3    H1 5013   7.442   1.095   5.910
 1690TIP3    H2 5014   7.311   1.071   5.838
 1691TIP3   OH2 5015   7.827   1.997   5.946
 1691TIP3    H1 5016   7.863   1.999   5.858
 1691TIP3    H2 5017   7.795   1.907   5.956
 1692TIP3   OH2 5018   0.467   4.880   6.654
 1692TIP3    H1 5019   0.467   4.787   6.634
 1692TIP3    H2 5020   0.440   4.886   6.745
 1693TIP3   OH2 5021   3.605   0.852   4.717
 1693TIP3    H1 5022   3.619   0.902   4.798
 1693TIP3    H2 5023   3.635   0.764   4.738
 1694TIP3   OH2 5024   0.596   7.764   6.585
 1694TIP3    H1 5025   0.556   7.851   6.577
 1694TIP3    H2 5026   0.642   7.752   6.502
 1695TIP3   OH2 5027   1.840   3.126   4.938
 1695TIP3    H1 5028   1.827   3.061   5.007
 1695TIP3    H2 5029   1.765   3.185   4.946
 1696TIP3   OH2 5030   0.784   2.372   0.818
 1696TIP3    H1 5031   0.799   2.290   0.865
 1696TIP3    H2 5032   0.708   2.411   0.860
 1697TIP3   OH2 5033   5.622   0.117   1.342
 1697TIP3    H1 5034   5.687   0.184   1.320
 1697TIP3    H2 5035   5.539   0.154   1.312
 1698TIP3   OH2 5036   0.201   4.671   1.081
 1698TIP3    H1 5037   0.184   4.631   1.167
 1698TIP3    H2 5038   0.198   4.765   1.097
 1699TIP3   OH2 5039   7.231   1.391   2.240
 1699TIP3    H1 5040   7.321   1.417   2.221
 1699TIP3    H2 5041   7.179   1.470   2.222
 1700TIP3   OH2 5042   1.993   1.827   5.870
 1700TIP3    H1 5043   1.990   1.733   5.849
 1700TIP3    H2 5044   2.082   1.841   5.901
 1701TIP3   OH2 5045   6.188   7.143   2.997
 1701TIP3    H1 5046   6.130   7.174   2.928
 1701TIP3    H2 5047   6.150   7.178   3.078
 1702TIP3   OH2 5048   1.485   3.605   3.266
 1702TIP3    H1 5049   1.458   3.558   3.345
 1702TIP3    H2 5050   1.403   3.637   3.228
 1703TIP3   OH2 5051   6.610   2.631   6.321
 1703TIP3    H1 5052   6.553   2.565   6.360
 1703TIP3    H2 5053   6.669   2.581   6.264
 1704TIP3   OH2 5054   7.811   0.876   3.605
 1704TIP3    H1 5055   7.750   0.815   3.648
 1704TIP3    H2 5056   7.781   0.962   3.632
 1705TIP3   OH2 5057   2.780   5.438   2.028
 1705TIP3    H1 5058   2.802   5.405   1.941
 1705TIP3    H2 5059   2.858   5.487   2.055
 1706TIP3   OH2 5060   5.451   1.853   1.213
 1706TIP3    H1 5061   5.495   1.916   1.156
 1706TIP3    H2 5062   5.519   1.826   1.275
 1707TIP3   OH2 5063   0.330   6.784   1.799
 1707TIP3    H1 5064   0.342   6.711   1.860
 1707TIP3    H2 5065   0.411   6.833   1.804
 1708TIP3   OH2 5066   0.460   0.343   5.086
 1708TIP3    H1 5067   0.416   0.269   5.128
 1708TIP3    H2 5068   0.534   0.304   5.039
 1709TIP3   OH2 5069   0.948   1.751   3.461
 1709TIP3    H1 5070   0.891   1.680   3.432
 1709TIP3    H2 5071   0.986   1.786   3.381
 1710TIP3   OH2 5072   7.485   5.263   0.493
 1710TIP3    H1 5073   7.548   5.319   0.538
 1710TIP3    H2 5074   7.432   5.323   0.441
 1711TIP3   OH2 5075   1.372   3.964   0.719
 1711TIP3    H1 5076   1.362   4.029   0.649
 1711TIP3    H2 5077   1.342   4.009   0.798
 1712TIP3   OH2 5078   3.099   2.070   1.097
 1712TIP3    H1 5079   3.186   2.087   1.132
 1712TIP3    H2 5080   3.114   2.043   1.007
 1713TIP3   OH2 5081   5.732   2.797   1.823
 1713TIP3    H1 5082   5.779   2.881   1.817
 1713TIP3    H2 5083   5.645   2.821   1.856
 1714TIP3   OH2 5084   4.371   6.842   5.245
 1714TIP3    H1 5085   4.311   6.836   5.319
 1714TIP3    H2 5086   4.323   6.802   5.172
 1715TIP3   OH2 5087   7.488   4.340   1.676
 1715TIP3    H1 5088   7.449   4.384   1.751
 1715TIP3    H2 5089   7.542   4.407   1.635
 1716TIP3   OH2 5090   0.418   4.410   6.275
 1716TIP3    H1 5091   0.504   4.411   6.316
 1716TIP3    H2 5092   0.393   4.503   6.270
 1717TIP3   OH2 5093   1.630   7.684   1.758
 1717TIP3    H1 5094   1.593   7.697   1.846
 1717TIP3    H2 5095   1.671   7.767   1.736
 1718TIP3   OH2 5096   6.671   2.227   2.575
 1718TIP3    H1 5097   6.748   2.283   2.574
 1718TIP3    H2 5098   6.667   2.189   2.487
 1719TIP3   OH2 5099   2.026   2.183   1.441
 1719TIP3    H1 5100   2.032   2.112   1.377
 1719TIP3    H2 5101   1.971   2.249   1.400
 1720TIP3   OH2 5102   2.346   3.646   4.891
 1720TIP3    H1 5103   2.288   3.685   4.957
 1720TIP3    H2 5104   2.375   3.719   4.838
 1721TIP3   OH2 5105   3.305   0.436   3.978
 1721TIP3    H1 5106   3.255   0.455   3.898
 1721TIP3    H2 5107   3.345   0.350   3.962
 1722TIP3   OH2 5108   7.999   3.507   3.625
 1722TIP3    H1 5109   8.040   3.573   3.679
 1722TIP3    H2 5110   8.063   3.436   3.620
 1723TIP3   OH2 5111   8.216   0.134   0.067
 1723TIP3    H1 5112   8.254   0.152  -0.019
 1723TIP3    H2 5113   8.159   0.059   0.052
 1724TIP3   OH2 5114   7.029   4.839   4.947
 1724TIP3    H1 5115   7.083   4.791   4.884
 1724TIP3    H2 5116   6.941   4.837   4.910
 1725TIP3   OH2 5117   5.833   2.799   3.824
 1725TIP3    H1 5118   5.738   2.791   3.812
 1725TIP3    H2 5119   5.867   2.821   3.737
 1726TIP3   OH2 5120   4.571   1.477   4.357
 1726TIP3    H1 5121   4.574   1.419   4.281
 1726TIP3    H2 5122   4.542   1.561   4.322
 1727TIP3   OH2 5123   5.608   1.482   1.138
 1727TIP3    H1 5124   5.533   1.478   1.078
 1727TIP3    H2 5125   5.616   1.575   1.160
 1728TIP3   OH2 5126   0.067   1.029   2.826
 1728TIP3    H1 5127   0.106   0.986   2.749
 1728TIP3    H2 5128  -0.025   1.003   2.823
 1729TIP3   OH2 5129   1.410   3.904   2.864
 1729TIP3    H1 5130   1.493   3.938   2.899
 1729TIP3    H2 5131   1.344   3.964   2.897
 1730TIP3   OH2 5132   2.083   0.044   2.142
 1730TIP3    H1 5133   2.108   0.062   2.232
 1730TIP3    H2 5134   2.130  -0.036   2.119
 1731TIP3   OH2 5135   1.226   6.092   4.265
 1731TIP3    H1 5136   1.220   6.052   4.178
 1731TIP3    H2 5137   1.302   6.048   4.306
 1732TIP3   OH2 5138   5.171   4.310   2.478
 1732TIP3    H1 5139   5.148   4.331   2.569
 1732TIP3    H2 5140   5.091   4.274   2.441
 1733TIP3   OH2 5141   2.290   0.572   5.277
 1733TIP3    H1 5142   2.282   0.664   5.303
 1733TIP3    H2 5143   2.201   0.545   5.256
 1734TIP3   OH2 5144   1.058   1.109   3.323
 1734TIP3    H1 5145   1.010   1.128   3.243
 1734TIP3    H2 5146   1.006   1.149   3.393
 1735TIP3   OH2 5147   8.010   2.223   0.423
 1735TIP3    H1 5148   7.932   2.246   0.472
 1735TIP3    H2 5149   8.027   2.299   0.367
 1736TIP3   OH2 5150   6.773   5.679   0.199
 1736TIP3    H1 5151   6.780   5.764   0.243
 1736TIP3    H2 5152   6.710   5.694   0.129
 1737TIP3   OH2 5153   3.596   6.201   1.999
 1737TIP3    H1 5154   3.626   6.264   2.065
 1737TIP3    H2 5155   3.555   6.255   1.932
 1738TIP3   OH2 5156   3.943   7.358   3.745
 1738TIP3    H1 5157   4.019   7.366   3.688
 1738TIP3    H2 5158   3.873   7.325   3.689
 1739TIP3   OH2 5159   4.740   3.777   3.443
 1739TIP3    H1 5160   4.707   3.847   3.498
 1739TIP3    H2 5161   4.780   3.822   3.368
 1740TIP3   OH2 5162   1.550   2.586   1.660
 1740TIP3    H1 5163   1.636   2.554   1.633
 1740TIP3    H2 5164   1.567   2.676   1.688
 1741TIP3   OH2 5165   2.689   7.473   2.916
 1741TIP3    H1 5166   2.746   7.417   2.863
 1741TIP3    H2 5167   2.741   7.492   2.994
 1742TIP3   OH2 5168   7.486   5.559   6.029
 1742TIP3    H1 5169   7.525   5.471   6.026
 1742TIP3    H2 5170   7.425   5.556   6.102
 1743TIP3   OH2 5171   2.021   4.878   4.827
 1743TIP3    H1 5172   1.934   4.877   4.866
 1743TIP3    H2 5173   2.068   4.806   4.870
 1744TIP3   OH2 5174   0.473   7.486   0.337
 1744TIP3    H1 5175   0.542   7.446   0.284
 1744TIP3    H2 5176   0.421   7.536   0.274
 1745TIP3   OH2 5177   4.166   6.546   3.777
 1745TIP3    H1 5178   4.087   6.557   3.723
 1745TIP3    H2 5179   4.211   6.471   3.739
 1746TIP3   OH2 5180   5.967   7.394   4.956
 1746TIP3    H1 5181   6.015   7.326   4.909
 1746TIP3    H2 5182   5.896   7.347   5.000
 1747TIP3   OH2 5183   3.501   0.641   1.089
 1747TIP3    H1 5184   3.431   0.635   1.154
 1747TIP3    H2 5185   3.494   0.561   1.038
 1748TIP3   OH2 5186   6.139   0.646   4.337
 1748TIP3    H1 5187   6.153   0.682   4.250
 1748TIP3    H2 5188   6.190   0.702   4.395
 1749TIP3   OH2 5189   7.909   1.271   2.546
 1749TIP3    H1 5190   7.816   1.251   2.541
 1749TIP3    H2 5191   7.935   1.290   2.456
 1750TIP3   OH2 5192   2.819   5.719   5.537
 1750TIP3    H1 5193   2.838   5.813   5.531
 1750TIP3    H2 5194   2.794   5.705   5.628
 1751TIP3   OH2 5195   8.252   1.128   2.393
 1751TIP3    H1 5196   8.210   1.068   2.332
 1751TIP3    H2 5197   8.315   1.177   2.340
 1752TIP3   OH2 5198   4.414   1.006   3.386
 1752TIP3    H1 5199   4.484   1.071   3.396
 1752TIP3    H2 5200   4.439   0.955   3.309
 1753TIP3   OH2 5201   1.239   4.499   4.560
 1753TIP3    H1 5202   1.264   4.517   4.469
 1753TIP3    H2 5203   1.319   4.514   4.610
 1754TIP3   OH2 5204   0.322   7.208   3.594
 1754TIP3    H1 5205   0.413   7.205   3.564
 1754TIP3    H2 5206   0.298   7.117   3.605
 1755TIP3   OH2 5207   4.771   1.226   2.404
 1755TIP3    H1 5208   4.747   1.231   2.497
 1755TIP3    H2 5209   4.742   1.309   2.367
 1756TIP3   OH2 5210   0.540   3.604   0.658
 1756TIP3    H1 5211   0.601   3.667   0.697
 1756TIP3    H2 5212   0.463   3.656   0.635
 1757TIP3   OH2 5213   3.585   0.936   6.241
 1757TIP3    H1 5214   3.670   0.894   6.233
 1757TIP3    H2 5215   3.605   1.028   6.260
 1758TIP3   OH2 5216   5.208   2.499   4.144
 1758TIP3    H1 5217   5.154   2.562   4.096
 1758TIP3    H2 5218   5.294   2.505   4.103
 1759TIP3   OH2 5219   0.891   4.007   5.926
 1759TIP3    H1 5220   0.798   4.023   5.944
 1759TIP3    H2 5221   0.917   3.943   5.993
 1760TIP3   OH2 5222   0.199   7.171   1.103
 1760TIP3    H1 5223   0.171   7.182   1.194
 1760TIP3    H2 5224   0.204   7.076   1.091
 1761TIP3   OH2 5225   6.378   2.859   5.484
 1761TIP3    H1 5226   6.384   2.936   5.428
 1761TIP3    H2 5227   6.433   2.879   5.559
 1762TIP3   OH2 5228   1.451   3.434   3.751
 1762TIP3    H1 5229   1.413   3.448   3.838
 1762TIP3    H2 5230   1.415   3.351   3.721
 1763TIP3   OH2 5231   5.483   0.901   4.412
 1763TIP3    H1 5232   5.508   0.811   4.390
 1763TIP3    H2 5233   5.404   0.917   4.360
 1764TIP3   OH2 5234   7.981   0.451   2.003
 1764TIP3    H1 5235   7.983   0.484   1.913
 1764TIP3    H2 5236   8.070   0.466   2.036
 1765TIP3   OH2 5237   0.769   0.763   6.052
 1765TIP3    H1 5238   0.800   0.817   5.979
 1765TIP3    H2 5239   0.837   0.771   6.119
 1766TIP3   OH2 5240   5.483   5.142   4.044
 1766TIP3    H1 5241   5.393   5.175   4.045
 1766TIP3    H2 5242   5.481   5.067   4.104
 1767TIP3   OH2 5243   3.232   5.827   4.559
 1767TIP3    H1 5244   3.150   5.874   4.572
 1767TIP3    H2 5245   3.207   5.736   4.546
 1768TIP3   OH2 5246   4.655   1.697   6.619
 1768TIP3    H1 5247   4.729   1.705   6.678
 1768TIP3    H2 5248   4.692   1.664   6.537
 1769TIP3   OH2 5249   7.281   6.963   6.560
 1769TIP3    H1 5250   7.344   6.931   6.625
 1769TIP3    H2 5251   7.303   6.916   6.480
 1770TIP3   OH2 5252   4.756   4.338   0.357
 1770TIP3    H1 5253   4.749   4.306   0.268
 1770TIP3    H2 5254   4.686   4.403   0.365
 1771TIP3   OH2 5255   1.926   5.220   3.859
 1771TIP3    H1 5256   2.004   5.260   3.819
 1771TIP3    H2 5257   1.937   5.127   3.844
 1772TIP3   OH2 5258   4.042   5.412   2.811
 1772TIP3    H1 5259   4.047   5.499   2.849
 1772TIP3    H2 5260   3.970   5.417   2.748
 1773TIP3   OH2 5261   3.633   0.552   1.416
 1773TIP3    H1 5262   3.628   0.648   1.411
 1773TIP3    H2 5263   3.669   0.535   1.503
 1774TIP3   OH2 5264   7.245   0.177   5.847
 1774TIP3    H1 5265   7.226   0.174   5.753
 1774TIP3    H2 5266   7.160   0.193   5.889
 1775TIP3   OH2 5267   7.661   2.172   3.795
 1775TIP3    H1 5268   7.736   2.206   3.844
 1775TIP3    H2 5269   7.634   2.094   3.844
 1776TIP3   OH2 5270   0.533   4.206   0.199
 1776TIP3    H1 5271   0.528   4.291   0.243
 1776TIP3    H2 5272   0.461   4.155   0.237
 1777TIP3   OH2 5273   2.364   1.144   6.193
 1777TIP3    H1 5274   2.343   1.158   6.101
 1777TIP3    H2 5275   2.279   1.143   6.238
 1778TIP3   OH2 5276   5.077   0.667   6.581
 1778TIP3    H1 5277   5.150   0.645   6.523
 1778TIP3    H2 5278   5.000   0.659   6.525
 1779TIP3   OH2 5279   4.438   0.134   2.428
 1779TIP3    H1 5280   4.358   0.156   2.381
 1779TIP3    H2 5281   4.461   0.214   2.476
 1780TIP3   OH2 5282   2.878   5.253   2.472
 1780TIP3    H1 5283   2.863   5.343   2.446
 1780TIP3    H2 5284   2.955   5.257   2.529
 1781TIP3   OH2 5285   3.716   2.625   5.278
 1781TIP3    H1 5286   3.732   2.660   5.190
 1781TIP3    H2 5287   3.727   2.530   5.268
 1782TIP3   OH2 5288   6.631   5.353   6.634
 1782TIP3    H1 5289   6.695   5.410   6.591
 1782TIP3    H2 5290   6.677   5.317   6.710
 1783TIP3   OH2 5291   7.371   7.784   2.815
 1783TIP3    H1 5292   7.381   7.878   2.829
 1783TIP3    H2 5293   7.416   7.767   2.733
 1784TIP3   OH2 5294   1.403   3.466   3.491
 1784TIP3    H1 5295   1.318   3.422   3.493
 1784TIP3    H2 5296   1.428   3.472   3.583
 1785TIP3   OH2 5297   5.214   2.809   4.566
 1785TIP3    H1 5298   5.155   2.736   4.549
 1785TIP3    H2 5299   5.260   2.823   4.483
 1786TIP3   OH2 5300   2.930   2.931   1.853
 1786TIP3    H1 5301   2.973   3.014   1.831
 1786TIP3    H2 5302   2.886   2.905   1.772
 1787TIP3   OH2 5303   1.935   6.495   2.228
 1787TIP3    H1 5304   1.847   6.530   2.227
 1787TIP3    H2 5305   1.936   6.431   2.157
 1788TIP3   OH2 5306   1.764   1.825   2.722
 1788TIP3    H1 5307   1.833   1.876   2.681
 1788TIP3    H2 5308   1.804   1.740   2.740
 1789TIP3   OH2 5309   6.962   7.652   0.758
 1789TIP3    H1 5310   7.032   7.696   0.807
 1789TIP3    H2 5311   6.983   7.559   0.765
 1790TIP3   OH2 5312   2.037   6.443   3.580
 1790TIP3    H1 5313   2.010   6.529   3.612
 1790TIP3    H2 5314   2.076   6.400   3.656
 1791TIP3   OH2 5315   7.163   1.789   5.341
 1791TIP3    H1 5316   7.187   1.793   5.249
 1791TIP3    H2 5317   7.207   1.865   5.381
 1792TIP3   OH2 5318   6.887   1.758   2.843
 1792TIP3    H1 5319   6.844   1.674   2.852
 1792TIP3    H2 5320   6.962   1.740   2.786
 1793TIP3   OH2 5321   7.507   2.802   3.752
 1793TIP3    H1 5322   7.424   2.812   3.706
 1793TIP3    H2 5323   7.489   2.834   3.841
 1794TIP3   OH2 5324   1.412   2.113   5.970
 1794TIP3    H1 5325   1.468   2.142   6.042
 1794TIP3    H2 5326   1.434   2.173   5.898
 1795TIP3   OH2 5327   5.939   3.944   1.723
 1795TIP3    H1 5328   6.024   3.900   1.730
 1795TIP3    H2 5329   5.881   3.894   1.781
 1796TIP3   OH2 5330   3.547   1.913   3.368
 1796TIP3    H1 5331   3.545   1.928   3.273
 1796TIP3    H2 5332   3.609   1.841   3.379
 1797TIP3   OH2 5333   0.930   0.268   2.720
 1797TIP3    H1 5334   0.981   0.338   2.761
 1797TIP3    H2 5335   0.845   0.271   2.763
 1798TIP3   OH2 5336   3.202   5.543   1.115
 1798TIP3    H1 5337   3.199   5.455   1.151
 1798TIP3    H2 5338   3.186   5.601   1.190
 1799TIP3   OH2 5339   7.744   7.689   5.600
 1799TIP3    H1 5340   7.729   7.610   5.549
 1799TIP3    H2 5341   7.665   7.741   5.587
 1800TIP3   OH2 5342   7.822   3.773   6.011
 1800TIP3    H1 5343   7.763   3.706   6.047
 1800TIP3    H2 5344   7.776   3.856   6.028
 1801TIP3   OH2 5345   7.300   6.956   3.399
 1801TIP3    H1 5346   7.242   6.881   3.389
 1801TIP3    H2 5347   7.242   7.028   3.422
 1802TIP3   OH2 5348   4.542   7.417   6.590
 1802TIP3    H1 5349   4.628   7.423   6.630
 1802TIP3    H2 5350   4.508   7.507   6.592
 1803TIP3   OH2 5351   7.725   4.941   0.678
 1803TIP3    H1 5352   7.758   4.952   0.589
 1803TIP3    H2 5353   7.803   4.940   0.733
 1804TIP3   OH2 5354   5.588   4.060   5.598
 1804TIP3    H1 5355   5.536   3.998   5.546
 1804TIP3    H2 5356   5.578   4.143   5.553
 1805TIP3   OH2 5357   3.614   4.495   5.428
 1805TIP3    H1 5358   3.681   4.428   5.443
 1805TIP3    H2 5359   3.574   4.510   5.513
 1806TIP3   OH2 5360   7.151   2.866   1.872
 1806TIP3    H1 5361   7.061   2.837   1.887
 1806TIP3    H2 5362   7.150   2.960   1.887
 1807TIP3   OH2 5363   6.269   6.187   1.238
 1807TIP3    H1 5364   6.277   6.092   1.241
 1807TIP3    H2 5365   6.185   6.203   1.196
 1808TIP3   OH2 5366   0.182   0.267   3.244
 1808TIP3    H1 5367   0.119   0.296   3.179
 1808TIP3    H2 5368   0.267   0.294   3.210
 1809TIP3   OH2 5369   3.440   6.551   1.272
 1809TIP3    H1 5370   3.505   6.621   1.269
 1809TIP3    H2 5371   3.487   6.472   1.246
 1810TIP3   OH2 5372   1.095   5.054   2.041
 1810TIP3    H1 5373   1.070   4.993   1.972
 1810TIP3    H2 5374   1.156   5.006   2.096
 1811TIP3   OH2 5375   1.453   7.550   1.566
 1811TIP3    H1 5376   1.430   7.618   1.502
 1811TIP3    H2 5377   1.531   7.584   1.610
 1812TIP3   OH2 5378   2.190   4.148   3.083
 1812TIP3    H1 5379   2.107   4.101   3.076
 1812TIP3    H2 5380   2.170   4.237   3.055
 1813TIP3   OH2 5381   3.940   2.119   4.163
 1813TIP3    H1 5382   3.982   2.178   4.224
 1813TIP3    H2 5383   4.010   2.092   4.103
 1814TIP3   OH2 5384   3.732   0.951   3.586
 1814TIP3    H1 5385   3.733   0.992   3.499
 1814TIP3    H2 5386   3.746   1.024   3.647
 1815TIP3   OH2 5387   4.590   1.792   0.743
 1815TIP3    H1 5388   4.579   1.865   0.683
 1815TIP3    H2 5389   4.642   1.827   0.815
 1816TIP3   OH2 5390   8.071   2.002   5.260
 1816TIP3    H1 5391   8.045   1.911   5.243
 1816TIP3    H2 5392   8.160   2.008   5.225
 1817TIP3   OH2 5393   5.814   1.142   3.768
 1817TIP3    H1 5394   5.730   1.107   3.798
 1817TIP3    H2 5395   5.818   1.231   3.803
 1818TIP3   OH2 5396   5.457   2.064   3.477
 1818TIP3    H1 5397   5.417   1.998   3.421
 1818TIP3    H2 5398   5.401   2.141   3.469
 1819TIP3   OH2 5399   1.153   0.218   6.151
 1819TIP3    H1 5400   1.142   0.133   6.108
 1819TIP3    H2 5401   1.064   0.250   6.163
 1820TIP3   OH2 5402   5.676   7.671   5.247
 1820TIP3    H1 5403   5.759   7.627   5.265
 1820TIP3    H2 5404   5.627   7.663   5.329
 1821TIP3   OH2 5405   4.468   4.685   6.632
 1821TIP3    H1 5406   4.467   4.598   6.672
 1821TIP3    H2 5407   4.418   4.674   6.551
 1822TIP3   OH2 5408   1.097   3.446   6.131
 1822TIP3    H1 5409   1.148   3.492   6.198
 1822TIP3    H2 5410   1.028   3.402   6.179
 1823TIP3   OH2 5411   2.539   2.619   2.118
 1823TIP3    H1 5412   2.463   2.636   2.174
 1823TIP3    H2 5413   2.604   2.683   2.145
 1824TIP3   OH2 5414   2.967   4.913   3.794
 1824TIP3    H1 5415   2.990   5.006   3.799
 1824TIP3    H2 5416   2.992   4.886   3.706
 1825TIP3   OH2 5417   0.905   6.150   2.657
 1825TIP3    H1 5418   0.988   6.194   2.641
 1825TIP3    H2 5419   0.839   6.213   2.628
 1826TIP3   OH2 5420   2.226   4.924   2.367
 1826TIP3    H1 5421   2.162   4.857   2.343
 1826TIP3    H2 5422   2.245   4.969   2.285
 1827TIP3   OH2 5423   7.600   3.290   3.567
 1827TIP3    H1 5424   7.518   3.306   3.522
 1827TIP3    H2 5425   7.647   3.374   3.562
 1828TIP3   OH2 5426   8.100   1.688   0.302
 1828TIP3    H1 5427   8.184   1.645   0.312
 1828TIP3    H2 5428   8.038   1.634   0.351
 1829TIP3   OH2 5429   7.073   0.468   0.589
 1829TIP3    H1 5430   7.086   0.548   0.639
 1829TIP3    H2 5431   7.162   0.440   0.566
 1830TIP3   OH2 5432   7.601   0.302   0.495
 1830TIP3    H1 5433   7.512   0.332   0.509
 1830TIP3    H2 5434   7.592   0.212   0.463
 1831TIP3   OH2 5435   5.296   5.724   2.038
 1831TIP3    H1 5436   5.232   5.694   1.974
 1831TIP3    H2 5437   5.378   5.733   1.989
 1832TIP3   OH2 5438   7.877   1.295   0.075
 1832TIP3    H1 5439   7.872   1.390   0.074
 1832TIP3    H2 5440   7.945   1.275   0.139
 1833TIP3   OH2 5441   0.901   1.192   1.744
 1833TIP3    H1 5442   0.877   1.243   1.820
 1833TIP3    H2 5443   0.863   1.105   1.760
 1834TIP3   OH2 5444   3.766   5.485   4.691
 1834TIP3    H1 5445   3.681   5.519   4.721
 1834TIP3    H2 5446   3.815   5.563   4.665
 1835TIP3   OH2 5447   6.459   1.655   4.285
 1835TIP3    H1 5448   6.501   1.635   4.201
 1835TIP3    H2 5449   6.525   1.704   4.334
 1836TIP3   OH2 5450   7.038   4.551   0.030
 1836TIP3    H1 5451   7.071   4.574  -0.057
 1836TIP3    H2 5452   6.997   4.465   0.017
 1837TIP3   OH2 5453   0.858   3.296   5.099
 1837TIP3    H1 5454   0.814   3.236   5.038
 1837TIP3    H2 5455   0.867   3.246   5.180
 1838TIP3   OH2 5456   5.906   0.157   5.289
 1838TIP3    H1 5457   5.965   0.211   5.238
 1838TIP3    H2 5458   5.833   0.137   5.230
 1839TIP3   OH2 5459   3.581   5.409   0.787
 1839TIP3    H1 5460   3.602   5.332   0.839
 1839TIP3    H2 5461   3.566   5.376   0.698
 1840TIP3   OH2 5462   5.629   1.533   5.311
 1840TIP3    H1 5463   5.539   1.564   5.305
 1840TIP3    H2 5464   5.679   1.611   5.335
 1841TIP3   OH2 5465   8.284   1.872   2.898
 1841TIP3    H1 5466   8.193   1.898   2.887
 1841TIP3    H2 5467   8.280   1.784   2.935
 1842TIP3   OH2 5468   3.201   4.955   2.468
 1842TIP3    H1 5469   3.186   4.996   2.383
 1842TIP3    H2 5470   3.244   4.872   2.447
 1843TIP3   OH2 5471   5.201   1.599   1.946
 1843TIP3    H1 5472   5.164   1.623   2.031
 1843TIP3    H2 5473   5.133   1.545   1.905
 1844TIP3   OH2 5474   6.967   2.863   6.108
 1844TIP3    H1 5475   6.893   2.844   6.166
 1844TIP3    H2 5476   7.044   2.854   6.163
 1845TIP3   OH2 5477   5.596   5.836   3.263
 1845TIP3    H1 5478   5.634   5.900   3.323
 1845TIP3    H2 5479   5.664   5.824   3.196
 1846TIP3   OH2 5480   3.512   2.370   3.930
 1846TIP3    H1 5481   3.573   2.444   3.924
 1846TIP3    H2 5482   3.452   2.384   3.856
 1847TIP3   OH2 5483   6.149   0.491   3.754
 1847TIP3    H1 5484   6.053   0.488   3.754
 1847TIP3    H2 5485   6.176   0.407   3.789
 1848TIP3   OH2 5486   0.128   5.792   4.258
 1848TIP3    H1 5487   0.206   5.769   4.309
 1848TIP3    H2 5488   0.163   5.824   4.174
 1849TIP3   OH2 5489   5.201   3.010   1.961
 1849TIP3    H1 5490   5.223   2.962   2.040
 1849TIP3    H2 5491   5.105   3.009   1.958
 1850TIP3   OH2 5492   1.863   0.498   6.043
 1850TIP3    H1 5493   1.854   0.506   5.948
 1850TIP3    H2 5494   1.954   0.472   6.057
 1851TIP3   OH2 5495   5.096   1.750   3.190
 1851TIP3    H1 5496   5.056   1.673   3.232
 1851TIP3    H2 5497   5.169   1.714   3.139
 1852TIP3   OH2 5498   1.323   0.597   0.768
 1852TIP3    H1 5499   1.319   0.605   0.673
 1852TIP3    H2 5500   1.308   0.686   0.800
 1853TIP3   OH2 5501   2.028   4.990   1.166
 1853TIP3    H1 5502   2.052   5.061   1.225
 1853TIP3    H2 5503   2.030   5.029   1.079
 1854TIP3   OH2 5504   5.849   4.908   0.732
 1854TIP3    H1 5505   5.918   4.970   0.709
 1854TIP3    H2 5506   5.768   4.947   0.698
 1855TIP3   OH2 5507   7.431   7.385   2.589
 1855TIP3    H1 5508   7.461   7.460   2.640
 1855TIP3    H2 5509   7.487   7.313   2.617
 1856TIP3   OH2 5510   5.035   3.990   1.464
 1856TIP3    H1 5511   4.991   4.065   1.426
 1856TIP3    H2 5512   5.126   4.019   1.476
 1857TIP3   OH2 5513   4.827   0.933   5.774
 1857TIP3    H1 5514   4.794   0.938   5.684
 1857TIP3    H2 5515   4.831   0.839   5.793
 1858TIP3   OH2 5516   0.593   4.593   1.468
 1858TIP3    H1 5517   0.502   4.613   1.492
 1858TIP3    H2 5518   0.643   4.613   1.547
 1859TIP3   OH2 5519   7.543   7.333   5.571
 1859TIP3    H1 5520   7.468   7.335   5.512
 1859TIP3    H2 5521   7.515   7.386   5.647
 1860TIP3   OH2 5522   5.993   1.696   0.915
 1860TIP3    H1 5523   5.972   1.617   0.965
 1860TIP3    H2 5524   6.079   1.722   0.947
 1861TIP3   OH2 5525   1.858   4.451   4.269
 1861TIP3    H1 5526   1.851   4.504   4.348
 1861TIP3    H2 5527   1.856   4.361   4.300
 1862TIP3   OH2 5528   7.315   0.694   5.042
 1862TIP3    H1 5529   7.277   0.648   4.968
 1862TIP3    H2 5530   7.399   0.651   5.058
 1863TIP3   OH2 5531   6.935   2.804   5.562
 1863TIP3    H1 5532   6.966   2.822   5.651
 1863TIP3    H2 5533   6.841   2.825   5.565
 1864TIP3   OH2 5534   4.959   7.694   0.235
 1864TIP3    H1 5535   4.881   7.657   0.194
 1864TIP3    H2 5536   5.008   7.618   0.267
 1865TIP3   OH2 5537   2.111   6.102   3.212
 1865TIP3    H1 5538   2.071   6.134   3.293
 1865TIP3    H2 5539   2.039   6.092   3.151
 1866TIP3   OH2 5540   0.932   4.875   4.414
 1866TIP3    H1 5541   0.838   4.869   4.431
 1866TIP3    H2 5542   0.969   4.800   4.459
 1867TIP3   OH2 5543   4.950   3.698   3.037
 1867TIP3    H1 5544   4.942   3.607   3.009
 1867TIP3    H2 5545   5.033   3.728   2.999
 1868TIP3   OH2 5546   7.723   2.844   1.292
 1868TIP3    H1 5547   7.809   2.857   1.330
 1868TIP3    H2 5548   7.689   2.765   1.335
 1869TIP3   OH2 5549   1.257   3.896   3.828
 1869TIP3    H1 5550   1.236   3.925   3.916
 1869TIP3    H2 5551   1.244   3.973   3.773
 1870TIP3   OH2 5552   0.852   1.562   6.373
 1870TIP3    H1 5553   0.867   1.468   6.367
 1870TIP3    H2 5554   0.912   1.592   6.441
 1871TIP3   OH2 5555   5.792   7.611   1.215
 1871TIP3    H1 5556   5.795   7.551   1.290
 1871TIP3    H2 5557   5.847   7.568   1.149
 1872TIP3   OH2 5558   0.750   0.463   3.125
 1872TIP3    H1 5559   0.762   0.389   3.184
 1872TIP3    H2 5560   0.678   0.513   3.163
 1873TIP3   OH2 5561   2.802   5.551   3.427
 1873TIP3    H1 5562   2.714   5.571   3.459
 1873TIP3    H2 5563   2.814   5.458   3.445
 1874TIP3   OH2 5564   8.160   6.405   2.266
 1874TIP3    H1 5565   8.239   6.352   2.263
 1874TIP3    H2 5566   8.091   6.349   2.230
 1875TIP3   OH2 5567   2.494   5.726   1.987
 1875TIP3    H1 5568   2.431   5.705   1.918
 1875TIP3    H2 5569   2.500   5.647   2.040
 1876TIP3   OH2 5570   7.680   2.056   0.537
 1876TIP3    H1 5571   7.706   2.148   0.543
 1876TIP3    H2 5572   7.760   2.011   0.507
 1877TIP3   OH2 5573   8.290   5.350   4.819
 1877TIP3    H1 5574   8.284   5.256   4.800
 1877TIP3    H2 5575   8.299   5.355   4.914
 1878TIP3   OH2 5576   6.414   5.093   5.348
 1878TIP3    H1 5577   6.488   5.071   5.405
 1878TIP3    H2 5578   6.451   5.096   5.260
 1879TIP3   OH2 5579   4.142   0.424   4.988
 1879TIP3    H1 5580   4.191   0.342   4.998
 1879TIP3    H2 5581   4.122   0.429   4.895
 1880TIP3   OH2 5582   7.639   5.083   3.977
 1880TIP3    H1 5583   7.677   5.040   3.900
 1880TIP3    H2 5584   7.616   5.010   4.035
 1881TIP3   OH2 5585   0.464   6.202   2.825
 1881TIP3    H1 5586   0.433   6.183   2.914
 1881TIP3    H2 5587   0.419   6.139   2.769
 1882TIP3   OH2 5588   0.434   3.613   2.842
 1882TIP3    H1 5589   0.377   3.689   2.853
 1882TIP3    H2 5590   0.519   3.641   2.876
 1883TIP3   OH2 5591   4.162   1.188   4.225
 1883TIP3    H1 5592   4.228   1.173   4.293
 1883TIP3    H2 5593   4.081   1.155   4.262
 1884TIP3   OH2 5594   3.193   2.286   6.669
 1884TIP3    H1 5595   3.158   2.225   6.734
 1884TIP3    H2 5596   3.115   2.322   6.626
 1885TIP3   OH2 5597   7.034   7.371   0.805
 1885TIP3    H1 5598   6.983   7.293   0.782
 1885TIP3    H2 5599   7.114   7.364   0.753
 1886TIP3   OH2 5600   0.345   2.782   4.500
 1886TIP3    H1 5601   0.323   2.715   4.564
 1886TIP3    H2 5602   0.306   2.862   4.535
 1887TIP3   OH2 5603   4.084   2.174   2.557
 1887TIP3    H1 5604   4.161   2.135   2.516
 1887TIP3    H2 5605   4.012   2.117   2.532
 1888TIP3   OH2 5606   0.617   2.393   0.443
 1888TIP3    H1 5607   0.633   2.316   0.497
 1888TIP3    H2 5608   0.691   2.396   0.383
 1889TIP3   OH2 5609   0.487   0.633   1.561
 1889TIP3    H1 5610   0.395   0.608   1.559
 1889TIP3    H2 5611   0.523   0.601   1.478
 1890TIP3   OH2 5612   1.249   1.656   6.409
 1890TIP3    H1 5613   1.245   1.562   6.424
 1890TIP3    H2 5614   1.243   1.695   6.497
 1891TIP3   OH2 5615   3.615   3.294   2.373
 1891TIP3    H1 5616   3.536   3.322   2.327
 1891TIP3    H2 5617   3.658   3.234   2.313
 1892TIP3   OH2 5618   0.184   5.307   2.708
 1892TIP3    H1 5619   0.198   5.395   2.674
 1892TIP3    H2 5620   0.125   5.319   2.783
 1893TIP3   OH2 5621   7.480   0.719   4.665
 1893TIP3    H1 5622   7.456   0.794   4.611
 1893TIP3    H2 5623   7.563   0.744   4.705
 1894TIP3   OH2 5624   8.010   1.200   4.827
 1894TIP3    H1 5625   8.034   1.278   4.876
 1894TIP3    H2 5626   8.094   1.157   4.808
 1895TIP3   OH2 5627   5.791   1.620   2.507
 1895TIP3    H1 5628   5.754   1.632   2.594
 1895TIP3    H2 5629   5.807   1.709   2.475
 1896TIP3   OH2 5630   2.635   4.433   3.116
 1896TIP3    H1 5631   2.707   4.370   3.112
 1896TIP3    H2 5632   2.558   4.380   3.137
 1897TIP3   OH2 5633   1.444   3.549   6.168
 1897TIP3    H1 5634   1.385   3.521   6.238
 1897TIP3    H2 5635   1.527   3.566   6.213
 1898TIP3   OH2 5636   5.752   0.944   4.363
 1898TIP3    H1 5637   5.658   0.935   4.379
 1898TIP3    H2 5638   5.767   0.893   4.284
 1899TIP3   OH2 5639   2.137   3.439   0.354
 1899TIP3    H1 5640   2.203   3.381   0.392
 1899TIP3    H2 5641   2.070   3.381   0.318
 1900TIP3   OH2 5642   5.987   1.389   4.944
 1900TIP3    H1 5643   5.906   1.414   4.989
 1900TIP3    H2 5644   6.044   1.465   4.954
 1901TIP3   OH2 5645   4.862   5.474   3.620
 1901TIP3    H1 5646   4.950   5.471   3.583
 1901TIP3    H2 5647   4.871   5.524   3.701
 1902TIP3   OH2 5648   3.201   2.803   5.919
 1902TIP3    H1 5649   3.257   2.727   5.927
 1902TIP3    H2 5650   3.147   2.802   5.998
 1903TIP3   OH2 5651   5.077   1.229   4.358
 1903TIP3    H1 5652   5.015   1.272   4.299
 1903TIP3    H2 5653   5.047   1.253   4.446
 1904TIP3   OH2 5654   5.376   1.979   5.184
 1904TIP3    H1 5655   5.281   1.993   5.186
 1904TIP3    H2 5656   5.413   2.068   5.180
 1905TIP3   OH2 5657   4.792   3.575   0.167
 1905TIP3    H1 5658   4.797   3.497   0.113
 1905TIP3    H2 5659   4.699   3.586   0.187
 1906TIP3   OH2 5660   3.466   0.412   0.903
 1906TIP3    H1 5661   3.494   0.419   0.811
 1906TIP3    H2 5662   3.514   0.337   0.937
 1907TIP3   OH2 5663   7.960   7.311   5.439
 1907TIP3    H1 5664   7.956   7.398   5.400
 1907TIP3    H2 5665   8.049   7.281   5.420
 1908TIP3   OH2 5666   5.082   6.981   6.034
 1908TIP3    H1 5667   5.008   6.937   6.077
 1908TIP3    H2 5668   5.100   7.057   6.090
 1909TIP3   OH2 5669   7.270   2.246   6.127
 1909TIP3    H1 5670   7.343   2.307   6.124
 1909TIP3    H2 5671   7.289   2.190   6.203
 1910TIP3   OH2 5672   6.983   4.685   0.854
 1910TIP3    H1 5673   6.983   4.650   0.943
 1910TIP3    H2 5674   7.059   4.744   0.851
 1911TIP3   OH2 5675   5.466   1.354   0.525
 1911TIP3    H1 5676   5.511   1.291   0.468
 1911TIP3    H2 5677   5.503   1.338   0.612
 1912TIP3   OH2 5678   0.160   5.881   0.369
 1912TIP3    H1 5679   0.188   5.972   0.371
 1912TIP3    H2 5680   0.126   5.868   0.281
 1913TIP3   OH2 5681   3.536   5.566   4.792
 1913TIP3    H1 5682   3.491   5.650   4.781
 1913TIP3    H2 5683   3.465   5.502   4.796
 1914TIP3   OH2 5684   0.584   5.858   3.424
 1914TIP3    H1 5685   0.536   5.911   3.360
 1914TIP3    H2 5686   0.653   5.816   3.373
 1915TIP3   OH2 5687   7.304   7.214   2.866
 1915TIP3    H1 5688   7.365   7.253   2.928
 1915TIP3    H2 5689   7.267   7.289   2.818
 1916TIP3   OH2 5690   4.808   4.446   3.117
 1916TIP3    H1 5691   4.761   4.366   3.141
 1916TIP3    H2 5692   4.743   4.500   3.072
 1917TIP3   OH2 5693   8.129   6.053   6.114
 1917TIP3    H1 5694   8.123   5.959   6.101
 1917TIP3    H2 5695   8.208   6.066   6.167
 1918TIP3   OH2 5696   5.245   6.332   0.387
 1918TIP3    H1 5697   5.330   6.303   0.418
 1918TIP3    H2 5698   5.255   6.337   0.292
 1919TIP3   OH2 5699   7.830   2.231   6.641
 1919TIP3    H1 5700   7.857   2.247   6.550
 1919TIP3    H2 5701   7.841   2.315   6.684
 1920TIP3   OH2 5702   4.438   6.261   4.435
 1920TIP3    H1 5703   4.455   6.300   4.349
 1920TIP3    H2 5704   4.512   6.202   4.449
 1921TIP3   OH2 5705   1.067   4.238   3.478
 1921TIP3    H1 5706   1.045   4.329   3.499
 1921TIP3    H2 5707   1.089   4.240   3.385
 1922TIP3   OH2 5708   2.672   4.229   5.207
 1922TIP3    H1 5709   2.691   4.136   5.210
 1922TIP3    H2 5710   2.756   4.270   5.185
 1923TIP3   OH2 5711   2.625   5.874   4.211
 1923TIP3    H1 5712   2.573   5.799   4.240
 1923TIP3    H2 5713   2.623   5.935   4.285
 1924TIP3   OH2 5714   4.102   5.672   2.859
 1924TIP3    H1 5715   4.073   5.732   2.790
 1924TIP3    H2 5716   4.198   5.673   2.853
 1925TIP3   OH2 5717   2.916   6.541   1.608
 1925TIP3    H1 5718   2.915   6.489   1.527
 1925TIP3    H2 5719   2.951   6.480   1.674
 1926TIP3   OH2 5720   6.751   1.504   5.929
 1926TIP3    H1 5721   6.663   1.542   5.934
 1926TIP3    H2 5722   6.802   1.569   5.881
 1927TIP3   OH2 5723   0.678   5.566   5.434
 1927TIP3    H1 5724   0.652   5.536   5.522
 1927TIP3    H2 5725   0.723   5.492   5.395
 1928TIP3   OH2 5726   0.849   0.438   0.499
 1928TIP3    H1 5727   0.850   0.461   0.592
 1928TIP3    H2 5728   0.759   0.457   0.470
 1929TIP3   OH2 5729   5.821   5.009   2.662
 1929TIP3    H1 5730   5.910   4.975   2.675
 1929TIP3    H2 5731   5.801   4.990   2.571
 1930TIP3   OH2 5732   6.321   7.348   5.402
 1930TIP3    H1 5733   6.282   7.261   5.395
 1930TIP3    H2 5734   6.338   7.375   5.312
 1931TIP3   OH2 5735   0.110   1.112   0.749
 1931TIP3    H1 5736   0.042   1.053   0.781
 1931TIP3    H2 5737   0.125   1.173   0.821
 1932TIP3   OH2 5738   2.462   3.873   2.037
 1932TIP3    H1 5739   2.441   3.859   1.944
 1932TIP3    H2 5740   2.529   3.941   2.036
 1933TIP3   OH2 5741   0.831   2.247   1.148
 1933TIP3    H1 5742   0.815   2.154   1.132
 1933TIP3    H2 5743   0.898   2.248   1.216
 1934TIP3   OH2 5744   7.102   6.500   4.157
 1934TIP3    H1 5745   7.091   6.590   4.127
 1934TIP3    H2 5746   7.019   6.458   4.137
 1935TIP3   OH2 5747   6.542   1.048   2.075
 1935TIP3    H1 5748   6.549   0.971   2.131
 1935TIP3    H2 5749   6.571   1.018   1.989
 1936TIP3   OH2 5750   3.544   5.232   6.332
 1936TIP3    H1 5751   3.584   5.195   6.254
 1936TIP3    H2 5752   3.576   5.177   6.404
 1937TIP3   OH2 5753   7.036   4.463   0.338
 1937TIP3    H1 5754   7.052   4.552   0.308
 1937TIP3    H2 5755   7.117   4.416   0.319
 1938TIP3   OH2 5756   4.531   2.476   0.924
 1938TIP3    H1 5757   4.594   2.487   0.852
 1938TIP3    H2 5758   4.549   2.550   0.982
 1939TIP3   OH2 5759   3.351   6.754   5.808
 1939TIP3    H1 5760   3.362   6.666   5.773
 1939TIP3    H2 5761   3.277   6.790   5.760
 1940TIP3   OH2 5762   0.921   7.794   4.248
 1940TIP3    H1 5763   1.016   7.803   4.236
 1940TIP3    H2 5764   0.906   7.813   4.340
 1941TIP3   OH2 5765   2.587   6.115   4.360
 1941TIP3    H1 5766   2.620   6.187   4.306
 1941TIP3    H2 5767   2.612   6.140   4.449
 1942TIP3   OH2 5768   1.034   5.231   2.336
 1942TIP3    H1 5769   1.031   5.286   2.415
 1942TIP3    H2 5770   1.004   5.145   2.365
 1943TIP3   OH2 5771   7.507   5.480   5.137
 1943TIP3    H1 5772   7.435   5.543   5.139
 1943TIP3    H2 5773   7.550   5.489   5.222
 1944TIP3   OH2 5774   4.390   4.084   3.960
 1944TIP3    H1 5775   4.312   4.139   3.958
 1944TIP3    H2 5776   4.386   4.040   4.045
 1945TIP3   OH2 5777   6.152   3.740   6.694
 1945TIP3    H1 5778   6.069   3.745   6.647
 1945TIP3    H2 5779   6.187   3.654   6.672
 1946TIP3   OH2 5780   0.977   1.073   1.273
 1946TIP3    H1 5781   0.955   1.060   1.181
 1946TIP3    H2 5782   0.972   0.985   1.312
 1947TIP3   OH2 5783   5.968   1.135   0.397
 1947TIP3    H1 5784   5.924   1.141   0.482
 1947TIP3    H2 5785   6.001   1.224   0.381
 1948TIP3   OH2 5786   2.110   0.542   0.623
 1948TIP3    H1 5787   2.033   0.568   0.673
 1948TIP3    H2 5788   2.081   0.547   0.531
 1949TIP3   OH2 5789   0.263   0.102   4.336
 1949TIP3    H1 5790   0.340   0.102   4.392
 1949TIP3    H2 5791   0.272   0.182   4.284
 1950TIP3   OH2 5792   4.883   7.135   5.816
 1950TIP3    H1 5793   4.818   7.090   5.869
 1950TIP3    H2 5794   4.833   7.195   5.761
 1951TIP3   OH2 5795   7.257   0.589   4.770
 1951TIP3    H1 5796   7.333   0.643   4.750
 1951TIP3    H2 5797   7.285   0.499   4.753
 1952TIP3   OH2 5798   6.301   7.654   4.841
 1952TIP3    H1 5799   6.279   7.679   4.751
 1952TIP3    H2 5800   6.375   7.594   4.832
 1953TIP3   OH2 5801   7.471   7.360   2.235
 1953TIP3    H1 5802   7.451   7.319   2.151
 1953TIP3    H2 5803   7.514   7.290   2.285
 1954TIP3   OH2 5804   6.117   4.345   5.465
 1954TIP3    H1 5805   6.108   4.372   5.373
 1954TIP3    H2 5806   6.071   4.412   5.515
 1955TIP3   OH2 5807   0.062   1.987   6.120
 1955TIP3    H1 5808   0.058   1.922   6.190
 1955TIP3    H2 5809   0.131   2.048   6.148
 1956TIP3   OH2 5810   2.552   1.149   1.450
 1956TIP3    H1 5811   2.539   1.242   1.433
 1956TIP3    H2 5812   2.585   1.145   1.540
 1957TIP3   OH2 5813   3.178   2.781   0.082
 1957TIP3    H1 5814   3.229   2.827   0.148
 1957TIP3    H2 5815   3.089   2.777   0.117
 1958TIP3   OH2 5816   2.709   2.119   6.036
 1958TIP3    H1 5817   2.796   2.081   6.045
 1958TIP3    H2 5818   2.668   2.107   6.121
 1959TIP3   OH2 5819   1.244   4.754   4.963
 1959TIP3    H1 5820   1.329   4.751   5.007
 1959TIP3    H2 5821   1.201   4.831   4.999
 1960TIP3   OH2 5822   4.772   1.880   0.945
 1960TIP3    H1 5823   4.806   1.958   0.901
 1960TIP3    H2 5824   4.808   1.883   1.033
 1961TIP3   OH2 5825   6.551   0.384   2.129
 1961TIP3    H1 5826   6.605   0.318   2.172
 1961TIP3    H2 5827   6.504   0.336   2.061
 1962TIP3   OH2 5828   7.862   2.108   5.085
 1962TIP3    H1 5829   7.908   2.086   5.166
 1962TIP3    H2 5830   7.909   2.059   5.017
 1963TIP3   OH2 5831   4.149   6.888   2.239
 1963TIP3    H1 5832   4.163   6.854   2.327
 1963TIP3    H2 5833   4.062   6.927   2.242
 1964TIP3   OH2 5834   0.456   0.479   4.826
 1964TIP3    H1 5835   0.505   0.412   4.780
 1964TIP3    H2 5836   0.459   0.452   4.918
 1965TIP3   OH2 5837   0.662   0.167   0.278
 1965TIP3    H1 5838   0.681   0.150   0.370
 1965TIP3    H2 5839   0.744   0.150   0.232
 1966TIP3   OH2 5840   5.032   6.266   0.613
 1966TIP3    H1 5841   5.089   6.279   0.537
 1966TIP3    H2 5842   4.974   6.342   0.613
 1967TIP3   OH2 5843   6.604   3.394   4.332
 1967TIP3    H1 5844   6.538   3.429   4.392
 1967TIP3    H2 5845   6.647   3.472   4.297
 1968TIP3   OH2 5846   5.211   6.594   5.569
 1968TIP3    H1 5847   5.152   6.563   5.638
 1968TIP3    H2 5848   5.174   6.679   5.542
 1969TIP3   OH2 5849   0.166   7.034   1.796
 1969TIP3    H1 5850   0.211   6.949   1.802
 1969TIP3    H2 5851   0.209   7.089   1.861
 1970TIP3   OH2 5852   6.823   5.577   3.104
 1970TIP3    H1 5853   6.791   5.617   3.185
 1970TIP3    H2 5854   6.764   5.609   3.036
 1971TIP3   OH2 5855   0.582   2.095   1.834
 1971TIP3    H1 5856   0.627   2.020   1.796
 1971TIP3    H2 5857   0.652   2.157   1.855
 1972TIP3   OH2 5858   7.490   4.073   6.535
 1972TIP3    H1 5859   7.421   4.022   6.492
 1972TIP3    H2 5860   7.451   4.159   6.549
 1973TIP3   OH2 5861   1.313   2.295   0.160
 1973TIP3    H1 5862   1.273   2.275   0.075
 1973TIP3    H2 5863   1.240   2.322   0.215
 1974TIP3   OH2 5864   3.719   6.829   3.614
 1974TIP3    H1 5865   3.732   6.898   3.679
 1974TIP3    H2 5866   3.691   6.753   3.665
 1975TIP3   OH2 5867   1.142   7.092   3.214
 1975TIP3    H1 5868   1.078   7.060   3.152
 1975TIP3    H2 5869   1.168   7.015   3.265
 1976TIP3   OH2 5870   4.503   2.783   3.869
 1976TIP3    H1 5871   4.523   2.717   3.935
 1976TIP3    H2 5872   4.517   2.738   3.785
 1977TIP3   OH2 5873   4.283   6.068   1.959
 1977TIP3    H1 5874   4.370   6.063   1.920
 1977TIP3    H2 5875   4.230   6.113   1.894
 1978TIP3   OH2 5876   7.066   5.224   0.047
 1978TIP3    H1 5877   7.068   5.289   0.117
 1978TIP3    H2 5878   7.131   5.255  -0.016
 1979TIP3   OH2 5879   6.313   4.950   1.775
 1979TIP3    H1 5880   6.268   4.914   1.699
 1979TIP3    H2 5881   6.252   4.938   1.848
 1980TIP3   OH2 5882   4.911   0.454   3.087
 1980TIP3    H1 5883   4.915   0.524   3.153
 1980TIP3    H2 5884   4.993   0.463   3.038
 1981TIP3   OH2 5885   4.701   3.999   0.883
 1981TIP3    H1 5886   4.710   3.906   0.863
 1981TIP3    H2 5887   4.775   4.040   0.839
 1982TIP3   OH2 5888   1.608   4.812   6.316
 1982TIP3    H1 5889   1.561   4.731   6.299
 1982TIP3    H2 5890   1.697   4.795   6.285
 1983TIP3   OH2 5891   2.346   2.257   3.748
 1983TIP3    H1 5892   2.340   2.271   3.842
 1983TIP3    H2 5893   2.299   2.331   3.709
 1984TIP3   OH2 5894   6.181   2.253   4.888
 1984TIP3    H1 5895   6.092   2.287   4.881
 1984TIP3    H2 5896   6.170   2.159   4.894
 1985TIP3   OH2 5897   2.312   7.519   5.548
 1985TIP3    H1 5898   2.373   7.470   5.492
 1985TIP3    H2 5899   2.225   7.488   5.521
 1986TIP3   OH2 5900   0.974   6.274   3.137
 1986TIP3    H1 5901   1.016   6.244   3.218
 1986TIP3    H2 5902   0.897   6.323   3.167
 1987TIP3   OH2 5903   1.253   5.581   0.782
 1987TIP3    H1 5904   1.264   5.676   0.775
 1987TIP3    H2 5905   1.159   5.567   0.784
 1988TIP3   OH2 5906   6.783   6.341   2.280
 1988TIP3    H1 5907   6.691   6.357   2.259
 1988TIP3    H2 5908   6.827   6.422   2.254
 1989TIP3   OH2 5909   2.373   6.020   6.008
 1989TIP3    H1 5910   2.396   5.994   6.098
 1989TIP3    H2 5911   2.349   5.938   5.965
 1990TIP3   OH2 5912   4.772   6.892   2.734
 1990TIP3    H1 5913   4.685   6.878   2.772
 1990TIP3    H2 5914   4.800   6.977   2.768
 1991TIP3   OH2 5915   4.362   5.982   5.591
 1991TIP3    H1 5916   4.345   5.922   5.518
 1991TIP3    H2 5917   4.290   5.967   5.652
 1992TIP3   OH2 5918   6.583   2.780   0.819
 1992TIP3    H1 5919   6.571   2.863   0.864
 1992TIP3    H2 5920   6.504   2.730   0.840
 1993TIP3   OH2 5921   5.258   2.878   3.846
 1993TIP3    H1 5922   5.197   2.838   3.908
 1993TIP3    H2 5923   5.343   2.877   3.892
 1994TIP3   OH2 5924   2.621   4.062   3.858
 1994TIP3    H1 5925   2.698   4.020   3.896
 1994TIP3    H2 5926   2.590   4.122   3.926
 1995TIP3   OH2 5927   8.225   2.746   3.897
 1995TIP3    H1 5928   8.210   2.752   3.802
 1995TIP3    H2 5929   8.297   2.807   3.914
 1996TIP3   OH2 5930   2.338   5.573   1.814
 1996TIP3    H1 5931   2.300   5.609   1.734
 1996TIP3    H2 5932   2.264   5.562   1.874
 1997TIP3   OH2 5933   0.437   5.104   3.110
 1997TIP3    H1 5934   0.349   5.097   3.147
 1997TIP3    H2 5935   0.453   5.199   3.105
 1998TIP3   OH2 5936   4.875   6.947   0.932
 1998TIP3    H1 5937   4.961   6.987   0.920
 1998TIP3    H2 5938   4.857   6.903   0.849
 1999TIP3   OH2 5939   7.407   6.926   2.984
 1999TIP3    H1 5940   7.331   6.984   2.976
 1999TIP3    H2 5941   7.478   6.974   2.943
 2000TIP3   OH2 5942   5.637   0.036   5.368
 2000TIP3    H1 5943   5.683  -0.048   5.358
 2000TIP3    H2 5944   5.623   0.044   5.463
 2001TIP3   OH2 5945   0.097   3.493   0.644
 2001TIP3    H1 5946   0.191   3.485   0.629
 2001TIP3    H2 5947   0.082   3.457   0.731
 2002TIP3   OH2 5948   4.724   2.655   0.104
 2002TIP3    H1 5949   4.676   2.573   0.093
 2002TIP3    H2 5950   4.684   2.695   0.181
 2003TIP3   OH2 5951   0.886   6.042   1.637
 2003TIP3    H1 5952   0.883   6.134   1.666
 2003TIP3    H2 5953   0.799   6.025   1.601
 2004TIP3   OH2 5954   4.244   1.773   5.236
 2004TIP3    H1 5955   4.254   1.720   5.157
 2004TIP3    H2 5956   4.192   1.848   5.208
 2005TIP3   OH2 5957   5.394   7.832   0.385
 2005TIP3    H1 5958   5.450   7.767   0.429
 2005TIP3    H2 5959   5.451   7.871   0.318
 2006TIP3   OH2 5960   4.797   1.007   3.566
 2006TIP3    H1 5961   4.756   1.070   3.625
 2006TIP3    H2 5962   4.860   0.960   3.622
 2007TIP3   OH2 5963   6.348   2.680   0.870
 2007TIP3    H1 5964   6.289   2.658   0.798
 2007TIP3    H2 5965   6.298   2.659   0.949
 2008TIP3   OH2 5966   7.573   7.013   5.509
 2008TIP3    H1 5967   7.619   7.071   5.448
 2008TIP3    H2 5968   7.523   7.073   5.565
 2009TIP3   OH2 5969   5.503   2.087   6.228
 2009TIP3    H1 5970   5.477   2.112   6.317
 2009TIP3    H2 5971   5.422   2.092   6.177
 2010TIP3   OH2 5972   7.335   1.799   6.077
 2010TIP3    H1 5973   7.380   1.737   6.019
 2010TIP3    H2 5974   7.390   1.804   6.155
 2011TIP3   OH2 5975   7.779   6.840   5.248
 2011TIP3    H1 5976   7.686   6.842   5.223
 2011TIP3    H2 5977   7.795   6.925   5.290
 2012TIP3   OH2 5978   5.442   7.693   1.680
 2012TIP3    H1 5979   5.419   7.607   1.644
 2012TIP3    H2 5980   5.374   7.711   1.744
 2013TIP3   OH2 5981   2.056   1.189   5.228
 2013TIP3    H1 5982   1.977   1.145   5.196
 2013TIP3    H2 5983   2.027   1.278   5.247
 2014TIP3   OH2 5984   3.413   0.913   2.423
 2014TIP3    H1 5985   3.375   0.978   2.482
 2014TIP3    H2 5986   3.444   0.843   2.480
 2015TIP3   OH2 5987   0.572   0.624   5.868
 2015TIP3    H1 5988   0.630   0.642   5.794
 2015TIP3    H2 5989   0.619   0.659   5.944
 2016TIP3   OH2 5990   3.304   1.612   1.342
 2016TIP3    H1 5991   3.298   1.543   1.409
 2016TIP3    H2 5992   3.213   1.632   1.321
 2017TIP3   OH2 5993   4.670   6.173   3.167
 2017TIP3    H1 5994   4.765   6.170   3.177
 2017TIP3    H2 5995   4.656   6.184   3.073
 2018TIP3   OH2 5996   3.392   0.880   0.564
 2018TIP3    H1 5997   3.317   0.910   0.617
 2018TIP3    H2 5998   3.405   0.789   0.589
 2019TIP3   OH2 5999   7.328   1.034   1.115
 2019TIP3    H1 6000   7.381   0.993   1.183
 2019TIP3    H2 6001   7.245   1.057   1.158
 2020TIP3   OH2 6002   3.658   1.598   0.733
 2020TIP3    H1 6003   3.699   1.600   0.646
 2020TIP3    H2 6004   3.567   1.573   0.715
 2021TIP3   OH2 6005   6.568   3.334   6.151
 2021TIP3    H1 6006   6.473   3.332   6.135
 2021TIP3    H2 6007   6.580   3.286   6.233
 2022TIP3   OH2 6008   0.389   1.713   6.091
 2022TIP3    H1 6009   0.341   1.650   6.144
 2022TIP3    H2 6010   0.446   1.759   6.154
 2023TIP3   OH2 6011   4.433   5.244   2.480
 2023TIP3    H1 6012   4.387   5.304   2.421
 2023TIP3    H2 6013   4.411   5.276   2.568
 2024TIP3   OH2 6014   2.485   5.764   2.449
 2024TIP3    H1 6015   2.534   5.691   2.486
 2024TIP3    H2 6016   2.526   5.779   2.363
 2025TIP3   OH2 6017   4.382   2.228   2.392
 2025TIP3    H1 6018   4.392   2.154   2.453
 2025TIP3    H2 6019   4.288   2.240   2.383
 2026TIP3   OH2 6020   4.355   2.661   4.911
 2026TIP3    H1 6021   4.422   2.597   4.933
 2026TIP3    H2 6022   4.402   2.731   4.866
 2027TIP3   OH2 6023   2.663   3.894   1.407
 2027TIP3    H1 6024   2.658   3.969   1.467
 2027TIP3    H2 6025   2.701   3.930   1.327
 2028TIP3   OH2 6026   6.793   5.606   4.620
 2028TIP3    H1 6027   6.859   5.572   4.560
 2028TIP3    H2 6028   6.721   5.633   4.564
 2029TIP3   OH2 6029   0.230   0.532   0.215
 2029TIP3    H1 6030   0.292   0.473   0.258
 2029TIP3    H2 6031   0.281   0.575   0.147
 2030TIP3   OH2 6032   0.848   5.366   4.316
 2030TIP3    H1 6033   0.889   5.426   4.378
 2030TIP3    H2 6034   0.890   5.282   4.334
 2031TIP3   OH2 6035   8.086   0.730   5.434
 2031TIP3    H1 6036   8.140   0.654   5.410
 2031TIP3    H2 6037   8.074   0.722   5.529
 2032TIP3   OH2 6038   1.361   5.733   1.174
 2032TIP3    H1 6039   1.276   5.776   1.160
 2032TIP3    H2 6040   1.360   5.707   1.266
 2033TIP3   OH2 6041   7.511   7.135   5.046
 2033TIP3    H1 6042   7.459   7.201   5.092
 2033TIP3    H2 6043   7.471   7.129   4.959
 2034TIP3   OH2 6044   2.497   0.758   0.984
 2034TIP3    H1 6045   2.518   0.688   0.922
 2034TIP3    H2 6046   2.448   0.822   0.933
 2035TIP3   OH2 6047   2.042   2.682   2.475
 2035TIP3    H1 6048   1.993   2.650   2.550
 2035TIP3    H2 6049   2.067   2.603   2.428
 2036TIP3   OH2 6050   0.153   2.182   5.606
 2036TIP3    H1 6051   0.146   2.186   5.701
 2036TIP3    H2 6052   0.245   2.160   5.590
 2037TIP3   OH2 6053   3.735   2.406   4.187
 2037TIP3    H1 6054   3.752   2.324   4.234
 2037TIP3    H2 6055   3.757   2.475   4.249
 2038TIP3   OH2 6056   5.554   7.341   3.176
 2038TIP3    H1 6057   5.587   7.300   3.096
 2038TIP3    H2 6058   5.506   7.418   3.146
 2039TIP3   OH2 6059   3.154   1.736   5.522
 2039TIP3    H1 6060   3.240   1.709   5.553
 2039TIP3    H2 6061   3.098   1.731   5.600
 2040TIP3   OH2 6062   6.460   1.939   5.144
 2040TIP3    H1 6063   6.431   1.898   5.225
 2040TIP3    H2 6064   6.426   2.028   5.148
 2041TIP3   OH2 6065   4.729   5.119   3.972
 2041TIP3    H1 6066   4.706   5.075   3.889
 2041TIP3    H2 6067   4.819   5.149   3.958
 2042TIP3   OH2 6068   5.529   3.753   0.914
 2042TIP3    H1 6069   5.457   3.701   0.949
 2042TIP3    H2 6070   5.588   3.765   0.988
 2043TIP3   OH2 6071   3.909   7.492   1.659
 2043TIP3    H1 6072   3.819   7.507   1.690
 2043TIP3    H2 6073   3.959   7.478   1.739
 2044TIP3   OH2 6074   2.379   6.671   4.599
 2044TIP3    H1 6075   2.331   6.682   4.517
 2044TIP3    H2 6076   2.385   6.759   4.636
 2045TIP3   OH2 6077   5.675   4.666   2.976
 2045TIP3    H1 6078   5.653   4.647   2.884
 2045TIP3    H2 6079   5.597   4.643   3.025
 2046TIP3   OH2 6080   6.251   0.793   2.332
 2046TIP3    H1 6081   6.244   0.749   2.417
 2046TIP3    H2 6082   6.278   0.725   2.272
 2047TIP3   OH2 6083   7.845   3.219   1.152
 2047TIP3    H1 6084   7.753   3.227   1.177
 2047TIP3    H2 6085   7.891   3.283   1.206
 2048TIP3   OH2 6086   7.817   0.676   2.112
 2048TIP3    H1 6087   7.890   0.627   2.075
 2048TIP3    H2 6088   7.841   0.688   2.204
 2049TIP3   OH2 6089   0.949   3.881   6.341
 2049TIP3    H1 6090   0.866   3.921   6.316
 2049TIP3    H2 6091   0.990   3.945   6.400
 2050TIP3   OH2 6092   7.127   4.981   1.246
 2050TIP3    H1 6093   7.086   4.895   1.255
 2050TIP3    H2 6094   7.219   4.961   1.229
 2051TIP3   OH2 6095   1.189   7.716   3.527
 2051TIP3    H1 6096   1.178   7.756   3.613
 2051TIP3    H2 6097   1.200   7.790   3.467
 2052TIP3   OH2 6098   0.192   4.024   1.171
 2052TIP3    H1 6099   0.217   4.117   1.163
 2052TIP3    H2 6100   0.195   3.991   1.081
 2053TIP3   OH2 6101   1.835   0.212   4.365
 2053TIP3    H1 6102   1.773   0.224   4.437
 2053TIP3    H2 6103   1.833   0.118   4.348
 2054TIP3   OH2 6104   2.102   1.487   2.671
 2054TIP3    H1 6105   2.034   1.541   2.630
 2054TIP3    H2 6106   2.164   1.550   2.707
 2055TIP3   OH2 6107   1.237   3.552   4.514
 2055TIP3    H1 6108   1.265   3.475   4.562
 2055TIP3    H2 6109   1.312   3.612   4.518
 2056TIP3   OH2 6110   4.786  -0.014   0.631
 2056TIP3    H1 6111   4.837   0.054   0.588
 2056TIP3    H2 6112   4.834  -0.095   0.614
 2057TIP3   OH2 6113   6.675   3.741   3.991
 2057TIP3    H1 6114   6.750   3.718   3.936
 2057TIP3    H2 6115   6.605   3.681   3.963
 2058TIP3   OH2 6116   0.253   6.377   0.231
 2058TIP3    H1 6117   0.273   6.285   0.213
 2058TIP3    H2 6118   0.256   6.385   0.326
 2059TIP3   OH2 6119   8.069   0.792   0.300
 2059TIP3    H1 6120   8.005   0.723   0.283
 2059TIP3    H2 6121   8.146   0.745   0.331
 2060TIP3   OH2 6122   7.625   2.296   0.227
 2060TIP3    H1 6123   7.705   2.264   0.184
 2060TIP3    H2 6124   7.655   2.334   0.309
 2061TIP3   OH2 6125   4.472   0.582   6.151
 2061TIP3    H1 6126   4.530   0.577   6.075
 2061TIP3    H2 6127   4.526   0.557   6.225
 2062TIP3   OH2 6128   1.464   6.654   4.681
 2062TIP3    H1 6129   1.547   6.680   4.722
 2062TIP3    H2 6130   1.490   6.616   4.598
 2063TIP3   OH2 6131   1.776   7.505   5.924
 2063TIP3    H1 6132   1.815   7.421   5.949
 2063TIP3    H2 6133   1.715   7.482   5.853
 2064TIP3   OH2 6134   5.563   3.379   5.429
 2064TIP3    H1 6135   5.610   3.313   5.481
 2064TIP3    H2 6136   5.600   3.371   5.341
 2065TIP3   OH2 6137   8.280   4.546   1.713
 2065TIP3    H1 6138   8.205   4.511   1.664
 2065TIP3    H2 6139   8.346   4.476   1.709
 2066TIP3   OH2 6140   3.054   0.106   1.988
 2066TIP3    H1 6141   3.139   0.150   1.982
 2066TIP3    H2 6142   3.062   0.032   1.929
 2067TIP3   OH2 6143   2.341   1.784   3.026
 2067TIP3    H1 6144   2.390   1.710   3.062
 2067TIP3    H2 6145   2.408   1.843   2.991
 2068TIP3   OH2 6146   1.607   4.387   3.537
 2068TIP3    H1 6147   1.529   4.337   3.512
 2068TIP3    H2 6148   1.619   4.449   3.465
 2069TIP3   OH2 6149   4.489   5.777   3.889
 2069TIP3    H1 6150   4.491   5.767   3.984
 2069TIP3    H2 6151   4.515   5.691   3.855
 2070TIP3   OH2 6152   2.038   2.755   4.771
 2070TIP3    H1 6153   1.976   2.714   4.831
 2070TIP3    H2 6154   2.027   2.849   4.786
 2071TIP3   OH2 6155   7.587   6.719   0.952
 2071TIP3    H1 6156   7.581   6.766   1.035
 2071TIP3    H2 6157   7.647   6.647   0.969
 2072TIP3   OH2 6158   6.221   4.371   4.297
 2072TIP3    H1 6159   6.139   4.416   4.277
 2072TIP3    H2 6160   6.263   4.358   4.212
 2073TIP3   OH2 6161   2.057   7.210   6.619
 2073TIP3    H1 6162   2.035   7.196   6.527
 2073TIP3    H2 6163   1.988   7.267   6.652
 2074TIP3   OH2 6164   6.846   0.015   6.664
 2074TIP3    H1 6165   6.912   0.050   6.604
 2074TIP3    H2 6166   6.890   0.011   6.749
 2075TIP3   OH2 6167   7.337   1.611   4.049
 2075TIP3    H1 6168   7.366   1.525   4.082
 2075TIP3    H2 6169   7.406   1.671   4.076
 2076TIP3   OH2 6170   7.361   5.976   2.813
 2076TIP3    H1 6171   7.380   5.948   2.724
 2076TIP3    H2 6172   7.266   5.985   2.816
 2077TIP3   OH2 6173   6.583   3.897   1.743
 2077TIP3    H1 6174   6.535   3.877   1.823
 2077TIP3    H2 6175   6.530   3.859   1.673
 2078TIP3   OH2 6176   0.072   1.307   4.833
 2078TIP3    H1 6177   0.024   1.224   4.832
 2078TIP3    H2 6178   0.160   1.285   4.802
 2079TIP3   OH2 6179   4.284   2.661   1.837
 2079TIP3    H1 6180   4.373   2.695   1.831
 2079TIP3    H2 6181   4.267   2.655   1.931
 2080TIP3   OH2 6182   7.232   5.666   3.277
 2080TIP3    H1 6183   7.228   5.744   3.222
 2080TIP3    H2 6184   7.167   5.606   3.240
 2081TIP3   OH2 6185   8.254   5.637   6.282
 2081TIP3    H1 6186   8.268   5.689   6.361
 2081TIP3    H2 6187   8.186   5.683   6.234
 2082TIP3   OH2 6188   2.219   2.963   5.616
 2082TIP3    H1 6189   2.136   2.989   5.655
 2082TIP3    H2 6190   2.207   2.974   5.522
 2083TIP3   OH2 6191   6.160   3.393   2.440
 2083TIP3    H1 6192   6.236   3.348   2.475
 2083TIP3    H2 6193   6.087   3.332   2.452
 2084TIP3   OH2 6194   0.140   1.866   3.237
 2084TIP3    H1 6195   0.057   1.860   3.191
 2084TIP3    H2 6196   0.120   1.917   3.316
 2085TIP3   OH2 6197   6.975   4.224   0.440
 2085TIP3    H1 6198   6.882   4.220   0.460
 2085TIP3    H2 6199   6.988   4.311   0.402
 2086TIP3   OH2 6200   4.600   4.067   0.511
 2086TIP3    H1 6201   4.529   4.030   0.459
 2086TIP3    H2 6202   4.666   3.997   0.512
 2087TIP3   OH2 6203   6.169   3.044   4.541
 2087TIP3    H1 6204   6.161   3.138   4.527
 2087TIP3    H2 6205   6.083   3.009   4.519
 2088TIP3   OH2 6206   1.297   4.102   0.502
 2088TIP3    H1 6207   1.212   4.144   0.514
 2088TIP3    H2 6208   1.314   4.109   0.408
 2089TIP3   OH2 6209   8.199   0.219   3.627
 2089TIP3    H1 6210   8.258   0.156   3.668
 2089TIP3    H2 6211   8.119   0.214   3.680
 2090TIP3   OH2 6212   5.604   7.139   1.967
 2090TIP3    H1 6213   5.689   7.113   1.932
 2090TIP3    H2 6214   5.574   7.210   1.909
 2091TIP3   OH2 6215   3.089   6.895   2.330
 2091TIP3    H1 6216   3.153   6.824   2.338
 2091TIP3    H2 6217   3.125   6.952   2.262
 2092TIP3   OH2 6218   7.834   3.837   5.537
 2092TIP3    H1 6219   7.740   3.854   5.537
 2092TIP3    H2 6220   7.874   3.918   5.505
 2093TIP3   OH2 6221   5.375   5.516   2.520
 2093TIP3    H1 6222   5.338   5.587   2.468
 2093TIP3    H2 6223   5.399   5.449   2.456
 2094TIP3   OH2 6224   5.642   0.900   4.061
 2094TIP3    H1 6225   5.631   0.978   4.007
 2094TIP3    H2 6226   5.556   0.886   4.101
 2095TIP3   OH2 6227   2.427   4.349   5.214
 2095TIP3    H1 6228   2.486   4.324   5.143
 2095TIP3    H2 6229   2.410   4.442   5.201
 2096TIP3   OH2 6230   4.263   5.238   5.550
 2096TIP3    H1 6231   4.237   5.158   5.597
 2096TIP3    H2 6232   4.235   5.222   5.460
 2097TIP3   OH2 6233   2.785   6.004   6.704
 2097TIP3    H1 6234   2.831   5.943   6.762
 2097TIP3    H2 6235   2.847   6.075   6.689
 2098TIP3   OH2 6236   1.501   2.637   5.403
 2098TIP3    H1 6237   1.593   2.646   5.426
 2098TIP3    H2 6238   1.481   2.545   5.419
 2099TIP3   OH2 6239   6.386   0.952   4.213
 2099TIP3    H1 6240   6.420   0.863   4.217
 2099TIP3    H2 6241   6.366   0.966   4.120
 2100TIP3   OH2 6242   0.563   3.091   5.795
 2100TIP3    H1 6243   0.495   3.157   5.778
 2100TIP3    H2 6244   0.612   3.126   5.869
 2101TIP3   OH2 6245   1.324   2.614   0.457
 2101TIP3    H1 6246   1.277   2.633   0.537
 2101TIP3    H2 6247   1.386   2.544   0.481
 2102TIP3   OH2 6248   6.939   7.472   2.691
 2102TIP3    H1 6249   6.900   7.556   2.713
 2102TIP3    H2 6250   6.967   7.481   2.600
 2103TIP3   OH2 6251   0.965   7.492   0.051
 2103TIP3    H1 6252   0.951   7.487  -0.044
 2103TIP3    H2 6253   1.017   7.571   0.063
 2104TIP3   OH2 6254   1.991   5.363   2.519
 2104TIP3    H1 6255   2.006   5.305   2.594
 2104TIP3    H2 6256   2.066   5.348   2.462
 2105TIP3   OH2 6257   7.702   1.397   6.640
 2105TIP3    H1 6258   7.796   1.386   6.630
 2105TIP3    H2 6259   7.667   1.395   6.551
 2106TIP3   OH2 6260   1.248   3.237   2.503
 2106TIP3    H1 6261   1.235   3.327   2.532
 2106TIP3    H2 6262   1.341   3.220   2.519
 2107TIP3   OH2 6263   4.123   2.854   2.936
 2107TIP3    H1 6264   4.073   2.890   3.009
 2107TIP3    H2 6265   4.159   2.771   2.969
 2108TIP3   OH2 6266   2.402   3.907   4.174
 2108TIP3    H1 6267   2.356   3.921   4.257
 2108TIP3    H2 6268   2.491   3.938   4.191
 2109TIP3   OH2 6269   1.296   2.909   1.342
 2109TIP3    H1 6270   1.392   2.906   1.345
 2109TIP3    H2 6271   1.270   2.819   1.323
 2110TIP3   OH2 6272   4.729   2.490   3.239
 2110TIP3    H1 6273   4.645   2.527   3.213
 2110TIP3    H2 6274   4.792   2.531   3.179
 2111TIP3   OH2 6275   4.620   7.259   1.213
 2111TIP3    H1 6276   4.691   7.194   1.204
 2111TIP3    H2 6277   4.592   7.276   1.123
 2112TIP3   OH2 6278   6.223   2.995   1.592
 2112TIP3    H1 6279   6.272   3.004   1.674
 2112TIP3    H2 6280   6.286   3.018   1.523
 2113TIP3   OH2 6281   6.919   0.517   0.249
 2113TIP3    H1 6282   6.906   0.556   0.162
 2113TIP3    H2 6283   6.964   0.585   0.299
 2114TIP3   OH2 6284   5.369   7.256   2.862
 2114TIP3    H1 6285   5.457   7.288   2.840
 2114TIP3    H2 6286   5.319   7.264   2.781
 2115TIP3   OH2 6287   3.781   1.945   0.095
 2115TIP3    H1 6288   3.814   1.877   0.154
 2115TIP3    H2 6289   3.851   1.955   0.030
 2116TIP3   OH2 6290   5.087   4.166   4.747
 2116TIP3    H1 6291   5.059   4.233   4.684
 2116TIP3    H2 6292   5.183   4.170   4.744
 2117TIP3   OH2 6293   3.790   5.683   5.984
 2117TIP3    H1 6294   3.808   5.735   6.063
 2117TIP3    H2 6295   3.871   5.689   5.933
 2118TIP3   OH2 6296   6.273   3.179   5.699
 2118TIP3    H1 6297   6.222   3.184   5.618
 2118TIP3    H2 6298   6.267   3.268   5.735
 2119TIP3   OH2 6299   0.549   2.600   1.693
 2119TIP3    H1 6300   0.482   2.565   1.752
 2119TIP3    H2 6301   0.610   2.646   1.751
 2120TIP3   OH2 6302   0.633   6.382   5.073
 2120TIP3    H1 6303   0.663   6.324   5.142
 2120TIP3    H2 6304   0.541   6.399   5.092
 2121TIP3   OH2 6305   5.971   3.431   6.398
 2121TIP3    H1 6306   5.948   3.401   6.310
 2121TIP3    H2 6307   6.062   3.459   6.391
 2122TIP3   OH2 6308   6.405   0.690   3.828
 2122TIP3    H1 6309   6.475   0.641   3.786
 2122TIP3    H2 6310   6.376   0.635   3.900
 2123TIP3   OH2 6311   2.565   0.518   3.875
 2123TIP3    H1 6312   2.511   0.458   3.824
 2123TIP3    H2 6313   2.579   0.593   3.816
 2124TIP3   OH2 6314   1.699   4.850   3.260
 2124TIP3    H1 6315   1.693   4.916   3.329
 2124TIP3    H2 6316   1.747   4.893   3.189
 2125TIP3   OH2 6317   0.950   0.375   1.101
 2125TIP3    H1 6318   0.882   0.315   1.069
 2125TIP3    H2 6319   1.021   0.317   1.130
 2126TIP3   OH2 6320   4.255   6.289   6.602
 2126TIP3    H1 6321   4.275   6.383   6.603
 2126TIP3    H2 6322   4.316   6.253   6.538
 2127TIP3   OH2 6323   6.903   3.797   0.288
 2127TIP3    H1 6324   6.878   3.780   0.198
 2127TIP3    H2 6325   6.928   3.889   0.290
 2128TIP3   OH2 6326   3.308   0.391   2.712
 2128TIP3    H1 6327   3.238   0.358   2.656
 2128TIP3    H2 6328   3.283   0.482   2.729
 2129TIP3   OH2 6329   7.624   6.823   5.693
 2129TIP3    H1 6330   7.714   6.792   5.688
 2129TIP3    H2 6331   7.610   6.871   5.611
 2130TIP3   OH2 6332   4.069   5.702   3.556
 2130TIP3    H1 6333   4.118   5.773   3.598
 2130TIP3    H2 6334   4.137   5.644   3.521
 2131TIP3   OH2 6335   5.718   2.330   1.790
 2131TIP3    H1 6336   5.645   2.379   1.751
 2131TIP3    H2 6337   5.757   2.283   1.716
 2132TIP3   OH2 6338   5.477   4.475   2.137
 2132TIP3    H1 6339   5.461   4.398   2.191
 2132TIP3    H2 6340   5.392   4.494   2.098
 2133TIP3   OH2 6341   1.699   5.642   6.678
 2133TIP3    H1 6342   1.779   5.642   6.624
 2133TIP3    H2 6343   1.694   5.731   6.712
 2134TIP3   OH2 6344   7.357   4.403   1.412
 2134TIP3    H1 6345   7.271   4.443   1.428
 2134TIP3    H2 6346   7.386   4.375   1.499
 2135TIP3   OH2 6347   7.857   2.445   0.070
 2135TIP3    H1 6348   7.763   2.429   0.082
 2135TIP3    H2 6349   7.869   2.442  -0.024
 2136TIP3   OH2 6350   6.898   0.739   1.949
 2136TIP3    H1 6351   6.938   0.693   1.875
 2136TIP3    H2 6352   6.854   0.671   1.999
 2137TIP3   OH2 6353   2.824   1.264   0.078
 2137TIP3    H1 6354   2.862   1.177   0.071
 2137TIP3    H2 6355   2.854   1.309  -0.001
 2138TIP3   OH2 6356   0.725   2.813   1.787
 2138TIP3    H1 6357   0.818   2.837   1.785
 2138TIP3    H2 6358   0.681   2.891   1.821
 2139TIP3   OH2 6359   0.692   0.775   5.040
 2139TIP3    H1 6360   0.717   0.686   5.068
 2139TIP3    H2 6361   0.614   0.795   5.092
 2140TIP3   OH2 6362   0.293   6.413   0.525
 2140TIP3    H1 6363   0.380   6.454   0.534
 2140TIP3    H2 6364   0.306   6.323   0.555
 2141TIP3   OH2 6365   0.635   5.213   6.423
 2141TIP3    H1 6366   0.680   5.159   6.358
 2141TIP3    H2 6367   0.578   5.270   6.371
 2142TIP3   OH2 6368   2.146   3.412   5.027
 2142TIP3    H1 6369   2.097   3.450   5.100
 2142TIP3    H2 6370   2.080   3.370   4.972
 2143TIP3   OH2 6371   2.929   4.202   0.069
 2143TIP3    H1 6372   2.868   4.167   0.004
 2143TIP3    H2 6373   2.894   4.175   0.154
 2144TIP3   OH2 6374   1.056   4.050   0.187
 2144TIP3    H1 6375   1.124   3.985   0.206
 2144TIP3    H2 6376   1.066   4.070   0.094
 2145TIP3   OH2 6377   6.015   5.069   0.938
 2145TIP3    H1 6378   6.051   5.154   0.910
 2145TIP3    H2 6379   6.011   5.017   0.858
 2146TIP3   OH2 6380   3.352   6.732   2.305
 2146TIP3    H1 6381   3.278   6.676   2.279
 2146TIP3    H2 6382   3.417   6.719   2.236
 2147TIP3   OH2 6383   4.574   1.412   4.751
 2147TIP3    H1 6384   4.642   1.402   4.684
 2147TIP3    H2 6385   4.551   1.322   4.775
 2148TIP3   OH2 6386   5.448   6.903   1.982
 2148TIP3    H1 6387   5.409   6.905   1.895
 2148TIP3    H2 6388   5.521   6.965   1.977
 2149TIP3   OH2 6389   4.512   2.861   5.842
 2149TIP3    H1 6390   4.603   2.886   5.827
 2149TIP3    H2 6391   4.480   2.924   5.906
 2150TIP3   OH2 6392   4.229   3.648   2.844
 2150TIP3    H1 6393   4.246   3.612   2.757
 2150TIP3    H2 6394   4.198   3.737   2.827
 2151TIP3   OH2 6395   5.268   6.690   5.142
 2151TIP3    H1 6396   5.331   6.727   5.080
 2151TIP3    H2 6397   5.236   6.611   5.099
 2152TIP3   OH2 6398   1.015   6.253   3.843
 2152TIP3    H1 6399   1.109   6.243   3.824
 2152TIP3    H2 6400   0.972   6.243   3.759
 2153TIP3   OH2 6401   7.654   1.705   0.348
 2153TIP3    H1 6402   7.604   1.725   0.427
 2153TIP3    H2 6403   7.632   1.613   0.329
 2154TIP3   OH2 6404   1.541   0.672   2.549
 2154TIP3    H1 6405   1.477   0.705   2.612
 2154TIP3    H2 6406   1.578   0.750   2.508
 2155TIP3   OH2 6407   3.530   0.575   4.088
 2155TIP3    H1 6408   3.454   0.539   4.042
 2155TIP3    H2 6409   3.494   0.612   4.168
 2156TIP3   OH2 6410   3.067   6.680   0.621
 2156TIP3    H1 6411   3.131   6.643   0.561
 2156TIP3    H2 6412   3.114   6.750   0.666
 2157TIP3   OH2 6413   6.772   4.829   6.714
 2157TIP3    H1 6414   6.782   4.885   6.637
 2157TIP3    H2 6415   6.773   4.740   6.680
 2158TIP3   OH2 6416   0.314   4.477   5.257
 2158TIP3    H1 6417   0.246   4.525   5.209
 2158TIP3    H2 6418   0.384   4.465   5.193
 2159TIP3   OH2 6419   6.145   1.259   2.935
 2159TIP3    H1 6420   6.110   1.170   2.942
 2159TIP3    H2 6421   6.196   1.260   2.855
 2160TIP3   OH2 6422   4.259   0.504   2.427
 2160TIP3    H1 6423   4.282   0.562   2.499
 2160TIP3    H2 6424   4.283   0.553   2.348
 2161TIP3   OH2 6425   3.283   5.599   4.246
 2161TIP3    H1 6426   3.203   5.616   4.196
 2161TIP3    H2 6427   3.310   5.511   4.219
 2162TIP3   OH2 6428   1.137   3.357   4.289
 2162TIP3    H1 6429   1.125   3.323   4.378
 2162TIP3    H2 6430   1.213   3.309   4.255
 2163TIP3   OH2 6431   5.341   4.385   4.012
 2163TIP3    H1 6432   5.281   4.435   3.956
 2163TIP3    H2 6433   5.384   4.323   3.953
 2164TIP3   OH2 6434   7.660   2.665   1.070
 2164TIP3    H1 6435   7.742   2.650   1.024
 2164TIP3    H2 6436   7.681   2.733   1.134
 2165TIP3   OH2 6437   4.452   6.804   0.106
 2165TIP3    H1 6438   4.383   6.837   0.164
 2165TIP3    H2 6439   4.463   6.713   0.131
 2166TIP3   OH2 6440   6.533   0.157   3.821
 2166TIP3    H1 6441   6.458   0.208   3.791
 2166TIP3    H2 6442   6.592   0.222   3.859
 2167TIP3   OH2 6443   0.881   2.898   2.356
 2167TIP3    H1 6444   0.874   2.847   2.437
 2167TIP3    H2 6445   0.970   2.934   2.357
 2168TIP3   OH2 6446   7.042   7.400   3.305
 2168TIP3    H1 6447   6.965   7.377   3.357
 2168TIP3    H2 6448   7.075   7.316   3.273
 2169TIP3   OH2 6449   0.292   5.107   1.679
 2169TIP3    H1 6450   0.228   5.096   1.750
 2169TIP3    H2 6451   0.248   5.071   1.602
 2170TIP3   OH2 6452   6.333   7.692   1.862
 2170TIP3    H1 6453   6.328   7.639   1.783
 2170TIP3    H2 6454   6.427   7.708   1.875
 2171TIP3   OH2 6455   5.907   5.689   0.856
 2171TIP3    H1 6456   5.816   5.676   0.828
 2171TIP3    H2 6457   5.957   5.688   0.774
 2172TIP3   OH2 6458   1.648   0.656   1.462
 2172TIP3    H1 6459   1.655   0.720   1.534
 2172TIP3    H2 6460   1.704   0.584   1.489
 2173TIP3   OH2 6461   4.366   2.335   1.072
 2173TIP3    H1 6462   4.417   2.387   1.010
 2173TIP3    H2 6463   4.295   2.298   1.021
 2174TIP3   OH2 6464   7.213   2.032   5.954
 2174TIP3    H1 6465   7.226   1.954   6.006
 2174TIP3    H2 6466   7.205   2.103   6.018
 2175TIP3   OH2 6467   3.406   2.170   3.366
 2175TIP3    H1 6468   3.445   2.083   3.359
 2175TIP3    H2 6469   3.481   2.230   3.360
 2176TIP3   OH2 6470   8.295   5.572   0.969
 2176TIP3    H1 6471   8.312   5.508   1.038
 2176TIP3    H2 6472   8.214   5.615   0.997
 2177TIP3   OH2 6473   2.168   6.927   1.159
 2177TIP3    H1 6474   2.091   6.973   1.125
 2177TIP3    H2 6475   2.157   6.837   1.130
 2178TIP3   OH2 6476   4.963   2.226   1.864
 2178TIP3    H1 6477   5.059   2.226   1.866
 2178TIP3    H2 6478   4.937   2.223   1.956
 2179TIP3   OH2 6479   5.255   3.756   1.415
 2179TIP3    H1 6480   5.304   3.753   1.333
 2179TIP3    H2 6481   5.313   3.801   1.476
 2180TIP3   OH2 6482   7.011   7.154   6.130
 2180TIP3    H1 6483   6.936   7.160   6.189
 2180TIP3    H2 6484   6.991   7.080   6.073
 2181TIP3   OH2 6485   3.946   1.620   1.751
 2181TIP3    H1 6486   3.865   1.615   1.700
 2181TIP3    H2 6487   3.982   1.706   1.731
 2182TIP3   OH2 6488   3.542   3.599   6.189
 2182TIP3    H1 6489   3.525   3.596   6.095
 2182TIP3    H2 6490   3.566   3.509   6.211
 2183TIP3   OH2 6491   0.496   4.883   2.842
 2183TIP3    H1 6492   0.529   4.919   2.760
 2183TIP3    H2 6493   0.538   4.935   2.910
 2184TIP3   OH2 6494   0.904   2.983   0.157
 2184TIP3    H1 6495   0.897   2.984   0.062
 2184TIP3    H2 6496   0.997   2.993   0.174
 2185TIP3   OH2 6497   0.243   1.120   5.120
 2185TIP3    H1 6498   0.326   1.148   5.159
 2185TIP3    H2 6499   0.269   1.062   5.048
 2186TIP3   OH2 6500   5.804   5.410   4.807
 2186TIP3    H1 6501   5.890   5.446   4.787
 2186TIP3    H2 6502   5.743   5.456   4.749
 2187TIP3   OH2 6503   4.914   2.627   5.195
 2187TIP3    H1 6504   4.990   2.637   5.138
 2187TIP3    H2 6505   4.901   2.714   5.232
 2188TIP3   OH2 6506   1.620   0.995   3.663
 2188TIP3    H1 6507   1.532   1.032   3.669
 2188TIP3    H2 6508   1.610   0.920   3.604
 2189TIP3   OH2 6509   4.927   0.938   1.742
 2189TIP3    H1 6510   4.940   0.919   1.836
 2189TIP3    H2 6511   4.843   0.897   1.721
 2190TIP3   OH2 6512   5.742   0.898   5.377
 2190TIP3    H1 6513   5.650   0.877   5.363
 2190TIP3    H2 6514   5.782   0.815   5.403
 2191TIP3   OH2 6515   0.511   0.574   3.232
 2191TIP3    H1 6516   0.462   0.631   3.172
 2191TIP3    H2 6517   0.481   0.486   3.212
 2192TIP3   OH2 6518   2.958   7.422   4.829
 2192TIP3    H1 6519   2.936   7.457   4.742
 2192TIP3    H2 6520   2.886   7.362   4.849
 2193TIP3   OH2 6521   3.520   7.116   3.581
 2193TIP3    H1 6522   3.471   7.062   3.643
 2193TIP3    H2 6523   3.488   7.088   3.495
 2194TIP3   OH2 6524   8.286   4.297   5.044
 2194TIP3    H1 6525   8.202   4.273   5.004
 2194TIP3    H2 6526   8.269   4.298   5.138
 2195TIP3   OH2 6527   5.945   1.838   4.551
 2195TIP3    H1 6528   6.035   1.869   4.549
 2195TIP3    H2 6529   5.892   1.916   4.533
 2196TIP3   OH2 6530   6.039   6.207   1.065
 2196TIP3    H1 6531   5.959   6.253   1.091
 2196TIP3    H2 6532   6.091   6.274   1.021
 2197TIP3   OH2 6533   7.411   2.288   3.711
 2197TIP3    H1 6534   7.447   2.375   3.727
 2197TIP3    H2 6535   7.478   2.228   3.745
 2198TIP3   OH2 6536   2.207   5.008   2.091
 2198TIP3    H1 6537   2.284   4.990   2.038
 2198TIP3    H2 6538   2.212   5.101   2.110
 2199TIP3   OH2 6539   2.850   2.920   3.321
 2199TIP3    H1 6540   2.859   3.014   3.309
 2199TIP3    H2 6541   2.820   2.909   3.411
 2200TIP3   OH2 6542   7.106   4.502   3.134
 2200TIP3    H1 6543   7.053   4.541   3.203
 2200TIP3    H2 6544   7.057   4.518   3.053
 2201TIP3   OH2 6545   6.244   5.599   2.344
 2201TIP3    H1 6546   6.291   5.658   2.403
 2201TIP3    H2 6547   6.212   5.655   2.274
 2202TIP3   OH2 6548   7.774   0.000   4.383
 2202TIP3    H1 6549   7.856   0.040   4.414
 2202TIP3    H2 6550   7.734   0.068   4.329
 2203TIP3   OH2 6551   4.384   6.973   2.054
 2203TIP3    H1 6552   4.322   6.959   2.125
 2203TIP3    H2 6553   4.353   6.915   1.984
 2204TIP3   OH2 6554   8.020   6.727   0.877
 2204TIP3    H1 6555   7.994   6.789   0.945
 2204TIP3    H2 6556   7.939   6.682   0.853
 2205TIP3   OH2 6557   7.633   3.294   5.896
 2205TIP3    H1 6558   7.586   3.307   5.814
 2205TIP3    H2 6559   7.721   3.268   5.869
 2206TIP3   OH2 6560   1.287   3.757   6.018
 2206TIP3    H1 6561   1.310   3.688   6.080
 2206TIP3    H2 6562   1.371   3.782   5.979
 2207TIP3   OH2 6563   0.093   3.893   0.275
 2207TIP3    H1 6564   0.075   3.858   0.187
 2207TIP3    H2 6565   0.174   3.943   0.264
 2208TIP3   OH2 6566   4.956   0.145   3.831
 2208TIP3    H1 6567   4.947   0.094   3.911
 2208TIP3    H2 6568   5.012   0.092   3.775
 2209TIP3   OH2 6569   3.521   7.032   4.880
 2209TIP3    H1 6570   3.599   6.992   4.842
 2209TIP3    H2 6571   3.539   7.126   4.877
 2210TIP3   OH2 6572   5.994   7.173   4.236
 2210TIP3    H1 6573   5.916   7.171   4.180
 2210TIP3    H2 6574   5.958   7.178   4.325
 2211TIP3   OH2 6575   4.572   3.840   5.041
 2211TIP3    H1 6576   4.664   3.815   5.036
 2211TIP3    H2 6577   4.567   3.900   5.115
 2212TIP3   OH2 6578   7.022   1.204   1.544
 2212TIP3    H1 6579   7.100   1.153   1.521
 2212TIP3    H2 6580   6.951   1.164   1.493
 2213TIP3   OH2 6581   4.229   0.119   1.206
 2213TIP3    H1 6582   4.243   0.041   1.153
 2213TIP3    H2 6583   4.151   0.160   1.167
 2214TIP3   OH2 6584   3.835   4.749   0.329
 2214TIP3    H1 6585   3.855   4.671   0.382
 2214TIP3    H2 6586   3.880   4.820   0.374
 2215TIP3   OH2 6587   5.965   2.213   0.330
 2215TIP3    H1 6588   5.983   2.225   0.237
 2215TIP3    H2 6589   5.962   2.118   0.341
 2216TIP3   OH2 6590   1.366   5.113   3.889
 2216TIP3    H1 6591   1.301   5.160   3.941
 2216TIP3    H2 6592   1.355   5.147   3.800
 2217TIP3   OH2 6593   6.899   0.207   5.976
 2217TIP3    H1 6594   6.971   0.155   6.012
 2217TIP3    H2 6595   6.820   0.167   6.011
 2218TIP3   OH2 6596   2.442   2.243   2.737
 2218TIP3    H1 6597   2.487   2.227   2.820
 2218TIP3    H2 6598   2.461   2.165   2.684
 2219TIP3   OH2 6599   5.542   7.522   1.075
 2219TIP3    H1 6600   5.612   7.542   1.138
 2219TIP3    H2 6601   5.582   7.461   1.013
 2220TIP3   OH2 6602   7.720   7.653   0.015
 2220TIP3    H1 6603   7.728   7.558   0.003
 2220TIP3    H2 6604   7.736   7.690  -0.071
 2221TIP3   OH2 6605   5.801   5.103   3.480
 2221TIP3    H1 6606   5.884   5.056   3.483
 2221TIP3    H2 6607   5.798   5.140   3.391
 2222TIP3   OH2 6608   3.346   5.537   1.408
 2222TIP3    H1 6609   3.420   5.517   1.351
 2222TIP3    H2 6610   3.288   5.462   1.400
 2223TIP3   OH2 6611   5.158   1.618   3.653
 2223TIP3    H1 6612   5.180   1.663   3.734
 2223TIP3    H2 6613   5.064   1.600   3.659
 2224TIP3   OH2 6614   7.441   2.712   5.529
 2224TIP3    H1 6615   7.477   2.686   5.444
 2224TIP3    H2 6616   7.370   2.772   5.507
 2225TIP3   OH2 6617   3.167   2.333   5.603
 2225TIP3    H1 6618   3.246   2.279   5.595
 2225TIP3    H2 6619   3.114   2.309   5.527
 2226TIP3   OH2 6620   4.767   2.838   0.808
 2226TIP3    H1 6621   4.728   2.827   0.895
 2226TIP3    H2 6622   4.847   2.889   0.824
 2227TIP3   OH2 6623   3.178   0.122   1.444
 2227TIP3    H1 6624   3.221   0.042   1.414
 2227TIP3    H2 6625   3.247   0.189   1.441
 2228TIP3   OH2 6626   3.397   3.994   1.014
 2228TIP3    H1 6627   3.307   4.003   1.045
 2228TIP3    H2 6628   3.406   4.062   0.947
 2229TIP3   OH2 6629   1.307   7.121   6.308
 2229TIP3    H1 6630   1.316   7.072   6.390
 2229TIP3    H2 6631   1.331   7.211   6.332
 2230TIP3   OH2 6632   4.689   5.599   4.359
 2230TIP3    H1 6633   4.635   5.615   4.282
 2230TIP3    H2 6634   4.652   5.655   4.427
 2231TIP3   OH2 6635   1.279   0.355   0.465
 2231TIP3    H1 6636   1.268   0.376   0.372
 2231TIP3    H2 6637   1.276   0.440   0.509
 2232TIP3   OH2 6638   1.031   2.092   5.455
 2232TIP3    H1 6639   1.033   2.107   5.549
 2232TIP3    H2 6640   1.098   2.025   5.440
 2233TIP3   OH2 6641   5.575   5.121   3.062
 2233TIP3    H1 6642   5.550   5.076   2.982
 2233TIP3    H2 6643   5.499   5.113   3.119
 2234TIP3   OH2 6644   5.303   0.559   5.270
 2234TIP3    H1 6645   5.375   0.544   5.208
 2234TIP3    H2 6646   5.280   0.472   5.303
 2235TIP3   OH2 6647   1.004   0.060   3.084
 2235TIP3    H1 6648   1.054   0.010   3.149
 2235TIP3    H2 6649   1.055   0.140   3.072
 2236TIP3   OH2 6650   7.425   0.671   3.913
 2236TIP3    H1 6651   7.336   0.690   3.942
 2236TIP3    H2 6652   7.477   0.668   3.994
 2237TIP3   OH2 6653   3.688   6.413   3.973
 2237TIP3    H1 6654   3.612   6.359   3.951
 2237TIP3    H2 6655   3.662   6.459   4.052
 2238TIP3   OH2 6656   4.888   1.552   3.732
 2238TIP3    H1 6657   4.796   1.534   3.711
 2238TIP3    H2 6658   4.889   1.560   3.827
 2239TIP3   OH2 6659   1.752   6.554   4.465
 2239TIP3    H1 6660   1.667   6.560   4.423
 2239TIP3    H2 6661   1.814   6.589   4.401
 2240TIP3   OH2 6662   3.497   1.357   4.178
 2240TIP3    H1 6663   3.587   1.342   4.208
 2240TIP3    H2 6664   3.463   1.270   4.159
 2241TIP3   OH2 6665   8.243   4.774   0.511
 2241TIP3    H1 6666   8.253   4.864   0.543
 2241TIP3    H2 6667   8.306   4.723   0.561
 2242TIP3   OH2 6668   7.823   7.542   2.995
 2242TIP3    H1 6669   7.854   7.547   2.904
 2242TIP3    H2 6670   7.730   7.521   2.987
 2243TIP3   OH2 6671   7.592   6.246   2.712
 2243TIP3    H1 6672   7.572   6.261   2.805
 2243TIP3    H2 6673   7.667   6.303   2.694
 2244TIP3   OH2 6674   6.933   0.513   4.772
 2244TIP3    H1 6675   6.985   0.573   4.825
 2244TIP3    H2 6676   6.958   0.532   4.682
 2245TIP3   OH2 6677   4.305   3.124   3.142
 2245TIP3    H1 6678   4.269   3.184   3.076
 2245TIP3    H2 6679   4.325   3.044   3.094
 2246TIP3   OH2 6680   5.802   0.759   6.310
 2246TIP3    H1 6681   5.712   0.743   6.339
 2246TIP3    H2 6682   5.848   0.676   6.325
 2247TIP3   OH2 6683   2.113   3.596   1.229
 2247TIP3    H1 6684   2.185   3.538   1.203
 2247TIP3    H2 6685   2.042   3.574   1.169
 2248TIP3   OH2 6686   1.666   1.628   1.198
 2248TIP3    H1 6687   1.613   1.627   1.119
 2248TIP3    H2 6688   1.747   1.583   1.174
 2249TIP3   OH2 6689   3.588   5.064   2.158
 2249TIP3    H1 6690   3.622   5.042   2.244
 2249TIP3    H2 6691   3.660   5.109   2.114
 2250TIP3   OH2 6692   2.628   1.240   0.251
 2250TIP3    H1 6693   2.580   1.166   0.214
 2250TIP3    H2 6694   2.708   1.244   0.200
 2251TIP3   OH2 6695   1.860   3.050   2.869
 2251TIP3    H1 6696   1.835   3.138   2.841
 2251TIP3    H2 6697   1.947   3.061   2.907
 2252TIP3   OH2 6698   1.651   7.402   5.671
 2252TIP3    H1 6699   1.557   7.422   5.672
 2252TIP3    H2 6700   1.678   7.420   5.581
 2253TIP3   OH2 6701   6.951   5.577   5.529
 2253TIP3    H1 6702   7.034   5.529   5.522
 2253TIP3    H2 6703   6.949   5.632   5.450
 2254TIP3   OH2 6704   2.116   5.307   6.229
 2254TIP3    H1 6705   2.197   5.304   6.179
 2254TIP3    H2 6706   2.077   5.392   6.208
 2255TIP3   OH2 6707   4.325   3.271   2.585
 2255TIP3    H1 6708   4.350   3.192   2.538
 2255TIP3    H2 6709   4.233   3.258   2.606
 2256TIP3   OH2 6710   2.539   0.738   6.554
 2256TIP3    H1 6711   2.514   0.646   6.565
 2256TIP3    H2 6712   2.521   0.757   6.462
 2257TIP3   OH2 6713   5.207   2.109   4.351
 2257TIP3    H1 6714   5.301   2.094   4.347
 2257TIP3    H2 6715   5.172   2.067   4.273
 2258TIP3   OH2 6716   4.014   5.380   3.099
 2258TIP3    H1 6717   3.960   5.303   3.114
 2258TIP3    H2 6718   4.075   5.353   3.029
 2259TIP3   OH2 6719   1.163   2.705   3.189
 2259TIP3    H1 6720   1.143   2.731   3.279
 2259TIP3    H2 6721   1.143   2.783   3.137
 2260TIP3   OH2 6722   5.863   0.427   0.119
 2260TIP3    H1 6723   5.907   0.366   0.177
 2260TIP3    H2 6724   5.923   0.440   0.046
 2261TIP3   OH2 6725   5.004   5.879   4.456
 2261TIP3    H1 6726   4.959   5.864   4.539
 2261TIP3    H2 6727   5.090   5.912   4.481
 2262TIP3   OH2 6728   3.766   6.070   1.173
 2262TIP3    H1 6729   3.692   6.119   1.137
 2262TIP3    H2 6730   3.736   5.979   1.172
 2263TIP3   OH2 6731   1.274   0.768   6.230
 2263TIP3    H1 6732   1.188   0.799   6.202
 2263TIP3    H2 6733   1.255   0.704   6.298
 2264TIP3   OH2 6734   3.826   3.137   4.822
 2264TIP3    H1 6735   3.754   3.076   4.837
 2264TIP3    H2 6736   3.850   3.123   4.730
 2265TIP3   OH2 6737   6.606   7.122   0.667
 2265TIP3    H1 6738   6.695   7.153   0.684
 2265TIP3    H2 6739   6.610   7.028   0.683
 2266TIP3   OH2 6740   5.056   6.157   4.287
 2266TIP3    H1 6741   5.048   6.207   4.206
 2266TIP3    H2 6742   5.029   6.068   4.262
 2267TIP3   OH2 6743   5.417   1.183   4.413
 2267TIP3    H1 6744   5.350   1.193   4.481
 2267TIP3    H2 6745   5.484   1.128   4.454
 2268TIP3   OH2 6746   2.167   7.021   3.895
 2268TIP3    H1 6747   2.097   7.027   3.959
 2268TIP3    H2 6748   2.242   6.988   3.944
 2269TIP3   OH2 6749   1.179   7.613   0.365
 2269TIP3    H1 6750   1.109   7.575   0.419
 2269TIP3    H2 6751   1.143   7.697   0.336
 2270TIP3   OH2 6752   2.988   0.839   5.130
 2270TIP3    H1 6753   2.922   0.771   5.145
 2270TIP3    H2 6754   3.071   0.793   5.136
 2271TIP3   OH2 6755   8.298   6.655   5.405
 2271TIP3    H1 6756   8.308   6.741   5.446
 2271TIP3    H2 6757   8.218   6.663   5.353
 2272TIP3   OH2 6758   2.623   7.189   2.027
 2272TIP3    H1 6759   2.708   7.179   2.071
 2272TIP3    H2 6760   2.559   7.163   2.093
 2273TIP3   OH2 6761   3.189   3.551   1.061
 2273TIP3    H1 6762   3.101   3.540   1.098
 2273TIP3    H2 6763   3.212   3.465   1.028
 2274TIP3   OH2 6764   7.055   6.383   2.881
 2274TIP3    H1 6765   7.035   6.306   2.829
 2274TIP3    H2 6766   6.974   6.433   2.883
 2275TIP3   OH2 6767   2.588   1.890   3.080
 2275TIP3    H1 6768   2.632   1.805   3.088
 2275TIP3    H2 6769   2.633   1.946   3.145
 2276TIP3   OH2 6770   2.449   6.771   2.511
 2276TIP3    H1 6771   2.487   6.729   2.434
 2276TIP3    H2 6772   2.355   6.756   2.503
 2277TIP3   OH2 6773   3.773   2.983   0.395
 2277TIP3    H1 6774   3.823   2.914   0.438
 2277TIP3    H2 6775   3.685   2.977   0.433
 2278TIP3   OH2 6776   2.415   4.802   1.023
 2278TIP3    H1 6777   2.470   4.807   0.944
 2278TIP3    H2 6778   2.451   4.869   1.081
 2279TIP3   OH2 6779   6.236   2.575   2.016
 2279TIP3    H1 6780   6.169   2.599   2.080
 2279TIP3    H2 6781   6.249   2.655   1.964
 2280TIP3   OH2 6782   2.051   5.987   6.373
 2280TIP3    H1 6783   2.013   5.977   6.286
 2280TIP3    H2 6784   2.142   6.011   6.358
 2281TIP3   OH2 6785   0.335   7.167   4.513
 2281TIP3    H1 6786   0.252   7.127   4.538
 2281TIP3    H2 6787   0.389   7.163   4.593
 2282TIP3   OH2 6788   1.909   7.237   0.753
 2282TIP3    H1 6789   1.850   7.306   0.785
 2282TIP3    H2 6790   1.900   7.166   0.817
 2283TIP3   OH2 6791   1.070   0.612   4.810
 2283TIP3    H1 6792   1.036   0.525   4.829
 2283TIP3    H2 6793   1.151   0.596   4.762
 2284TIP3   OH2 6794   2.969   2.985   3.042
 2284TIP3    H1 6795   3.057   2.965   3.010
 2284TIP3    H2 6796   2.919   3.002   2.962
 2285TIP3   OH2 6797   7.088   0.672   5.217
 2285TIP3    H1 6798   7.163   0.695   5.162
 2285TIP3    H2 6799   7.035   0.751   5.220
 2286TIP3   OH2 6800   4.468   1.927   5.957
 2286TIP3    H1 6801   4.512   1.842   5.968
 2286TIP3    H2 6802   4.441   1.928   5.865
 2287TIP3   OH2 6803   3.007   0.217   3.431
 2287TIP3    H1 6804   2.930   0.263   3.398
 2287TIP3    H2 6805   3.021   0.146   3.368
 2288TIP3   OH2 6806   6.096   5.424   2.522
 2288TIP3    H1 6807   6.163   5.466   2.468
 2288TIP3    H2 6808   6.108   5.461   2.609
 2289TIP3   OH2 6809   7.870   4.759   4.673
 2289TIP3    H1 6810   7.792   4.774   4.725
 2289TIP3    H2 6811   7.868   4.665   4.654
 2290TIP3   OH2 6812   6.992   5.750   1.510
 2290TIP3    H1 6813   7.027   5.696   1.581
 2290TIP3    H2 6814   6.932   5.691   1.463
 2291TIP3   OH2 6815   6.133   7.283   1.819
 2291TIP3    H1 6816   6.067   7.329   1.871
 2291TIP3    H2 6817   6.179   7.227   1.881
 2292TIP3   OH2 6818   6.244   7.637   3.440
 2292TIP3    H1 6819   6.282   7.604   3.359
 2292TIP3    H2 6820   6.261   7.568   3.504
 2293TIP3   OH2 6821   0.453   1.566   0.785
 2293TIP3    H1 6822   0.386   1.629   0.809
 2293TIP3    H2 6823   0.491   1.538   0.868
 2294TIP3   OH2 6824   7.491   5.296   2.774
 2294TIP3    H1 6825   7.561   5.358   2.752
 2294TIP3    H2 6826   7.497   5.286   2.869
 2295TIP3   OH2 6827   5.782   2.922   2.800
 2295TIP3    H1 6828   5.707   2.935   2.742
 2295TIP3    H2 6829   5.790   3.005   2.847
 2296TIP3   OH2 6830   2.006   1.726   2.260
 2296TIP3    H1 6831   1.960   1.660   2.313
 2296TIP3    H2 6832   2.094   1.690   2.249
 2297TIP3   OH2 6833   5.238   4.088   0.897
 2297TIP3    H1 6834   5.218   4.176   0.865
 2297TIP3    H2 6835   5.218   4.030   0.823
 2298TIP3   OH2 6836   7.057   3.078   5.562
 2298TIP3    H1 6837   6.969   3.097   5.596
 2298TIP3    H2 6838   7.056   2.984   5.543
 2299TIP3   OH2 6839   8.302   4.252   4.171
 2299TIP3    H1 6840   8.214   4.227   4.197
 2299TIP3    H2 6841   8.307   4.231   4.078
 2300TIP3   OH2 6842   2.634   3.567   4.592
 2300TIP3    H1 6843   2.719   3.527   4.608
 2300TIP3    H2 6844   2.587   3.501   4.540
 2301TIP3   OH2 6845   3.843   4.158   6.582
 2301TIP3    H1 6846   3.793   4.078   6.569
 2301TIP3    H2 6847   3.794   4.225   6.533
 2302TIP3   OH2 6848   2.312   2.061   1.026
 2302TIP3    H1 6849   2.346   2.116   1.096
 2302TIP3    H2 6850   2.332   2.110   0.946
 2303TIP3   OH2 6851   2.694   3.213   1.367
 2303TIP3    H1 6852   2.671   3.303   1.342
 2303TIP3    H2 6853   2.734   3.176   1.288
 2304TIP3   OH2 6854   0.170   1.494   3.742
 2304TIP3    H1 6855   0.140   1.559   3.678
 2304TIP3    H2 6856   0.102   1.427   3.741
 2305TIP3   OH2 6857   7.040   7.763   3.775
 2305TIP3    H1 6858   7.001   7.759   3.688
 2305TIP3    H2 6859   7.096   7.840   3.773
 2306TIP3   OH2 6860   6.992   6.995   2.233
 2306TIP3    H1 6861   6.927   7.066   2.231
 2306TIP3    H2 6862   6.978   6.953   2.318
 2307TIP3   OH2 6863   0.052   7.498   0.133
 2307TIP3    H1 6864   0.144   7.524   0.133
 2307TIP3    H2 6865   0.013   7.548   0.061
 2308TIP3   OH2 6866   5.671   5.465   1.094
 2308TIP3    H1 6867   5.600   5.524   1.118
 2308TIP3    H2 6868   5.663   5.392   1.155
 2309TIP3   OH2 6869   5.907   6.209   4.697
 2309TIP3    H1 6870   5.996   6.231   4.671
 2309TIP3    H2 6871   5.883   6.277   4.760
 2310TIP3   OH2 6872   2.891   3.948   4.554
 2310TIP3    H1 6873   2.881   4.040   4.530
 2310TIP3    H2 6874   2.974   3.922   4.514
 2311TIP3   OH2 6875   2.216   2.971   1.538
 2311TIP3    H1 6876   2.182   3.060   1.547
 2311TIP3    H2 6877   2.194   2.929   1.621
 2312TIP3   OH2 6878   4.155   4.521   6.072
 2312TIP3    H1 6879   4.190   4.472   5.998
 2312TIP3    H2 6880   4.094   4.461   6.114
 2313TIP3   OH2 6881   3.628   0.864   2.894
 2313TIP3    H1 6882   3.566   0.907   2.952
 2313TIP3    H2 6883   3.669   0.935   2.845
 2314TIP3   OH2 6884   1.209   4.973   4.176
 2314TIP3    H1 6885   1.128   5.009   4.142
 2314TIP3    H2 6886   1.243   5.041   4.234
 2315TIP3   OH2 6887   2.164   2.125   0.337
 2315TIP3    H1 6888   2.183   2.218   0.325
 2315TIP3    H2 6889   2.176   2.087   0.250
 2316TIP3   OH2 6890   6.830   5.821   2.207
 2316TIP3    H1 6891   6.806   5.846   2.118
 2316TIP3    H2 6892   6.924   5.838   2.213
 2317TIP3   OH2 6893   5.939   5.121   5.475
 2317TIP3    H1 6894   5.958   5.210   5.445
 2317TIP3    H2 6895   6.014   5.070   5.446
 2318TIP3   OH2 6896   2.443   3.375   2.784
 2318TIP3    H1 6897   2.376   3.435   2.818
 2318TIP3    H2 6898   2.426   3.370   2.690
 2319TIP3   OH2 6899   2.442   0.489   6.660
 2319TIP3    H1 6900   2.367   0.453   6.709
 2319TIP3    H2 6901   2.506   0.511   6.727
 2320TIP3   OH2 6902   7.185   5.093   5.089
 2320TIP3    H1 6903   7.234   5.123   5.166
 2320TIP3    H2 6904   7.103   5.144   5.093
 2321TIP3   OH2 6905   0.818   0.143   5.121
 2321TIP3    H1 6906   0.771   0.158   5.040
 2321TIP3    H2 6907   0.881   0.074   5.100
 2322TIP3   OH2 6908   3.744   5.579   6.632
 2322TIP3    H1 6909   3.709   5.537   6.553
 2322TIP3    H2 6910   3.695   5.661   6.640
 2323TIP3   OH2 6911   6.564   1.907   6.020
 2323TIP3    H1 6912   6.517   1.961   5.956
 2323TIP3    H2 6913   6.587   1.968   6.090
 2324TIP3   OH2 6914   3.763   6.639   3.793
 2324TIP3    H1 6915   3.722   6.560   3.829
 2324TIP3    H2 6916   3.789   6.690   3.870
 2325TIP3   OH2 6917   2.943   0.780   4.230
 2325TIP3    H1 6918   2.911   0.692   4.211
 2325TIP3    H2 6919   2.888   0.837   4.176
 2326TIP3   OH2 6920   6.869   7.525   3.569
 2326TIP3    H1 6921   6.856   7.489   3.657
 2326TIP3    H2 6922   6.854   7.452   3.510
 2327TIP3   OH2 6923   5.642   1.650   1.352
 2327TIP3    H1 6924   5.570   1.587   1.358
 2327TIP3    H2 6925   5.710   1.614   1.408
 2328TIP3   OH2 6926   1.555   0.650   4.369
 2328TIP3    H1 6927   1.647   0.639   4.392
 2328TIP3    H2 6928   1.542   0.745   4.366
 2329TIP3   OH2 6929   6.648   1.896   6.619
 2329TIP3    H1 6930   6.691   1.834   6.678
 2329TIP3    H2 6931   6.650   1.853   6.533
 2330TIP3   OH2 6932   0.133   2.678   0.537
 2330TIP3    H1 6933   0.213   2.691   0.486
 2330TIP3    H2 6934   0.140   2.588   0.570
 2331TIP3   OH2 6935   7.536   2.223   5.823
 2331TIP3    H1 6936   7.593   2.179   5.886
 2331TIP3    H2 6937   7.468   2.159   5.802
 2332TIP3   OH2 6938   0.164   3.848   2.606
 2332TIP3    H1 6939   0.122   3.765   2.626
 2332TIP3    H2 6940   0.185   3.843   2.513
 2333TIP3   OH2 6941   0.049   2.788   3.079
 2333TIP3    H1 6942   0.018   2.701   3.105
 2333TIP3    H2 6943   0.142   2.788   3.101
 2334TIP3   OH2 6944   6.640   1.315   5.169
 2334TIP3    H1 6945   6.669   1.323   5.078
 2334TIP3    H2 6946   6.571   1.381   5.179
 2335TIP3   OH2 6947   3.084   4.574   3.607
 2335TIP3    H1 6948   3.152   4.512   3.581
 2335TIP3    H2 6949   3.031   4.525   3.671
 2336TIP3   OH2 6950   0.104   5.429   4.082
 2336TIP3    H1 6951   0.090   5.411   3.989
 2336TIP3    H2 6952   0.195   5.460   4.086
 2337TIP3   OH2 6953   6.587   3.213   0.737
 2337TIP3    H1 6954   6.623   3.164   0.663
 2337TIP3    H2 6955   6.642   3.292   0.743
 2338TIP3   OH2 6956   2.459   6.199   3.842
 2338TIP3    H1 6957   2.398   6.157   3.781
 2338TIP3    H2 6958   2.445   6.153   3.925
 2339TIP3   OH2 6959   6.781   6.225   5.590
 2339TIP3    H1 6960   6.836   6.206   5.666
 2339TIP3    H2 6961   6.786   6.320   5.580
 2340TIP3   OH2 6962   7.553   4.511   4.448
 2340TIP3    H1 6963   7.515   4.546   4.367
 2340TIP3    H2 6964   7.561   4.587   4.505
 2341TIP3   OH2 6965   5.946   1.008   1.738
 2341TIP3    H1 6966   5.996   0.985   1.817
 2341TIP3    H2 6967   6.013   1.024   1.671
 2342TIP3   OH2 6968   2.863   3.397   2.901
 2342TIP3    H1 6969   2.952   3.367   2.917
 2342TIP3    H2 6970   2.857   3.408   2.806
 2343TIP3   OH2 6971   1.578   1.354   1.045
 2343TIP3    H1 6972   1.624   1.320   1.121
 2343TIP3    H2 6973   1.639   1.343   0.972
 2344TIP3   OH2 6974   2.424   1.334   1.278
 2344TIP3    H1 6975   2.359   1.291   1.334
 2344TIP3    H2 6976   2.392   1.424   1.271
 2345TIP3   OH2 6977   2.911   2.101   1.912
 2345TIP3    H1 6978   2.863   2.183   1.922
 2345TIP3    H2 6979   2.853   2.045   1.861
 2346TIP3   OH2 6980   1.247   6.482   4.702
 2346TIP3    H1 6981   1.330   6.530   4.709
 2346TIP3    H2 6982   1.267   6.408   4.644
 2347TIP3   OH2 6983   1.858   7.032   2.497
 2347TIP3    H1 6984   1.863   6.956   2.439
 2347TIP3    H2 6985   1.786   7.012   2.557
 2348TIP3   OH2 6986   1.572   4.322   2.246
 2348TIP3    H1 6987   1.480   4.296   2.248
 2348TIP3    H2 6988   1.615   4.252   2.198
 2349TIP3   OH2 6989   5.743   1.713   0.081
 2349TIP3    H1 6990   5.837   1.724   0.095
 2349TIP3    H2 6991   5.728   1.620   0.094
 2350TIP3   OH2 6992   7.189   7.372   4.049
 2350TIP3    H1 6993   7.263   7.389   4.108
 2350TIP3    H2 6994   7.113   7.366   4.107
 2351TIP3   OH2 6995   0.768   7.467   2.455
 2351TIP3    H1 6996   0.823   7.543   2.474
 2351TIP3    H2 6997   0.817   7.417   2.389
 2352TIP3   OH2 6998   5.478   0.478   6.238
 2352TIP3    H1 6999   5.518   0.513   6.158
 2352TIP3    H2 7000   5.479   0.383   6.226
 2353TIP3   OH2 7001   5.336   7.708   3.607
 2353TIP3    H1 7002   5.298   7.635   3.557
 2353TIP3    H2 7003   5.399   7.666   3.666
 2354TIP3   OH2 7004   7.841   5.991   4.624
 2354TIP3    H1 7005   7.805   6.079   4.614
 2354TIP3    H2 7006   7.824   5.968   4.716
 2355TIP3   OH2 7007   7.640   1.562   2.005
 2355TIP3    H1 7008   7.559   1.547   1.956
 2355TIP3    H2 7009   7.706   1.510   1.960
 2356TIP3   OH2 7010   0.259   3.585   0.331
 2356TIP3    H1 7011   0.298   3.598   0.244
 2356TIP3    H2 7012   0.238   3.492   0.334
 2357TIP3   OH2 7013   4.902   5.330   4.117
 2357TIP3    H1 7014   4.926   5.349   4.027
 2357TIP3    H2 7015   4.984   5.338   4.166
 2358TIP3   OH2 7016   6.332   5.673   4.313
 2358TIP3    H1 7017   6.277   5.733   4.264
 2358TIP3    H2 7018   6.276   5.641   4.384
 2359TIP3   OH2 7019   4.556   4.091   2.628
 2359TIP3    H1 7020   4.549   4.128   2.540
 2359TIP3    H2 7021   4.589   4.002   2.615
 2360TIP3   OH2 7022   0.009   4.371   6.685
 2360TIP3    H1 7023   0.098   4.374   6.649
 2360TIP3    H2 7024   0.020   4.395   6.777
 2361TIP3   OH2 7025   3.868   1.663   2.533
 2361TIP3    H1 7026   3.812   1.716   2.476
 2361TIP3    H2 7027   3.885   1.583   2.483
 2362TIP3   OH2 7028   0.298   7.762   4.608
 2362TIP3    H1 7029   0.242   7.796   4.538
 2362TIP3    H2 7030   0.243   7.764   4.686
 2363TIP3   OH2 7031   2.558   0.666   3.161
 2363TIP3    H1 7032   2.488   0.604   3.143
 2363TIP3    H2 7033   2.558   0.675   3.256
 2364TIP3   OH2 7034   0.937   5.850   4.734
 2364TIP3    H1 7035   0.979   5.928   4.771
 2364TIP3    H2 7036   0.846   5.875   4.721
 2365TIP3   OH2 7037   6.780   4.356   1.675
 2365TIP3    H1 7038   6.778   4.396   1.588
 2365TIP3    H2 7039   6.760   4.264   1.660
 2366TIP3   OH2 7040   6.001   5.997   2.166
 2366TIP3    H1 7041   6.095   5.987   2.153
 2366TIP3    H2 7042   5.982   5.950   2.247
 2367TIP3   OH2 7043   7.716   0.789   3.336
 2367TIP3    H1 7044   7.761   0.793   3.252
 2367TIP3    H2 7045   7.783   0.808   3.401
 2368TIP3   OH2 7046   4.463   2.271   1.679
 2368TIP3    H1 7047   4.526   2.291   1.610
 2368TIP3    H2 7048   4.381   2.254   1.633
 2369TIP3   OH2 7049   1.561   6.095   3.953
 2369TIP3    H1 7050   1.632   6.057   4.004
 2369TIP3    H2 7051   1.568   6.190   3.968
 2370TIP3   OH2 7052   1.900   5.815   5.283
 2370TIP3    H1 7053   1.946   5.731   5.287
 2370TIP3    H2 7054   1.930   5.863   5.360
 2371TIP3   OH2 7055   6.379   0.551   0.703
 2371TIP3    H1 7056   6.315   0.585   0.640
 2371TIP3    H2 7057   6.450   0.518   0.649
 2372TIP3   OH2 7058   0.815   2.806   3.199
 2372TIP3    H1 7059   0.826   2.713   3.181
 2372TIP3    H2 7060   0.722   2.822   3.189
 2373TIP3   OH2 7061   7.343   6.235   3.230
 2373TIP3    H1 7062   7.351   6.167   3.163
 2373TIP3    H2 7063   7.388   6.198   3.306
 2374TIP3   OH2 7064   7.751   5.113   6.742
 2374TIP3    H1 7065   7.773   5.205   6.756
 2374TIP3    H2 7066   7.731   5.106   6.649
 2375TIP3   OH2 7067   3.066   3.421   3.983
 2375TIP3    H1 7068   3.065   3.440   4.077
 2375TIP3    H2 7069   3.008   3.487   3.945
 2376TIP3   OH2 7070   1.304   5.916   0.833
 2376TIP3    H1 7071   1.274   5.856   0.901
 2376TIP3    H2 7072   1.381   5.873   0.796
 2377TIP3   OH2 7073   4.256   3.217   2.239
 2377TIP3    H1 7074   4.323   3.206   2.172
 2377TIP3    H2 7075   4.268   3.142   2.297
 2378TIP3   OH2 7076   8.135   2.652   5.799
 2378TIP3    H1 7077   8.101   2.592   5.732
 2378TIP3    H2 7078   8.147   2.735   5.753
 2379TIP3   OH2 7079   1.976   3.281   1.073
 2379TIP3    H1 7080   1.993   3.188   1.062
 2379TIP3    H2 7081   1.957   3.291   1.167
 2380TIP3   OH2 7082   2.701   3.349   5.528
 2380TIP3    H1 7083   2.768   3.287   5.501
 2380TIP3    H2 7084   2.748   3.430   5.544
 2381TIP3   OH2 7085   5.535   5.344   4.437
 2381TIP3    H1 7086   5.482   5.374   4.362
 2381TIP3    H2 7087   5.518   5.410   4.505
 2382TIP3   OH2 7088   4.285   4.117   1.125
 2382TIP3    H1 7089   4.360   4.094   1.180
 2382TIP3    H2 7090   4.321   4.175   1.058
 2383TIP3   OH2 7091   1.185   7.682   5.499
 2383TIP3    H1 7092   1.168   7.633   5.419
 2383TIP3    H2 7093   1.280   7.685   5.507
 2384TIP3   OH2 7094   1.710   3.502   6.294
 2384TIP3    H1 7095   1.797   3.514   6.254
 2384TIP3    H2 7096   1.714   3.415   6.333
 2385TIP3   OH2 7097   2.995   7.715   2.129
 2385TIP3    H1 7098   3.007   7.624   2.158
 2385TIP3    H2 7099   3.009   7.712   2.034
 2386TIP3   OH2 7100   4.880   0.233   0.536
 2386TIP3    H1 7101   4.927   0.292   0.595
 2386TIP3    H2 7102   4.948   0.195   0.480
 2387TIP3   OH2 7103   5.605   4.598   1.385
 2387TIP3    H1 7104   5.651   4.586   1.303
 2387TIP3    H2 7105   5.515   4.572   1.366
 2388TIP3   OH2 7106   6.800   5.582   1.400
 2388TIP3    H1 7107   6.740   5.563   1.328
 2388TIP3    H2 7108   6.746   5.577   1.479
 2389TIP3   OH2 7109   7.627   7.046   0.225
 2389TIP3    H1 7110   7.565   7.079   0.290
 2389TIP3    H2 7111   7.711   7.043   0.271
 2390TIP3   OH2 7112   6.129   2.975   3.505
 2390TIP3    H1 7113   6.038   2.983   3.477
 2390TIP3    H2 7114   6.172   2.928   3.434
 2391TIP3   OH2 7115   7.264   6.057   5.431
 2391TIP3    H1 7116   7.179   6.092   5.405
 2391TIP3    H2 7117   7.288   6.109   5.508
 2392TIP3   OH2 7118   4.100   6.764   6.031
 2392TIP3    H1 7119   4.107   6.805   5.945
 2392TIP3    H2 7120   4.190   6.760   6.063
 2393TIP3   OH2 7121   8.141   4.878   5.784
 2393TIP3    H1 7122   8.068   4.838   5.831
 2393TIP3    H2 7123   8.164   4.815   5.716
 2394TIP3   OH2 7124   5.186   0.583   4.530
 2394TIP3    H1 7125   5.174   0.548   4.618
 2394TIP3    H2 7126   5.275   0.617   4.530
 2395TIP3   OH2 7127   1.956   4.104   4.024
 2395TIP3    H1 7128   1.880   4.065   4.068
 2395TIP3    H2 7129   2.030   4.075   4.077
 2396TIP3   OH2 7130   7.512   7.664   2.608
 2396TIP3    H1 7131   7.603   7.671   2.579
 2396TIP3    H2 7132   7.463   7.650   2.527
 2397TIP3   OH2 7133   1.848   6.325   1.966
 2397TIP3    H1 7134   1.865   6.314   1.873
 2397TIP3    H2 7135   1.822   6.417   1.975
 2398TIP3   OH2 7136   0.402   7.207   1.460
 2398TIP3    H1 7137   0.466   7.205   1.389
 2398TIP3    H2 7138   0.408   7.120   1.499
 2399TIP3   OH2 7139   8.173   4.324   2.532
 2399TIP3    H1 7140   8.200   4.237   2.502
 2399TIP3    H2 7141   8.168   4.376   2.452
 2400TIP3   OH2 7142   6.275   2.667   1.320
 2400TIP3    H1 7143   6.304   2.739   1.375
 2400TIP3    H2 7144   6.310   2.589   1.363
 2401TIP3   OH2 7145   7.522   3.470   0.310
 2401TIP3    H1 7146   7.586   3.487   0.379
 2401TIP3    H2 7147   7.532   3.543   0.249
 2402TIP3   OH2 7148   2.718   4.572   0.714
 2402TIP3    H1 7149   2.634   4.531   0.732
 2402TIP3    H2 7150   2.780   4.500   0.708
 2403TIP3   OH2 7151   7.469   1.544   5.174
 2403TIP3    H1 7152   7.480   1.563   5.268
 2403TIP3    H2 7153   7.387   1.588   5.150
 2404TIP3   OH2 7154   7.662   3.365   5.532
 2404TIP3    H1 7155   7.627   3.451   5.554
 2404TIP3    H2 7156   7.756   3.372   5.549
 2405TIP3   OH2 7157   7.390   3.625   2.234
 2405TIP3    H1 7158   7.393   3.573   2.153
 2405TIP3    H2 7159   7.477   3.665   2.239
 2406TIP3   OH2 7160   1.394   4.979   1.021
 2406TIP3    H1 7161   1.399   5.073   1.036
 2406TIP3    H2 7162   1.481   4.956   0.988
 2407TIP3   OH2 7163   0.089   2.513   5.017
 2407TIP3    H1 7164   0.077   2.523   4.923
 2407TIP3    H2 7165   0.127   2.426   5.028
 2408TIP3   OH2 7166   4.233   6.155   2.298
 2408TIP3    H1 7167   4.312   6.101   2.293
 2408TIP3    H2 7168   4.169   6.110   2.243
 2409TIP3   OH2 7169   1.355   7.819   6.151
 2409TIP3    H1 7170   1.330   7.727   6.147
 2409TIP3    H2 7171   1.451   7.818   6.145
 2410TIP3   OH2 7172   2.006   6.521   1.634
 2410TIP3    H1 7173   2.083   6.490   1.683
 2410TIP3    H2 7174   1.955   6.442   1.617
 2411TIP3   OH2 7175   5.120   5.144   3.495
 2411TIP3    H1 7176   5.151   5.190   3.417
 2411TIP3    H2 7177   5.188   5.159   3.560
 2412TIP3   OH2 7178   6.661   3.555   6.376
 2412TIP3    H1 7179   6.634   3.501   6.302
 2412TIP3    H2 7180   6.750   3.525   6.396
 2413TIP3   OH2 7181   2.948   2.042   3.573
 2413TIP3    H1 7182   3.031   2.010   3.537
 2413TIP3    H2 7183   2.909   1.965   3.615
 2414TIP3   OH2 7184   2.812   5.920   3.468
 2414TIP3    H1 7185   2.836   5.896   3.378
 2414TIP3    H2 7186   2.721   5.889   3.477
 2415TIP3   OH2 7187   0.318   5.184   1.255
 2415TIP3    H1 7188   0.407   5.212   1.276
 2415TIP3    H2 7189   0.297   5.231   1.174
 2416TIP3   OH2 7190   5.131   1.941   2.023
 2416TIP3    H1 7191   5.197   1.889   2.068
 2416TIP3    H2 7192   5.048   1.910   2.058
 2417TIP3   OH2 7193   4.039   5.199   4.474
 2417TIP3    H1 7194   4.098   5.272   4.495
 2417TIP3    H2 7195   3.977   5.197   4.546
 2418TIP3   OH2 7196   1.286   7.510  -0.018
 2418TIP3    H1 7197   1.297   7.474   0.070
 2418TIP3    H2 7198   1.227   7.585  -0.006
 2419TIP3   OH2 7199   7.826   2.665   4.215
 2419TIP3    H1 7200   7.921   2.660   4.213
 2419TIP3    H2 7201   7.807   2.753   4.248
 2420TIP3   OH2 7202   7.356   4.749   2.949
 2420TIP3    H1 7203   7.293   4.799   2.896
 2420TIP3    H2 7204   7.356   4.662   2.911
 2421TIP3   OH2 7205   3.755   3.768   2.792
 2421TIP3    H1 7206   3.785   3.783   2.702
 2421TIP3    H2 7207   3.831   3.734   2.838
 2422TIP3   OH2 7208   5.232   6.569   2.068
 2422TIP3    H1 7209   5.274   6.574   2.154
 2422TIP3    H2 7210   5.146   6.609   2.081
 2423TIP3   OH2 7211   5.773   3.965   4.375
 2423TIP3    H1 7212   5.818   3.881   4.369
 2423TIP3    H2 7213   5.807   4.004   4.456
 2424TIP3   OH2 7214   0.666   3.075   4.569
 2424TIP3    H1 7215   0.731   3.143   4.551
 2424TIP3    H2 7216   0.717   2.994   4.572
 2425TIP3   OH2 7217   5.731   1.476   0.197
 2425TIP3    H1 7218   5.772   1.479   0.283
 2425TIP3    H2 7219   5.692   1.389   0.192
 2426TIP3   OH2 7220   8.122   4.508   5.849
 2426TIP3    H1 7221   8.145   4.475   5.935
 2426TIP3    H2 7222   8.056   4.576   5.866
 2427TIP3   OH2 7223   4.535   0.998   1.903
 2427TIP3    H1 7224   4.523   1.089   1.932
 2427TIP3    H2 7225   4.450   0.973   1.867
 2428TIP3   OH2 7226   3.178   6.828   3.061
 2428TIP3    H1 7227   3.253   6.791   3.108
 2428TIP3    H2 7228   3.172   6.776   2.981
 2429TIP3   OH2 7229   6.089   1.612   0.665
 2429TIP3    H1 7230   6.174   1.569   0.679
 2429TIP3    H2 7231   6.068   1.653   0.748
 2430TIP3   OH2 7232   1.031   2.410   4.119
 2430TIP3    H1 7233   1.024   2.372   4.206
 2430TIP3    H2 7234   1.102   2.362   4.076
 2431TIP3   OH2 7235   7.064   4.033   4.506
 2431TIP3    H1 7236   7.158   4.052   4.500
 2431TIP3    H2 7237   7.043   3.991   4.422
 2432TIP3   OH2 7238   5.020   3.822   3.280
 2432TIP3    H1 7239   4.984   3.788   3.198
 2432TIP3    H2 7240   5.033   3.915   3.264
 2433TIP3   OH2 7241   2.471   6.677   5.080
 2433TIP3    H1 7242   2.557   6.643   5.105
 2433TIP3    H2 7243   2.478   6.692   4.986
 2434TIP3   OH2 7244   1.480   2.712   1.907
 2434TIP3    H1 7245   1.511   2.654   1.977
 2434TIP3    H2 7246   1.388   2.686   1.894
 2435TIP3   OH2 7247   6.699   6.971   1.435
 2435TIP3    H1 7248   6.706   6.981   1.340
 2435TIP3    H2 7249   6.754   6.895   1.455
 2436TIP3   OH2 7250   5.593   0.633   4.404
 2436TIP3    H1 7251   5.601   0.558   4.463
 2436TIP3    H2 7252   5.683   0.659   4.386
 2437TIP3   OH2 7253   8.210   7.653   1.720
 2437TIP3    H1 7254   8.248   7.705   1.791
 2437TIP3    H2 7255   8.124   7.692   1.706
 2438TIP3   OH2 7256   6.121   3.134   5.057
 2438TIP3    H1 7257   6.107   3.229   5.053
 2438TIP3    H2 7258   6.203   3.119   5.010
 2439TIP3   OH2 7259   7.501   5.758   6.293
 2439TIP3    H1 7260   7.457   5.782   6.212
 2439TIP3    H2 7261   7.436   5.775   6.361
 2440TIP3   OH2 7262   7.097   4.670   4.703
 2440TIP3    H1 7263   7.086   4.632   4.615
 2440TIP3    H2 7264   7.192   4.671   4.716
 2441TIP3   OH2 7265   5.931   3.307   3.210
 2441TIP3    H1 7266   5.935   3.351   3.125
 2441TIP3    H2 7267   5.884   3.368   3.267
 2442TIP3   OH2 7268   6.363   7.241   0.746
 2442TIP3    H1 7269   6.368   7.303   0.674
 2442TIP3    H2 7270   6.427   7.173   0.724
 2443TIP3   OH2 7271   7.656   3.354   2.102
 2443TIP3    H1 7272   7.690   3.347   2.192
 2443TIP3    H2 7273   7.733   3.341   2.047
 2444TIP3   OH2 7274   5.755   4.193   6.250
 2444TIP3    H1 7275   5.678   4.223   6.202
 2444TIP3    H2 7276   5.742   4.099   6.262
 2445TIP3   OH2 7277   3.032   2.869   6.640
 2445TIP3    H1 7278   2.981   2.850   6.562
 2445TIP3    H2 7279   2.984   2.826   6.711
 2446TIP3   OH2 7280   5.216   1.403   3.851
 2446TIP3    H1 7281   5.212   1.489   3.892
 2446TIP3    H2 7282   5.227   1.422   3.758
 2447TIP3   OH2 7283   6.741   5.934   3.650
 2447TIP3    H1 7284   6.716   6.002   3.588
 2447TIP3    H2 7285   6.803   5.976   3.709
 2448TIP3   OH2 7286   6.646   5.293   3.130
 2448TIP3    H1 7287   6.580   5.359   3.150
 2448TIP3    H2 7288   6.710   5.300   3.200
 2449TIP3   OH2 7289   1.731   2.406   5.999
 2449TIP3    H1 7290   1.789   2.392   5.924
 2449TIP3    H2 7291   1.766   2.350   6.068
 2450TIP3   OH2 7292   3.850   2.169   5.791
 2450TIP3    H1 7293   3.775   2.228   5.795
 2450TIP3    H2 7294   3.903   2.192   5.868
 2451TIP3   OH2 7295   8.037   3.981   2.496
 2451TIP3    H1 7296   8.099   3.988   2.569
 2451TIP3    H2 7297   7.979   3.909   2.521
 2452TIP3   OH2 7298   1.948   6.482   0.076
 2452TIP3    H1 7299   1.967   6.500   0.168
 2452TIP3    H2 7300   2.012   6.532   0.027
 2453TIP3   OH2 7301   7.570   2.749   1.805
 2453TIP3    H1 7302   7.649   2.782   1.763
 2453TIP3    H2 7303   7.591   2.659   1.829
 2454TIP3   OH2 7304   0.175   2.928   3.935
 2454TIP3    H1 7305   0.242   2.937   4.003
 2454TIP3    H2 7306   0.221   2.889   3.861
 2455TIP3   OH2 7307   8.186   5.638   4.700
 2455TIP3    H1 7308   8.187   5.545   4.723
 2455TIP3    H2 7309   8.272   5.654   4.660
 2456TIP3   OH2 7310   2.684   6.892   1.034
 2456TIP3    H1 7311   2.607   6.931   1.078
 2456TIP3    H2 7312   2.679   6.800   1.057
 2457TIP3   OH2 7313   7.165   7.211   4.894
 2457TIP3    H1 7314   7.087   7.196   4.841
 2457TIP3    H2 7315   7.238   7.207   4.832
 2458TIP3   OH2 7316   1.504   7.327   1.928
 2458TIP3    H1 7317   1.557   7.313   1.849
 2458TIP3    H2 7318   1.542   7.267   1.992
 2459TIP3   OH2 7319   8.058   5.494   5.920
 2459TIP3    H1 7320   8.141   5.532   5.890
 2459TIP3    H2 7321   8.084   5.431   5.988
 2460TIP3   OH2 7322   2.046   5.574   1.806
 2460TIP3    H1 7323   2.076   5.568   1.716
 2460TIP3    H2 7324   1.997   5.656   1.809
 2461TIP3   OH2 7325   2.508   2.105   1.823
 2461TIP3    H1 7326   2.429   2.052   1.837
 2461TIP3    H2 7327   2.563   2.052   1.765
 2462TIP3   OH2 7328   5.161   6.307   2.044
 2462TIP3    H1 7329   5.195   6.394   2.063
 2462TIP3    H2 7330   5.198   6.251   2.112
 2463TIP3   OH2 7331   6.424   4.388   5.581
 2463TIP3    H1 7332   6.350   4.446   5.562
 2463TIP3    H2 7333   6.455   4.360   5.495
 2464TIP3   OH2 7334   0.089   0.298   2.009
 2464TIP3    H1 7335   0.089   0.203   2.015
 2464TIP3    H2 7336   0.179   0.324   2.029
 2465TIP3   OH2 7337   0.853   0.871   3.792
 2465TIP3    H1 7338   0.840   0.814   3.717
 2465TIP3    H2 7339   0.945   0.860   3.816
 2466TIP3   OH2 7340   7.984   4.672   1.410
 2466TIP3    H1 7341   8.028   4.756   1.399
 2466TIP3    H2 7342   7.892   4.691   1.396
 2467TIP3   OH2 7343   3.048   1.429   5.946
 2467TIP3    H1 7344   3.049   1.360   6.013
 2467TIP3    H2 7345   3.049   1.382   5.863
 2468TIP3   OH2 7346   4.160   4.288   4.011
 2468TIP3    H1 7347   4.130   4.251   4.094
 2468TIP3    H2 7348   4.147   4.382   4.021
 2469TIP3   OH2 7349   0.240   1.890   4.670
 2469TIP3    H1 7350   0.145   1.888   4.673
 2469TIP3    H2 7351   0.260   1.937   4.588
 2470TIP3   OH2 7352   5.144   7.049   0.091
 2470TIP3    H1 7353   5.115   7.124   0.038
 2470TIP3    H2 7354   5.216   7.011   0.040
 2471TIP3   OH2 7355   2.861   4.914   0.802
 2471TIP3    H1 7356   2.886   4.932   0.711
 2471TIP3    H2 7357   2.839   5.000   0.838
 2472TIP3   OH2 7358   2.446   2.504   4.277
 2472TIP3    H1 7359   2.374   2.447   4.250
 2472TIP3    H2 7360   2.434   2.514   4.372
 2473TIP3   OH2 7361   1.434   4.074   0.257
 2473TIP3    H1 7362   1.378   3.997   0.248
 2473TIP3    H2 7363   1.385   4.144   0.214
 2474TIP3   OH2 7364   6.832   0.085   1.595
 2474TIP3    H1 7365   6.913   0.075   1.645
 2474TIP3    H2 7366   6.827   0.005   1.542
 2475TIP3   OH2 7367   0.704   1.498   6.660
 2475TIP3    H1 7368   0.657   1.582   6.667
 2475TIP3    H2 7369   0.781   1.518   6.608
 2476TIP3   OH2 7370   5.850   6.974   2.057
 2476TIP3    H1 7371   5.876   7.052   2.008
 2476TIP3    H2 7372   5.801   6.921   1.994
 2477TIP3   OH2 7373   0.644   1.979   6.356
 2477TIP3    H1 7374   0.667   2.052   6.299
 2477TIP3    H2 7375   0.554   1.958   6.333
 2478TIP3   OH2 7376   1.141   1.518   3.805
 2478TIP3    H1 7377   1.149   1.614   3.805
 2478TIP3    H2 7378   1.129   1.495   3.713
 2479TIP3   OH2 7379   7.829   3.524   1.457
 2479TIP3    H1 7380   7.813   3.609   1.417
 2479TIP3    H2 7381   7.924   3.518   1.466
 2480TIP3   OH2 7382   2.123   0.460   4.743
 2480TIP3    H1 7383   2.175   0.399   4.691
 2480TIP3    H2 7384   2.185   0.531   4.764
 2481TIP3   OH2 7385   6.148   3.546   3.154
 2481TIP3    H1 7386   6.172   3.457   3.177
 2481TIP3    H2 7387   6.105   3.538   3.069
 2482TIP3   OH2 7388   4.136   3.232   3.688
 2482TIP3    H1 7389   4.052   3.188   3.704
 2482TIP3    H2 7390   4.167   3.194   3.605
 2483TIP3   OH2 7391   2.702   0.676   1.352
 2483TIP3    H1 7392   2.705   0.685   1.447
 2483TIP3    H2 7393   2.781   0.626   1.330
 2484TIP3   OH2 7394   7.464   0.446   6.735
 2484TIP3    H1 7395   7.384   0.463   6.686
 2484TIP3    H2 7396   7.439   0.381   6.801
 2485TIP3   OH2 7397   3.118   7.018   4.681
 2485TIP3    H1 7398   3.193   6.959   4.672
 2485TIP3    H2 7399   3.127   7.055   4.769
 2486TIP3   OH2 7400   8.132   6.196   3.072
 2486TIP3    H1 7401   8.103   6.188   3.163
 2486TIP3    H2 7402   8.072   6.259   3.033
 2487TIP3   OH2 7403   7.649   5.200   1.558
 2487TIP3    H1 7404   7.574   5.179   1.503
 2487TIP3    H2 7405   7.665   5.120   1.609
 2488TIP3   OH2 7406   5.263   2.367   0.060
 2488TIP3    H1 7407   5.308   2.283   0.069
 2488TIP3    H2 7408   5.174   2.350   0.093
 2489TIP3   OH2 7409   4.459   5.947   4.647
 2489TIP3    H1 7410   4.415   5.891   4.710
 2489TIP3    H2 7411   4.497   6.018   4.699
 2490TIP3   OH2 7412   6.510   1.292   1.764
 2490TIP3    H1 7413   6.487   1.345   1.687
 2490TIP3    H2 7414   6.587   1.243   1.736
 2491TIP3   OH2 7415   0.153   2.646   6.177
 2491TIP3    H1 7416   0.216   2.683   6.239
 2491TIP3    H2 7417   0.185   2.675   6.091
 2492TIP3   OH2 7418   3.116   5.945   6.800
 2492TIP3    H1 7419   3.184   5.916   6.740
 2492TIP3    H2 7420   3.046   5.879   6.791
 2493TIP3   OH2 7421   3.209   1.458   3.045
 2493TIP3    H1 7422   3.264   1.456   2.967
 2493TIP3    H2 7423   3.183   1.550   3.054
 2494TIP3   OH2 7424   4.981   3.872   6.558
 2494TIP3    H1 7425   4.935   3.936   6.504
 2494TIP3    H2 7426   5.072   3.877   6.529
 2495TIP3   OH2 7427   7.327   7.455   6.158
 2495TIP3    H1 7428   7.235   7.458   6.133
 2495TIP3    H2 7429   7.361   7.378   6.112
 2496TIP3   OH2 7430   4.086   2.353   6.316
 2496TIP3    H1 7431   4.053   2.427   6.367
 2496TIP3    H2 7432   4.010   2.320   6.268
 2497TIP3   OH2 7433   1.950   3.611   2.557
 2497TIP3    H1 7434   1.987   3.524   2.575
 2497TIP3    H2 7435   1.889   3.627   2.629
 2498TIP3   OH2 7436   4.455   0.734   1.519
 2498TIP3    H1 7437   4.514   0.663   1.543
 2498TIP3    H2 7438   4.417   0.763   1.601
 2499TIP3   OH2 7439   5.944   2.337   4.780
 2499TIP3    H1 7440   5.933   2.264   4.720
 2499TIP3    H2 7441   5.867   2.332   4.837
 2500TIP3   OH2 7442   5.747   3.541   3.343
 2500TIP3    H1 7443   5.763   3.587   3.260
 2500TIP3    H2 7444   5.673   3.483   3.324
 2501TIP3   OH2 7445   1.745   4.583   1.778
 2501TIP3    H1 7446   1.682   4.651   1.752
 2501TIP3    H2 7447   1.825   4.605   1.729
 2502TIP3   OH2 7448   0.556   5.202   4.226
 2502TIP3    H1 7449   0.498   5.198   4.150
 2502TIP3    H2 7450   0.642   5.223   4.189
 2503TIP3   OH2 7451   3.529   7.152   0.421
 2503TIP3    H1 7452   3.548   7.118   0.333
 2503TIP3    H2 7453   3.455   7.211   0.408
 2504TIP3   OH2 7454   3.802   7.455   0.255
 2504TIP3    H1 7455   3.788   7.438   0.162
 2504TIP3    H2 7456   3.883   7.505   0.259
 2505TIP3   OH2 7457   5.541   3.765   3.533
 2505TIP3    H1 7458   5.549   3.741   3.626
 2505TIP3    H2 7459   5.631   3.767   3.501
 2506TIP3   OH2 7460   1.483   0.274   5.197
 2506TIP3    H1 7461   1.543   0.329   5.147
 2506TIP3    H2 7462   1.450   0.331   5.266
 2507TIP3   OH2 7463   0.699   4.672   4.792
 2507TIP3    H1 7464   0.676   4.671   4.699
 2507TIP3    H2 7465   0.776   4.728   4.797
 2508TIP3   OH2 7466   1.449   4.648   6.562
 2508TIP3    H1 7467   1.473   4.733   6.526
 2508TIP3    H2 7468   1.395   4.607   6.494
 2509TIP3   OH2 7469   0.575   7.632   0.688
 2509TIP3    H1 7470   0.536   7.545   0.678
 2509TIP3    H2 7471   0.530   7.669   0.764
 2510TIP3   OH2 7472   6.559   7.198   4.840
 2510TIP3    H1 7473   6.645   7.188   4.881
 2510TIP3    H2 7474   6.497   7.191   4.912
 2511TIP3   OH2 7475   0.675   2.359   2.553
 2511TIP3    H1 7476   0.613   2.412   2.502
 2511TIP3    H2 7477   0.674   2.273   2.510
 2512TIP3   OH2 7478   6.221   4.394   0.378
 2512TIP3    H1 7479   6.207   4.473   0.325
 2512TIP3    H2 7480   6.316   4.383   0.380
 2513TIP3   OH2 7481   2.516   6.414   2.010
 2513TIP3    H1 7482   2.608   6.426   2.032
 2513TIP3    H2 7483   2.482   6.503   2.001
 2514TIP3   OH2 7484   0.625   0.066   3.662
 2514TIP3    H1 7485   0.680   0.082   3.586
 2514TIP3    H2 7486   0.666  -0.008   3.707
 2515TIP3   OH2 7487   2.798   0.983   4.106
 2515TIP3    H1 7488   2.786   1.041   4.030
 2515TIP3    H2 7489   2.725   1.006   4.164
 2516TIP3   OH2 7490   4.591   3.440   1.079
 2516TIP3    H1 7491   4.635   3.451   1.163
 2516TIP3    H2 7492   4.650   3.384   1.028
 2517TIP3   OH2 7493   7.229   7.165   3.815
 2517TIP3    H1 7494   7.179   7.193   3.891
 2517TIP3    H2 7495   7.166   7.162   3.743
 2518TIP3   OH2 7496   6.402   0.367   6.626
 2518TIP3    H1 7497   6.464   0.295   6.631
 2518TIP3    H2 7498   6.326   0.330   6.580
 2519TIP3   OH2 7499   4.487   0.426   0.236
 2519TIP3    H1 7500   4.471   0.518   0.215
 2519TIP3    H2 7501   4.491   0.383   0.151
 2520TIP3   OH2 7502   4.034   2.026   4.854
 2520TIP3    H1 7503   3.992   1.948   4.891
 2520TIP3    H2 7504   4.099   2.052   4.920
 2521TIP3   OH2 7505   2.081   7.821   5.114
 2521TIP3    H1 7506   2.087   7.808   5.020
 2521TIP3    H2 7507   2.032   7.745   5.146
 2522TIP3   OH2 7508   6.042   0.585   1.116
 2522TIP3    H1 7509   6.063   0.574   1.023
 2522TIP3    H2 7510   6.015   0.498   1.144
 2523TIP3   OH2 7511   5.919   5.104   2.138
 2523TIP3    H1 7512   6.003   5.145   2.157
 2523TIP3    H2 7513   5.856   5.176   2.138
 2524TIP3   OH2 7514   3.859   6.695   5.860
 2524TIP3    H1 7515   3.889   6.693   5.951
 2524TIP3    H2 7516   3.877   6.785   5.831
 2525TIP3   OH2 7517   0.699   1.010   5.627
 2525TIP3    H1 7518   0.747   0.988   5.547
 2525TIP3    H2 7519   0.610   1.028   5.597
 2526TIP3   OH2 7520   0.118   6.666   2.147
 2526TIP3    H1 7521   0.155   6.669   2.235
 2526TIP3    H2 7522   0.040   6.722   2.152
 2527TIP3   OH2 7523   4.027   1.983   5.270
 2527TIP3    H1 7524   3.938   1.962   5.298
 2527TIP3    H2 7525   4.051   2.060   5.321
 2528TIP3   OH2 7526   5.371   2.768   0.513
 2528TIP3    H1 7527   5.351   2.843   0.456
 2528TIP3    H2 7528   5.371   2.693   0.454
 2529TIP3   OH2 7529   5.006   3.789   1.684
 2529TIP3    H1 7530   5.023   3.853   1.615
 2529TIP3    H2 7531   4.940   3.730   1.647
 2530TIP3   OH2 7532   7.567   0.527   5.411
 2530TIP3    H1 7533   7.511   0.465   5.456
 2530TIP3    H2 7534   7.598   0.586   5.480
 2531TIP3   OH2 7535   7.946   6.446   5.126
 2531TIP3    H1 7536   7.976   6.537   5.138
 2531TIP3    H2 7537   7.920   6.418   5.214
 2532TIP3   OH2 7538   0.186   6.593   3.737
 2532TIP3    H1 7539   0.188   6.498   3.748
 2532TIP3    H2 7540   0.240   6.626   3.810
 2533TIP3   OH2 7541   2.088   0.792   1.507
 2533TIP3    H1 7542   2.153   0.746   1.560
 2533TIP3    H2 7543   2.093   0.883   1.536
 2534TIP3   OH2 7544   7.477   3.014   0.858
 2534TIP3    H1 7545   7.394   2.968   0.868
 2534TIP3    H2 7546   7.543   2.945   0.853
 2535TIP3   OH2 7547   7.723   6.141   3.066
 2535TIP3    H1 7548   7.756   6.197   3.136
 2535TIP3    H2 7549   7.656   6.194   3.022
 2536TIP3   OH2 7550   0.658   2.387   1.537
 2536TIP3    H1 7551   0.736   2.431   1.501
 2536TIP3    H2 7552   0.620   2.452   1.597
 2537TIP3   OH2 7553   5.654   1.817   6.269
 2537TIP3    H1 7554   5.735   1.769   6.284
 2537TIP3    H2 7555   5.677   1.884   6.204
 2538TIP3   OH2 7556   5.017   5.852   0.846
 2538TIP3    H1 7557   5.052   5.931   0.804
 2538TIP3    H2 7558   4.938   5.831   0.796
 2539TIP3   OH2 7559   2.058   5.604   5.247
 2539TIP3    H1 7560   2.071   5.566   5.334
 2539TIP3    H2 7561   2.146   5.621   5.215
 2540TIP3   OH2 7562   3.264   3.891   4.234
 2540TIP3    H1 7563   3.209   3.879   4.312
 2540TIP3    H2 7564   3.342   3.937   4.267
 2541TIP3   OH2 7565   1.809   0.506   4.442
 2541TIP3    H1 7566   1.841   0.435   4.386
 2541TIP3    H2 7567   1.888   0.553   4.469
 2542TIP3   OH2 7568   6.476   1.427   1.517
 2542TIP3    H1 7569   6.434   1.512   1.505
 2542TIP3    H2 7570   6.463   1.382   1.433
 2543TIP3   OH2 7571   1.756   6.835   2.323
 2543TIP3    H1 7572   1.761   6.811   2.231
 2543TIP3    H2 7573   1.736   6.753   2.368
 2544TIP3   OH2 7574   1.092   1.827   3.218
 2544TIP3    H1 7575   1.085   1.899   3.155
 2544TIP3    H2 7576   1.187   1.810   3.224
 2545TIP3   OH2 7577   0.659   6.249   0.903
 2545TIP3    H1 7578   0.607   6.315   0.859
 2545TIP3    H2 7579   0.604   6.171   0.902
 2546TIP3   OH2 7580   2.181   5.758   1.335
 2546TIP3    H1 7581   2.226   5.743   1.252
 2546TIP3    H2 7582   2.129   5.837   1.320
 2547TIP3   OH2 7583   6.561   6.508   1.438
 2547TIP3    H1 7584   6.618   6.464   1.374
 2547TIP3    H2 7585   6.473   6.476   1.418
 2548TIP3   OH2 7586   0.699   4.053   3.955
 2548TIP3    H1 7587   0.661   4.133   3.990
 2548TIP3    H2 7588   0.638   4.023   3.888
 2549TIP3   OH2 7589   4.797   7.296   5.564
 2549TIP3    H1 7590   4.883   7.276   5.527
 2549TIP3    H2 7591   4.744   7.218   5.546
 2550TIP3   OH2 7592   3.264   3.001   6.419
 2550TIP3    H1 7593   3.221   3.023   6.336
 2550TIP3    H2 7594   3.202   2.944   6.464
 2551TIP3   OH2 7595   6.983   5.972   6.289
 2551TIP3    H1 7596   6.905   5.932   6.329
 2551TIP3    H2 7597   6.949   6.048   6.242
 2552TIP3   OH2 7598   2.436   0.610   2.139
 2552TIP3    H1 7599   2.487   0.623   2.219
 2552TIP3    H2 7600   2.369   0.547   2.164
 2553TIP3   OH2 7601   5.064   4.385   4.191
 2553TIP3    H1 7602   5.014   4.466   4.193
 2553TIP3    H2 7603   5.155   4.413   4.202
 2554TIP3   OH2 7604   1.594   3.972   3.676
 2554TIP3    H1 7605   1.665   4.023   3.637
 2554TIP3    H2 7606   1.532   3.958   3.604
 2555TIP3   OH2 7607   5.957   0.290   5.057
 2555TIP3    H1 7608   5.886   0.342   5.019
 2555TIP3    H2 7609   6.037   0.337   5.033
 2556TIP3   OH2 7610   6.365   2.017   4.332
 2556TIP3    H1 7611   6.375   2.090   4.393
 2556TIP3    H2 7612   6.449   1.970   4.337
 2557TIP3   OH2 7613   4.975   5.132   4.753
 2557TIP3    H1 7614   4.991   5.075   4.678
 2557TIP3    H2 7615   4.893   5.176   4.733
 2558TIP3   OH2 7616   4.044   6.123   0.471
 2558TIP3    H1 7617   3.958   6.083   0.482
 2558TIP3    H2 7618   4.057   6.176   0.549
 2559TIP3   OH2 7619   0.225   4.198   3.066
 2559TIP3    H1 7620   0.229   4.293   3.079
 2559TIP3    H2 7621   0.147   4.171   3.115
 2560TIP3   OH2 7622   3.415   3.850   3.661
 2560TIP3    H1 7623   3.483   3.880   3.721
 2560TIP3    H2 7624   3.354   3.800   3.716
 2561TIP3   OH2 7625   4.164   5.758   4.446
 2561TIP3    H1 7626   4.187   5.846   4.476
 2561TIP3    H2 7627   4.237   5.703   4.476
 2562TIP3   OH2 7628   4.552   6.431   0.576
 2562TIP3    H1 7629   4.495   6.445   0.500
 2562TIP3    H2 7630   4.597   6.349   0.558
 2563TIP3   OH2 7631   2.464   0.128   4.400
 2563TIP3    H1 7632   2.480   0.079   4.320
 2563TIP3    H2 7633   2.432   0.213   4.371
 2564TIP3   OH2 7634   7.927   3.056   4.328
 2564TIP3    H1 7635   8.008   3.106   4.319
 2564TIP3    H2 7636   7.915   3.014   4.243
 2565TIP3   OH2 7637   5.432   4.288   2.774
 2565TIP3    H1 7638   5.492   4.361   2.759
 2565TIP3    H2 7639   5.486   4.210   2.761
 2566TIP3   OH2 7640   5.917   4.128   3.766
 2566TIP3    H1 7641   5.993   4.116   3.709
 2566TIP3    H2 7642   5.900   4.222   3.763
 2567TIP3   OH2 7643   3.146   1.906   3.928
 2567TIP3    H1 7644   3.228   1.856   3.926
 2567TIP3    H2 7645   3.081   1.849   3.887
 2568TIP3   OH2 7646   1.583   2.956   2.592
 2568TIP3    H1 7647   1.662   2.915   2.629
 2568TIP3    H2 7648   1.575   2.917   2.505
 2569TIP3   OH2 7649   6.821   2.332   1.985
 2569TIP3    H1 7650   6.849   2.353   2.074
 2569TIP3    H2 7651   6.738   2.285   1.996
 2570TIP3   OH2 7652   5.416   3.079   2.884
 2570TIP3    H1 7653   5.344   3.131   2.849
 2570TIP3    H2 7654   5.382   2.989   2.884
 2571TIP3   OH2 7655   0.394   3.199   0.121
 2571TIP3    H1 7656   0.409   3.105   0.108
 2571TIP3    H2 7657   0.307   3.204   0.161
 2572TIP3   OH2 7658   4.245   3.066   4.967
 2572TIP3    H1 7659   4.255   3.152   5.008
 2572TIP3    H2 7660   4.174   3.078   4.904
 2573TIP3   OH2 7661   6.800   7.083   6.353
 2573TIP3    H1 7662   6.771   7.005   6.401
 2573TIP3    H2 7663   6.761   7.156   6.401
 2574TIP3   OH2 7664   2.782   1.173   3.921
 2574TIP3    H1 7665   2.832   1.240   3.876
 2574TIP3    H2 7666   2.691   1.189   3.894
 2575TIP3   OH2 7667   6.098   5.382   6.498
 2575TIP3    H1 7668   6.106   5.473   6.526
 2575TIP3    H2 7669   6.188   5.350   6.496
 2576TIP3   OH2 7670   3.421   4.694   3.937
 2576TIP3    H1 7671   3.340   4.654   3.970
 2576TIP3    H2 7672   3.491   4.642   3.976
 2577TIP3   OH2 7673   3.131   6.690   3.704
 2577TIP3    H1 7674   3.103   6.598   3.706
 2577TIP3    H2 7675   3.107   6.723   3.791
 2578TIP3   OH2 7676   2.583   7.526   2.649
 2578TIP3    H1 7677   2.575   7.547   2.742
 2578TIP3    H2 7678   2.498   7.551   2.612
 2579TIP3   OH2 7679   2.512   3.400   3.318
 2579TIP3    H1 7680   2.507   3.407   3.222
 2579TIP3    H2 7681   2.594   3.352   3.334
 2580TIP3   OH2 7682   3.675   1.182   3.105
 2580TIP3    H1 7683   3.707   1.159   3.018
 2580TIP3    H2 7684   3.609   1.249   3.089
 2581TIP3   OH2 7685   7.381   5.501   1.757
 2581TIP3    H1 7686   7.302   5.549   1.729
 2581TIP3    H2 7687   7.427   5.562   1.814
 2582TIP3   OH2 7688   0.083   5.372   6.215
 2582TIP3    H1 7689   0.149   5.373   6.284
 2582TIP3    H2 7690   0.043   5.459   6.217
 2583TIP3   OH2 7691   5.194   0.341   4.673
 2583TIP3    H1 7692   5.226   0.269   4.618
 2583TIP3    H2 7693   5.101   0.320   4.687
 2584TIP3   OH2 7694   2.152   7.339   1.724
 2584TIP3    H1 7695   2.226   7.396   1.744
 2584TIP3    H2 7696   2.082   7.369   1.783
 2585TIP3   OH2 7697   0.192   4.237   4.857
 2585TIP3    H1 7698   0.127   4.257   4.923
 2585TIP3    H2 7699   0.146   4.185   4.792
 2586TIP3   OH2 7700   1.159   4.343   0.560
 2586TIP3    H1 7701   1.184   4.364   0.650
 2586TIP3    H2 7702   1.068   4.313   0.568
 2587TIP3   OH2 7703   7.763   0.945   5.107
 2587TIP3    H1 7704   7.753   0.902   5.022
 2587TIP3    H2 7705   7.818   0.885   5.158
 2588TIP3   OH2 7706   5.972   3.953   0.122
 2588TIP3    H1 7707   5.963   3.947   0.027
 2588TIP3    H2 7708   5.886   3.928   0.155
 2589TIP3   OH2 7709   1.763   2.187   1.895
 2589TIP3    H1 7710   1.716   2.107   1.916
 2589TIP3    H2 7711   1.770   2.186   1.799
 2590TIP3   OH2 7712   7.742   5.959   5.580
 2590TIP3    H1 7713   7.781   6.040   5.614
 2590TIP3    H2 7714   7.754   5.895   5.650
 2591TIP3   OH2 7715   4.583   3.398   5.888
 2591TIP3    H1 7716   4.561   3.393   5.795
 2591TIP3    H2 7717   4.518   3.458   5.924
 2592TIP3   OH2 7718   7.760   5.022   3.345
 2592TIP3    H1 7719   7.778   4.934   3.379
 2592TIP3    H2 7720   7.777   5.015   3.251
 2593TIP3   OH2 7721   0.561   3.636   5.532
 2593TIP3    H1 7722   0.653   3.663   5.526
 2593TIP3    H2 7723   0.513   3.717   5.548
 2594TIP3   OH2 7724   7.060   3.829   2.040
 2594TIP3    H1 7725   7.076   3.735   2.040
 2594TIP3    H2 7726   7.137   3.868   2.082
 2595TIP3   OH2 7727   2.030   0.660   4.502
 2595TIP3    H1 7728   2.095   0.648   4.432
 2595TIP3    H2 7729   2.082   0.675   4.581
 2596TIP3   OH2 7730   0.356   5.640   4.364
 2596TIP3    H1 7731   0.443   5.604   4.382
 2596TIP3    H2 7732   0.336   5.608   4.276
 2597TIP3   OH2 7733   2.089   6.183   2.501
 2597TIP3    H1 7734   2.072   6.259   2.557
 2597TIP3    H2 7735   2.183   6.185   2.485
 2598TIP3   OH2 7736   0.308   2.633   5.305
 2598TIP3    H1 7737   0.220   2.636   5.341
 2598TIP3    H2 7738   0.365   2.656   5.379
 2599TIP3   OH2 7739   6.297   4.679   2.167
 2599TIP3    H1 7740   6.222   4.620   2.167
 2599TIP3    H2 7741   6.346   4.657   2.246
 2600TIP3   OH2 7742   6.620   3.130   2.586
 2600TIP3    H1 7743   6.581   3.068   2.647
 2600TIP3    H2 7744   6.658   3.075   2.517
 2601TIP3   OH2 7745   7.193   0.154   0.699
 2601TIP3    H1 7746   7.139   0.120   0.770
 2601TIP3    H2 7747   7.173   0.099   0.624
 2602TIP3   OH2 7748   8.193   0.378   0.479
 2602TIP3    H1 7749   8.267   0.329   0.443
 2602TIP3    H2 7750   8.147   0.315   0.534
 2603TIP3   OH2 7751   5.950   1.756   3.929
 2603TIP3    H1 7752   5.986   1.736   3.842
 2603TIP3    H2 7753   5.855   1.741   3.919
 2604TIP3   OH2 7754   2.842   7.053   4.313
 2604TIP3    H1 7755   2.857   6.960   4.298
 2604TIP3    H2 7756   2.763   7.073   4.263
 2605TIP3   OH2 7757   6.811   6.481   3.844
 2605TIP3    H1 7758   6.757   6.465   3.766
 2605TIP3    H2 7759   6.895   6.441   3.824
 2606TIP3   OH2 7760   2.645   4.150   0.531
 2606TIP3    H1 7761   2.583   4.193   0.472
 2606TIP3    H2 7762   2.684   4.221   0.581
 2607TIP3   OH2 7763   3.782   4.244   1.188
 2607TIP3    H1 7764   3.849   4.250   1.120
 2607TIP3    H2 7765   3.822   4.285   1.265
 2608TIP3   OH2 7766   4.709   4.715   0.705
 2608TIP3    H1 7767   4.666   4.798   0.688
 2608TIP3    H2 7768   4.752   4.693   0.622
 2609TIP3   OH2 7769   3.218   7.293   2.020
 2609TIP3    H1 7770   3.161   7.327   1.950
 2609TIP3    H2 7771   3.277   7.366   2.040
 2610TIP3   OH2 7772   4.899   5.100   2.901
 2610TIP3    H1 7773   4.960   5.079   2.830
 2610TIP3    H2 7774   4.948   5.083   2.981
 2611TIP3   OH2 7775   2.046   4.134   0.150
 2611TIP3    H1 7776   1.977   4.072   0.171
 2611TIP3    H2 7777   2.111   4.123   0.220
 2612TIP3   OH2 7778   0.068   3.256   6.230
 2612TIP3    H1 7779   0.026   3.245   6.145
 2612TIP3    H2 7780   0.003   3.301   6.283
 2613TIP3   OH2 7781   7.499   5.314   4.249
 2613TIP3    H1 7782   7.561   5.257   4.203
 2613TIP3    H2 7783   7.512   5.294   4.341
 2614TIP3   OH2 7784   3.061   1.125   1.007
 2614TIP3    H1 7785   2.976   1.097   1.041
 2614TIP3    H2 7786   3.053   1.219   0.996
 2615TIP3   OH2 7787   7.201   0.728   2.466
 2615TIP3    H1 7788   7.254   0.798   2.427
 2615TIP3    H2 7789   7.247   0.647   2.442
 2616TIP3   OH2 7790   0.051   3.400   3.801
 2616TIP3    H1 7791   0.071   3.481   3.848
 2616TIP3    H2 7792  -0.004   3.350   3.862
 2617TIP3   OH2 7793   3.112   5.176   0.935
 2617TIP3    H1 7794   3.028   5.222   0.929
 2617TIP3    H2 7795   3.166   5.218   0.868
 2618TIP3   OH2 7796   1.469   3.446   5.619
 2618TIP3    H1 7797   1.435   3.530   5.589
 2618TIP3    H2 7798   1.449   3.445   5.713
 2619TIP3   OH2 7799   3.456   2.586   5.346
 2619TIP3    H1 7800   3.544   2.602   5.311
 2619TIP3    H2 7801   3.473   2.540   5.429
 2620TIP3   OH2 7802   0.653   2.583   5.721
 2620TIP3    H1 7803   0.683   2.641   5.790
 2620TIP3    H2 7804   0.650   2.638   5.642
 2621TIP3   OH2 7805   2.111   2.420   2.461
 2621TIP3    H1 7806   2.044   2.352   2.472
 2621TIP3    H2 7807   2.158   2.421   2.544
 2622TIP3   OH2 7808   7.225   5.227   4.819
 2622TIP3    H1 7809   7.139   5.253   4.852
 2622TIP3    H2 7810   7.262   5.172   4.889
 2623TIP3   OH2 7811   6.389   0.591   2.807
 2623TIP3    H1 7812   6.334   0.612   2.730
 2623TIP3    H2 7813   6.410   0.499   2.797
 2624TIP3   OH2 7814   1.375   0.437   6.740
 2624TIP3    H1 7815   1.428   0.359   6.722
 2624TIP3    H2 7816   1.432   0.494   6.791
 2625TIP3   OH2 7817   4.660   6.149   0.581
 2625TIP3    H1 7818   4.705   6.135   0.665
 2625TIP3    H2 7819   4.728   6.133   0.515
 2626TIP3   OH2 7820   5.151   4.424   3.818
 2626TIP3    H1 7821   5.106   4.507   3.803
 2626TIP3    H2 7822   5.082   4.358   3.810
 2627TIP3   OH2 7823   7.846   4.658   0.692
 2627TIP3    H1 7824   7.838   4.736   0.637
 2627TIP3    H2 7825   7.936   4.628   0.680
 2628TIP3   OH2 7826   3.543   0.902   1.625
 2628TIP3    H1 7827   3.473   0.938   1.680
 2628TIP3    H2 7828   3.558   0.969   1.558
 2629TIP3   OH2 7829   1.686   1.731   6.308
 2629TIP3    H1 7830   1.768   1.700   6.270
 2629TIP3    H2 7831   1.645   1.652   6.343
 2630TIP3   OH2 7832   0.629   1.808   4.005
 2630TIP3    H1 7833   0.631   1.903   4.013
 2630TIP3    H2 7834   0.561   1.791   3.939
 2631TIP3   OH2 7835   4.726   5.912   0.817
 2631TIP3    H1 7836   4.777   5.992   0.807
 2631TIP3    H2 7837   4.644   5.942   0.857
 2632TIP3   OH2 7838   3.934   6.989   4.402
 2632TIP3    H1 7839   3.945   6.899   4.372
 2632TIP3    H2 7840   3.992   7.041   4.346
 2633TIP3   OH2 7841   5.233   0.449   1.063
 2633TIP3    H1 7842   5.198   0.454   1.152
 2633TIP3    H2 7843   5.181   0.380   1.020
 2634TIP3   OH2 7844   7.810   0.296   5.640
 2634TIP3    H1 7845   7.738   0.358   5.655
 2634TIP3    H2 7846   7.790   0.256   5.556
 2635TIP3   OH2 7847   7.548   3.632   5.600
 2635TIP3    H1 7848   7.601   3.648   5.522
 2635TIP3    H2 7849   7.522   3.719   5.630
 2636TIP3   OH2 7850   3.421   7.332   4.360
 2636TIP3    H1 7851   3.407   7.246   4.321
 2636TIP3    H2 7852   3.432   7.314   4.454
 2637TIP3   OH2 7853   5.577   7.848   2.016
 2637TIP3    H1 7854   5.551   7.756   2.026
 2637TIP3    H2 7855   5.593   7.858   1.922
 2638TIP3   OH2 7856   3.803   0.337   0.494
 2638TIP3    H1 7857   3.754   0.386   0.428
 2638TIP3    H2 7858   3.895   0.357   0.475
 2639TIP3   OH2 7859   0.091   7.103   2.798
 2639TIP3    H1 7860   0.157   7.149   2.746
 2639TIP3    H2 7861   0.135   7.083   2.881
 2640TIP3   OH2 7862   3.204   2.419   1.164
 2640TIP3    H1 7863   3.266   2.366   1.214
 2640TIP3    H2 7864   3.124   2.366   1.161
 2641TIP3   OH2 7865   0.149   0.980   1.832
 2641TIP3    H1 7866   0.087   0.908   1.820
 2641TIP3    H2 7867   0.197   0.984   1.750
 2642TIP3   OH2 7868   5.848   4.136   0.885
 2642TIP3    H1 7869   5.863   4.225   0.852
 2642TIP3    H2 7870   5.936   4.103   0.904
 2643TIP3   OH2 7871   7.181   0.313   3.676
 2643TIP3    H1 7872   7.178   0.230   3.627
 2643TIP3    H2 7873   7.238   0.294   3.751
 2644TIP3   OH2 7874   7.448   1.341   3.616
 2644TIP3    H1 7875   7.408   1.304   3.695
 2644TIP3    H2 7876   7.508   1.408   3.648
 2645TIP3   OH2 7877   3.394   2.704   6.231
 2645TIP3    H1 7878   3.367   2.678   6.319
 2645TIP3    H2 7879   3.352   2.641   6.173
 2646TIP3   OH2 7880   2.881   0.001   4.155
 2646TIP3    H1 7881   2.852  -0.052   4.229
 2646TIP3    H2 7882   2.966   0.037   4.183
 2647TIP3   OH2 7883   0.361   5.302   0.089
 2647TIP3    H1 7884   0.422   5.283   0.160
 2647TIP3    H2 7885   0.416   5.314   0.012
 2648TIP3   OH2 7886   1.978   2.596   5.185
 2648TIP3    H1 7887   1.996   2.678   5.232
 2648TIP3    H2 7888   1.944   2.537   5.253
 2649TIP3   OH2 7889   4.254   0.721   4.550
 2649TIP3    H1 7890   4.235   0.731   4.644
 2649TIP3    H2 7891   4.313   0.793   4.530
 2650TIP3   OH2 7892   0.667   7.373   0.849
 2650TIP3    H1 7893   0.679   7.331   0.764
 2650TIP3    H2 7894   0.603   7.318   0.894
 2651TIP3   OH2 7895   5.034   4.768   5.109
 2651TIP3    H1 7896   4.983   4.814   5.176
 2651TIP3    H2 7897   5.012   4.813   5.028
 2652TIP3   OH2 7898   3.290   0.939   5.762
 2652TIP3    H1 7899   3.360   0.948   5.827
 2652TIP3    H2 7900   3.318   0.993   5.688
 2653TIP3   OH2 7901   6.899   3.560   1.966
 2653TIP3    H1 7902   6.852   3.626   1.914
 2653TIP3    H2 7903   6.991   3.572   1.943
 2654TIP3   OH2 7904   5.941   7.219   6.100
 2654TIP3    H1 7905   5.974   7.277   6.169
 2654TIP3    H2 7906   5.964   7.264   6.019
 2655TIP3   OH2 7907   0.804   6.420   2.217
 2655TIP3    H1 7908   0.862   6.495   2.202
 2655TIP3    H2 7909   0.864   6.346   2.226
 2656TIP3   OH2 7910   4.679   6.191   4.176
 2656TIP3    H1 7911   4.674   6.186   4.272
 2656TIP3    H2 7912   4.763   6.150   4.155
 2657TIP3   OH2 7913   4.068   0.732   5.399
 2657TIP3    H1 7914   4.055   0.813   5.351
 2657TIP3    H2 7915   4.112   0.674   5.337
 2658TIP3   OH2 7916   7.407   3.564   0.830
 2658TIP3    H1 7917   7.377   3.616   0.755
 2658TIP3    H2 7918   7.425   3.478   0.794
 2659TIP3   OH2 7919   7.608   5.672   0.697
 2659TIP3    H1 7920   7.604   5.601   0.633
 2659TIP3    H2 7921   7.542   5.735   0.667
 2660TIP3   OH2 7922   5.408   1.699   6.221
 2660TIP3    H1 7923   5.333   1.733   6.269
 2660TIP3    H2 7924   5.479   1.760   6.240
 2661TIP3   OH2 7925   0.182   4.505   2.172
 2661TIP3    H1 7926   0.234   4.580   2.199
 2661TIP3    H2 7927   0.207   4.490   2.081
 2662TIP3   OH2 7928   6.026   7.285   0.620
 2662TIP3    H1 7929   6.074   7.334   0.686
 2662TIP3    H2 7930   6.074   7.203   0.611
 2663TIP3   OH2 7931   7.424   4.604   5.844
 2663TIP3    H1 7932   7.356   4.609   5.912
 2663TIP3    H2 7933   7.452   4.512   5.846
 2664TIP3   OH2 7934   7.202   2.101   3.205
 2664TIP3    H1 7935   7.175   2.164   3.272
 2664TIP3    H2 7936   7.237   2.153   3.134
 2665TIP3   OH2 7937   1.346   5.331   0.828
 2665TIP3    H1 7938   1.321   5.419   0.800
 2665TIP3    H2 7939   1.347   5.335   0.924
 2666TIP3   OH2 7940   0.144   2.132   2.881
 2666TIP3    H1 7941   0.100   2.049   2.864
 2666TIP3    H2 7942   0.210   2.111   2.948
 2667TIP3   OH2 7943   3.232   3.006   3.832
 2667TIP3    H1 7944   3.153   3.026   3.882
 2667TIP3    H2 7945   3.203   2.946   3.763
 2668TIP3   OH2 7946   7.868   1.052   1.998
 2668TIP3    H1 7947   7.914   0.979   1.955
 2668TIP3    H2 7948   7.833   1.104   1.925
 2669TIP3   OH2 7949   3.626   0.803   0.157
 2669TIP3    H1 7950   3.601   0.813   0.065
 2669TIP3    H2 7951   3.642   0.892   0.188
 2670TIP3   OH2 7952   1.966   5.078   1.951
 2670TIP3    H1 7953   2.009   5.160   1.925
 2670TIP3    H2 7954   2.015   5.047   2.027
 2671TIP3   OH2 7955   3.482   6.613   0.672
 2671TIP3    H1 7956   3.464   6.705   0.694
 2671TIP3    H2 7957   3.454   6.604   0.581
 2672TIP3   OH2 7958   4.377   4.437   3.736
 2672TIP3    H1 7959   4.464   4.467   3.763
 2672TIP3    H2 7960   4.318   4.505   3.766
 2673TIP3   OH2 7961   1.536   0.841   3.458
 2673TIP3    H1 7962   1.622   0.856   3.419
 2673TIP3    H2 7963   1.476   0.892   3.404
 2674TIP3   OH2 7964   3.152   3.343   2.176
 2674TIP3    H1 7965   3.147   3.264   2.230
 2674TIP3    H2 7966   3.067   3.386   2.189
 2675TIP3   OH2 7967   6.987   7.530   1.024
 2675TIP3    H1 7968   6.900   7.497   1.002
 2675TIP3    H2 7969   7.047   7.480   0.967
 2676TIP3   OH2 7970   0.068   1.669   5.293
 2676TIP3    H1 7971   0.106   1.707   5.372
 2676TIP3    H2 7972   0.089   1.576   5.299
 2677TIP3   OH2 7973   0.536   6.863   6.633
 2677TIP3    H1 7974   0.619   6.831   6.597
 2677TIP3    H2 7975   0.546   6.958   6.634
 2678TIP3   OH2 7976   5.302   1.250   2.163
 2678TIP3    H1 7977   5.362   1.234   2.090
 2678TIP3    H2 7978   5.274   1.163   2.191
 2679TIP3   OH2 7979   2.809   0.747   6.582
 2679TIP3    H1 7980   2.714   0.748   6.580
 2679TIP3    H2 7981   2.832   0.663   6.621
 2680TIP3   OH2 7982   4.624   6.619   5.224
 2680TIP3    H1 7983   4.679   6.687   5.263
 2680TIP3    H2 7984   4.582   6.661   5.149
 2681TIP3   OH2 7985   2.175   0.317   5.654
 2681TIP3    H1 7986   2.224   0.235   5.660
 2681TIP3    H2 7987   2.130   0.325   5.737
 2682TIP3   OH2 7988   3.144   0.855   2.559
 2682TIP3    H1 7989   3.058   0.852   2.601
 2682TIP3    H2 7990   3.186   0.933   2.595
 2683TIP3   OH2 7991   0.353   4.648   3.897
 2683TIP3    H1 7992   0.377   4.583   3.831
 2683TIP3    H2 7993   0.327   4.597   3.973
 2684TIP3   OH2 7994   2.991   5.316   6.051
 2684TIP3    H1 7995   3.061   5.302   5.987
 2684TIP3    H2 7996   3.013   5.259   6.124
 2685TIP3   OH2 7997   6.495   3.804   2.027
 2685TIP3    H1 7998   6.470   3.727   1.977
 2685TIP3    H2 7999   6.514   3.772   2.115
 2686TIP3   OH2 8000   4.951   1.390   2.238
 2686TIP3    H1 8001   4.966   1.307   2.194
 2686TIP3    H2 8002   4.919   1.365   2.325
 2687TIP3   OH2 8003   4.972   0.187   6.237
 2687TIP3    H1 8004   5.023   0.266   6.251
 2687TIP3    H2 8005   5.030   0.116   6.264
 2688TIP3   OH2 8006   1.384   6.966   4.518
 2688TIP3    H1 8007   1.367   7.040   4.460
 2688TIP3    H2 8008   1.427   7.005   4.594
 2689TIP3   OH2 8009   1.984   1.523   1.115
 2689TIP3    H1 8010   1.979   1.446   1.058
 2689TIP3    H2 8011   2.072   1.520   1.152
 2690TIP3   OH2 8012   2.432   1.004   2.695
 2690TIP3    H1 8013   2.374   1.033   2.625
 2690TIP3    H2 8014   2.444   0.910   2.680
 2691TIP3   OH2 8015   6.768   3.357   1.740
 2691TIP3    H1 8016   6.724   3.408   1.672
 2691TIP3    H2 8017   6.702   3.297   1.772
 2692TIP3   OH2 8018   5.865   6.276   0.553
 2692TIP3    H1 8019   5.865   6.278   0.457
 2692TIP3    H2 8020   5.788   6.223   0.576
 2693TIP3   OH2 8021   2.715   6.306   0.803
 2693TIP3    H1 8022   2.688   6.344   0.886
 2693TIP3    H2 8023   2.803   6.342   0.788
 2694TIP3   OH2 8024   2.467   1.182   2.438
 2694TIP3    H1 8025   2.418   1.258   2.470
 2694TIP3    H2 8026   2.466   1.191   2.343
 2695TIP3   OH2 8027   1.357   4.779   1.859
 2695TIP3    H1 8028   1.435   4.789   1.804
 2695TIP3    H2 8029   1.293   4.839   1.820
 2696TIP3   OH2 8030   1.728   6.408   6.324
 2696TIP3    H1 8031   1.813   6.364   6.327
 2696TIP3    H2 8032   1.738   6.482   6.385
 2697TIP3   OH2 8033   7.018   5.471   3.290
 2697TIP3    H1 8034   6.991   5.390   3.333
 2697TIP3    H2 8035   6.946   5.493   3.232
 2698TIP3   OH2 8036   0.437   3.863   5.260
 2698TIP3    H1 8037   0.386   3.801   5.207
 2698TIP3    H2 8038   0.421   3.948   5.219
 2699TIP3   OH2 8039   8.225   3.947   1.528
 2699TIP3    H1 8040   8.235   3.994   1.446
 2699TIP3    H2 8041   8.271   3.864   1.515
 2700TIP3   OH2 8042   4.783   3.854   5.254
 2700TIP3    H1 8043   4.845   3.786   5.278
 2700TIP3    H2 8044   4.702   3.830   5.298
 2701TIP3   OH2 8045   4.590   1.451   2.427
 2701TIP3    H1 8046   4.565   1.407   2.508
 2701TIP3    H2 8047   4.510   1.494   2.397
 2702TIP3   OH2 8048   6.897   4.605   3.809
 2702TIP3    H1 8049   6.939   4.589   3.724
 2702TIP3    H2 8050   6.910   4.524   3.858
 2703TIP3   OH2 8051   7.007   5.245   6.784
 2703TIP3    H1 8052   7.036   5.154   6.777
 2703TIP3    H2 8053   7.027   5.283   6.698
 2704TIP3   OH2 8054   5.454   2.052   4.297
 2704TIP3    H1 8055   5.454   2.122   4.231
 2704TIP3    H2 8056   5.518   1.988   4.264
 2705TIP3   OH2 8057   0.474   2.343   4.890
 2705TIP3    H1 8058   0.565   2.323   4.866
 2705TIP3    H2 8059   0.476   2.350   4.985
 2706TIP3   OH2 8060   4.800   7.766   3.124
 2706TIP3    H1 8061   4.787   7.855   3.157
 2706TIP3    H2 8062   4.840   7.719   3.197
 2707TIP3   OH2 8063   7.890   6.021   0.537
 2707TIP3    H1 8064   7.896   6.096   0.478
 2707TIP3    H2 8065   7.969   6.026   0.591
 2708TIP3   OH2 8066   2.123   7.564   2.287
 2708TIP3    H1 8067   2.217   7.580   2.273
 2708TIP3    H2 8068   2.119   7.479   2.330
 2709TIP3   OH2 8069   5.586   4.302   5.485
 2709TIP3    H1 8070   5.510   4.354   5.459
 2709TIP3    H2 8071   5.633   4.357   5.548
 2710TIP3   OH2 8072   2.636   0.012   6.459
 2710TIP3    H1 8073   2.671   0.012   6.370
 2710TIP3    H2 8074   2.639   0.103   6.486
 2711TIP3   OH2 8075   5.355   0.627   0.533
 2711TIP3    H1 8076   5.400   0.709   0.551
 2711TIP3    H2 8077   5.289   0.649   0.467
 2712TIP3   OH2 8078   0.410   0.241   4.002
 2712TIP3    H1 8079   0.408   0.287   3.918
 2712TIP3    H2 8080   0.376   0.305   4.065
 2713TIP3   OH2 8081   5.044   1.261   3.333
 2713TIP3    H1 8082   5.134   1.228   3.332
 2713TIP3    H2 8083   4.996   1.200   3.277
 2714TIP3   OH2 8084   5.048   3.527   5.792
 2714TIP3    H1 8085   5.092   3.495   5.871
 2714TIP3    H2 8086   5.114   3.579   5.747
 2715TIP3   OH2 8087   5.641   4.662   2.315
 2715TIP3    H1 8088   5.661   4.639   2.224
 2715TIP3    H2 8089   5.611   4.753   2.310
 2716TIP3   OH2 8090   6.613   2.650   1.903
 2716TIP3    H1 8091   6.596   2.558   1.882
 2716TIP3    H2 8092   6.707   2.661   1.891
 2717TIP3   OH2 8093   2.841   4.130   1.233
 2717TIP3    H1 8094   2.903   4.101   1.165
 2717TIP3    H2 8095   2.895   4.176   1.296
 2718TIP3   OH2 8096   0.475   6.005   5.387
 2718TIP3    H1 8097   0.541   6.064   5.425
 2718TIP3    H2 8098   0.404   6.004   5.451
 2719TIP3   OH2 8099   5.298   5.435   6.308
 2719TIP3    H1 8100   5.390   5.445   6.330
 2719TIP3    H2 8101   5.295   5.443   6.213
 2720TIP3   OH2 8102   6.566   5.217   3.420
 2720TIP3    H1 8103   6.660   5.207   3.402
 2720TIP3    H2 8104   6.558   5.305   3.456
 2721TIP3   OH2 8105   8.007   0.612   1.450
 2721TIP3    H1 8106   8.043   0.701   1.446
 2721TIP3    H2 8107   7.925   0.617   1.402
 2722TIP3   OH2 8108   3.719   1.352   5.386
 2722TIP3    H1 8109   3.670   1.399   5.454
 2722TIP3    H2 8110   3.808   1.386   5.393
 2723TIP3   OH2 8111   7.295   2.314   5.562
 2723TIP3    H1 8112   7.217   2.368   5.555
 2723TIP3    H2 8113   7.362   2.373   5.597
 2724TIP3   OH2 8114   8.230   1.956   2.592
 2724TIP3    H1 8115   8.311   1.937   2.639
 2724TIP3    H2 8116   8.178   1.877   2.601
 2725TIP3   OH2 8117   3.661   6.534   0.880
 2725TIP3    H1 8118   3.617   6.567   0.802
 2725TIP3    H2 8119   3.626   6.587   0.952
 2726TIP3   OH2 8120   0.561   0.308   5.823
 2726TIP3    H1 8121   0.638   0.346   5.865
 2726TIP3    H2 8122   0.534   0.372   5.758
 2727TIP3   OH2 8123   6.157   0.282   5.573
 2727TIP3    H1 8124   6.181   0.195   5.542
 2727TIP3    H2 8125   6.112   0.267   5.656
 2728TIP3   OH2 8126   7.973   2.267   4.291
 2728TIP3    H1 8127   8.068   2.280   4.292
 2728TIP3    H2 8128   7.952   2.261   4.197
 2729TIP3   OH2 8129   6.049   4.776   3.163
 2729TIP3    H1 8130   6.085   4.698   3.119
 2729TIP3    H2 8131   5.960   4.785   3.127
 2730TIP3   OH2 8132   3.084   4.141   6.367
 2730TIP3    H1 8133   3.096   4.169   6.276
 2730TIP3    H2 8134   3.173   4.129   6.401
 2731TIP3   OH2 8135   6.535   6.258   3.467
 2731TIP3    H1 8136   6.581   6.334   3.501
 2731TIP3    H2 8137   6.604   6.198   3.438
 2732TIP3   OH2 8138   6.642   2.439   2.304
 2732TIP3    H1 8139   6.725   2.399   2.281
 2732TIP3    H2 8140   6.576   2.376   2.274
 2733TIP3   OH2 8141   2.232   3.147   2.572
 2733TIP3    H1 8142   2.207   3.227   2.618
 2733TIP3    H2 8143   2.305   3.174   2.516
 2734TIP3   OH2 8144   4.502   3.041   6.327
 2734TIP3    H1 8145   4.574   3.097   6.357
 2734TIP3    H2 8146   4.524   2.954   6.359
 2735TIP3   OH2 8147   4.410   1.801   6.597
 2735TIP3    H1 8148   4.493   1.756   6.581
 2735TIP3    H2 8149   4.420   1.887   6.556
 2736TIP3   OH2 8150   5.141   2.573   5.402
 2736TIP3    H1 8151   5.085   2.647   5.377
 2736TIP3    H2 8152   5.196   2.607   5.472
 2737TIP3   OH2 8153   8.111   1.739   3.665
 2737TIP3    H1 8154   8.122   1.832   3.684
 2737TIP3    H2 8155   8.199   1.708   3.646
 2738TIP3   OH2 8156   4.269   4.931   3.899
 2738TIP3    H1 8157   4.175   4.924   3.882
 2738TIP3    H2 8158   4.278   5.008   3.956
 2739TIP3   OH2 8159   2.575   6.162   4.903
 2739TIP3    H1 8160   2.633   6.095   4.940
 2739TIP3    H2 8161   2.612   6.244   4.935
 2740TIP3   OH2 8162   4.683   1.965   4.614
 2740TIP3    H1 8163   4.635   1.890   4.579
 2740TIP3    H2 8164   4.772   1.956   4.580
 2741TIP3   OH2 8165   0.284   6.340   4.330
 2741TIP3    H1 8166   0.265   6.270   4.269
 2741TIP3    H2 8167   0.287   6.297   4.416
 2742TIP3   OH2 8168   1.584  -0.035   2.952
 2742TIP3    H1 8169   1.674  -0.058   2.929
 2742TIP3    H2 8170   1.579  -0.049   3.047
 2743TIP3   OH2 8171   8.306   3.318   4.678
 2743TIP3    H1 8172   8.322   3.232   4.639
 2743TIP3    H2 8173   8.311   3.303   4.772
 2744TIP3   OH2 8174   5.350   2.770   4.835
 2744TIP3    H1 8175   5.442   2.790   4.855
 2744TIP3    H2 8176   5.333   2.817   4.753
 2745TIP3   OH2 8177   4.320   5.941   1.695
 2745TIP3    H1 8178   4.403   5.989   1.695
 2745TIP3    H2 8179   4.270   5.980   1.623
 2746TIP3   OH2 8180   7.983   2.620   3.493
 2746TIP3    H1 8181   7.942   2.703   3.467
 2746TIP3    H2 8182   7.934   2.592   3.571
 2747TIP3   OH2 8183   6.454   6.119   1.493
 2747TIP3    H1 8184   6.438   6.199   1.443
 2747TIP3    H2 8185   6.445   6.048   1.429
 2748TIP3   OH2 8186   3.854   2.441   6.178
 2748TIP3    H1 8187   3.760   2.448   6.190
 2748TIP3    H2 8188   3.891   2.512   6.231
 2749TIP3   OH2 8189   3.098   3.790   3.517
 2749TIP3    H1 8190   3.149   3.871   3.526
 2749TIP3    H2 8191   3.026   3.800   3.580
 2750TIP3   OH2 8192   5.934   5.555   1.095
 2750TIP3    H1 8193   5.954   5.597   1.011
 2750TIP3    H2 8194   5.849   5.515   1.082
 2751TIP3   OH2 8195   7.899   0.961   2.732
 2751TIP3    H1 8196   7.965   0.903   2.770
 2751TIP3    H2 8197   7.949   1.024   2.680
 2752TIP3   OH2 8198   7.279   6.700   6.083
 2752TIP3    H1 8199   7.354   6.732   6.033
 2752TIP3    H2 8200   7.293   6.606   6.090
 2753TIP3   OH2 8201   3.238   6.207   5.428
 2753TIP3    H1 8202   3.243   6.175   5.519
 2753TIP3    H2 8203   3.265   6.132   5.375
 2754TIP3   OH2 8204   1.561   0.324   4.175
 2754TIP3    H1 8205   1.499   0.390   4.142
 2754TIP3    H2 8206   1.519   0.290   4.254
 2755TIP3   OH2 8207   6.273   2.389   5.907
 2755TIP3    H1 8208   6.293   2.404   5.999
 2755TIP3    H2 8209   6.178   2.390   5.902
 2756TIP3   OH2 8210   4.467   4.085   0.790
 2756TIP3    H1 8211   4.546   4.041   0.822
 2756TIP3    H2 8212   4.469   4.074   0.695
 2757TIP3   OH2 8213   7.854   0.491   4.032
 2757TIP3    H1 8214   7.915   0.547   3.983
 2757TIP3    H2 8215   7.908   0.453   4.102
 2758TIP3   OH2 8216   4.262   5.666   5.173
 2758TIP3    H1 8217   4.172   5.696   5.161
 2758TIP3    H2 8218   4.257   5.571   5.170
 2759TIP3   OH2 8219   0.962   2.467   2.618
 2759TIP3    H1 8220   1.018   2.465   2.540
 2759TIP3    H2 8221   0.875   2.443   2.585
 2760TIP3   OH2 8222   4.464   1.726   0.467
 2760TIP3    H1 8223   4.484   1.655   0.529
 2760TIP3    H2 8224   4.453   1.682   0.383
 2761TIP3   OH2 8225   6.778   4.609   3.496
 2761TIP3    H1 8226   6.702   4.635   3.443
 2761TIP3    H2 8227   6.806   4.526   3.457
 2762TIP3   OH2 8228   5.744   0.419   3.498
 2762TIP3    H1 8229   5.828   0.461   3.477
 2762TIP3    H2 8230   5.688   0.490   3.528
 2763TIP3   OH2 8231   5.202   7.602   3.173
 2763TIP3    H1 8232   5.164   7.522   3.210
 2763TIP3    H2 8233   5.186   7.669   3.240
 2764TIP3   OH2 8234   1.260   6.804   3.095
 2764TIP3    H1 8235   1.291   6.866   3.028
 2764TIP3    H2 8236   1.340   6.777   3.141
 2765TIP3   OH2 8237   2.524   1.954   3.788
 2765TIP3    H1 8238   2.581   1.951   3.865
 2765TIP3    H2 8239   2.443   1.995   3.820
 2766TIP3   OH2 8240   6.220   5.558   5.965
 2766TIP3    H1 8241   6.182   5.498   6.029
 2766TIP3    H2 8242   6.312   5.566   5.990
 2767TIP3   OH2 8243   5.742   2.924   0.619
 2767TIP3    H1 8244   5.836   2.907   0.628
 2767TIP3    H2 8245   5.710   2.930   0.710
 2768TIP3   OH2 8246   4.950   7.452   2.398
 2768TIP3    H1 8247   4.926   7.430   2.488
 2768TIP3    H2 8248   4.995   7.374   2.366
 2769TIP3   OH2 8249   4.222   4.699   5.710
 2769TIP3    H1 8250   4.158   4.634   5.679
 2769TIP3    H2 8251   4.306   4.669   5.676
 2770TIP3   OH2 8252   1.198   5.464   5.317
 2770TIP3    H1 8253   1.253   5.530   5.358
 2770TIP3    H2 8254   1.243   5.381   5.333
 2771TIP3   OH2 8255   6.650   4.901   5.165
 2771TIP3    H1 8256   6.735   4.928   5.200
 2771TIP3    H2 8257   6.671   4.860   5.081
 2772TIP3   OH2 8258   1.896   4.267   5.520
 2772TIP3    H1 8259   1.898   4.178   5.484
 2772TIP3    H2 8260   1.987   4.285   5.544
 2773TIP3   OH2 8261   0.397   4.913   2.211
 2773TIP3    H1 8262   0.393   4.986   2.273
 2773TIP3    H2 8263   0.382   4.835   2.265
 2774TIP3   OH2 8264   6.564   5.642   5.684
 2774TIP3    H1 8265   6.533   5.722   5.726
 2774TIP3    H2 8266   6.527   5.645   5.596
 2775TIP3   OH2 8267   2.466   1.842   0.283
 2775TIP3    H1 8268   2.393   1.842   0.345
 2775TIP3    H2 8269   2.441   1.780   0.215
 2776TIP3   OH2 8270   1.525   7.075   5.539
 2776TIP3    H1 8271   1.490   7.164   5.542
 2776TIP3    H2 8272   1.547   7.061   5.446
 2777TIP3   OH2 8273   8.285   1.179   3.143
 2777TIP3    H1 8274   8.321   1.156   3.058
 2777TIP3    H2 8275   8.216   1.114   3.158
 2778TIP3   OH2 8276   6.841   3.857   3.070
 2778TIP3    H1 8277   6.768   3.803   3.040
 2778TIP3    H2 8278   6.882   3.889   2.990
 2779TIP3   OH2 8279   4.400   6.912   3.135
 2779TIP3    H1 8280   4.401   7.008   3.142
 2779TIP3    H2 8281   4.492   6.887   3.146
 2780TIP3   OH2 8282   7.081   7.713   6.629
 2780TIP3    H1 8283   7.052   7.625   6.655
 2780TIP3    H2 8284   7.000   7.757   6.604
 2781TIP3   OH2 8285   0.218   3.221   1.615
 2781TIP3    H1 8286   0.150   3.260   1.671
 2781TIP3    H2 8287   0.273   3.172   1.676
 2782TIP3   OH2 8288   0.778   6.680   3.727
 2782TIP3    H1 8289   0.766   6.609   3.790
 2782TIP3    H2 8290   0.691   6.696   3.692
 2783TIP3   OH2 8291   0.729   4.222   1.823
 2783TIP3    H1 8292   0.796   4.288   1.805
 2783TIP3    H2 8293   0.707   4.235   1.915
 2784TIP3   OH2 8294   3.655   0.462   6.528
 2784TIP3    H1 8295   3.614   0.402   6.590
 2784TIP3    H2 8296   3.583   0.516   6.496
 2785TIP3   OH2 8297   5.893   5.160   5.745
 2785TIP3    H1 8298   5.917   5.148   5.653
 2785TIP3    H2 8299   5.807   5.120   5.752
 2786TIP3   OH2 8300   0.709   1.750   4.806
 2786TIP3    H1 8301   0.702   1.774   4.898
 2786TIP3    H2 8302   0.673   1.661   4.801
 2787TIP3   OH2 8303   3.305   5.446   5.173
 2787TIP3    H1 8304   3.279   5.474   5.261
 2787TIP3    H2 8305   3.344   5.359   5.186
 2788TIP3   OH2 8306   7.621   1.940   5.121
 2788TIP3    H1 8307   7.679   2.017   5.124
 2788TIP3    H2 8308   7.681   1.865   5.118
 2789TIP3   OH2 8309   0.416   5.191   2.777
 2789TIP3    H1 8310   0.401   5.139   2.856
 2789TIP3    H2 8311   0.331   5.232   2.759
 2790TIP3   OH2 8312   7.936   3.750   1.808
 2790TIP3    H1 8313   7.904   3.662   1.785
 2790TIP3    H2 8314   7.922   3.756   1.902
 2791TIP3   OH2 8315   0.449   2.874   0.535
 2791TIP3    H1 8316   0.457   2.858   0.441
 2791TIP3    H2 8317   0.448   2.787   0.575
 2792TIP3   OH2 8318   4.868   4.628   1.945
 2792TIP3    H1 8319   4.796   4.631   2.008
 2792TIP3    H2 8320   4.933   4.690   1.980
 2793TIP3   OH2 8321   7.061   2.984   1.504
 2793TIP3    H1 8322   7.042   3.046   1.574
 2793TIP3    H2 8323   7.042   3.032   1.423
 2794TIP3   OH2 8324   6.470   1.248   0.351
 2794TIP3    H1 8325   6.492   1.253   0.258
 2794TIP3    H2 8326   6.524   1.176   0.384
 2795TIP3   OH2 8327   8.227   3.098   3.829
 2795TIP3    H1 8328   8.276   3.050   3.896
 2795TIP3    H2 8329   8.285   3.098   3.753
 2796TIP3   OH2 8330   4.758   1.561   2.102
 2796TIP3    H1 8331   4.712   1.521   2.028
 2796TIP3    H2 8332   4.787   1.487   2.155
 2797TIP3   OH2 8333   6.221   4.983   3.962
 2797TIP3    H1 8334   6.126   4.974   3.966
 2797TIP3    H2 8335   6.250   4.966   4.052
 2798TIP3   OH2 8336   6.853   6.791   5.377
 2798TIP3    H1 8337   6.942   6.820   5.358
 2798TIP3    H2 8338   6.832   6.732   5.305
 2799TIP3   OH2 8339   6.802   3.867   0.532
 2799TIP3    H1 8340   6.872   3.925   0.562
 2799TIP3    H2 8341   6.826   3.845   0.442
 2800TIP3   OH2 8342   6.243   4.912   2.381
 2800TIP3    H1 8343   6.225   4.833   2.432
 2800TIP3    H2 8344   6.264   4.880   2.293
 2801TIP3   OH2 8345   7.104   5.963   1.972
 2801TIP3    H1 8346   7.130   5.926   2.056
 2801TIP3    H2 8347   7.023   6.011   1.990
 2802TIP3   OH2 8348   5.637   0.864   2.719
 2802TIP3    H1 8349   5.596   0.873   2.633
 2802TIP3    H2 8350   5.723   0.905   2.708
 2803TIP3   OH2 8351   3.644   0.699   0.653
 2803TIP3    H1 8352   3.582   0.630   0.632
 2803TIP3    H2 8353   3.616   0.731   0.739
 2804TIP3   OH2 8354   5.989   4.507   1.079
 2804TIP3    H1 8355   5.938   4.579   1.116
 2804TIP3    H2 8356   6.080   4.538   1.083
 2805TIP3   OH2 8357   2.114   1.173   4.334
 2805TIP3    H1 8358   2.113   1.159   4.428
 2805TIP3    H2 8359   2.163   1.255   4.322
 2806TIP3   OH2 8360   7.108   5.403   0.407
 2806TIP3    H1 8361   7.061   5.409   0.324
 2806TIP3    H2 8362   7.191   5.448   0.392
 2807TIP3   OH2 8363   0.745   7.326   1.830
 2807TIP3    H1 8364   0.796   7.253   1.865
 2807TIP3    H2 8365   0.761   7.398   1.891
 2808TIP3   OH2 8366   0.294   6.685   6.195
 2808TIP3    H1 8367   0.252   6.599   6.189
 2808TIP3    H2 8368   0.286   6.710   6.287
 2809TIP3   OH2 8369   7.501   4.519   4.913
 2809TIP3    H1 8370   7.497   4.426   4.890
 2809TIP3    H2 8371   7.582   4.527   4.963
 2810TIP3   OH2 8372   5.204   4.130   2.193
 2810TIP3    H1 8373   5.202   4.052   2.138
 2810TIP3    H2 8374   5.119   4.132   2.236
 2811TIP3   OH2 8375   2.478   3.046   5.707
 2811TIP3    H1 8376   2.520   2.967   5.740
 2811TIP3    H2 8377   2.391   3.018   5.680
 2812TIP3   OH2 8378   3.039   3.405   1.424
 2812TIP3    H1 8379   2.990   3.448   1.355
 2812TIP3    H2 8380   3.130   3.405   1.393
 2813TIP3   OH2 8381   2.502   5.720   6.758
 2813TIP3    H1 8382   2.548   5.638   6.744
 2813TIP3    H2 8383   2.423   5.696   6.806
 2814TIP3   OH2 8384   6.163   6.975   2.491
 2814TIP3    H1 8385   6.100   6.924   2.541
 2814TIP3    H2 8386   6.247   6.959   2.534
 2815TIP3   OH2 8387   1.021   4.904   0.554
 2815TIP3    H1 8388   0.976   4.926   0.636
 2815TIP3    H2 8389   1.013   4.809   0.548
 2816TIP3   OH2 8390   4.416   4.943   4.509
 2816TIP3    H1 8391   4.323   4.925   4.494
 2816TIP3    H2 8392   4.459   4.910   4.430
 2817TIP3   OH2 8393   5.027   2.347   5.655
 2817TIP3    H1 8394   4.996   2.377   5.740
 2817TIP3    H2 8395   5.017   2.423   5.597
 2818TIP3   OH2 8396   5.903   2.638   0.633
 2818TIP3    H1 8397   5.809   2.653   0.648
 2818TIP3    H2 8398   5.905   2.565   0.571
 2819TIP3   OH2 8399   0.167   5.593   2.361
 2819TIP3    H1 8400   0.124   5.678   2.353
 2819TIP3    H2 8401   0.144   5.563   2.449
 2820TIP3   OH2 8402   6.682   3.109   3.074
 2820TIP3    H1 8403   6.742   3.042   3.041
 2820TIP3    H2 8404   6.730   3.152   3.145
 2821TIP3   OH2 8405   0.225   5.430   6.497
 2821TIP3    H1 8406   0.276   5.483   6.436
 2821TIP3    H2 8407   0.286   5.364   6.529
 2822TIP3   OH2 8408   0.990   5.049   2.833
 2822TIP3    H1 8409   0.950   4.962   2.834
 2822TIP3    H2 8410   1.061   5.044   2.897
 2823TIP3   OH2 8411   4.852   3.903   3.760
 2823TIP3    H1 8412   4.763   3.870   3.769
 2823TIP3    H2 8413   4.842   3.995   3.734
 2824TIP3   OH2 8414   6.246   4.080   5.530
 2824TIP3    H1 8415   6.189   4.149   5.496
 2824TIP3    H2 8416   6.332   4.099   5.492
 2825TIP3   OH2 8417   2.665   5.961   0.796
 2825TIP3    H1 8418   2.575   5.930   0.806
 2825TIP3    H2 8419   2.716   5.905   0.854
 2826TIP3   OH2 8420   6.026   6.047   0.646
 2826TIP3    H1 8421   5.979   5.964   0.637
 2826TIP3    H2 8422   5.957   6.113   0.640
 2827TIP3   OH2 8423   6.313   5.162   3.304
 2827TIP3    H1 8424   6.401   5.180   3.336
 2827TIP3    H2 8425   6.284   5.245   3.267
 2828TIP3   OH2 8426   6.739   3.404   0.400
 2828TIP3    H1 8427   6.712   3.376   0.488
 2828TIP3    H2 8428   6.812   3.464   0.415
 2829TIP3   OH2 8429   5.879   5.055   5.109
 2829TIP3    H1 8430   5.873   5.018   5.020
 2829TIP3    H2 8431   5.816   5.127   5.109
 2830TIP3   OH2 8432   6.133   0.074   6.730
 2830TIP3    H1 8433   6.217   0.037   6.758
 2830TIP3    H2 8434   6.088   0.096   6.811
 2831TIP3   OH2 8435   2.010   0.226   6.282
 2831TIP3    H1 8436   2.088   0.278   6.298
 2831TIP3    H2 8437   2.008   0.163   6.355
 2832TIP3   OH2 8438   2.741   6.189   3.031
 2832TIP3    H1 8439   2.677   6.245   2.987
 2832TIP3    H2 8440   2.691   6.109   3.051
 2833TIP3   OH2 8441   8.023   3.841   6.297
 2833TIP3    H1 8442   8.058   3.842   6.208
 2833TIP3    H2 8443   7.939   3.885   6.290
 2834TIP3   OH2 8444   0.561   6.201   0.469
 2834TIP3    H1 8445   0.621   6.271   0.493
 2834TIP3    H2 8446   0.558   6.204   0.373
 2835TIP3   OH2 8447   5.860   2.199   3.737
 2835TIP3    H1 8448   5.875   2.150   3.817
 2835TIP3    H2 8449   5.936   2.181   3.682
 2836TIP3   OH2 8450   0.765   3.783   1.911
 2836TIP3    H1 8451   0.685   3.733   1.928
 2836TIP3    H2 8452   0.835   3.718   1.916
 2837TIP3   OH2 8453   1.880   0.829   0.587
 2837TIP3    H1 8454   1.803   0.866   0.545
 2837TIP3    H2 8455   1.872   0.734   0.572
 2838TIP3   OH2 8456   7.547   5.397   4.871
 2838TIP3    H1 8457   7.458   5.418   4.843
 2838TIP3    H2 8458   7.550   5.421   4.964
 2839TIP3   OH2 8459   7.497   5.676   3.340
 2839TIP3    H1 8460   7.549   5.603   3.308
 2839TIP3    H2 8461   7.409   5.660   3.304
 2840TIP3   OH2 8462   5.670   1.228   3.431
 2840TIP3    H1 8463   5.634   1.257   3.515
 2840TIP3    H2 8464   5.635   1.140   3.419
 2841TIP3   OH2 8465   2.707   5.143   6.346
 2841TIP3    H1 8466   2.747   5.074   6.398
 2841TIP3    H2 8467   2.769   5.216   6.352
 2842TIP3   OH2 8468   1.212   6.901   5.633
 2842TIP3    H1 8469   1.251   6.863   5.554
 2842TIP3    H2 8470   1.259   6.860   5.705
 2843TIP3   OH2 8471   5.689   2.605   4.263
 2843TIP3    H1 8472   5.734   2.571   4.185
 2843TIP3    H2 8473   5.680   2.528   4.319
 2844TIP3   OH2 8474   3.354   3.672   5.956
 2844TIP3    H1 8475   3.336   3.581   5.936
 2844TIP3    H2 8476   3.310   3.689   6.039
 2845TIP3   OH2 8477   6.253   5.293   4.246
 2845TIP3    H1 8478   6.282   5.341   4.169
 2845TIP3    H2 8479   6.293   5.206   4.237
 2846TIP3   OH2 8480   0.152   4.475   4.226
 2846TIP3    H1 8481   0.104   4.394   4.208
 2846TIP3    H2 8482   0.133   4.532   4.151
 2847TIP3   OH2 8483   6.139   1.420   1.268
 2847TIP3    H1 8484   6.118   1.441   1.359
 2847TIP3    H2 8485   6.215   1.473   1.248
 2848TIP3   OH2 8486   0.348   6.454   6.657
 2848TIP3    H1 8487   0.439   6.434   6.679
 2848TIP3    H2 8488   0.343   6.549   6.656
 2849TIP3   OH2 8489   3.723   4.375   0.731
 2849TIP3    H1 8490   3.629   4.375   0.713
 2849TIP3    H2 8491   3.759   4.307   0.674
 2850TIP3   OH2 8492   7.274   3.630   3.461
 2850TIP3    H1 8493   7.325   3.556   3.428
 2850TIP3    H2 8494   7.255   3.683   3.383
 2851TIP3   OH2 8495   5.437   1.097   6.254
 2851TIP3    H1 8496   5.429   1.022   6.313
 2851TIP3    H2 8497   5.383   1.074   6.178
 2852TIP3   OH2 8498   5.173   1.990   6.387
 2852TIP3    H1 8499   5.231   2.061   6.360
 2852TIP3    H2 8500   5.185   1.983   6.481
 2853TIP3   OH2 8501   5.545   4.695   3.860
 2853TIP3    H1 8502   5.596   4.767   3.823
 2853TIP3    H2 8503   5.507   4.651   3.783
 2854TIP3   OH2 8504   4.980   1.461   4.517
 2854TIP3    H1 8505   4.967   1.511   4.435
 2854TIP3    H2 8506   5.055   1.503   4.558
 2855TIP3   OH2 8507   7.902   6.273   0.377
 2855TIP3    H1 8508   7.932   6.266   0.287
 2855TIP3    H2 8509   7.826   6.330   0.373
 2856TIP3   OH2 8510   8.149   0.240   1.654
 2856TIP3    H1 8511   8.096   0.172   1.696
 2856TIP3    H2 8512   8.239   0.210   1.663
 2857TIP3   OH2 8513   6.159   2.675   5.939
 2857TIP3    H1 8514   6.145   2.588   5.975
 2857TIP3    H2 8515   6.251   2.695   5.959
 2858TIP3   OH2 8516   3.632   0.521   2.422
 2858TIP3    H1 8517   3.631   0.523   2.517
 2858TIP3    H2 8518   3.668   0.606   2.397
 2859TIP3   OH2 8519   4.579   2.340   3.838
 2859TIP3    H1 8520   4.645   2.404   3.812
 2859TIP3    H2 8521   4.524   2.329   3.761
 2860TIP3   OH2 8522   5.530   2.477   1.667
 2860TIP3    H1 8523   5.517   2.567   1.699
 2860TIP3    H2 8524   5.441   2.445   1.649
 2861TIP3   OH2 8525   7.132   5.869   0.897
 2861TIP3    H1 8526   7.112   5.833   0.811
 2861TIP3    H2 8527   7.111   5.962   0.890
 2862TIP3   OH2 8528   0.946   7.099   1.721
 2862TIP3    H1 8529   0.953   7.119   1.815
 2862TIP3    H2 8530   0.949   7.185   1.679
 2863TIP3   OH2 8531   6.534   7.418   2.783
 2863TIP3    H1 8532   6.613   7.472   2.777
 2863TIP3    H2 8533   6.547   7.351   2.716
 2864TIP3   OH2 8534   0.327   3.688   5.087
 2864TIP3    H1 8535   0.232   3.677   5.096
 2864TIP3    H2 8536   0.352   3.625   5.019
 2865TIP3   OH2 8537   0.324   1.696   5.839
 2865TIP3    H1 8538   0.414   1.679   5.813
 2865TIP3    H2 8539   0.329   1.716   5.933
 2866TIP3   OH2 8540   2.836   0.124   4.543
 2866TIP3    H1 8541   2.742   0.104   4.536
 2866TIP3    H2 8542   2.849   0.197   4.483
 2867TIP3   OH2 8543   1.508   4.732   4.043
 2867TIP3    H1 8544   1.506   4.808   4.103
 2867TIP3    H2 8545   1.422   4.734   4.000
 2868TIP3   OH2 8546   6.339   0.736   1.105
 2868TIP3    H1 8547   6.300   0.749   1.019
 2868TIP3    H2 8548   6.403   0.806   1.114
 2869TIP3   OH2 8549   6.038   4.505   5.912
 2869TIP3    H1 8550   6.026   4.424   5.862
 2869TIP3    H2 8551   5.963   4.508   5.971
 2870TIP3   OH2 8552   7.469   4.882   3.164
 2870TIP3    H1 8553   7.429   4.837   3.090
 2870TIP3    H2 8554   7.474   4.974   3.137
 2871TIP3   OH2 8555   1.362   1.459   5.749
 2871TIP3    H1 8556   1.415   1.539   5.746
 2871TIP3    H2 8557   1.348   1.436   5.657
 2872TIP3   OH2 8558   2.480   7.145   1.769
 2872TIP3    H1 8559   2.546   7.180   1.829
 2872TIP3    H2 8560   2.482   7.205   1.694
 2873TIP3   OH2 8561   2.326   3.752   3.332
 2873TIP3    H1 8562   2.312   3.714   3.419
 2873TIP3    H2 8563   2.397   3.815   3.346
 2874TIP3   OH2 8564   6.088   0.860   2.708
 2874TIP3    H1 8565   6.018   0.817   2.757
 2874TIP3    H2 8566   6.126   0.791   2.654
 2875TIP3   OH2 8567   7.430   2.418   4.071
 2875TIP3    H1 8568   7.506   2.449   4.120
 2875TIP3    H2 8569   7.437   2.460   3.986
 2876TIP3   OH2 8570   7.639   5.442   3.393
 2876TIP3    H1 8571   7.726   5.461   3.358
 2876TIP3    H2 8572   7.652   5.436   3.488
 2877TIP3   OH2 8573   1.513   7.102   4.714
 2877TIP3    H1 8574   1.515   7.197   4.721
 2877TIP3    H2 8575   1.475   7.072   4.796
 2878TIP3   OH2 8576   4.540   2.788   6.414
 2878TIP3    H1 8577   4.605   2.746   6.471
 2878TIP3    H2 8578   4.458   2.743   6.432
 2879TIP3   OH2 8579   0.909   3.944   0.535
 2879TIP3    H1 8580   0.988   3.906   0.573
 2879TIP3    H2 8581   0.922   3.937   0.440
 2880TIP3   OH2 8582   0.781   1.451   1.698
 2880TIP3    H1 8583   0.758   1.455   1.791
 2880TIP3    H2 8584   0.830   1.369   1.688
 2881TIP3   OH2 8585   3.644   7.426   4.097
 2881TIP3    H1 8586   3.630   7.486   4.170
 2881TIP3    H2 8587   3.732   7.392   4.111
 2882TIP3   OH2 8588   4.441   3.951   1.669
 2882TIP3    H1 8589   4.355   3.925   1.637
 2882TIP3    H2 8590   4.460   4.033   1.623
 2883TIP3   OH2 8591   3.663   2.856   5.573
 2883TIP3    H1 8592   3.584   2.907   5.559
 2883TIP3    H2 8593   3.697   2.839   5.485
 2884TIP3   OH2 8594   3.927   3.402   1.395
 2884TIP3    H1 8595   3.866   3.396   1.321
 2884TIP3    H2 8596   4.000   3.345   1.371
 2885TIP3   OH2 8597   4.041   6.923   1.511
 2885TIP3    H1 8598   4.082   6.993   1.460
 2885TIP3    H2 8599   4.104   6.906   1.582
 2886TIP3   OH2 8600   3.887   0.289   4.804
 2886TIP3    H1 8601   3.794   0.267   4.800
 2886TIP3    H2 8602   3.929   0.211   4.839
 2887TIP3   OH2 8603   1.148   4.195   1.958
 2887TIP3    H1 8604   1.090   4.179   1.883
 2887TIP3    H2 8605   1.088   4.201   2.033
 2888TIP3   OH2 8606   2.413   6.234   0.397
 2888TIP3    H1 8607   2.456   6.159   0.355
 2888TIP3    H2 8608   2.456   6.241   0.482
 2889TIP3   OH2 8609   3.199   2.917   1.237
 2889TIP3    H1 8610   3.290   2.927   1.265
 2889TIP3    H2 8611   3.153   2.990   1.279
 2890TIP3   OH2 8612   5.503   0.375   0.481
 2890TIP3    H1 8613   5.507   0.457   0.432
 2890TIP3    H2 8614   5.530   0.309   0.417
 2891TIP3   OH2 8615   1.812   4.994   5.579
 2891TIP3    H1 8616   1.888   4.961   5.627
 2891TIP3    H2 8617   1.738   4.946   5.617
 2892TIP3   OH2 8618   4.482   0.160   3.913
 2892TIP3    H1 8619   4.468   0.209   3.832
 2892TIP3    H2 8620   4.461   0.221   3.983
 2893TIP3   OH2 8621   0.865   0.154   0.086
 2893TIP3    H1 8622   0.891   0.116   0.002
 2893TIP3    H2 8623   0.946   0.156   0.137
 2894TIP3   OH2 8624   3.118   6.143   2.077
 2894TIP3    H1 8625   3.182   6.089   2.031
 2894TIP3    H2 8626   3.041   6.088   2.084
 2895TIP3   OH2 8627   6.166   1.433   2.000
 2895TIP3    H1 8628   6.244   1.377   2.005
 2895TIP3    H2 8629   6.174   1.493   2.074
 2896TIP3   OH2 8630   7.785   3.361   5.092
 2896TIP3    H1 8631   7.838   3.317   5.158
 2896TIP3    H2 8632   7.700   3.319   5.098
 2897TIP3   OH2 8633   2.825   5.635   2.719
 2897TIP3    H1 8634   2.800   5.714   2.767
 2897TIP3    H2 8635   2.920   5.631   2.726
 2898TIP3   OH2 8636   7.660   6.439   4.683
 2898TIP3    H1 8637   7.650   6.507   4.615
 2898TIP3    H2 8638   7.636   6.358   4.639
 2899TIP3   OH2 8639   2.044   1.926   3.327
 2899TIP3    H1 8640   2.032   1.961   3.415
 2899TIP3    H2 8641   1.961   1.883   3.306
 2900TIP3   OH2 8642   1.454   6.477   5.692
 2900TIP3    H1 8643   1.382   6.485   5.630
 2900TIP3    H2 8644   1.443   6.551   5.752
 2901TIP3   OH2 8645   7.390   1.072   3.142
 2901TIP3    H1 8646   7.464   1.048   3.086
 2901TIP3    H2 8647   7.327   1.000   3.131
 2902TIP3   OH2 8648   5.383   4.169   1.771
 2902TIP3    H1 8649   5.439   4.197   1.843
 2902TIP3    H2 8650   5.313   4.118   1.813
 2903TIP3   OH2 8651   3.444   4.527   3.669
 2903TIP3    H1 8652   3.418   4.586   3.740
 2903TIP3    H2 8653   3.496   4.459   3.713
 2904TIP3   OH2 8654   4.310   2.364   6.628
 2904TIP3    H1 8655   4.297   2.449   6.586
 2904TIP3    H2 8656   4.234   2.353   6.684
 2905TIP3   OH2 8657   8.227   6.497   0.014
 2905TIP3    H1 8658   8.276   6.431  -0.034
 2905TIP3    H2 8659   8.140   6.496  -0.026
 2906TIP3   OH2 8660   2.561   5.780   3.380
 2906TIP3    H1 8661   2.483   5.833   3.397
 2906TIP3    H2 8662   2.527   5.695   3.352
 2907TIP3   OH2 8663   7.205   6.645   5.011
 2907TIP3    H1 8664   7.211   6.643   5.106
 2907TIP3    H2 8665   7.273   6.707   4.984
 2908TIP3   OH2 8666   2.516   4.713   4.817
 2908TIP3    H1 8667   2.444   4.771   4.793
 2908TIP3    H2 8668   2.595   4.762   4.795
 2909TIP3   OH2 8669   0.328   6.603   1.992
 2909TIP3    H1 8670   0.373   6.560   2.065
 2909TIP3    H2 8671   0.250   6.642   2.032
 2910TIP3   OH2 8672   0.312   7.171   1.997
 2910TIP3    H1 8673   0.378   7.103   2.008
 2910TIP3    H2 8674   0.358   7.241   1.950
 2911TIP3   OH2 8675   1.351   6.286   3.033
 2911TIP3    H1 8676   1.435   6.264   2.992
 2911TIP3    H2 8677   1.286   6.233   2.986
 2912TIP3   OH2 8678   6.962   2.210   5.790
 2912TIP3    H1 8679   6.962   2.170   5.877
 2912TIP3    H2 8680   7.012   2.291   5.800
 2913TIP3   OH2 8681   7.007   6.895   2.474
 2913TIP3    H1 8682   6.960   6.926   2.552
 2913TIP3    H2 8683   7.043   6.810   2.500
 2914TIP3   OH2 8684   4.307   4.135   3.215
 2914TIP3    H1 8685   4.304   4.161   3.123
 2914TIP3    H2 8686   4.364   4.059   3.217
 2915TIP3   OH2 8687   6.164   3.832   5.518
 2915TIP3    H1 8688   6.218   3.910   5.535
 2915TIP3    H2 8689   6.177   3.815   5.424
 2916TIP3   OH2 8690   4.374   6.515   0.388
 2916TIP3    H1 8691   4.415   6.533   0.303
 2916TIP3    H2 8692   4.328   6.596   0.410
 2917TIP3   OH2 8693   2.728   4.154   3.246
 2917TIP3    H1 8694   2.790   4.162   3.174
 2917TIP3    H2 8695   2.649   4.118   3.205
 2918TIP3   OH2 8696   0.333   5.570   2.600
 2918TIP3    H1 8697   0.379   5.630   2.541
 2918TIP3    H2 8698   0.255   5.617   2.628
 2919TIP3   OH2 8699   3.317   6.549   5.182
 2919TIP3    H1 8700   3.358   6.476   5.229
 2919TIP3    H2 8701   3.373   6.625   5.203
 2920TIP3   OH2 8702   7.514   2.869   2.478
 2920TIP3    H1 8703   7.513   2.936   2.546
 2920TIP3    H2 8704   7.606   2.866   2.449
 2921TIP3   OH2 8705   7.074   1.131   4.710
 2921TIP3    H1 8706   7.058   1.195   4.641
 2921TIP3    H2 8707   7.025   1.054   4.682
 2922TIP3   OH2 8708   1.310   0.116   1.486
 2922TIP3    H1 8709   1.249   0.085   1.553
 2922TIP3    H2 8710   1.360   0.039   1.461
 2923TIP3   OH2 8711   6.501   0.218   0.089
 2923TIP3    H1 8712   6.503   0.268   0.171
 2923TIP3    H2 8713   6.509   0.285   0.021
 2924TIP3   OH2 8714   5.654   3.409   6.129
 2924TIP3    H1 8715   5.745   3.408   6.099
 2924TIP3    H2 8716   5.620   3.493   6.099
 2925TIP3   OH2 8717   6.351   6.792   2.018
 2925TIP3    H1 8718   6.383   6.712   1.977
 2925TIP3    H2 8719   6.257   6.776   2.032
 2926TIP3   OH2 8720   1.292   2.881   0.376
 2926TIP3    H1 8721   1.334   2.799   0.401
 2926TIP3    H2 8722   1.364   2.943   0.366
 2927TIP3   OH2 8723   4.106   2.954   5.573
 2927TIP3    H1 8724   4.138   2.900   5.646
 2927TIP3    H2 8725   4.079   2.890   5.507
 2928TIP3   OH2 8726   5.220   6.301   2.513
 2928TIP3    H1 8727   5.242   6.221   2.560
 2928TIP3    H2 8728   5.211   6.367   2.582
 2929TIP3   OH2 8729   5.801   0.582   3.147
 2929TIP3    H1 8730   5.765   0.648   3.205
 2929TIP3    H2 8731   5.878   0.548   3.194
 2930TIP3   OH2 8732   0.295   2.406   1.630
 2930TIP3    H1 8733   0.318   2.412   1.537
 2930TIP3    H2 8734   0.233   2.478   1.644
 2931TIP3   OH2 8735   3.155   7.318   2.537
 2931TIP3    H1 8736   3.185   7.397   2.492
 2931TIP3    H2 8737   3.199   7.246   2.492
 2932TIP3   OH2 8738   5.144   3.518   3.248
 2932TIP3    H1 8739   5.118   3.603   3.282
 2932TIP3    H2 8740   5.235   3.529   3.219
 2933TIP3   OH2 8741   0.061   3.414   2.261
 2933TIP3    H1 8742   0.050   3.319   2.259
 2933TIP3    H2 8743  -0.019   3.446   2.303
 2934TIP3   OH2 8744   1.924   4.565   1.075
 2934TIP3    H1 8745   1.922   4.644   1.021
 2934TIP3    H2 8746   1.938   4.597   1.164
 2935TIP3   OH2 8747   3.929   4.779   1.067
 2935TIP3    H1 8748   3.888   4.697   1.040
 2935TIP3    H2 8749   3.965   4.760   1.153
 2936TIP3   OH2 8750   1.259   4.862   2.145
 2936TIP3    H1 8751   1.340   4.863   2.195
 2936TIP3    H2 8752   1.277   4.805   2.071
 2937TIP3   OH2 8753   3.700   6.419   2.152
 2937TIP3    H1 8754   3.637   6.416   2.223
 2937TIP3    H2 8755   3.785   6.410   2.195
 2938TIP3   OH2 8756   7.438   1.536   3.383
 2938TIP3    H1 8757   7.359   1.583   3.409
 2938TIP3    H2 8758   7.448   1.468   3.449
 2939TIP3   OH2 8759   7.099   0.715   0.326
 2939TIP3    H1 8760   7.075   0.687   0.414
 2939TIP3    H2 8761   7.114   0.809   0.335
 2940TIP3   OH2 8762   6.177   3.401   3.879
 2940TIP3    H1 8763   6.123   3.377   3.954
 2940TIP3    H2 8764   6.146   3.345   3.808
 2941TIP3   OH2 8765   6.412   0.236   3.466
 2941TIP3    H1 8766   6.354   0.159   3.469
 2941TIP3    H2 8767   6.454   0.231   3.381
 2942TIP3   OH2 8768   3.157   6.788   1.969
 2942TIP3    H1 8769   3.061   6.796   1.974
 2942TIP3    H2 8770   3.189   6.853   2.031
 2943TIP3   OH2 8771   6.745   2.334   6.029
 2943TIP3    H1 8772   6.836   2.328   6.057
 2943TIP3    H2 8773   6.736   2.266   5.962
 2944TIP3   OH2 8774   2.769   0.024   1.902
 2944TIP3    H1 8775   2.717   0.085   1.954
 2944TIP3    H2 8776   2.820   0.080   1.843
 2945TIP3   OH2 8777   3.529   7.619   1.396
 2945TIP3    H1 8778   3.509   7.531   1.363
 2945TIP3    H2 8779   3.460   7.674   1.357
 2946TIP3   OH2 8780   3.057   6.650   2.875
 2946TIP3    H1 8781   3.086   6.657   2.784
 2946TIP3    H2 8782   3.015   6.564   2.879
 2947TIP3   OH2 8783   4.466   2.907   2.720
 2947TIP3    H1 8784   4.437   2.857   2.796
 2947TIP3    H2 8785   4.550   2.868   2.696
 2948TIP3   OH2 8786   4.191   3.686   6.123
 2948TIP3    H1 8787   4.140   3.608   6.144
 2948TIP3    H2 8788   4.242   3.703   6.202
 2949TIP3   OH2 8789   1.678   1.026   1.942
 2949TIP3    H1 8790   1.615   1.033   1.870
 2949TIP3    H2 8791   1.626   0.996   2.016
 2950TIP3   OH2 8792   6.814   4.902   4.143
 2950TIP3    H1 8793   6.901   4.939   4.154
 2950TIP3    H2 8794   6.758   4.977   4.125
 2951TIP3   OH2 8795   2.202   0.443   6.365
 2951TIP3    H1 8796   2.196   0.538   6.365
 2951TIP3    H2 8797   2.268   0.423   6.432
 2952TIP3   OH2 8798   6.417   0.687   0.324
 2952TIP3    H1 8799   6.381   0.721   0.242
 2952TIP3    H2 8800   6.396   0.594   0.323
 2953TIP3   OH2 8801   4.395   5.750   5.454
 2953TIP3    H1 8802   4.320   5.734   5.396
 2953TIP3    H2 8803   4.461   5.686   5.426
 2954TIP3   OH2 8804   5.372   6.042   3.433
 2954TIP3    H1 8805   5.316   6.033   3.356
 2954TIP3    H2 8806   5.318   6.087   3.497
 2955TIP3   OH2 8807   0.577   3.948   4.708
 2955TIP3    H1 8808   0.653   3.896   4.680
 2955TIP3    H2 8809   0.614   4.016   4.763
 2956TIP3   OH2 8810   3.674   6.342   4.563
 2956TIP3    H1 8811   3.754   6.297   4.535
 2956TIP3    H2 8812   3.607   6.312   4.502
 2957TIP3   OH2 8813   4.793   3.127   4.408
 2957TIP3    H1 8814   4.778   3.040   4.370
 2957TIP3    H2 8815   4.716   3.178   4.382
 2958TIP3   OH2 8816   4.411   6.397   4.777
 2958TIP3    H1 8817   4.369   6.483   4.776
 2958TIP3    H2 8818   4.346   6.339   4.816
 2959TIP3   OH2 8819   4.579   7.590   1.844
 2959TIP3    H1 8820   4.550   7.529   1.912
 2959TIP3    H2 8821   4.588   7.674   1.889
 2960TIP3   OH2 8822   1.038   7.697   6.672
 2960TIP3    H1 8823   1.017   7.775   6.621
 2960TIP3    H2 8824   0.957   7.676   6.718
 2961TIP3   OH2 8825   3.084   0.348   4.461
 2961TIP3    H1 8826   3.165   0.310   4.496
 2961TIP3    H2 8827   3.062   0.419   4.522
 2962TIP3   OH2 8828   2.043   5.130   5.166
 2962TIP3    H1 8829   2.034   5.044   5.206
 2962TIP3    H2 8830   1.959   5.173   5.183
 2963TIP3   OH2 8831   1.454   5.203   0.190
 2963TIP3    H1 8832   1.385   5.139   0.206
 2963TIP3    H2 8833   1.521   5.155   0.142
 2964TIP3   OH2 8834   6.905   5.119   4.452
 2964TIP3    H1 8835   6.954   5.057   4.507
 2964TIP3    H2 8836   6.942   5.108   4.365
 2965TIP3   OH2 8837   3.362   3.826   2.267
 2965TIP3    H1 8838   3.329   3.821   2.357
 2965TIP3    H2 8839   3.442   3.878   2.274
 2966TIP3   OH2 8840   4.110   4.921   2.343
 2966TIP3    H1 8841   4.180   4.955   2.399
 2966TIP3    H2 8842   4.150   4.911   2.257
 2967TIP3   OH2 8843   4.288   0.487   4.153
 2967TIP3    H1 8844   4.335   0.509   4.072
 2967TIP3    H2 8845   4.210   0.542   4.152
 2968TIP3   OH2 8846   0.877   5.147   5.898
 2968TIP3    H1 8847   0.931   5.225   5.887
 2968TIP3    H2 8848   0.799   5.178   5.944
 2969TIP3   OH2 8849   6.525   5.792   1.440
 2969TIP3    H1 8850   6.466   5.759   1.508
 2969TIP3    H2 8851   6.608   5.808   1.486
 2970TIP3   OH2 8852   4.101   0.527   3.398
 2970TIP3    H1 8853   4.047   0.600   3.429
 2970TIP3    H2 8854   4.183   0.536   3.448
 2971TIP3   OH2 8855   8.016   6.092   5.581
 2971TIP3    H1 8856   8.081   6.076   5.513
 2971TIP3    H2 8857   7.984   6.005   5.605
 2972TIP3   OH2 8858   1.610   2.495   4.997
 2972TIP3    H1 8859   1.567   2.564   4.947
 2972TIP3    H2 8860   1.542   2.464   5.058
 2973TIP3   OH2 8861   0.494   6.977   1.965
 2973TIP3    H1 8862   0.585   6.991   1.941
 2973TIP3    H2 8863   0.497   6.944   2.055
 2974TIP3   OH2 8864   4.167   7.554   1.056
 2974TIP3    H1 8865   4.111   7.631   1.059
 2974TIP3    H2 8866   4.254   7.587   1.079
 2975TIP3   OH2 8867   5.984   4.857   0.375
 2975TIP3    H1 8868   6.032   4.933   0.408
 2975TIP3    H2 8869   5.927   4.891   0.306
 2976TIP3   OH2 8870   7.969   7.386   1.778
 2976TIP3    H1 8871   8.043   7.415   1.726
 2976TIP3    H2 8872   7.995   7.299   1.809
 2977TIP3   OH2 8873   6.640   2.355   1.599
 2977TIP3    H1 8874   6.733   2.338   1.584
 2977TIP3    H2 8875   6.625   2.440   1.558
 2978TIP3   OH2 8876   3.056   1.625   2.219
 2978TIP3    H1 8877   3.112   1.670   2.282
 2978TIP3    H2 8878   3.025   1.547   2.266
 2979TIP3   OH2 8879   6.704   0.386   2.494
 2979TIP3    H1 8880   6.694   0.338   2.413
 2979TIP3    H2 8881   6.798   0.389   2.509
 2980TIP3   OH2 8882   5.320   0.291   1.773
 2980TIP3    H1 8883   5.236   0.248   1.757
 2980TIP3    H2 8884   5.297   0.378   1.806
 2981TIP3   OH2 8885   3.303   6.239   2.273
 2981TIP3    H1 8886   3.238   6.202   2.213
 2981TIP3    H2 8887   3.360   6.166   2.295
 2982TIP3   OH2 8888   2.141   7.060   2.192
 2982TIP3    H1 8889   2.071   7.117   2.222
 2982TIP3    H2 8890   2.096   6.987   2.150
 2983TIP3   OH2 8891   2.235   7.516   3.974
 2983TIP3    H1 8892   2.211   7.446   4.035
 2983TIP3    H2 8893   2.331   7.520   3.979
 2984TIP3   OH2 8894   1.624   1.658   0.676
 2984TIP3    H1 8895   1.628   1.669   0.581
 2984TIP3    H2 8896   1.661   1.572   0.692
 2985TIP3   OH2 8897   0.444   5.619   0.869
 2985TIP3    H1 8898   0.380   5.554   0.838
 2985TIP3    H2 8899   0.447   5.608   0.964
 2986TIP3   OH2 8900   3.260   6.497   6.219
 2986TIP3    H1 8901   3.277   6.578   6.171
 2986TIP3    H2 8902   3.341   6.481   6.268
 2987TIP3   OH2 8903   5.945   0.307   1.819
 2987TIP3    H1 8904   5.994   0.296   1.900
 2987TIP3    H2 8905   5.989   0.379   1.774
 2988TIP3   OH2 8906   1.503   2.560   5.960
 2988TIP3    H1 8907   1.545   2.622   5.900
 2988TIP3    H2 8908   1.570   2.495   5.978
 2989TIP3   OH2 8909   6.722   0.651   2.407
 2989TIP3    H1 8910   6.710   0.561   2.437
 2989TIP3    H2 8911   6.736   0.702   2.488
 2990TIP3   OH2 8912   3.974   7.236   2.892
 2990TIP3    H1 8913   3.923   7.232   2.811
 2990TIP3    H2 8914   3.909   7.224   2.961
 2991TIP3   OH2 8915   0.613   3.967   2.833
 2991TIP3    H1 8916   0.533   3.930   2.796
 2991TIP3    H2 8917   0.679   3.957   2.764
 2992TIP3   OH2 8918   1.439   4.526   0.425
 2992TIP3    H1 8919   1.428   4.442   0.468
 2992TIP3    H2 8920   1.485   4.506   0.344
 2993TIP3   OH2 8921   2.277   5.595   1.549
 2993TIP3    H1 8922   2.221   5.634   1.481
 2993TIP3    H2 8923   2.365   5.628   1.529
 2994TIP3   OH2 8924   2.299   7.222   3.623
 2994TIP3    H1 8925   2.227   7.283   3.610
 2994TIP3    H2 8926   2.375   7.277   3.643
 2995TIP3   OH2 8927   1.798   2.533   3.335
 2995TIP3    H1 8928   1.848   2.530   3.417
 2995TIP3    H2 8929   1.726   2.594   3.353
 2996TIP3   OH2 8930   6.057   1.784   2.596
 2996TIP3    H1 8931   5.977   1.836   2.586
 2996TIP3    H2 8932   6.054   1.721   2.524
 2997TIP3   OH2 8933   1.773   6.617   1.988
 2997TIP3    H1 8934   1.835   6.655   1.925
 2997TIP3    H2 8935   1.687   6.643   1.955
 2998TIP3   OH2 8936   3.953   2.980   1.147
 2998TIP3    H1 8937   3.970   2.934   1.229
 2998TIP3    H2 8938   3.990   3.068   1.160
 2999TIP3   OH2 8939   0.790   1.319   1.969
 2999TIP3    H1 8940   0.729   1.379   2.012
 2999TIP3    H2 8941   0.776   1.235   2.014
 3000TIP3   OH2 8942   0.423   1.276   4.520
 3000TIP3    H1 8943   0.340   1.301   4.480
 3000TIP3    H2 8944   0.480   1.353   4.507
 3001TIP3   OH2 8945   2.505   7.701   0.964
 3001TIP3    H1 8946   2.571   7.633   0.980
 3001TIP3    H2 8947   2.545   7.782   0.997
 3002TIP3   OH2 8948   0.973   5.569   1.013
 3002TIP3    H1 8949   0.946   5.614   1.093
 3002TIP3    H2 8950   0.901   5.583   0.952
 3003TIP3   OH2 8951   6.945   4.156   1.404
 3003TIP3    H1 8952   6.970   4.197   1.321
 3003TIP3    H2 8953   6.859   4.192   1.423
 3004TIP3   OH2 8954   5.680   7.346   0.928
 3004TIP3    H1 8955   5.617   7.334   0.857
 3004TIP3    H2 8956   5.704   7.258   0.955
 3005TIP3   OH2 8957   8.081   2.553   6.585
 3005TIP3    H1 8958   8.008   2.523   6.639
 3005TIP3    H2 8959   8.048   2.550   6.495
 3006TIP3   OH2 8960   2.427   6.484   3.688
 3006TIP3    H1 8961   2.392   6.430   3.759
 3006TIP3    H2 8962   2.351   6.527   3.650
 3007TIP3   OH2 8963   2.873   4.990   4.927
 3007TIP3    H1 8964   2.890   4.958   5.016
 3007TIP3    H2 8965   2.781   5.017   4.929
 3008TIP3   OH2 8966   2.842   2.527   0.579
 3008TIP3    H1 8967   2.843   2.448   0.633
 3008TIP3    H2 8968   2.839   2.599   0.643
 3009TIP3   OH2 8969   0.533   4.026   1.303
 3009TIP3    H1 8970   0.567   3.943   1.337
 3009TIP3    H2 8971   0.549   4.022   1.209
 3010TIP3   OH2 8972   8.046   7.092   1.412
 3010TIP3    H1 8973   8.018   7.001   1.416
 3010TIP3    H2 8974   8.117   7.098   1.477
 3011TIP3   OH2 8975   2.073   7.663   6.453
 3011TIP3    H1 8976   2.102   7.573   6.466
 3011TIP3    H2 8977   2.151   7.709   6.421
 3012TIP3   OH2 8978   1.047   0.706   1.955
 3012TIP3    H1 8979   0.955   0.699   1.928
 3012TIP3    H2 8980   1.095   0.726   1.875
 3013TIP3   OH2 8981   1.450   6.119   0.273
 3013TIP3    H1 8982   1.467   6.109   0.179
 3013TIP3    H2 8983   1.510   6.188   0.301
 3014TIP3   OH2 8984   2.698   2.311   3.742
 3014TIP3    H1 8985   2.675   2.380   3.679
 3014TIP3    H2 8986   2.617   2.262   3.754
 3015TIP3   OH2 8987   3.913   1.336   1.800
 3015TIP3    H1 8988   3.926   1.301   1.712
 3015TIP3    H2 8989   3.944   1.427   1.795
 3016TIP3   OH2 8990   3.551   4.890   4.454
 3016TIP3    H1 8991   3.550   4.892   4.358
 3016TIP3    H2 8992   3.534   4.799   4.477
 3017TIP3   OH2 8993   7.819   6.572   4.907
 3017TIP3    H1 8994   7.830   6.499   4.968
 3017TIP3    H2 8995   7.771   6.535   4.833
 3018TIP3   OH2 8996   2.696   0.984   2.737
 3018TIP3    H1 8997   2.694   0.938   2.821
 3018TIP3    H2 8998   2.604   0.993   2.712
 3019TIP3   OH2 8999   4.666   5.385   3.469
 3019TIP3    H1 9000   4.716   5.325   3.414
 3019TIP3    H2 9001   4.732   5.436   3.516
 3020TIP3   OH2 9002   8.151   2.906   6.038
 3020TIP3    H1 9003   8.164   2.908   6.133
 3020TIP3    H2 9004   8.125   2.815   6.020
 3021TIP3   OH2 9005   6.999   5.713   1.113
 3021TIP3    H1 9006   6.939   5.769   1.162
 3021TIP3    H2 9007   7.050   5.773   1.059
 3022TIP3   OH2 9008   7.813   4.405   1.017
 3022TIP3    H1 9009   7.763   4.356   0.952
 3022TIP3    H2 9010   7.803   4.496   0.990
 3023TIP3   OH2 9011   6.698   3.664   3.626
 3023TIP3    H1 9012   6.661   3.604   3.691
 3023TIP3    H2 9013   6.779   3.622   3.597
 3024TIP3   OH2 9014   6.217   0.997   6.373
 3024TIP3    H1 9015   6.291   1.019   6.317
 3024TIP3    H2 9016   6.154   0.955   6.315
 3025TIP3   OH2 9017   5.309   7.559   4.164
 3025TIP3    H1 9018   5.355   7.602   4.092
 3025TIP3    H2 9019   5.378   7.515   4.213
 3026TIP3   OH2 9020   1.494   0.219   2.958
 3026TIP3    H1 9021   1.519   0.127   2.954
 3026TIP3    H2 9022   1.478   0.244   2.867
 3027TIP3   OH2 9023   6.712   3.504   5.978
 3027TIP3    H1 9024   6.681   3.462   5.898
 3027TIP3    H2 9025   6.667   3.458   6.049
 3028TIP3   OH2 9026   7.065   2.792   2.606
 3028TIP3    H1 9027   7.153   2.757   2.620
 3028TIP3    H2 9028   7.025   2.731   2.544
 3029TIP3   OH2 9029   6.785   4.021   2.055
 3029TIP3    H1 9030   6.709   4.034   1.999
 3029TIP3    H2 9031   6.808   3.929   2.045
 3030TIP3   OH2 9032   6.372   7.316   0.000
 3030TIP3    H1 9033   6.447   7.303  -0.057
 3030TIP3    H2 9034   6.338   7.228   0.017
 3031TIP3   OH2 9035   4.965   4.202   2.321
 3031TIP3    H1 9036   4.957   4.114   2.357
 3031TIP3    H2 9037   4.876   4.236   2.320
 3032TIP3   OH2 9038   5.853   3.157   3.801
 3032TIP3    H1 9039   5.823   3.132   3.714
 3032TIP3    H2 9040   5.792   3.114   3.861
 3033TIP3   OH2 9041   6.312   2.151   5.500
 3033TIP3    H1 9042   6.287   2.241   5.520
 3033TIP3    H2 9043   6.289   2.140   5.408
 3034TIP3   OH2 9044   0.661   7.398   3.309
 3034TIP3    H1 9045   0.674   7.408   3.215
 3034TIP3    H2 9046   0.748   7.378   3.344
 3035TIP3   OH2 9047   0.459   0.792   3.070
 3035TIP3    H1 9048   0.481   0.862   3.131
 3035TIP3    H2 9049   0.371   0.812   3.040
 3036TIP3   OH2 9050   3.776   4.328   2.597
 3036TIP3    H1 9051   3.684   4.321   2.570
 3036TIP3    H2 9052   3.773   4.351   2.690
 3037TIP3   OH2 9053   2.561   2.961   1.214
 3037TIP3    H1 9054   2.604   2.885   1.176
 3037TIP3    H2 9055   2.482   2.927   1.255
 3038TIP3   OH2 9056   1.416   3.120   2.721
 3038TIP3    H1 9057   1.436   3.036   2.680
 3038TIP3    H2 9058   1.492   3.138   2.777
 3039TIP3   OH2 9059   5.135   0.863   5.400
 3039TIP3    H1 9060   5.144   0.769   5.387
 3039TIP3    H2 9061   5.222   0.899   5.381
 3040TIP3   OH2 9062   3.112   1.058   5.409
 3040TIP3    H1 9063   3.205   1.033   5.409
 3040TIP3    H2 9064   3.079   1.026   5.325
 3041TIP3   OH2 9065   4.678   0.173   0.207
 3041TIP3    H1 9066   4.647   0.207   0.123
 3041TIP3    H2 9067   4.621   0.214   0.272
 3042TIP3   OH2 9068   1.978   5.647   2.381
 3042TIP3    H1 9069   2.001   5.567   2.428
 3042TIP3    H2 9070   1.931   5.616   2.303
 3043TIP3   OH2 9071   6.973   2.168   6.081
 3043TIP3    H1 9072   6.920   2.094   6.113
 3043TIP3    H2 9073   7.061   2.150   6.114
 3044TIP3   OH2 9074   5.084   0.030   2.471
 3044TIP3    H1 9075   5.160   0.072   2.512
 3044TIP3    H2 9076   5.078   0.070   2.384
 3045TIP3   OH2 9077   7.068   1.947   6.213
 3045TIP3    H1 9078   7.007   1.919   6.145
 3045TIP3    H2 9079   7.063   1.879   6.280
 3046TIP3   OH2 9080   0.333   0.186   5.350
 3046TIP3    H1 9081   0.343   0.114   5.289
 3046TIP3    H2 9082   0.422   0.215   5.369
 3047TIP3   OH2 9083   6.643   4.187   5.678
 3047TIP3    H1 9084   6.550   4.194   5.700
 3047TIP3    H2 9085   6.687   4.173   5.762
 3048TIP3   OH2 9086   2.976   6.143   4.960
 3048TIP3    H1 9087   2.913   6.180   5.021
 3048TIP3    H2 9088   3.053   6.198   4.969
 3049TIP3   OH2 9089   5.107   2.301   0.665
 3049TIP3    H1 9090   5.082   2.325   0.576
 3049TIP3    H2 9091   5.128   2.208   0.660
 3050TIP3   OH2 9092   5.770   7.131   1.527
 3050TIP3    H1 9093   5.720   7.184   1.465
 3050TIP3    H2 9094   5.861   7.140   1.498
 3051TIP3   OH2 9095   3.224   0.835   1.351
 3051TIP3    H1 9096   3.234   0.858   1.258
 3051TIP3    H2 9097   3.272   0.752   1.360
 3052TIP3   OH2 9098   8.072   6.853   3.305
 3052TIP3    H1 9099   8.039   6.921   3.364
 3052TIP3    H2 9100   8.010   6.853   3.232
 3053TIP3   OH2 9101   4.657   4.473   2.534
 3053TIP3    H1 9102   4.593   4.472   2.604
 3053TIP3    H2 9103   4.724   4.411   2.562
 3054TIP3   OH2 9104   7.792   6.773   2.319
 3054TIP3    H1 9105   7.715   6.827   2.336
 3054TIP3    H2 9106   7.757   6.687   2.298
 3055TIP3   OH2 9107   4.669   3.372   5.157
 3055TIP3    H1 9108   4.723   3.339   5.086
 3055TIP3    H2 9109   4.621   3.446   5.120
 3056TIP3   OH2 9110   4.180   1.344   2.568
 3056TIP3    H1 9111   4.256   1.339   2.510
 3056TIP3    H2 9112   4.201   1.414   2.630
 3057TIP3   OH2 9113   3.186   5.760   5.553
 3057TIP3    H1 9114   3.196   5.666   5.539
 3057TIP3    H2 9115   3.149   5.767   5.641
 3058TIP3   OH2 9116   1.693   4.406   0.330
 3058TIP3    H1 9117   1.693   4.347   0.254
 3058TIP3    H2 9118   1.666   4.350   0.403
 3059TIP3   OH2 9119   2.090   4.446   2.476
 3059TIP3    H1 9120   2.017   4.384   2.473
 3059TIP3    H2 9121   2.076   4.503   2.400
 3060TIP3   OH2 9122   2.944   4.083   5.353
 3060TIP3    H1 9123   3.034   4.069   5.380
 3060TIP3    H2 9124   2.949   4.150   5.285
 3061TIP3   OH2 9125   1.593   6.659   1.766
 3061TIP3    H1 9126   1.510   6.660   1.718
 3061TIP3    H2 9127   1.655   6.703   1.708
 3062TIP3   OH2 9128   6.715   7.728   0.824
 3062TIP3    H1 9129   6.780   7.683   0.769
 3062TIP3    H2 9130   6.709   7.674   0.903
 3063TIP3   OH2 9131   1.695   2.383   6.402
 3063TIP3    H1 9132   1.740   2.344   6.327
 3063TIP3    H2 9133   1.734   2.471   6.410
 3064TIP3   OH2 9134   2.475   2.233   3.482
 3064TIP3    H1 9135   2.419   2.235   3.560
 3064TIP3    H2 9136   2.501   2.324   3.470
 3065TIP3   OH2 9137   5.137   5.700   4.650
 3065TIP3    H1 9138   5.203   5.756   4.608
 3065TIP3    H2 9139   5.054   5.727   4.611
 3066TIP3   OH2 9140   6.256   0.867   3.426
 3066TIP3    H1 9141   6.341   0.830   3.450
 3066TIP3    H2 9142   6.198   0.845   3.499
 3067TIP3   OH2 9143   1.930   1.949   4.559
 3067TIP3    H1 9144   1.991   1.944   4.632
 3067TIP3    H2 9145   1.867   2.016   4.586
 3068TIP3   OH2 9146   5.426   2.633   3.611
 3068TIP3    H1 9147   5.434   2.715   3.562
 3068TIP3    H2 9148   5.331   2.618   3.617
 3069TIP3   OH2 9149   0.561   2.490   0.922
 3069TIP3    H1 9150   0.476   2.469   0.883
 3069TIP3    H2 9151   0.548   2.577   0.960
 3070TIP3   OH2 9152   2.010   4.224   6.097
 3070TIP3    H1 9153   1.945   4.253   6.032
 3070TIP3    H2 9154   2.044   4.304   6.136
 3071TIP3   OH2 9155   7.451   6.906   1.565
 3071TIP3    H1 9156   7.362   6.880   1.540
 3071TIP3    H2 9157   7.440   6.992   1.605
 3072TIP3   OH2 9158   2.709   5.625   4.883
 3072TIP3    H1 9159   2.687   5.598   4.972
 3072TIP3    H2 9160   2.624   5.636   4.839
 3073TIP3   OH2 9161   6.762   7.330   5.995
 3073TIP3    H1 9162   6.706   7.255   6.016
 3073TIP3    H2 9163   6.785   7.319   5.903
 3074TIP3   OH2 9164   1.287   6.459   3.745
 3074TIP3    H1 9165   1.274   6.551   3.769
 3074TIP3    H2 9166   1.245   6.450   3.660
 3075TIP3   OH2 9167   0.559   4.267   5.106
 3075TIP3    H1 9168   0.652   4.244   5.107
 3075TIP3    H2 9169   0.543   4.301   5.018
 3076TIP3   OH2 9170   4.680   3.804   2.620
 3076TIP3    H1 9171   4.624   3.774   2.548
 3076TIP3    H2 9172   4.670   3.737   2.688
 3077TIP3   OH2 9173   8.229  -0.005   4.522
 3077TIP3    H1 9174   8.296   0.055   4.554
 3077TIP3    H2 9175   8.177   0.047   4.460
 3078TIP3   OH2 9176   7.325   1.683   2.863
 3078TIP3    H1 9177   7.326   1.770   2.904
 3078TIP3    H2 9178   7.253   1.687   2.800
 3079TIP3   OH2 9179   3.630   5.982   2.182
 3079TIP3    H1 9180   3.617   6.064   2.136
 3079TIP3    H2 9181   3.613   5.914   2.116
 3080TIP3   OH2 9182   7.567   2.872   4.512
 3080TIP3    H1 9183   7.560   2.869   4.607
 3080TIP3    H2 9184   7.637   2.811   4.491
 3081TIP3   OH2 9185   4.150   2.274   0.482
 3081TIP3    H1 9186   4.180   2.197   0.531
 3081TIP3    H2 9187   4.055   2.273   0.492
 3082TIP3   OH2 9188   2.497   2.971   1.507
 3082TIP3    H1 9189   2.518   3.052   1.460
 3082TIP3    H2 9190   2.405   2.981   1.532
 3083TIP3   OH2 9191   0.610   3.688   3.732
 3083TIP3    H1 9192   0.607   3.592   3.728
 3083TIP3    H2 9193   0.689   3.707   3.783
 3084TIP3   OH2 9194   1.607   2.936   1.773
 3084TIP3    H1 9195   1.681   2.976   1.819
 3084TIP3    H2 9196   1.563   2.883   1.841
 3085TIP3   OH2 9197   6.989   4.470   1.241
 3085TIP3    H1 9198   7.075   4.438   1.215
 3085TIP3    H2 9199   6.938   4.469   1.160
 3086TIP3   OH2 9200   1.719   5.376   5.994
 3086TIP3    H1 9201   1.626   5.358   6.005
 3086TIP3    H2 9202   1.763   5.306   6.043
 3087TIP3   OH2 9203   6.115   3.273   1.639
 3087TIP3    H1 9204   6.039   3.312   1.596
 3087TIP3    H2 9205   6.089   3.267   1.731
 3088TIP3   OH2 9206   1.080   6.906   5.936
 3088TIP3    H1 9207   1.093   6.947   6.022
 3088TIP3    H2 9208   1.161   6.860   5.918
 3089TIP3   OH2 9209   0.716   4.652   1.694
 3089TIP3    H1 9210   0.778   4.588   1.728
 3089TIP3    H2 9211   0.678   4.692   1.772
 3090TIP3   OH2 9212   4.673   6.326   4.640
 3090TIP3    H1 9213   4.582   6.351   4.654
 3090TIP3    H2 9214   4.724   6.398   4.677
 3091TIP3   OH2 9215   2.990   0.369   2.214
 3091TIP3    H1 9216   2.951   0.378   2.301
 3091TIP3    H2 9217   3.078   0.336   2.230
 3092TIP3   OH2 9218   6.871   0.773   5.571
 3092TIP3    H1 9219   6.813   0.728   5.510
 3092TIP3    H2 9220   6.946   0.800   5.518
 3093TIP3   OH2 9221   0.196   5.754   1.022
 3093TIP3    H1 9222   0.159   5.830   0.977
 3093TIP3    H2 9223   0.130   5.686   1.012
 3094TIP3   OH2 9224   2.105   6.920   6.242
 3094TIP3    H1 9225   2.065   6.958   6.163
 3094TIP3    H2 9226   2.045   6.849   6.266
 3095TIP3   OH2 9227   3.930   3.512   5.735
 3095TIP3    H1 9228   4.004   3.452   5.727
 3095TIP3    H2 9229   3.969   3.600   5.732
 3096TIP3   OH2 9230   2.864   5.310   0.903
 3096TIP3    H1 9231   2.796   5.246   0.882
 3096TIP3    H2 9232   2.842   5.340   0.991
 3097TIP3   OH2 9233   7.725   4.594   5.061
 3097TIP3    H1 9234   7.802   4.634   5.101
 3097TIP3    H2 9235   7.760   4.542   4.989
 3098TIP3   OH2 9236   5.977   6.447   0.742
 3098TIP3    H1 9237   5.938   6.387   0.678
 3098TIP3    H2 9238   5.903   6.494   0.780
 3099TIP3   OH2 9239   5.806   1.766   2.203
 3099TIP3    H1 9240   5.753   1.702   2.156
 3099TIP3    H2 9241   5.895   1.755   2.168
 3100TIP3   OH2 9242   7.254   6.251   1.400
 3100TIP3    H1 9243   7.302   6.263   1.318
 3100TIP3    H2 9244   7.322   6.238   1.466
 3101TIP3   OH2 9245   3.297   7.072   6.047
 3101TIP3    H1 9246   3.280   7.038   6.134
 3101TIP3    H2 9247   3.290   7.167   6.056
 3102TIP3   OH2 9248   5.595   7.780   1.348
 3102TIP3    H1 9249   5.662   7.750   1.286
 3102TIP3    H2 9250   5.568   7.700   1.394
 3103TIP3   OH2 9251   7.152   4.115   1.596
 3103TIP3    H1 9252   7.114   4.107   1.683
 3103TIP3    H2 9253   7.077   4.130   1.538
 3104TIP3   OH2 9254   3.899   4.488   1.955
 3104TIP3    H1 9255   3.947   4.542   2.018
 3104TIP3    H2 9256   3.946   4.499   1.873
 3105TIP3   OH2 9257   6.664   2.781   5.739
 3105TIP3    H1 9258   6.745   2.817   5.775
 3105TIP3    H2 9259   6.599   2.849   5.754
 3106TIP3   OH2 9260   6.933   7.051   4.269
 3106TIP3    H1 9261   6.962   6.964   4.240
 3106TIP3    H2 9262   7.014   7.103   4.273
 3107TIP3   OH2 9263   2.183   6.735   0.685
 3107TIP3    H1 9264   2.094   6.701   0.688
 3107TIP3    H2 9265   2.215   6.712   0.598
 3108TIP3   OH2 9266   6.029   7.123   0.990
 3108TIP3    H1 9267   6.099   7.065   1.020
 3108TIP3    H2 9268   6.074   7.202   0.961
 3109TIP3   OH2 9269   5.742   2.830   6.667
 3109TIP3    H1 9270   5.722   2.746   6.624
 3109TIP3    H2 9271   5.837   2.838   6.659
 3110TIP3   OH2 9272   2.282   2.365   3.194
 3110TIP3    H1 9273   2.325   2.281   3.208
 3110TIP3    H2 9274   2.206   2.362   3.253
 3111TIP3   OH2 9275   6.855   2.479   2.539
 3111TIP3    H1 9276   6.816   2.555   2.583
 3111TIP3    H2 9277   6.816   2.480   2.451
 3112TIP3   OH2 9278   7.389   0.338   5.511
 3112TIP3    H1 9279   7.302   0.298   5.514
 3112TIP3    H2 9280   7.423   0.328   5.600
 3113TIP3   OH2 9281   4.241   7.524   4.121
 3113TIP3    H1 9282   4.211   7.433   4.124
 3113TIP3    H2 9283   4.294   7.534   4.200
 3114TIP3   OH2 9284   5.920   0.700   6.739
 3114TIP3    H1 9285   5.854   0.767   6.754
 3114TIP3    H2 9286   6.000   0.733   6.780
 3115TIP3   OH2 9287   5.177   4.945   0.224
 3115TIP3    H1 9288   5.083   4.946   0.208
 3115TIP3    H2 9289   5.192   4.867   0.277
 3116TIP3   OH2 9290   6.002   6.822   0.712
 3116TIP3    H1 9291   6.053   6.903   0.720
 3116TIP3    H2 9292   5.964   6.809   0.799
 3117TIP3   OH2 9293   7.169   0.019   3.965
 3117TIP3    H1 9294   7.101  -0.002   4.028
 3117TIP3    H2 9295   7.201   0.105   3.993
 3118TIP3   OH2 9296   5.949   4.686   3.859
 3118TIP3    H1 9297   5.871   4.742   3.861
 3118TIP3    H2 9298   5.915   4.597   3.856
 3119TIP3   OH2 9299   6.141   5.973   6.612
 3119TIP3    H1 9300   6.159   5.886   6.648
 3119TIP3    H2 9301   6.087   6.015   6.678
 3120TIP3   OH2 9302   4.379   3.583   5.674
 3120TIP3    H1 9303   4.311   3.540   5.622
 3120TIP3    H2 9304   4.456   3.527   5.661
 3121TIP3   OH2 9305   3.084   3.778   0.932
 3121TIP3    H1 9306   3.019   3.720   0.893
 3121TIP3    H2 9307   3.127   3.725   0.999
 3122TIP3   OH2 9308   6.305   3.656   0.539
 3122TIP3    H1 9309   6.334   3.568   0.560
 3122TIP3    H2 9310   6.356   3.682   0.463
 3123TIP3   OH2 9311   7.580   4.804   4.554
 3123TIP3    H1 9312   7.553   4.895   4.541
 3123TIP3    H2 9313   7.672   4.802   4.529
 3124TIP3   OH2 9314   5.037   1.107   1.342
 3124TIP3    H1 9315   4.948   1.073   1.335
 3124TIP3    H2 9316   5.093   1.037   1.310
 3125TIP3   OH2 9317   6.850   4.544   1.474
 3125TIP3    H1 9318   6.907   4.520   1.401
 3125TIP3    H2 9319   6.829   4.636   1.458
 3126TIP3   OH2 9320   2.800   4.714   5.378
 3126TIP3    H1 9321   2.709   4.741   5.386
 3126TIP3    H2 9322   2.809   4.641   5.438
 3127TIP3   OH2 9323   0.410   0.761   4.829
 3127TIP3    H1 9324   0.409   0.670   4.800
 3127TIP3    H2 9325   0.496   0.794   4.801
 3128TIP3   OH2 9326   7.024   0.241   4.919
 3128TIP3    H1 9327   7.026   0.282   4.832
 3128TIP3    H2 9328   6.945   0.277   4.960
 3129TIP3   OH2 9329   1.760   0.887   1.268
 3129TIP3    H1 9330   1.717   0.909   1.351
 3129TIP3    H2 9331   1.792   0.798   1.281
 3130TIP3   OH2 9332   2.962   7.320   5.792
 3130TIP3    H1 9333   2.926   7.248   5.844
 3130TIP3    H2 9334   3.019   7.367   5.853
 3131TIP3   OH2 9335   5.268   3.115   3.651
 3131TIP3    H1 9336   5.319   3.188   3.617
 3131TIP3    H2 9337   5.329   3.067   3.707
 3132TIP3   OH2 9338   4.212   5.847   1.232
 3132TIP3    H1 9339   4.244   5.839   1.322
 3132TIP3    H2 9340   4.148   5.777   1.223
 3133TIP3   OH2 9341   6.751   0.337   3.942
 3133TIP3    H1 9342   6.806   0.259   3.934
 3133TIP3    H2 9343   6.762   0.365   4.033
 3134TIP3   OH2 9344   6.915   0.679   1.196
 3134TIP3    H1 9345   7.004   0.645   1.207
 3134TIP3    H2 9346   6.860   0.621   1.250
 3135TIP3   OH2 9347   3.580   6.979   1.340
 3135TIP3    H1 9348   3.508   7.041   1.329
 3135TIP3    H2 9349   3.652   7.032   1.376
 3136TIP3   OH2 9350   3.089   4.331   6.651
 3136TIP3    H1 9351   3.134   4.393   6.594
 3136TIP3    H2 9352   3.009   4.309   6.604
 3137TIP3   OH2 9353   7.815   2.936   0.516
 3137TIP3    H1 9354   7.856   2.938   0.430
 3137TIP3    H2 9355   7.810   2.843   0.538
 3138TIP3   OH2 9356   5.984   6.134   1.397
 3138TIP3    H1 9357   5.987   6.227   1.374
 3138TIP3    H2 9358   5.899   6.123   1.439
 3139TIP3   OH2 9359   0.073   2.401   6.284
 3139TIP3    H1 9360   0.097   2.494   6.284
 3139TIP3    H2 9361   0.094   2.371   6.372
 3140TIP3   OH2 9362   6.906   4.707   1.802
 3140TIP3    H1 9363   6.990   4.711   1.847
 3140TIP3    H2 9364   6.918   4.639   1.735
 3141TIP3   OH2 9365   5.009   5.308   2.671
 3141TIP3    H1 9366   5.038   5.217   2.667
 3141TIP3    H2 9367   5.058   5.345   2.744
 3142TIP3   OH2 9368   8.147   7.795   1.433
 3142TIP3    H1 9369   8.218   7.857   1.414
 3142TIP3    H2 9370   8.191   7.724   1.481
 3143TIP3   OH2 9371   6.740   2.679   2.696
 3143TIP3    H1 9372   6.650   2.706   2.715
 3143TIP3    H2 9373   6.788   2.761   2.683
 3144TIP3   OH2 9374   7.907   5.105   2.631
 3144TIP3    H1 9375   7.921   5.175   2.694
 3144TIP3    H2 9376   7.988   5.100   2.581
 3145TIP3   OH2 9377   7.022   3.127   4.411
 3145TIP3    H1 9378   7.112   3.144   4.383
 3145TIP3    H2 9379   6.968   3.173   4.347
 3146TIP3   OH2 9380   1.700   7.238   2.824
 3146TIP3    H1 9381   1.695   7.154   2.779
 3146TIP3    H2 9382   1.782   7.277   2.795
 3147TIP3   OH2 9383   7.303   3.077   2.661
 3147TIP3    H1 9384   7.392   3.084   2.696
 3147TIP3    H2 9385   7.305   3.126   2.579
 3148TIP3   OH2 9386   3.453   5.391   5.929
 3148TIP3    H1 9387   3.502   5.462   5.887
 3148TIP3    H2 9388   3.401   5.434   5.996
 3149TIP3   OH2 9389   6.047   1.714   2.041
 3149TIP3    H1 9390   6.008   1.646   1.984
 3149TIP3    H2 9391   6.027   1.796   1.996
 3150TIP3   OH2 9392   5.930   6.882   4.004
 3150TIP3    H1 9393   5.849   6.852   3.963
 3150TIP3    H2 9394   5.914   6.872   4.098
 3151TIP3   OH2 9395   7.250   4.610   1.048
 3151TIP3    H1 9396   7.219   4.674   0.984
 3151TIP3    H2 9397   7.304   4.662   1.108
 3152TIP3   OH2 9398   0.583   3.052   2.709
 3152TIP3    H1 9399   0.673   3.021   2.700
 3152TIP3    H2 9400   0.586   3.110   2.785
 3153TIP3   OH2 9401   4.986   7.454   2.968
 3153TIP3    H1 9402   4.984   7.547   2.945
 3153TIP3    H2 9403   4.900   7.438   3.008
 3154TIP3   OH2 9404   3.265   5.777   2.219
 3154TIP3    H1 9405   3.266   5.870   2.239
 3154TIP3    H2 9406   3.339   5.741   2.268
 3155TIP3   OH2 9407   3.052   1.595   1.243
 3155TIP3    H1 9408   3.000   1.618   1.167
 3155TIP3    H2 9409   3.047   1.500   1.248
 3156TIP3   OH2 9410   5.722   6.578   2.628
 3156TIP3    H1 9411   5.725   6.647   2.562
 3156TIP3    H2 9412   5.738   6.623   2.711
 3157TIP3   OH2 9413   1.110   1.536   1.920
 3157TIP3    H1 9414   1.053   1.519   1.995
 3157TIP3    H2 9415   1.065   1.605   1.871
 3158TIP3   OH2 9416   2.153   3.910   6.629
 3158TIP3    H1 9417   2.080   3.929   6.688
 3158TIP3    H2 9418   2.120   3.929   6.541
 3159TIP3   OH2 9419   5.634   1.563   3.078
 3159TIP3    H1 9420   5.580   1.525   3.009
 3159TIP3    H2 9421   5.644   1.655   3.053
 3160TIP3   OH2 9422   5.498   1.111   6.674
 3160TIP3    H1 9423   5.495   1.022   6.640
 3160TIP3    H2 9424   5.434   1.113   6.745
 3161TIP3   OH2 9425   0.630   7.597   5.687
 3161TIP3    H1 9426   0.573   7.604   5.610
 3161TIP3    H2 9427   0.716   7.621   5.655
 3162TIP3   OH2 9428   3.031   0.439   3.109
 3162TIP3    H1 9429   2.995   0.416   3.024
 3162TIP3    H2 9430   3.094   0.369   3.129
 3163TIP3   OH2 9431   2.813   1.093   5.449
 3163TIP3    H1 9432   2.786   1.180   5.478
 3163TIP3    H2 9433   2.909   1.097   5.447
 3164TIP3   OH2 9434   0.625   5.081   6.690
 3164TIP3    H1 9435   0.647   5.133   6.612
 3164TIP3    H2 9436   0.560   5.018   6.659
 3165TIP3   OH2 9437   6.012   1.421   6.615
 3165TIP3    H1 9438   6.050   1.358   6.553
 3165TIP3    H2 9439   5.931   1.450   6.573
 3166TIP3   OH2 9440   2.381   2.477   6.313
 3166TIP3    H1 9441   2.420   2.519   6.236
 3166TIP3    H2 9442   2.305   2.430   6.279
 3167TIP3   OH2 9443   1.203   4.330   0.839
 3167TIP3    H1 9444   1.150   4.385   0.897
 3167TIP3    H2 9445   1.260   4.280   0.897
 3168TIP3   OH2 9446   1.627   1.442   3.089
 3168TIP3    H1 9447   1.676   1.487   3.020
 3168TIP3    H2 9448   1.552   1.403   3.043
 3169TIP3   OH2 9449   7.054   4.505   4.471
 3169TIP3    H1 9450   6.985   4.571   4.476
 3169TIP3    H2 9451   7.088   4.513   4.382
 3170TIP3   OH2 9452   7.209   0.126   6.708
 3170TIP3    H1 9453   7.159   0.056   6.750
 3170TIP3    H2 9454   7.177   0.128   6.618
 3171TIP3   OH2 9455   1.345   5.467   1.552
 3171TIP3    H1 9456   1.423   5.451   1.499
 3171TIP3    H2 9457   1.378   5.489   1.639
 3172TIP3   OH2 9458   4.912   6.242   3.955
 3172TIP3    H1 9459   4.981   6.301   3.924
 3172TIP3    H2 9460   4.867   6.215   3.875
 3173TIP3   OH2 9461   6.967   1.467   5.034
 3173TIP3    H1 9462   6.953   1.452   5.127
 3173TIP3    H2 9463   6.971   1.379   4.996
 3174TIP3   OH2 9464   6.977   1.034   3.940
 3174TIP3    H1 9465   6.902   1.092   3.949
 3174TIP3    H2 9466   6.944   0.947   3.965
 3175TIP3   OH2 9467   6.087   0.027   1.578
 3175TIP3    H1 9468   6.140  -0.048   1.604
 3175TIP3    H2 9469   5.998   0.003   1.602
 3176TIP3   OH2 9470   4.029   1.091   3.305
 3176TIP3    H1 9471   4.096   1.159   3.296
 3176TIP3    H2 9472   4.075   1.009   3.284
 3177TIP3   OH2 9473   2.548   7.160   5.708
 3177TIP3    H1 9474   2.541   7.077   5.660
 3177TIP3    H2 9475   2.631   7.198   5.679
 3178TIP3   OH2 9476   4.593   3.728   1.058
 3178TIP3    H1 9477   4.582   3.633   1.054
 3178TIP3    H2 9478   4.519   3.763   1.008
 3179TIP3   OH2 9479   3.978   6.447   1.777
 3179TIP3    H1 9480   4.023   6.527   1.751
 3179TIP3    H2 9481   3.904   6.440   1.717
 3180TIP3   OH2 9482   5.326   6.832   6.026
 3180TIP3    H1 9483   5.266   6.906   6.023
 3180TIP3    H2 9484   5.271   6.755   6.014
 3181TIP3   OH2 9485   1.909   3.425   1.999
 3181TIP3    H1 9486   1.949   3.372   2.068
 3181TIP3    H2 9487   1.974   3.492   1.979
 3182TIP3   OH2 9488   7.224   3.302   5.545
 3182TIP3    H1 9489   7.264   3.283   5.460
 3182TIP3    H2 9490   7.156   3.236   5.555
 3183TIP3   OH2 9491   7.982   5.356   1.258
 3183TIP3    H1 9492   8.061   5.367   1.206
 3183TIP3    H2 9493   7.980   5.433   1.315
 3184TIP3   OH2 9494   6.953   4.762   5.889
 3184TIP3    H1 9495   7.016   4.690   5.901
 3184TIP3    H2 9496   7.003   4.841   5.909
 3185TIP3   OH2 9497   8.258   7.534   1.113
 3185TIP3    H1 9498   8.309   7.498   1.186
 3185TIP3    H2 9499   8.168   7.508   1.131
 3186TIP3   OH2 9500   6.124   5.545   5.569
 3186TIP3    H1 9501   6.085   5.603   5.635
 3186TIP3    H2 9502   6.217   5.541   5.594
 3187TIP3   OH2 9503   1.637   4.996   0.894
 3187TIP3    H1 9504   1.672   5.077   0.932
 3187TIP3    H2 9505   1.714   4.944   0.873
 3188TIP3   OH2 9506   3.839   4.463   2.236
 3188TIP3    H1 9507   3.873   4.400   2.172
 3188TIP3    H2 9508   3.780   4.519   2.185
 3189TIP3   OH2 9509   6.079   4.880   5.190
 3189TIP3    H1 9510   6.020   4.951   5.167
 3189TIP3    H2 9511   6.115   4.906   5.275
 3190TIP3   OH2 9512   2.304   3.868   2.405
 3190TIP3    H1 9513   2.388   3.908   2.429
 3190TIP3    H2 9514   2.265   3.843   2.489
 3191TIP3   OH2 9515   3.041   2.778   5.338
 3191TIP3    H1 9516   2.993   2.856   5.307
 3191TIP3    H2 9517   2.972   2.719   5.370
 3192TIP3   OH2 9518   5.601   0.870   6.576
 3192TIP3    H1 9519   5.675   0.878   6.637
 3192TIP3    H2 9520   5.583   0.776   6.573
 3193TIP3   OH2 9521   7.367   1.379   0.539
 3193TIP3    H1 9522   7.301   1.399   0.473
 3193TIP3    H2 9523   7.357   1.448   0.605
 3194TIP3   OH2 9524   7.905   6.416   5.888
 3194TIP3    H1 9525   7.955   6.336   5.906
 3194TIP3    H2 9526   7.838   6.419   5.957
 3195TIP3   OH2 9527   5.980   1.186   4.206
 3195TIP3    H1 9528   5.966   1.208   4.299
 3195TIP3    H2 9529   5.897   1.146   4.179
 3196TIP3   OH2 9530   4.965   1.195   3.813
 3196TIP3    H1 9531   5.003   1.283   3.813
 3196TIP3    H2 9532   5.015   1.147   3.878
 3197TIP3   OH2 9533   7.854   7.172   2.015
 3197TIP3    H1 9534   7.851   7.267   2.026
 3197TIP3    H2 9535   7.874   7.138   2.102
 3198TIP3   OH2 9536   5.259   6.417   1.198
 3198TIP3    H1 9537   5.306   6.352   1.251
 3198TIP3    H2 9538   5.233   6.484   1.261
 3199TIP3   OH2 9539   7.757   3.436   4.124
 3199TIP3    H1 9540   7.693   3.455   4.192
 3199TIP3    H2 9541   7.760   3.516   4.071
 3200TIP3   OH2 9542   5.874   4.294   5.756
 3200TIP3    H1 9543   5.879   4.232   5.684
 3200TIP3    H2 9544   5.806   4.356   5.730
 3201TIP3   OH2 9545   3.398   2.797   4.674
 3201TIP3    H1 9546   3.329   2.832   4.618
 3201TIP3    H2 9547   3.351   2.763   4.750
 3202TIP3   OH2 9548   3.704   4.910   3.955
 3202TIP3    H1 9549   3.793   4.879   3.935
 3202TIP3    H2 9550   3.717   4.979   4.020
 3203TIP3   OH2 9551   1.535   6.506   6.751
 3203TIP3    H1 9552   1.583   6.436   6.706
 3203TIP3    H2 9553   1.592   6.533   6.822
 3204TIP3   OH2 9554   4.262   1.203   3.952
 3204TIP3    H1 9555   4.236   1.172   3.865
 3204TIP3    H2 9556   4.224   1.140   4.013
 3205TIP3   OH2 9557   4.375   1.903   4.573
 3205TIP3    H1 9558   4.387   1.813   4.605
 3205TIP3    H2 9559   4.283   1.906   4.547
 3206TIP3   OH2 9560   3.852   7.240   2.630
 3206TIP3    H1 9561   3.881   7.285   2.551
 3206TIP3    H2 9562   3.878   7.149   2.616
 3207TIP3   OH2 9563   3.076   6.194   0.478
 3207TIP3    H1 9564   2.999   6.198   0.421
 3207TIP3    H2 9565   3.055   6.126   0.543
 3208TIP3   OH2 9566   3.153   4.658   4.602
 3208TIP3    H1 9567   3.151   4.716   4.525
 3208TIP3    H2 9568   3.129   4.716   4.675
 3209TIP3   OH2 9569   7.195   2.819   6.271
 3209TIP3    H1 9570   7.278   2.843   6.231
 3209TIP3    H2 9571   7.201   2.724   6.282
 3210TIP3   OH2 9572   1.151   0.806   1.731
 3210TIP3    H1 9573   1.151   0.893   1.691
 3210TIP3    H2 9574   1.243   0.778   1.728
 3211TIP3   OH2 9575   2.987   2.788   6.096
 3211TIP3    H1 9576   2.945   2.705   6.120
 3211TIP3    H2 9577   2.932   2.822   6.025
 3212TIP3   OH2 9578   0.980   0.992   1.012
 3212TIP3    H1 9579   0.912   1.012   0.947
 3212TIP3    H2 9580   1.046   0.943   0.963
 3213TIP3   OH2 9581   0.731   2.896   5.035
 3213TIP3    H1 9582   0.817   2.929   5.010
 3213TIP3    H2 9583   0.714   2.824   4.974
 3214TIP3   OH2 9584   6.416   7.616   0.730
 3214TIP3    H1 9585   6.505   7.648   0.716
 3214TIP3    H2 9586   6.377   7.680   0.789
 3215TIP3   OH2 9587   1.544   6.887   3.796
 3215TIP3    H1 9588   1.456   6.887   3.760
 3215TIP3    H2 9589   1.547   6.963   3.854
 3216TIP3   OH2 9590   6.178   7.656   4.074
 3216TIP3    H1 9591   6.180   7.747   4.044
 3216TIP3    H2 9592   6.089   7.644   4.106
 3217TIP3   OH2 9593   7.497   2.982   1.163
 3217TIP3    H1 9594   7.532   3.012   1.079
 3217TIP3    H2 9595   7.564   2.924   1.198
 3218TIP3   OH2 9596   3.884   1.147   1.248
 3218TIP3    H1 9597   3.832   1.130   1.169
 3218TIP3    H2 9598   3.842   1.224   1.287
 3219TIP3   OH2 9599   7.968   3.719   3.361
 3219TIP3    H1 9600   7.949   3.626   3.373
 3219TIP3    H2 9601   7.991   3.750   3.449
 3220TIP3   OH2 9602   2.190   7.592   0.546
 3220TIP3    H1 9603   2.225   7.574   0.633
 3220TIP3    H2 9604   2.245   7.662   0.511
 3221TIP3   OH2 9605   6.879   2.638   4.238
 3221TIP3    H1 9606   6.793   2.609   4.267
 3221TIP3    H2 9607   6.940   2.596   4.298
 3222TIP3   OH2 9608   6.159   1.696   4.084
 3222TIP3    H1 9609   6.082   1.729   4.038
 3222TIP3    H2 9610   6.202   1.774   4.118
 3223TIP3   OH2 9611   7.246   3.616   3.900
 3223TIP3    H1 9612   7.318   3.581   3.951
 3223TIP3    H2 9613   7.167   3.582   3.942
 3224TIP3   OH2 9614   1.853   4.188   1.988
 3224TIP3    H1 9615   1.846   4.134   1.909
 3224TIP3    H2 9616   1.792   4.260   1.973
 3225TIP3   OH2 9617   0.173   3.581   6.245
 3225TIP3    H1 9618   0.129   3.666   6.251
 3225TIP3    H2 9619   0.125   3.534   6.177
 3226TIP3   OH2 9620   3.443   1.896   3.645
 3226TIP3    H1 9621   3.511   1.922   3.582
 3226TIP3    H2 9622   3.488   1.840   3.708
 3227TIP3   OH2 9623   7.471   3.098   5.103
 3227TIP3    H1 9624   7.443   3.138   5.021
 3227TIP3    H2 9625   7.496   3.172   5.158
 3228TIP3   OH2 9626   8.115   6.708   0.639
 3228TIP3    H1 9627   8.098   6.723   0.733
 3228TIP3    H2 9628   8.096   6.615   0.626
 3229TIP3   OH2 9629   7.475   5.422   1.189
 3229TIP3    H1 9630   7.444   5.510   1.167
 3229TIP3    H2 9631   7.404   5.365   1.160
 3230TIP3   OH2 9632   0.870   5.194   2.604
 3230TIP3    H1 9633   0.860   5.287   2.627
 3230TIP3    H2 9634   0.912   5.156   2.681
 3231TIP3   OH2 9635   5.515   0.965   5.671
 3231TIP3    H1 9636   5.528   0.960   5.577
 3231TIP3    H2 9637   5.428   0.928   5.685
 3232TIP3   OH2 9638   1.017   3.813   1.178
 3232TIP3    H1 9639   1.005   3.726   1.141
 3232TIP3    H2 9640   1.012   3.801   1.272
 3233TIP3   OH2 9641   2.077   4.698   2.894
 3233TIP3    H1 9642   2.085   4.651   2.977
 3233TIP3    H2 9643   2.144   4.659   2.838
 3234TIP3   OH2 9644   1.684   2.593   0.392
 3234TIP3    H1 9645   1.763   2.638   0.363
 3234TIP3    H2 9646   1.685   2.510   0.345
 3235TIP3   OH2 9647   8.123   3.676   4.047
 3235TIP3    H1 9648   8.130   3.715   3.960
 3235TIP3    H2 9649   8.053   3.611   4.038
 3236TIP3   OH2 9650   0.550   4.422   4.864
 3236TIP3    H1 9651   0.487   4.404   4.794
 3236TIP3    H2 9652   0.615   4.479   4.824
 3237TIP3   OH2 9653   5.522   3.128   4.676
 3237TIP3    H1 9654   5.508   3.058   4.740
 3237TIP3    H2 9655   5.616   3.123   4.656
 3238TIP3   OH2 9656   0.128   4.288   1.371
 3238TIP3    H1 9657   0.186   4.270   1.297
 3238TIP3    H2 9658   0.043   4.309   1.331
 3239TIP3   OH2 9659   4.192   7.372   0.297
 3239TIP3    H1 9660   4.120   7.310   0.289
 3239TIP3    H2 9661   4.174   7.439   0.232
 3240TIP3   OH2 9662   1.062   4.032   6.546
 3240TIP3    H1 9663   1.144   3.983   6.541
 3240TIP3    H2 9664   1.046   4.041   6.640
 3241TIP3   OH2 9665   7.203   4.566   1.628
 3241TIP3    H1 9666   7.226   4.645   1.677
 3241TIP3    H2 9667   7.196   4.497   1.694
 3242TIP3   OH2 9668   1.836   4.831   5.041
 3242TIP3    H1 9669   1.767   4.845   5.106
 3242TIP3    H2 9670   1.917   4.832   5.092
 3243TIP3   OH2 9671   0.047   7.244   3.548
 3243TIP3    H1 9672   0.025   7.186   3.475
 3243TIP3    H2 9673   0.140   7.229   3.564
 3244TIP3   OH2 9674   6.958   3.569   0.422
 3244TIP3    H1 9675   7.022   3.535   0.359
 3244TIP3    H2 9676   6.935   3.656   0.388
 3245TIP3   OH2 9677   7.669   0.148   2.020
 3245TIP3    H1 9678   7.765   0.144   2.014
 3245TIP3    H2 9679   7.652   0.215   2.086
 3246TIP3   OH2 9680   7.772   6.147   1.640
 3246TIP3    H1 9681   7.767   6.148   1.545
 3246TIP3    H2 9682   7.855   6.191   1.661
 3247TIP3   OH2 9683   2.134   0.106   2.408
 3247TIP3    H1 9684   2.170   0.090   2.495
 3247TIP3    H2 9685   2.071   0.177   2.421
 3248TIP3   OH2 9686   5.523   0.031   4.792
 3248TIP3    H1 9687   5.497   0.091   4.863
 3248TIP3    H2 9688   5.569  -0.039   4.837
 3249TIP3   OH2 9689   6.240   7.655   3.766
 3249TIP3    H1 9690   6.299   7.661   3.841
 3249TIP3    H2 9691   6.293   7.615   3.697
 3250TIP3   OH2 9692   2.860   3.388   4.601
 3250TIP3    H1 9693   2.854   3.305   4.554
 3250TIP3    H2 9694   2.923   3.372   4.671
 3251TIP3   OH2 9695   6.988   3.617   1.134
 3251TIP3    H1 9696   6.912   3.580   1.178
 3251TIP3    H2 9697   7.056   3.550   1.142
 3252TIP3   OH2 9698   5.797   7.665   5.643
 3252TIP3    H1 9699   5.798   7.636   5.552
 3252TIP3    H2 9700   5.816   7.759   5.639
 3253TIP3   OH2 9701   7.385   1.153   5.625
 3253TIP3    H1 9702   7.307   1.149   5.569
 3253TIP3    H2 9703   7.443   1.215   5.580
 3254TIP3   OH2 9704   7.966   2.982   3.808
 3254TIP3    H1 9705   7.935   3.033   3.883
 3254TIP3    H2 9706   8.052   3.019   3.788
 3255TIP3   OH2 9707   0.600   4.871   3.660
 3255TIP3    H1 9708   0.571   4.799   3.604
 3255TIP3    H2 9709   0.665   4.830   3.718
 3256TIP3   OH2 9710   1.513   2.855   6.315
 3256TIP3    H1 9711   1.513   2.898   6.400
 3256TIP3    H2 9712   1.507   2.927   6.252
 3257TIP3   OH2 9713   4.139   4.981   6.109
 3257TIP3    H1 9714   4.109   4.907   6.057
 3257TIP3    H2 9715   4.059   5.016   6.149
 3258TIP3   OH2 9716   5.363   7.724   3.941
 3258TIP3    H1 9717   5.293   7.772   3.987
 3258TIP3    H2 9718   5.403   7.790   3.884
 3259TIP3   OH2 9719   1.597   7.338   3.444
 3259TIP3    H1 9720   1.681   7.376   3.416
 3259TIP3    H2 9721   1.619   7.282   3.518
 3260TIP3   OH2 9722   4.323   7.014   4.220
 3260TIP3    H1 9723   4.399   6.986   4.270
 3260TIP3    H2 9724   4.325   6.961   4.141
 3261TIP3   OH2 9725   4.258   3.384   5.494
 3261TIP3    H1 9726   4.346   3.349   5.502
 3261TIP3    H2 9727   4.204   3.310   5.465
 3262TIP3   OH2 9728   0.115   3.765   3.641
 3262TIP3    H1 9729   0.199   3.746   3.682
 3262TIP3    H2 9730   0.113   3.709   3.563
 3263TIP3   OH2 9731   6.844   5.454   6.031
 3263TIP3    H1 9732   6.838   5.465   5.936
 3263TIP3    H2 9733   6.901   5.379   6.043
 3264TIP3   OH2 9734   4.830   5.363   4.430
 3264TIP3    H1 9735   4.798   5.450   4.409
 3264TIP3    H2 9736   4.870   5.331   4.349
 3265TIP3   OH2 9737   2.236   2.646   0.615
 3265TIP3    H1 9738   2.255   2.670   0.524
 3265TIP3    H2 9739   2.178   2.716   0.646
 3266TIP3   OH2 9740   6.768   6.879   6.106
 3266TIP3    H1 9741   6.762   6.882   6.202
 3266TIP3    H2 9742   6.861   6.890   6.087
 3267TIP3   OH2 9743   5.117   5.513   3.405
 3267TIP3    H1 9744   5.207   5.496   3.378
 3267TIP3    H2 9745   5.123   5.588   3.464
 3268TIP3   OH2 9746   6.765   6.655   6.621
 3268TIP3    H1 9747   6.813   6.716   6.678
 3268TIP3    H2 9748   6.680   6.697   6.607
 3269TIP3   OH2 9749   1.479   5.860   6.418
 3269TIP3    H1 9750   1.574   5.863   6.434
 3269TIP3    H2 9751   1.440   5.871   6.505
 3270TIP3   OH2 9752   6.499   3.627   0.783
 3270TIP3    H1 9753   6.431   3.686   0.752
 3270TIP3    H2 9754   6.458   3.578   0.853
 3271TIP3   OH2 9755   1.999   5.402   1.170
 3271TIP3    H1 9756   1.949   5.380   1.249
 3271TIP3    H2 9757   2.015   5.318   1.127
 3272TIP3   OH2 9758   3.782   1.549   0.461
 3272TIP3    H1 9759   3.778   1.455   0.446
 3272TIP3    H2 9760   3.875   1.571   0.457
 3273TIP3   OH2 9761   5.617   6.694   1.127
 3273TIP3    H1 9762   5.665   6.776   1.143
 3273TIP3    H2 9763   5.596   6.661   1.214
 3274TIP3   OH2 9764   7.380   6.988   1.283
 3274TIP3    H1 9765   7.381   7.076   1.321
 3274TIP3    H2 9766   7.462   6.948   1.312
 3275TIP3   OH2 9767   2.411   5.236   2.793
 3275TIP3    H1 9768   2.413   5.153   2.841
 3275TIP3    H2 9769   2.479   5.227   2.726
 3276TIP3   OH2 9770   7.679   3.407   6.773
 3276TIP3    H1 9771   7.682   3.364   6.859
 3276TIP3    H2 9772   7.719   3.344   6.713
 3277TIP3   OH2 9773   8.215   0.898   6.534
 3277TIP3    H1 9774   8.305   0.927   6.529
 3277TIP3    H2 9775   8.219   0.815   6.583
 3278TIP3   OH2 9776   0.319   5.884   5.919
 3278TIP3    H1 9777   0.262   5.819   5.960
 3278TIP3    H2 9778   0.388   5.900   5.983
 3279TIP3   OH2 9779   2.804   0.668   3.386
 3279TIP3    H1 9780   2.716   0.706   3.395
 3279TIP3    H2 9781   2.793   0.596   3.325
 3280TIP3   OH2 9782   8.154   4.708   2.354
 3280TIP3    H1 9783   8.197   4.625   2.332
 3280TIP3    H2 9784   8.061   4.685   2.362
 3281TIP3   OH2 9785   6.025   1.736   0.167
 3281TIP3    H1 9786   6.083   1.783   0.108
 3281TIP3    H2 9787   6.076   1.727   0.248
 3282TIP3   OH2 9788   4.420   6.086   3.969
 3282TIP3    H1 9789   4.433   6.093   3.874
 3282TIP3    H2 9790   4.499   6.127   4.006
 3283TIP3   OH2 9791   7.099   0.286   5.533
 3283TIP3    H1 9792   7.082   0.234   5.455
 3283TIP3    H2 9793   7.021   0.274   5.587
 3284TIP3   OH2 9794   2.005   6.039   0.698
 3284TIP3    H1 9795   2.000   5.964   0.757
 3284TIP3    H2 9796   2.097   6.065   0.701
 3285TIP3   OH2 9797   1.129   2.350   3.468
 3285TIP3    H1 9798   1.069   2.425   3.467
 3285TIP3    H2 9799   1.093   2.291   3.534
 3286TIP3   OH2 9800   3.507   7.402   1.205
 3286TIP3    H1 9801   3.475   7.348   1.133
 3286TIP3    H2 9802   3.602   7.406   1.192
 3287TIP3   OH2 9803   4.052   5.928   0.989
 3287TIP3    H1 9804   4.031   5.840   1.021
 3287TIP3    H2 9805   4.096   5.970   1.063
 3288TIP3   OH2 9806   7.619   2.858   5.694
 3288TIP3    H1 9807   7.548   2.822   5.641
 3288TIP3    H2 9808   7.599   2.951   5.700
 3289TIP3   OH2 9809   5.213   1.828   2.818
 3289TIP3    H1 9810   5.286   1.771   2.841
 3289TIP3    H2 9811   5.140   1.769   2.803
 3290TIP3   OH2 9812   3.718   6.926   4.188
 3290TIP3    H1 9813   3.789   6.862   4.183
 3290TIP3    H2 9814   3.755   6.999   4.238
 3291TIP3   OH2 9815   2.239   1.314   1.557
 3291TIP3    H1 9816   2.260   1.287   1.647
 3291TIP3    H2 9817   2.202   1.236   1.517
 3292TIP3   OH2 9818   2.683   7.007   5.030
 3292TIP3    H1 9819   2.629   6.997   5.109
 3292TIP3    H2 9820   2.746   6.935   5.035
 3293TIP3   OH2 9821   7.117   6.811   4.088
 3293TIP3    H1 9822   7.203   6.842   4.060
 3293TIP3    H2 9823   7.068   6.799   4.007
 3294TIP3   OH2 9824   6.677   1.647   5.532
 3294TIP3    H1 9825   6.657   1.617   5.443
 3294TIP3    H2 9826   6.643   1.736   5.535
 3295TIP3   OH2 9827   0.440   1.124   2.957
 3295TIP3    H1 9828   0.374   1.168   2.903
 3295TIP3    H2 9829   0.505   1.092   2.894
 3296TIP3   OH2 9830   7.186   3.414   1.194
 3296TIP3    H1 9831   7.273   3.439   1.160
 3296TIP3    H2 9832   7.205   3.369   1.276
 3297TIP3   OH2 9833   1.095   0.526   3.102
 3297TIP3    H1 9834   1.034   0.538   3.174
 3297TIP3    H2 9835   1.155   0.601   3.109
 3298TIP3   OH2 9836   4.700   0.219   3.563
 3298TIP3    H1 9837   4.701   0.304   3.518
 3298TIP3    H2 9838   4.783   0.178   3.539
 3299TIP3   OH2 9839   6.952   2.145   5.528
 3299TIP3    H1 9840   6.897   2.221   5.508
 3299TIP3    H2 9841   6.982   2.160   5.618
 3300TIP3   OH2 9842   2.391   4.981   5.465
 3300TIP3    H1 9843   2.435   5.039   5.404
 3300TIP3    H2 9844   2.370   5.038   5.540
 3301TIP3   OH2 9845   6.124   6.631   2.477
 3301TIP3    H1 9846   6.218   6.617   2.491
 3301TIP3    H2 9847   6.084   6.613   2.562
 3302TIP3   OH2 9848   0.889   0.539   1.318
 3302TIP3    H1 9849   0.899   0.478   1.245
 3302TIP3    H2 9850   0.979   0.562   1.342
 3303TIP3   OH2 9851   6.962   1.482   0.639
 3303TIP3    H1 9852   7.052   1.499   0.667
 3303TIP3    H2 9853   6.914   1.561   0.663
 3304TIP3   OH2 9854   4.223   3.844   1.450
 3304TIP3    H1 9855   4.176   3.927   1.447
 3304TIP3    H2 9856   4.158   3.780   1.479
 3305TIP3   OH2 9857   5.271   6.240   5.106
 3305TIP3    H1 9858   5.188   6.210   5.144
 3305TIP3    H2 9859   5.263   6.336   5.107
 3306TIP3   OH2 9860   1.278   7.031   0.501
 3306TIP3    H1 9861   1.372   7.052   0.502
 3306TIP3    H2 9862   1.273   6.942   0.467
 3307TIP3   OH2 9863   3.561   4.060   4.161
 3307TIP3    H1 9864   3.618   4.136   4.175
 3307TIP3    H2 9865   3.524   4.042   4.247
 3308TIP3   OH2 9866   8.202   1.228   1.136
 3308TIP3    H1 9867   8.273   1.238   1.073
 3308TIP3    H2 9868   8.123   1.217   1.082
 3309TIP3   OH2 9869   3.226   1.232   3.760
 3309TIP3    H1 9870   3.231   1.143   3.796
 3309TIP3    H2 9871   3.303   1.276   3.796
 3310TIP3   OH2 9872   0.708   5.494   4.101
 3310TIP3    H1 9873   0.745   5.507   4.189
 3310TIP3    H2 9874   0.695   5.582   4.067
 3311TIP3   OH2 9875   5.624   4.757   1.885
 3311TIP3    H1 9876   5.583   4.678   1.849
 3311TIP3    H2 9877   5.679   4.724   1.956
 3312TIP3   OH2 9878   2.892   2.756   2.055
 3312TIP3    H1 9879   2.815   2.789   2.101
 3312TIP3    H2 9880   2.903   2.815   1.981
 3313TIP3   OH2 9881   1.850   6.205   0.858
 3313TIP3    H1 9882   1.913   6.133   0.863
 3313TIP3    H2 9883   1.883   6.260   0.787
 3314TIP3   OH2 9884   2.204   5.164   4.920
 3314TIP3    H1 9885   2.169   5.200   5.001
 3314TIP3    H2 9886   2.145   5.093   4.897
 3315TIP3   OH2 9887   8.226   1.816   4.794
 3315TIP3    H1 9888   8.279   1.825   4.873
 3315TIP3    H2 9889   8.228   1.723   4.774
 3316TIP3   OH2 9890   6.198   3.611   3.409
 3316TIP3    H1 9891   6.290   3.637   3.412
 3316TIP3    H2 9892   6.180   3.595   3.317
 3317TIP3   OH2 9893   3.927   2.204   3.153
 3317TIP3    H1 9894   3.910   2.214   3.059
 3317TIP3    H2 9895   3.916   2.292   3.189
 3318TIP3   OH2 9896   0.025   4.732   3.791
 3318TIP3    H1 9897   0.027   4.690   3.705
 3318TIP3    H2 9898   0.032   4.826   3.772
 3319TIP3   OH2 9899   7.128   6.666   6.531
 3319TIP3    H1 9900   7.082   6.670   6.615
 3319TIP3    H2 9901   7.218   6.642   6.554
 3320TIP3   OH2 9902   7.611   2.993   4.151
 3320TIP3    H1 9903   7.694   3.006   4.104
 3320TIP3    H2 9904   7.548   2.973   4.082
 3321TIP3   OH2 9905   3.671   4.314   4.187
 3321TIP3    H1 9906   3.631   4.348   4.107
 3321TIP3    H2 9907   3.765   4.326   4.174
 3322TIP3   OH2 9908   7.083   2.560   4.468
 3322TIP3    H1 9909   7.176   2.539   4.460
 3322TIP3    H2 9910   7.081   2.649   4.501
 3323TIP3   OH2 9911   1.009   3.415   2.370
 3323TIP3    H1 9912   0.997   3.329   2.328
 3323TIP3    H2 9913   0.952   3.474   2.320
 3324TIP3   OH2 9914   7.764   3.319   0.054
 3324TIP3    H1 9915   7.704   3.297  -0.018
 3324TIP3    H2 9916   7.740   3.258   0.124
 3325TIP3   OH2 9917   2.402   4.983   0.178
 3325TIP3    H1 9918   2.398   5.001   0.084
 3325TIP3    H2 9919   2.315   4.950   0.200
 3326TIP3   OH2 9920   2.365   5.850   3.111
 3326TIP3    H1 9921   2.396   5.762   3.129
 3326TIP3    H2 9922   2.278   5.838   3.073
 3327TIP3   OH2 9923   1.465   5.251   3.115
 3327TIP3    H1 9924   1.397   5.232   3.050
 3327TIP3    H2 9925   1.495   5.339   3.093
 3328TIP3   OH2 9926   5.538   4.640   2.699
 3328TIP3    H1 9927   5.567   4.593   2.621
 3328TIP3    H2 9928   5.452   4.602   2.720
 3329TIP3   OH2 9929   8.278   0.338   3.052
 3329TIP3    H1 9930   8.281   0.252   3.009
 3329TIP3    H2 9931   8.253   0.398   2.982
 3330TIP3   OH2 9932   3.477   1.145   2.830
 3330TIP3    H1 9933   3.505   1.229   2.794
 3330TIP3    H2 9934   3.429   1.169   2.910
 3331TIP3   OH2 9935   0.340   4.874   4.064
 3331TIP3    H1 9936   0.292   4.835   4.138
 3331TIP3    H2 9937   0.359   4.801   4.006
 3332TIP3   OH2 9938   3.383   3.269   4.458
 3332TIP3    H1 9939   3.360   3.197   4.399
 3332TIP3    H2 9940   3.452   3.233   4.514
 3333TIP3   OH2 9941   3.272   0.197   6.523
 3333TIP3    H1 9942   3.239   0.276   6.565
 3333TIP3    H2 9943   3.298   0.225   6.435
 3334TIP3   OH2 9944   2.486   1.494   0.322
 3334TIP3    H1 9945   2.528   1.411   0.299
 3334TIP3    H2 9946   2.559   1.553   0.342
 3335TIP3   OH2 9947   5.722   2.249   5.268
 3335TIP3    H1 9948   5.679   2.327   5.303
 3335TIP3    H2 9949   5.798   2.282   5.222
 3336TIP3   OH2 9950   6.456   1.421   0.909
 3336TIP3    H1 9951   6.468   1.497   0.852
 3336TIP3    H2 9952   6.363   1.400   0.901
 3337TIP3   OH2 9953   6.252   0.631   5.105
 3337TIP3    H1 9954   6.210   0.613   5.021
 3337TIP3    H2 9955   6.179   0.642   5.166
 3338TIP3   OH2 9956   7.437   6.584   1.843
 3338TIP3    H1 9957   7.452   6.495   1.811
 3338TIP3    H2 9958   7.342   6.590   1.854
 3339TIP3   OH2 9959   3.511   1.304   4.534
 3339TIP3    H1 9960   3.430   1.343   4.502
 3339TIP3    H2 9961   3.580   1.363   4.503
 3340TIP3   OH2 9962   3.269   3.333   0.929
 3340TIP3    H1 9963   3.357   3.296   0.923
 3340TIP3    H2 9964   3.211   3.258   0.939
 3341TIP3   OH2 9965   6.253   4.407   2.564
 3341TIP3    H1 9966   6.321   4.340   2.553
 3341TIP3    H2 9967   6.191   4.368   2.625
 3342TIP3   OH2 9968   2.836   6.238   5.900
 3342TIP3    H1 9969   2.899   6.304   5.869
 3342TIP3    H2 9970   2.751   6.280   5.889
 3343TIP3   OH2 9971   6.422   1.101   6.205
 3343TIP3    H1 9972   6.495   1.083   6.146
 3343TIP3    H2 9973   6.407   1.195   6.197
 3344TIP3   OH2 9974   4.267   1.408   2.046
 3344TIP3    H1 9975   4.310   1.475   1.992
 3344TIP3    H2 9976   4.265   1.330   1.990
 3345TIP3   OH2 9977   5.107   2.465   3.151
 3345TIP3    H1 9978   5.194   2.491   3.122
 3345TIP3    H2 9979   5.089   2.520   3.228
 3346TIP3   OH2 9980   8.002   4.354   3.504
 3346TIP3    H1 9981   7.958   4.419   3.558
 3346TIP3    H2 9982   7.979   4.377   3.414
 3347TIP3   OH2 9983   0.159   4.173   2.553
 3347TIP3    H1 9984   0.142   4.178   2.647
 3347TIP3    H2 9985   0.104   4.243   2.516
 3348TIP3   OH2 9986   4.326   1.162   5.790
 3348TIP3    H1 9987   4.280   1.206   5.719
 3348TIP3    H2 9988   4.348   1.076   5.755
 3349TIP3   OH2 9989   4.186   2.700   3.521
 3349TIP3    H1 9990   4.224   2.699   3.609
 3349TIP3    H2 9991   4.252   2.743   3.467
 3350TIP3   OH2 9992   7.894   2.581   1.561
 3350TIP3    H1 9993   7.915   2.488   1.559
 3350TIP3    H2 9994   7.801   2.585   1.540
 3351TIP3   OH2 9995   3.810   7.067   3.781
 3351TIP3    H1 9996   3.867   7.002   3.821
 3351TIP3    H2 9997   3.863   7.108   3.713
 3352TIP3   OH2 9998  -0.011   2.169   0.199
 3352TIP3    H1 9999  -0.036   2.081   0.230
 3352TIP3    H210000  -0.034   2.169   0.106
 3353TIP3   OH210001   3.122   5.642   2.763
 3353TIP3    H110002   3.210   5.622   2.795
 3353TIP3    H210003   3.112   5.736   2.777
 3354TIP3   OH210004   0.910   7.348   6.663
 3354TIP3    H110005   0.913   7.287   6.736
 3354TIP3    H210006   0.828   7.396   6.673
 3355TIP3   OH210007   5.195   5.501   2.782
 3355TIP3    H110008   5.187   5.546   2.697
 3355TIP3    H210009   5.262   5.434   2.767
 3356TIP3   OH210010   2.816   2.301   5.190
 3356TIP3    H110011   2.794   2.349   5.110
 3356TIP3    H210012   2.898   2.256   5.170
 3357TIP3   OH210013   6.204   7.078   6.530
 3357TIP3    H110014   6.284   7.129   6.516
 3357TIP3    H210015   6.158   7.083   6.446
 3358TIP3   OH210016   4.725   4.320   0.092
 3358TIP3    H110017   4.765   4.257   0.032
 3358TIP3    H210018   4.726   4.403   0.044
 3359TIP3   OH210019   1.302   5.349   4.620
 3359TIP3    H110020   1.215   5.326   4.652
 3359TIP3    H210021   1.310   5.442   4.639
 3360TIP3   OH210022   1.012   1.555   0.589
 3360TIP3    H110023   0.934   1.516   0.628
 3360TIP3    H210024   0.995   1.649   0.590
 3361TIP3   OH210025   4.206   6.421   2.389
 3361TIP3    H110026   4.217   6.342   2.337
 3361TIP3    H210027   4.294   6.456   2.398
 3362TIP3   OH210028   6.821   0.709   3.379
 3362TIP3    H110029   6.809   0.771   3.307
 3362TIP3    H210030   6.772   0.631   3.353
 3363TIP3   OH210031   4.226   6.025   6.668
 3363TIP3    H110032   4.258   6.115   6.672
 3363TIP3    H210033   4.255   5.993   6.582
 3364TIP3   OH210034   4.478   0.998   4.150
 3364TIP3    H110035   4.545   0.939   4.115
 3364TIP3    H210036   4.416   1.009   4.077
 3365TIP3   OH210037   7.704   1.420   3.350
 3365TIP3    H110038   7.743   1.433   3.437
 3365TIP3    H210039   7.617   1.458   3.358
 3366TIP3   OH210040   3.289   3.430   6.319
 3366TIP3    H110041   3.207   3.411   6.365
 3366TIP3    H210042   3.339   3.348   6.325
 3367TIP3   OH210043   5.728   6.632   0.082
 3367TIP3    H110044   5.681   6.699   0.131
 3367TIP3    H210045   5.779   6.585   0.147
 3368TIP3   OH210046   2.347   1.018   4.527
 3368TIP3    H110047   2.301   1.100   4.542
 3368TIP3    H210048   2.431   1.045   4.489
 3369TIP3   OH210049   5.724   2.571   5.696
 3369TIP3    H110050   5.767   2.534   5.773
 3369TIP3    H210051   5.655   2.508   5.675
 3370TIP3   OH210052   7.743   1.015   6.449
 3370TIP3    H110053   7.773   1.009   6.358
 3370TIP3    H210054   7.707   1.103   6.457
 3371TIP3   OH210055   1.352   7.350   6.444
 3371TIP3    H110056   1.282   7.400   6.485
 3371TIP3    H210057   1.427   7.362   6.501
 3372TIP3   OH210058   2.012   2.170   3.614
 3372TIP3    H110059   1.978   2.184   3.702
 3372TIP3    H210060   2.085   2.109   3.626
 3373TIP3   OH210061   5.165   3.479   3.687
 3373TIP3    H110062   5.071   3.479   3.666
 3373TIP3    H210063   5.208   3.457   3.605
 3374TIP3   OH210064   1.986   7.539   3.845
 3374TIP3    H110065   2.068   7.516   3.889
 3374TIP3    H210066   1.992   7.633   3.829
 3375TIP3   OH210067   8.006   6.267   1.642
 3375TIP3    H110068   8.060   6.265   1.721
 3375TIP3    H210069   8.035   6.192   1.591
 3376TIP3   OH210070   2.935   5.481   2.321
 3376TIP3    H110071   3.001   5.516   2.380
 3376TIP3    H210072   2.976   5.485   2.234
 3377TIP3   OH210073   0.210  -0.015   2.585
 3377TIP3    H110074   0.240   0.021   2.502
 3377TIP3    H210075   0.255  -0.099   2.593
 3378TIP3   OH210076   7.420   3.518   4.077
 3378TIP3    H110077   7.480   3.591   4.089
 3378TIP3    H210078   7.387   3.499   4.165
 3379TIP3   OH210079   4.778   3.067   5.576
 3379TIP3    H110080   4.787   3.142   5.634
 3379TIP3    H210081   4.868   3.047   5.549
 3380TIP3   OH210082   6.226   1.101   2.280
 3380TIP3    H110083   6.197   1.077   2.191
 3380TIP3    H210084   6.278   1.026   2.309
 3381TIP3   OH210085   0.633   4.638   0.081
 3381TIP3    H110086   0.613   4.570   0.145
 3381TIP3    H210087   0.726   4.659   0.097
 3382TIP3   OH210088   1.995   2.550   6.497
 3382TIP3    H110089   1.915   2.602   6.485
 3382TIP3    H210090   2.059   2.589   6.438
 3383TIP3   OH210091   7.685   1.454   0.547
 3383TIP3    H110092   7.644   1.528   0.592
 3383TIP3    H210093   7.638   1.377   0.580
 3384TIP3   OH210094   6.012   4.598   5.265
 3384TIP3    H110095   6.011   4.683   5.220
 3384TIP3    H210096   5.985   4.535   5.198
 3385TIP3   OH210097   3.712   7.182   3.376
 3385TIP3    H110098   3.658   7.261   3.366
 3385TIP3    H210099   3.674   7.135   3.450
 3386TIP3   OH210100   7.958   4.218   6.342
 3386TIP3    H110101   8.037   4.246   6.389
 3386TIP3    H210102   7.975   4.242   6.251
 3387TIP3   OH210103   7.465   4.059   3.765
 3387TIP3    H110104   7.418   3.993   3.713
 3387TIP3    H210105   7.511   4.113   3.700
 3388TIP3   OH210106   1.405   6.988   2.930
 3388TIP3    H110107   1.407   6.978   2.835
 3388TIP3    H210108   1.417   7.081   2.945
 3389TIP3   OH210109   6.149   7.265   3.240
 3389TIP3    H110110   6.186   7.353   3.236
 3389TIP3    H210111   6.096   7.265   3.320
 3390TIP3   OH210112   3.802   6.291   5.371
 3390TIP3    H110113   3.782   6.365   5.314
 3390TIP3    H210114   3.896   6.295   5.385
 3391TIP3   OH210115   3.633   0.045   4.755
 3391TIP3    H110116   3.565   0.002   4.806
 3391TIP3    H210117   3.612   0.138   4.761
 3392TIP3   OH210118   4.030   4.259   2.115
 3392TIP3    H110119   3.978   4.238   2.038
 3392TIP3    H210120   4.008   4.191   2.179
 3393TIP3   OH210121   7.028   7.079   1.408
 3393TIP3    H110122   6.974   7.156   1.392
 3393TIP3    H210123   7.006   7.052   1.497
 3394TIP3   OH210124   1.762   6.855   4.923
 3394TIP3    H110125   1.747   6.809   4.840
 3394TIP3    H210126   1.855   6.842   4.941
 3395TIP3   OH210127   1.469   0.285   3.397
 3395TIP3    H110128   1.481   0.235   3.478
 3395TIP3    H210129   1.391   0.338   3.414
 3396TIP3   OH210130   1.189   6.841   0.112
 3396TIP3    H110131   1.238   6.781   0.056
 3396TIP3    H210132   1.236   6.924   0.106
 3397TIP3   OH210133   3.992   0.567   0.634
 3397TIP3    H110134   4.077   0.597   0.599
 3397TIP3    H210135   3.929   0.590   0.565
 3398TIP3   OH210136   1.668   4.383   1.934
 3398TIP3    H110137   1.703   4.447   1.872
 3398TIP3    H210138   1.634   4.436   2.006
 3399TIP3   OH210139   7.006   4.876   2.057
 3399TIP3    H110140   6.965   4.883   2.144
 3399TIP3    H210141   7.052   4.792   2.059
 3400TIP3   OH210142   0.938   1.249   1.474
 3400TIP3    H110143   0.900   1.222   1.558
 3400TIP3    H210144   0.938   1.169   1.421
 3401TIP3   OH210145   6.803   0.656   6.015
 3401TIP3    H110146   6.851   0.625   5.938
 3401TIP3    H210147   6.845   0.611   6.089
 3402TIP3   OH210148   6.100   4.376   3.669
 3402TIP3    H110149   6.011   4.411   3.672
 3402TIP3    H210150   6.142   4.423   3.596
 3403TIP3   OH210151   1.999   5.800   0.850
 3403TIP3    H110152   2.065   5.765   0.790
 3403TIP3    H210153   1.977   5.727   0.907
 3404TIP3   OH210154   5.374   2.719   4.323
 3404TIP3    H110155   5.327   2.793   4.283
 3404TIP3    H210156   5.393   2.661   4.249
 3405TIP3   OH210157   2.695   4.242   1.789
 3405TIP3    H110158   2.658   4.305   1.728
 3405TIP3    H210159   2.729   4.295   1.861
 3406TIP3   OH210160   2.665   2.426   4.724
 3406TIP3    H110161   2.626   2.439   4.637
 3406TIP3    H210162   2.711   2.342   4.717
 3407TIP3   OH210163   3.648   1.038   2.586
 3407TIP3    H110164   3.663   1.132   2.579
 3407TIP3    H210165   3.572   1.022   2.528
 3408TIP3   OH210166   4.558   3.638   1.943
 3408TIP3    H110167   4.486   3.587   1.980
 3408TIP3    H210168   4.517   3.719   1.913
 3409TIP3   OH210169   5.580   2.199   3.694
 3409TIP3    H110170   5.547   2.165   3.611
 3409TIP3    H210171   5.672   2.173   3.696
 3410TIP3   OH210172   5.495   4.359   0.797
 3410TIP3    H110173   5.456   4.309   0.868
 3410TIP3    H210174   5.585   4.375   0.825
 3411TIP3   OH210175   2.486   1.132   1.941
 3411TIP3    H110176   2.414   1.109   1.882
 3411TIP3    H210177   2.523   1.212   1.903
 3412TIP3   OH210178   4.252   6.666   5.676
 3412TIP3    H110179   4.225   6.598   5.738
 3412TIP3    H210180   4.303   6.619   5.611
 3413TIP3   OH210181   7.106   2.353   3.303
 3413TIP3    H110182   7.184   2.338   3.357
 3413TIP3    H210183   7.066   2.431   3.339
 3414TIP3   OH210184   7.188   6.700   1.998
 3414TIP3    H110185   7.211   6.747   2.079
 3414TIP3    H210186   7.118   6.752   1.959
 3415TIP3   OH210187   2.321   7.060   5.518
 3415TIP3    H110188   2.258   7.132   5.526
 3415TIP3    H210189   2.316   7.015   5.602
 3416TIP3   OH210190   6.591   3.017   0.911
 3416TIP3    H110191   6.592   3.089   0.848
 3416TIP3    H210192   6.682   3.008   0.939
 3417TIP3   OH210193   7.027   3.925   2.889
 3417TIP3    H110194   7.073   3.859   2.941
 3417TIP3    H210195   7.096   3.979   2.851
 3418TIP3   OH210196   5.582   2.440   3.455
 3418TIP3    H110197   5.510   2.455   3.516
 3418TIP3    H210198   5.651   2.500   3.484
 3419TIP3   OH210199   0.762   3.336   4.536
 3419TIP3    H110200   0.681   3.377   4.564
 3419TIP3    H210201   0.792   3.390   4.462
 3420TIP3   OH210202   7.530   2.368   2.316
 3420TIP3    H110203   7.539   2.333   2.227
 3420TIP3    H210204   7.437   2.390   2.324
 3421TIP3   OH210205   4.703   5.319   5.097
 3421TIP3    H110206   4.725   5.363   5.015
 3421TIP3    H210207   4.608   5.311   5.095
 3422TIP3   OH210208   4.275   4.992   0.355
 3422TIP3    H110209   4.216   4.995   0.280
 3422TIP3    H210210   4.307   4.902   0.358
 3423TIP3   OH210211   5.142   2.333   0.956
 3423TIP3    H110212   5.099   2.411   0.991
 3423TIP3    H210213   5.083   2.302   0.887
 3424TIP3   OH210214   6.700   6.227   2.923
 3424TIP3    H110215   6.757   6.291   2.880
 3424TIP3    H210216   6.757   6.151   2.939
 3425TIP3   OH210217   7.200   3.317   4.262
 3425TIP3    H110218   7.290   3.285   4.262
 3425TIP3    H210219   7.202   3.397   4.313
 3426TIP3   OH210220   7.680   6.745   1.808
 3426TIP3    H110221   7.602   6.694   1.833
 3426TIP3    H210222   7.663   6.833   1.842
 3427TIP3   OH210223   5.451   0.196   6.030
 3427TIP3    H110224   5.495   0.160   6.108
 3427TIP3    H210225   5.481   0.141   5.958
 3428TIP3   OH210226   6.457   4.255   3.533
 3428TIP3    H110227   6.384   4.307   3.567
 3428TIP3    H210228   6.525   4.262   3.600
 3429TIP3   OH210229   4.951   7.459   1.015
 3429TIP3    H110230   4.926   7.422   0.930
 3429TIP3    H210231   4.881   7.521   1.036
 3430TIP3   OH210232   4.624   3.813   6.117
 3430TIP3    H110233   4.605   3.748   6.184
 3430TIP3    H210234   4.663   3.764   6.045
 3431TIP3   OH210235   7.834   1.650   1.315
 3431TIP3    H110236   7.884   1.709   1.257
 3431TIP3    H210237   7.856   1.562   1.284
 3432TIP3   OH210238   0.919   2.501   1.536
 3432TIP3    H110239   0.980   2.464   1.472
 3432TIP3    H210240   0.952   2.471   1.620
 3433TIP3   OH210241   2.291   1.389   4.281
 3433TIP3    H110242   2.318   1.345   4.200
 3433TIP3    H210243   2.373   1.410   4.326
 3434TIP3   OH210244   2.486   5.860   1.179
 3434TIP3    H110245   2.546   5.919   1.134
 3434TIP3    H210246   2.406   5.862   1.126
 3435TIP3   OH210247   2.378   7.677   6.646
 3435TIP3    H110248   2.445   7.609   6.634
 3435TIP3    H210249   2.332   7.652   6.726
 3436TIP3   OH210250   1.535   5.529   1.093
 3436TIP3    H110251   1.461   5.586   1.071
 3436TIP3    H210252   1.605   5.589   1.119
 3437TIP3   OH210253   6.140   4.012   3.633
 3437TIP3    H110254   6.230   4.005   3.599
 3437TIP3    H210255   6.147   3.985   3.724
 3438TIP3   OH210256   0.919   4.673   0.070
 3438TIP3    H110257   0.906   4.701  -0.021
 3438TIP3    H210258   0.963   4.588   0.063
 3439TIP3   OH210259   0.628   2.760   4.810
 3439TIP3    H110260   0.649   2.695   4.743
 3439TIP3    H210261   0.571   2.714   4.871
 3440TIP3   OH210262   6.046   1.432   3.596
 3440TIP3    H110263   5.986   1.401   3.663
 3440TIP3    H210264   5.989   1.468   3.528
 3441TIP3   OH210265   3.359   3.934   5.162
 3441TIP3    H110266   3.327   3.878   5.233
 3441TIP3    H210267   3.407   3.875   5.104
 3442TIP3   OH210268   2.496   6.973   3.817
 3442TIP3    H110269   2.508   7.056   3.863
 3442TIP3    H210270   2.473   6.911   3.885
 3443TIP3   OH210271   2.693   5.985   5.061
 3443TIP3    H110272   2.702   5.905   5.114
 3443TIP3    H210273   2.689   6.056   5.126
 3444TIP3   OH210274   5.411   2.382   1.262
 3444TIP3    H110275   5.360   2.369   1.343
 3444TIP3    H210276   5.382   2.467   1.229
 3445TIP3   OH210277   1.221   5.358   0.393
 3445TIP3    H110278   1.314   5.350   0.415
 3445TIP3    H210279   1.179   5.286   0.441
 3446TIP3   OH210280   7.480   1.596   5.989
 3446TIP3    H110281   7.516   1.518   5.945
 3446TIP3    H210282   7.418   1.560   6.052
 3447TIP3   OH210283   3.823   6.889   2.025
 3447TIP3    H110284   3.823   6.796   2.047
 3447TIP3    H210285   3.730   6.911   2.013
 3448TIP3   OH210286   1.262   3.871   0.180
 3448TIP3    H110287   1.237   3.823   0.101
 3448TIP3    H210288   1.296   3.804   0.240
 3449TIP3   OH210289   5.860   1.924   2.463
 3449TIP3    H110290   5.772   1.899   2.437
 3449TIP3    H210291   5.903   1.949   2.381
 3450TIP3   OH210292   7.342   4.942   4.833
 3450TIP3    H110293   7.406   4.894   4.886
 3450TIP3    H210294   7.391   4.968   4.755
 3451TIP3   OH210295   7.264   4.192   5.446
 3451TIP3    H110296   7.193   4.208   5.384
 3451TIP3    H210297   7.295   4.280   5.470
 3452TIP3   OH210298   6.449   2.662   3.070
 3452TIP3    H110299   6.404   2.626   3.146
 3452TIP3    H210300   6.455   2.756   3.087
 3453TIP3   OH210301   0.909   7.656   5.573
 3453TIP3    H110302   1.004   7.649   5.564
 3453TIP3    H210303   0.874   7.622   5.491
 3454TIP3   OH210304   2.105   7.067   5.333
 3454TIP3    H110305   2.037   7.006   5.361
 3454TIP3    H210306   2.181   7.043   5.385
 3455TIP3   OH210307   2.444   3.923   6.577
 3455TIP3    H110308   2.409   3.886   6.495
 3455TIP3    H210309   2.367   3.957   6.622
 3456TIP3   OH210310   0.940   0.374   4.932
 3456TIP3    H110311   1.013   0.317   4.956
 3456TIP3    H210312   0.881   0.319   4.881
 3457TIP3   OH210313   2.052   0.513   2.084
 3457TIP3    H110314   2.040   0.591   2.030
 3457TIP3    H210315   2.126   0.467   2.043
 3458TIP3   OH210316   1.663   3.890   0.358
 3458TIP3    H110317   1.609   3.944   0.299
 3458TIP3    H210318   1.606   3.869   0.431
 3459TIP3   OH210319   3.165   2.705   3.004
 3459TIP3    H110320   3.224   2.775   2.974
 3459TIP3    H210321   3.223   2.632   3.024
 3460TIP3   OH210322   6.102   5.867   4.228
 3460TIP3    H110323   6.072   5.830   4.145
 3460TIP3    H210324   6.131   5.956   4.206
 3461TIP3   OH210325   2.453   2.653   6.688
 3461TIP3    H110326   2.467   2.672   6.781
 3461TIP3    H210327   2.377   2.594   6.687
 3462TIP3   OH210328   7.409   6.433   6.389
 3462TIP3    H110329   7.422   6.364   6.454
 3462TIP3    H210330   7.413   6.515   6.439
 3463TIP3   OH210331   3.501   3.751   5.013
 3463TIP3    H110332   3.522   3.715   4.926
 3463TIP3    H210333   3.563   3.708   5.072
 3464TIP3   OH210334   4.555   7.213   3.749
 3464TIP3    H110335   4.602   7.195   3.831
 3464TIP3    H210336   4.490   7.279   3.773
 3465TIP3   OH210337   7.170   4.249   6.066
 3465TIP3    H110338   7.265   4.247   6.079
 3465TIP3    H210339   7.135   4.224   6.151
 3466TIP3   OH210340   6.308   7.249   1.596
 3466TIP3    H110341   6.227   7.269   1.642
 3466TIP3    H210342   6.377   7.272   1.658
 3467TIP3   OH210343   1.382   3.562   3.994
 3467TIP3    H110344   1.297   3.573   4.037
 3467TIP3    H210345   1.409   3.652   3.972
 3468TIP3   OH210346   0.322   0.652   1.248
 3468TIP3    H110347   0.315   0.747   1.258
 3468TIP3    H210348   0.411   0.638   1.215
 3469TIP3   OH210349   5.588   2.125   0.507
 3469TIP3    H110350   5.678   2.152   0.527
 3469TIP3    H210351   5.534   2.200   0.532
 3470TIP3   OH210352   4.904   2.025   4.068
 3470TIP3    H110353   4.865   2.072   3.994
 3470TIP3    H210354   4.848   1.948   4.080
 3471TIP3   OH210355   1.022   5.874   5.929
 3471TIP3    H110356   1.034   5.941   5.995
 3471TIP3    H210357   1.069   5.906   5.853
 3472TIP3   OH210358   7.759   7.647   5.096
 3472TIP3    H110359   7.784   7.627   5.186
 3472TIP3    H210360   7.669   7.615   5.089
 3473TIP3   OH210361   0.794   5.407   4.746
 3473TIP3    H110362   0.735   5.436   4.676
 3473TIP3    H210363   0.756   5.324   4.775
 3474TIP3   OH210364   3.793   7.586   1.063
 3474TIP3    H110365   3.816   7.675   1.040
 3474TIP3    H210366   3.790   7.586   1.159
 3475TIP3   OH210367   1.368   0.386   1.544
 3475TIP3    H110368   1.348   0.402   1.636
 3475TIP3    H210369   1.361   0.291   1.534
 3476TIP3   OH210370   2.751   3.246   3.320
 3476TIP3    H110371   2.671   3.205   3.354
 3476TIP3    H210372   2.763   3.208   3.233
 3477TIP3   OH210373   7.198   1.622   3.489
 3477TIP3    H110374   7.183   1.611   3.583
 3477TIP3    H210375   7.206   1.717   3.477
 3478TIP3   OH210376   6.031   5.552   5.133
 3478TIP3    H110377   5.955   5.570   5.078
 3478TIP3    H210378   6.016   5.464   5.167
 3479TIP3   OH210379   5.999   5.111   0.653
 3479TIP3    H110380   5.957   5.183   0.606
 3479TIP3    H210381   6.087   5.106   0.616
 3480TIP3   OH210382   8.043   1.457   1.566
 3480TIP3    H110383   7.991   1.393   1.517
 3480TIP3    H210384   8.097   1.404   1.624
 3481TIP3   OH210385   7.423   1.234   2.930
 3481TIP3    H110386   7.364   1.215   3.002
 3481TIP3    H210387   7.394   1.177   2.859
 3482TIP3   OH210388   1.500   3.341   5.168
 3482TIP3    H110389   1.550   3.363   5.247
 3482TIP3    H210390   1.429   3.284   5.199
 3483TIP3   OH210391   3.464   2.624   4.186
 3483TIP3    H110392   3.488   2.537   4.156
 3483TIP3    H210393   3.499   2.629   4.275
 3484TIP3   OH210394   5.514   3.792   5.703
 3484TIP3    H110395   5.591   3.834   5.741
 3484TIP3    H210396   5.549   3.736   5.634
 3485TIP3   OH210397   7.647   3.593   0.511
 3485TIP3    H110398   7.669   3.536   0.585
 3485TIP3    H210399   7.712   3.664   0.516
 3486TIP3   OH210400   5.065   6.600   2.497
 3486TIP3    H110401   5.107   6.564   2.575
 3486TIP3    H210402   5.075   6.695   2.505
 3487TIP3   OH210403   4.478   0.171   4.222
 3487TIP3    H110404   4.481   0.172   4.317
 3487TIP3    H210405   4.562   0.133   4.196
 3488TIP3   OH210406   7.174   5.214   1.381
 3488TIP3    H110407   7.162   5.134   1.329
 3488TIP3    H210408   7.120   5.279   1.337
 3489TIP3   OH210409   3.790   2.747   5.053
 3489TIP3    H110410   3.842   2.827   5.043
 3489TIP3    H210411   3.822   2.689   4.984
 3490TIP3   OH210412   6.900   1.117   0.286
 3490TIP3    H110413   6.928   1.040   0.236
 3490TIP3    H210414   6.960   1.186   0.259
 3491TIP3   OH210415   4.186   1.992   2.313
 3491TIP3    H110416   4.270   1.957   2.281
 3491TIP3    H210417   4.141   2.022   2.235
 3492TIP3   OH210418   5.928   5.149   4.621
 3492TIP3    H110419   5.981   5.149   4.541
 3492TIP3    H210420   5.895   5.239   4.627
 3493TIP3   OH210421   4.230   4.066   0.223
 3493TIP3    H110422   4.295   4.119   0.268
 3493TIP3    H210423   4.146   4.105   0.247
 3494TIP3   OH210424   0.654   3.055   4.226
 3494TIP3    H110425   0.641   3.103   4.144
 3494TIP3    H210426   0.596   3.099   4.288
 3495TIP3   OH210427   2.658   3.476   2.319
 3495TIP3    H110428   2.645   3.535   2.245
 3495TIP3    H210429   2.570   3.446   2.342
 3496TIP3   OH210430   7.347   4.215   2.924
 3496TIP3    H110431   7.300   4.194   2.843
 3496TIP3    H210432   7.310   4.154   2.988
 3497TIP3   OH210433   7.387   5.199   1.072
 3497TIP3    H110434   7.366   5.193   0.978
 3497TIP3    H210435   7.390   5.108   1.101
 3498TIP3   OH210436   8.085   2.220   0.863
 3498TIP3    H110437   8.126   2.180   0.940
 3498TIP3    H210438   8.050   2.303   0.896
 3499TIP3   OH210439   2.816   5.975   1.321
 3499TIP3    H110440   2.735   6.027   1.321
 3499TIP3    H210441   2.815   5.930   1.405
 3500TIP3   OH210442   1.759   3.646   2.757
 3500TIP3    H110443   1.667   3.626   2.774
 3500TIP3    H210444   1.800   3.648   2.843
 3501TIP3   OH210445   4.899   2.323   6.359
 3501TIP3    H110446   4.899   2.281   6.274
 3501TIP3    H210447   4.808   2.347   6.374
 3502TIP3   OH210448   5.058   6.984   6.389
 3502TIP3    H110449   4.984   7.006   6.333
 3502TIP3    H210450   5.071   7.062   6.444
 3503TIP3   OH210451   4.010   3.998   3.048
 3503TIP3    H110452   4.074   4.048   2.998
 3503TIP3    H210453   4.001   3.916   3.001
 3504TIP3   OH210454   6.846   0.206   3.021
 3504TIP3    H110455   6.941   0.222   3.017
 3504TIP3    H210456   6.816   0.257   3.096
 3505TIP3   OH210457   0.638   2.228   5.246
 3505TIP3    H110458   0.680   2.302   5.203
 3505TIP3    H210459   0.709   2.164   5.260
 3506TIP3   OH210460   4.466   1.284   0.758
 3506TIP3    H110461   4.493   1.196   0.734
 3506TIP3    H210462   4.378   1.293   0.723
 3507TIP3   OH210463   5.571   2.475   5.348
 3507TIP3    H110464   5.569   2.565   5.380
 3507TIP3    H210465   5.486   2.438   5.373
 3508TIP3   OH210466   7.077   7.553   4.826
 3508TIP3    H110467   7.097   7.564   4.733
 3508TIP3    H210468   7.086   7.459   4.841
 3509TIP3   OH210469   5.951   5.141   6.790
 3509TIP3    H110470   5.965   5.096   6.706
 3509TIP3    H210471   6.010   5.097   6.851
 3510TIP3   OH210472   7.640   1.919   3.053
 3510TIP3    H110473   7.670   1.925   2.962
 3510TIP3    H210474   7.645   1.826   3.074
 3511TIP3   OH210475   0.102   4.057   3.712
 3511TIP3    H110476   0.160   4.117   3.665
 3511TIP3    H210477   0.092   3.982   3.654
 3512TIP3   OH210478   2.446   4.193   3.183
 3512TIP3    H110479   2.433   4.197   3.278
 3512TIP3    H210480   2.358   4.194   3.146
 3513TIP3   OH210481   8.108   1.179   5.953
 3513TIP3    H110482   8.075   1.217   6.034
 3513TIP3    H210483   8.123   1.255   5.895
 3514TIP3   OH210484   6.855   3.216   4.176
 3514TIP3    H110485   6.810   3.132   4.188
 3514TIP3    H210486   6.795   3.268   4.123
 3515TIP3   OH210487   8.008   1.132   3.771
 3515TIP3    H110488   7.932   1.124   3.830
 3515TIP3    H210489   7.994   1.215   3.726
 3516TIP3   OH210490   6.087   7.285   4.642
 3516TIP3    H110491   6.100   7.208   4.698
 3516TIP3    H210492   6.011   7.263   4.588
 3517TIP3   OH210493   1.770   3.209   1.566
 3517TIP3    H110494   1.736   3.256   1.490
 3517TIP3    H210495   1.695   3.198   1.623
 3518TIP3   OH210496   4.313   4.942   2.550
 3518TIP3    H110497   4.337   5.012   2.489
 3518TIP3    H210498   4.370   4.955   2.626
 3519TIP3   OH210499   2.655   6.438   6.044
 3519TIP3    H110500   2.712   6.469   6.114
 3519TIP3    H210501   2.649   6.513   5.984
 3520TIP3   OH210502   6.270   7.031   0.347
 3520TIP3    H110503   6.183   6.990   0.348
 3520TIP3    H210504   6.283   7.055   0.255
 3521TIP3   OH210505   6.980   3.177   1.670
 3521TIP3    H110506   6.921   3.251   1.682
 3521TIP3    H210507   7.064   3.207   1.704
 3522TIP3   OH210508   4.723   4.564   6.116
 3522TIP3    H110509   4.703   4.472   6.135
 3522TIP3    H210510   4.656   4.590   6.053
 3523TIP3   OH210511   1.929   5.387   1.493
 3523TIP3    H110512   1.862   5.375   1.560
 3523TIP3    H210513   1.992   5.317   1.509
 3524TIP3   OH210514   6.050   3.836   0.725
 3524TIP3    H110515   6.137   3.834   0.764
 3524TIP3    H210516   5.990   3.841   0.800
 3525TIP3   OH210517   1.857   6.521   3.938
 3525TIP3    H110518   1.869   6.553   3.849
 3525TIP3    H210519   1.905   6.583   3.993
 3526TIP3   OH210520   2.718   2.286   1.838
 3526TIP3    H110521   2.715   2.341   1.916
 3526TIP3    H210522   2.627   2.259   1.825
 3527TIP3   OH210523   4.468   7.223   5.778
 3527TIP3    H110524   4.465   7.170   5.857
 3527TIP3    H210525   4.556   7.263   5.780
 3528TIP3   OH210526   7.038   4.673   3.342
 3528TIP3    H110527   7.099   4.744   3.323
 3528TIP3    H210528   6.955   4.716   3.361
 3529TIP3   OH210529   0.052   4.721   0.259
 3529TIP3    H110530   0.010   4.760   0.335
 3529TIP3    H210531  -0.008   4.652   0.232
 3530TIP3   OH210532   1.977   2.120   3.106
 3530TIP3    H110533   1.989   2.051   3.172
 3530TIP3    H210534   1.926   2.188   3.152
 3531TIP3   OH210535   4.627   0.980   6.785
 3531TIP3    H110536   4.586   1.005   6.702
 3531TIP3    H210537   4.719   1.006   6.774
 3532TIP3   OH210538   6.052   3.225   0.472
 3532TIP3    H110539   5.993   3.163   0.430
 3532TIP3    H210540   6.138   3.204   0.437
 3533TIP3   OH210541   5.444   3.861   3.155
 3533TIP3    H110542   5.430   3.767   3.152
 3533TIP3    H210543   5.539   3.872   3.160
 3534TIP3   OH210544   4.624   4.346   1.777
 3534TIP3    H110545   4.614   4.362   1.870
 3534TIP3    H210546   4.671   4.263   1.772
 3535TIP3   OH210547   2.689   6.105   4.613
 3535TIP3    H110548   2.664   6.189   4.652
 3535TIP3    H210549   2.734   6.059   4.683
 3536TIP3   OH210550   5.918   3.266   6.202
 3536TIP3    H110551   5.895   3.234   6.115
 3536TIP3    H210552   5.954   3.190   6.247
 3537TIP3   OH210553   8.026   5.446   2.757
 3537TIP3    H110554   8.071   5.362   2.749
 3537TIP3    H210555   8.044   5.475   2.846
 3538TIP3   OH210556   3.377   1.881   2.391
 3538TIP3    H110557   3.389   1.952   2.454
 3538TIP3    H210558   3.291   1.845   2.412
 3539TIP3   OH210559   4.621   7.180   2.975
 3539TIP3    H110560   4.573   7.119   3.031
 3539TIP3    H210561   4.557   7.206   2.908
 3540TIP3   OH210562   3.547   2.036   3.879
 3540TIP3    H110563   3.615   2.101   3.862
 3540TIP3    H210564   3.465   2.086   3.876
 3541TIP3   OH210565   0.296   1.884   1.534
 3541TIP3    H110566   0.361   1.817   1.512
 3541TIP3    H210567   0.269   1.920   1.450
 3542TIP3   OH210568   0.065   1.558   0.268
 3542TIP3    H110569   0.133   1.574   0.203
 3542TIP3    H210570   0.045   1.465   0.261
 3543TIP3   OH210571   0.802   7.182   2.209
 3543TIP3    H110572   0.868   7.245   2.238
 3543TIP3    H210573   0.847   7.129   2.143
 3544TIP3   OH210574   5.800   4.613   3.295
 3544TIP3    H110575   5.752   4.536   3.265
 3544TIP3    H210576   5.888   4.580   3.316
 3545TIP3   OH210577   7.819   2.806   1.712
 3545TIP3    H110578   7.818   2.851   1.628
 3545TIP3    H210579   7.830   2.713   1.690
 3546TIP3   OH210580   7.123   3.662   0.664
 3546TIP3    H110581   7.067   3.638   0.590
 3546TIP3    H210582   7.160   3.746   0.640
 3547TIP3   OH210583   4.556   0.701   5.478
 3547TIP3    H110584   4.491   0.731   5.414
 3547TIP3    H210585   4.507   0.688   5.559
 3548TIP3   OH210586   6.085   0.251   6.061
 3548TIP3    H110587   6.116   0.201   6.137
 3548TIP3    H210588   6.157   0.310   6.041
 3549TIP3   OH210589   2.362   7.531   4.890
 3549TIP3    H110590   2.301   7.603   4.879
 3549TIP3    H210591   2.307   7.452   4.890
 3550TIP3   OH210592   2.872   6.123   3.653
 3550TIP3    H110593   2.832   6.094   3.571
 3550TIP3    H210594   2.952   6.071   3.660
 3551TIP3   OH210595   7.254   6.354   4.311
 3551TIP3    H110596   7.202   6.417   4.262
 3551TIP3    H210597   7.310   6.312   4.246
 3552TIP3   OH210598   8.058   6.139   4.328
 3552TIP3    H110599   8.070   6.099   4.241
 3552TIP3    H210600   8.079   6.069   4.390
 3553TIP3   OH210601   3.694   1.931   2.736
 3553TIP3    H110602   3.766   1.968   2.684
 3553TIP3    H210603   3.650   2.008   2.773
 3554TIP3   OH210604   3.961   5.010   6.528
 3554TIP3    H110605   3.910   5.087   6.551
 3554TIP3    H210606   3.923   4.981   6.445
 3555TIP3   OH210607   0.702   5.247   5.610
 3555TIP3    H110608   0.759   5.301   5.556
 3555TIP3    H210609   0.698   5.291   5.694
 3556TIP3   OH210610   4.514   1.411   6.674
 3556TIP3    H110611   4.542   1.502   6.666
 3556TIP3    H210612   4.510   1.379   6.583
 3557TIP3   OH210613   0.543   3.356   5.056
 3557TIP3    H110614   0.543   3.437   5.107
 3557TIP3    H210615   0.597   3.296   5.108
 3558TIP3   OH210616   8.284   1.071   5.209
 3558TIP3    H110617   8.379   1.078   5.202
 3558TIP3    H210618   8.251   1.149   5.164
 3559TIP3   OH210619   8.286   5.288   1.440
 3559TIP3    H110620   8.319   5.323   1.523
 3559TIP3    H210621   8.195   5.267   1.458
 3560TIP3   OH210622   4.613   4.933   4.760
 3560TIP3    H110623   4.562   4.870   4.711
 3560TIP3    H210624   4.624   5.007   4.700
 3561TIP3   OH210625   1.790   7.261   1.841
 3561TIP3    H110626   1.761   7.221   1.923
 3561TIP3    H210627   1.863   7.318   1.868
 3562TIP3   OH210628   3.187   6.216   2.531
 3562TIP3    H110629   3.199   6.306   2.561
 3562TIP3    H210630   3.224   6.215   2.444
 3563TIP3   OH210631   1.082   7.614   2.201
 3563TIP3    H110632   1.074   7.683   2.267
 3563TIP3    H210633   1.172   7.621   2.168
 3564TIP3   OH210634   1.310   0.083   2.006
 3564TIP3    H110635   1.369   0.157   1.993
 3564TIP3    H210636   1.365   0.014   2.043
 3565TIP3   OH210637   6.241   0.262   1.145
 3565TIP3    H110638   6.271   0.296   1.229
 3565TIP3    H210639   6.260   0.168   1.149
 3566TIP3   OH210640   5.507   0.511   5.581
 3566TIP3    H110641   5.546   0.480   5.663
 3566TIP3    H210642   5.493   0.431   5.529
 3567TIP3   OH210643   4.380   0.391   5.247
 3567TIP3    H110644   4.468   0.429   5.240
 3567TIP3    H210645   4.347   0.421   5.331
 3568TIP3   OH210646   4.100   2.870   1.418
 3568TIP3    H110647   4.034   2.912   1.472
 3568TIP3    H210648   4.159   2.828   1.480
 3569TIP3   OH210649   4.178   2.561   5.131
 3569TIP3    H110650   4.174   2.607   5.048
 3569TIP3    H210651   4.269   2.570   5.159
 3570TIP3   OH210652   7.457   6.885   2.514
 3570TIP3    H110653   7.394   6.899   2.584
 3570TIP3    H210654   7.511   6.812   2.544
 3571TIP3   OH210655   7.631   5.825   4.099
 3571TIP3    H110656   7.718   5.801   4.068
 3571TIP3    H210657   7.613   5.764   4.171
 3572TIP3   OH210658   2.530   6.838   3.560
 3572TIP3    H110659   2.577   6.890   3.496
 3572TIP3    H210660   2.502   6.901   3.627
 3573TIP3   OH210661   0.795   1.028   3.547
 3573TIP3    H110662   0.764   1.118   3.554
 3573TIP3    H210663   0.797   0.996   3.638
 3574TIP3   OH210664   1.822   0.986   5.758
 3574TIP3    H110665   1.825   0.925   5.831
 3574TIP3    H210666   1.737   1.029   5.766
 3575TIP3   OH210667   5.765   7.154   4.460
 3575TIP3    H110668   5.672   7.176   4.452
 3575TIP3    H210669   5.809   7.238   4.473
 3576TIP3   OH210670   1.730   2.869   0.169
 3576TIP3    H110671   1.730   2.861   0.264
 3576TIP3    H210672   1.820   2.849   0.143
 3577TIP3   OH210673   5.665   2.872   1.496
 3577TIP3    H110674   5.636   2.941   1.555
 3577TIP3    H210675   5.670   2.914   1.410
 3578TIP3   OH210676   8.213   5.984   2.612
 3578TIP3    H110677   8.258   6.068   2.623
 3578TIP3    H210678   8.128   5.997   2.655
 3579TIP3   OH210679   2.572   3.297   4.418
 3579TIP3    H110680   2.530   3.231   4.473
 3579TIP3    H210681   2.611   3.248   4.346
 3580TIP3   OH210682   8.243   3.260   3.000
 3580TIP3    H110683   8.187   3.323   2.956
 3580TIP3    H210684   8.331   3.298   2.993
 3581TIP3   OH210685   7.110   4.563   1.998
 3581TIP3    H110686   7.071   4.508   1.930
 3581TIP3    H210687   7.083   4.522   2.080
 3582TIP3   OH210688   6.423   2.599   5.083
 3582TIP3    H110689   6.504   2.650   5.085
 3582TIP3    H210690   6.443   2.524   5.027
 3583TIP3   OH210691   5.896   5.603   2.822
 3583TIP3    H110692   5.916   5.513   2.846
 3583TIP3    H210693   5.818   5.625   2.874
 3584TIP3   OH210694   7.301   0.629   6.175
 3584TIP3    H110695   7.223   0.582   6.205
 3584TIP3    H210696   7.269   0.712   6.141
 3585TIP3   OH210697   6.589   3.738   2.616
 3585TIP3    H110698   6.506   3.696   2.593
 3585TIP3    H210699   6.647   3.716   2.544
 3586TIP3   OH210700   2.490   2.192   0.516
 3586TIP3    H110701   2.433   2.118   0.538
 3586TIP3    H210702   2.535   2.165   0.436
 3587TIP3   OH210703   5.187   5.055   1.232
 3587TIP3    H110704   5.263   5.103   1.198
 3587TIP3    H210705   5.198   4.966   1.198
 3588TIP3   OH210706   4.340   3.326   1.101
 3588TIP3    H110707   4.420   3.363   1.063
 3588TIP3    H210708   4.368   3.244   1.142
 3589TIP3   OH210709   1.726   0.327   5.383
 3589TIP3    H110710   1.706   0.245   5.337
 3589TIP3    H210711   1.641   0.368   5.397
 3590TIP3   OH210712   2.010   6.972   4.303
 3590TIP3    H110713   1.994   7.015   4.387
 3590TIP3    H210714   1.941   6.906   4.295
 3591TIP3   OH210715   6.345   3.755   6.178
 3591TIP3    H110716   6.419   3.777   6.122
 3591TIP3    H210717   6.361   3.805   6.258
 3592TIP3   OH210718   2.809   0.405   6.162
 3592TIP3    H110719   2.724   0.410   6.118
 3592TIP3    H210720   2.872   0.392   6.092
 3593TIP3   OH210721   3.831   5.774   5.124
 3593TIP3    H110722   3.750   5.730   5.097
 3593TIP3    H210723   3.801   5.844   5.182
 3594TIP3   OH210724   7.167   3.575   1.960
 3594TIP3    H110725   7.231   3.518   2.001
 3594TIP3    H210726   7.218   3.629   1.899
 3595TIP3   OH210727   2.891   7.463   3.131
 3595TIP3    H110728   2.910   7.378   3.170
 3595TIP3    H210729   2.843   7.511   3.198
 3596TIP3   OH210730   6.101   1.384   1.731
 3596TIP3    H110731   6.091   1.363   1.824
 3596TIP3    H210732   6.133   1.303   1.692
 3597TIP3   OH210733   7.171   3.264   1.439
 3597TIP3    H110734   7.090   3.295   1.480
 3597TIP3    H210735   7.224   3.232   1.512
 3598TIP3   OH210736   0.100   4.572   0.642
 3598TIP3    H110737   0.073   4.489   0.602
 3598TIP3    H210738   0.070   4.565   0.733
 3599TIP3   OH210739   1.942   6.752   1.796
 3599TIP3    H110740   1.935   6.833   1.745
 3599TIP3    H210741   1.958   6.684   1.731
 3600TIP3   OH210742   5.506   7.779   0.750
 3600TIP3    H110743   5.473   7.722   0.820
 3600TIP3    H210744   5.578   7.730   0.711
 3601TIP3   OH210745   3.074   1.317   5.158
 3601TIP3    H110746   3.038   1.239   5.116
 3601TIP3    H210747   2.997   1.370   5.180
 3602TIP3   OH210748   2.516   7.686   4.708
 3602TIP3    H110749   2.486   7.595   4.715
 3602TIP3    H210750   2.609   7.682   4.732
 3603TIP3   OH210751   5.559   3.682   2.586
 3603TIP3    H110752   5.498   3.732   2.531
 3603TIP3    H210753   5.645   3.718   2.563
 3604TIP3   OH210754   3.344   1.838   0.860
 3604TIP3    H110755   3.335   1.789   0.778
 3604TIP3    H210756   3.259   1.881   0.871
 3605TIP3   OH210757   4.341   4.325   4.974
 3605TIP3    H110758   4.340   4.273   4.893
 3605TIP3    H210759   4.261   4.376   4.970
 3606TIP3   OH210760   5.923   5.755   6.429
 3606TIP3    H110761   6.004   5.736   6.477
 3606TIP3    H210762   5.948   5.750   6.337
 3607TIP3   OH210763   5.526   4.961   1.500
 3607TIP3    H110764   5.507   4.959   1.406
 3607TIP3    H210765   5.518   4.870   1.528
 3608TIP3   OH210766   5.394   7.703   0.986
 3608TIP3    H110767   5.458   7.650   1.034
 3608TIP3    H210768   5.373   7.775   1.045
 3609TIP3   OH210769   1.852   7.214   0.089
 3609TIP3    H110770   1.895   7.292   0.124
 3609TIP3    H210771   1.854   7.152   0.162
 3610TIP3   OH210772   0.455   5.727   4.656
 3610TIP3    H110773   0.410   5.788   4.715
 3610TIP3    H210774   0.522   5.781   4.613
 3611TIP3   OH210775   3.532   5.991   5.676
 3611TIP3    H110776   3.586   5.914   5.656
 3611TIP3    H210777   3.515   5.985   5.770
 3612TIP3   OH210778   1.149   3.672   5.102
 3612TIP3    H110779   1.067   3.623   5.113
 3612TIP3    H210780   1.217   3.610   5.128
 3613TIP3   OH210781   3.294   5.024   1.103
 3613TIP3    H110782   3.240   4.946   1.093
 3613TIP3    H210783   3.246   5.094   1.059
 3614TIP3   OH210784   3.962   7.000   2.556
 3614TIP3    H110785   3.964   6.946   2.635
 3614TIP3    H210786   4.054   7.018   2.536
 3615TIP3   OH210787   1.650   5.770   1.863
 3615TIP3    H110788   1.738   5.789   1.895
 3615TIP3    H210789   1.592   5.797   1.934
 3616TIP3   OH210790   2.378   2.789   6.129
 3616TIP3    H110791   2.389   2.773   6.222
 3616TIP3    H210792   2.290   2.827   6.122
 3617TIP3   OH210793   4.496   0.184   1.194
 3617TIP3    H110794   4.490   0.279   1.197
 3617TIP3    H210795   4.407   0.155   1.172
 3618TIP3   OH210796   2.044   5.068   1.528
 3618TIP3    H110797   2.097   4.988   1.529
 3618TIP3    H210798   2.084   5.121   1.459
 3619TIP3   OH210799   7.000   5.905   5.954
 3619TIP3    H110800   7.058   5.881   5.882
 3619TIP3    H210801   7.043   5.979   5.997
 3620TIP3   OH210802   2.487   7.267   6.520
 3620TIP3    H110803   2.412   7.324   6.540
 3620TIP3    H210804   2.494   7.209   6.596
 3621TIP3   OH210805   4.256   0.198   1.598
 3621TIP3    H110806   4.249   0.277   1.544
 3621TIP3    H210807   4.321   0.144   1.553
 3622TIP3   OH210808   1.416   2.604   2.423
 3622TIP3    H110809   1.400   2.515   2.392
 3622TIP3    H210810   1.441   2.593   2.515
 3623TIP3   OH210811   6.249   0.054   5.848
 3623TIP3    H110812   6.299   0.008   5.781
 3623TIP3    H210813   6.314   0.092   5.906
 3624TIP3   OH210814   0.408   4.822   4.776
 3624TIP3    H110815   0.379   4.739   4.739
 3624TIP3    H210816   0.476   4.853   4.715
 3625TIP3   OH210817   1.562   3.393   2.529
 3625TIP3    H110818   1.502   3.395   2.454
 3625TIP3    H210819   1.570   3.484   2.555
 3626TIP3   OH210820   7.722   2.333   3.530
 3626TIP3    H110821   7.759   2.255   3.571
 3626TIP3    H210822   7.740   2.403   3.592
 3627TIP3   OH210823   5.836   4.389   1.882
 3627TIP3    H110824   5.778   4.351   1.817
 3627TIP3    H210825   5.919   4.343   1.871
 3628TIP3   OH210826   1.189   0.149   3.486
 3628TIP3    H110827   1.137   0.174   3.562
 3628TIP3    H210828   1.172   0.217   3.421
 3629TIP3   OH210829   2.261   1.098   0.829
 3629TIP3    H110830   2.214   1.052   0.899
 3629TIP3    H210831   2.195   1.111   0.760
 3630TIP3   OH210832   2.656   4.196   2.302
 3630TIP3    H110833   2.655   4.210   2.208
 3630TIP3    H210834   2.567   4.220   2.331
 3631TIP3   OH210835   6.724   2.437   3.409
 3631TIP3    H110836   6.725   2.473   3.320
 3631TIP3    H210837   6.814   2.450   3.440
 3632TIP3   OH210838   7.139   0.794   5.463
 3632TIP3    H110839   7.125   0.726   5.397
 3632TIP3    H210840   7.226   0.829   5.443
 3633TIP3   OH210841   5.390   6.202   3.953
 3633TIP3    H110842   5.396   6.198   4.049
 3633TIP3    H210843   5.467   6.252   3.926
 3634TIP3   OH210844   6.849   2.922   1.033
 3634TIP3    H110845   6.930   2.904   0.986
 3634TIP3    H210846   6.868   2.897   1.124
 3635TIP3   OH210847   6.617   0.823   2.196
 3635TIP3    H110848   6.612   0.760   2.124
 3635TIP3    H210849   6.663   0.777   2.266
 3636TIP3   OH210850   2.395   3.460   2.063
 3636TIP3    H110851   2.431   3.528   2.119
 3636TIP3    H210852   2.306   3.491   2.042
 3637TIP3   OH210853   4.641   6.356   3.404
 3637TIP3    H110854   4.560   6.329   3.360
 3637TIP3    H210855   4.709   6.303   3.363
 3638TIP3   OH210856   4.610   3.028   6.627
 3638TIP3    H110857   4.607   2.936   6.653
 3638TIP3    H210858   4.703   3.050   6.630
 3639TIP3   OH210859   5.157   1.789   0.488
 3639TIP3    H110860   5.238   1.840   0.488
 3639TIP3    H210861   5.182   1.702   0.520
 3640TIP3   OH210862   7.094   1.316   2.533
 3640TIP3    H110863   7.118   1.408   2.523
 3640TIP3    H210864   7.036   1.314   2.609
 3641TIP3   OH210865   2.039   2.301   0.080
 3641TIP3    H110866   2.083   2.362   0.141
 3641TIP3    H210867   2.109   2.273   0.021
 3642TIP3   OH210868   4.284   3.830   2.595
 3642TIP3    H110869   4.271   3.736   2.576
 3642TIP3    H210870   4.270   3.873   2.511
 3643TIP3   OH210871   4.996   2.042   5.734
 3643TIP3    H110872   4.995   2.133   5.705
 3643TIP3    H210873   4.935   1.997   5.676
 3644TIP3   OH210874   1.422   7.692   4.732
 3644TIP3    H110875   1.497   7.718   4.786
 3644TIP3    H210876   1.347   7.736   4.774
 3645TIP3   OH210877   7.304   1.988   5.444
 3645TIP3    H110878   7.355   2.054   5.396
 3645TIP3    H210879   7.311   2.015   5.535
 3646TIP3   OH210880   3.961   2.626   6.332
 3646TIP3    H110881   3.995   2.638   6.420
 3646TIP3    H210882   3.959   2.714   6.294
 3647TIP3   OH210883   5.423   5.377   2.163
 3647TIP3    H110884   5.357   5.441   2.189
 3647TIP3    H210885   5.400   5.354   2.073
 3648TIP3   OH210886   1.889   5.177   6.129
 3648TIP3    H110887   1.889   5.110   6.198
 3648TIP3    H210888   1.979   5.210   6.128
 3649TIP3   OH210889   1.116   4.572   4.153
 3649TIP3    H110890   1.059   4.612   4.088
 3649TIP3    H210891   1.148   4.645   4.206
 3650TIP3   OH210892   6.184   1.253   6.469
 3650TIP3    H110893   6.171   1.278   6.378
 3650TIP3    H210894   6.179   1.157   6.469
 3651TIP3   OH210895   4.454   0.096   3.535
 3651TIP3    H110896   4.528   0.153   3.556
 3651TIP3    H210897   4.451   0.094   3.439
 3652TIP3   OH210898   1.507   3.538   2.820
 3652TIP3    H110899   1.526   3.560   2.911
 3652TIP3    H210900   1.412   3.542   2.814
 3653TIP3   OH210901   8.135   2.465   1.337
 3653TIP3    H110902   8.101   2.526   1.403
 3653TIP3    H210903   8.204   2.416   1.383
 3654TIP3   OH210904   1.147   7.150   3.682
 3654TIP3    H110905   1.191   7.205   3.618
 3654TIP3    H210906   1.114   7.211   3.748
 3655TIP3   OH210907   0.134   6.563   4.490
 3655TIP3    H110908   0.124   6.471   4.468
 3655TIP3    H210909   0.223   6.570   4.525
 3656TIP3   OH210910   1.125   4.598   0.428
 3656TIP3    H110911   1.054   4.568   0.371
 3656TIP3    H210912   1.147   4.521   0.481
 3657TIP3   OH210913   1.595   3.589   0.218
 3657TIP3    H110914   1.670   3.592   0.159
 3657TIP3    H210915   1.558   3.502   0.205
 3658TIP3   OH210916   7.116   5.865   2.210
 3658TIP3    H110917   7.165   5.907   2.280
 3658TIP3    H210918   7.131   5.772   2.221
 3659TIP3   OH210919   1.204   0.074   2.281
 3659TIP3    H110920   1.241   0.063   2.193
 3659TIP3    H210921   1.248   0.151   2.316
 3660TIP3   OH210922   4.268   1.962   1.420
 3660TIP3    H110923   4.303   1.885   1.466
 3660TIP3    H210924   4.269   1.937   1.327
 3661TIP3   OH210925   6.504   6.692   6.333
 3661TIP3    H110926   6.525   6.600   6.319
 3661TIP3    H210927   6.417   6.692   6.372
 3662TIP3   OH210928   5.454   3.741   1.231
 3662TIP3    H110929   5.426   3.822   1.188
 3662TIP3    H210930   5.502   3.693   1.163
 3663TIP3   OH210931   4.142   2.351   4.883
 3663TIP3    H110932   4.156   2.260   4.908
 3663TIP3    H210933   4.211   2.399   4.928
 3664TIP3   OH210934   2.825   5.740   3.197
 3664TIP3    H110935   2.803   5.693   3.278
 3664TIP3    H210936   2.785   5.688   3.128
 3665TIP3   OH210937   6.213   1.912   4.534
 3665TIP3    H110938   6.302   1.877   4.540
 3665TIP3    H210939   6.220   1.984   4.471
 3666TIP3   OH210940   0.907   6.042   1.160
 3666TIP3    H110941   0.837   6.034   1.095
 3666TIP3    H210942   0.935   6.134   1.155
 3667TIP3   OH210943   4.776   7.442   2.189
 3667TIP3    H110944   4.835   7.431   2.263
 3667TIP3    H210945   4.800   7.527   2.151
 3668TIP3   OH210946   3.989   3.362   0.681
 3668TIP3    H110947   3.964   3.276   0.645
 3668TIP3    H210948   3.910   3.393   0.725
 3669TIP3   OH210949   4.939   2.315   3.984
 3669TIP3    H110950   4.892   2.269   3.914
 3669TIP3    H210951   4.897   2.285   4.064
 3670TIP3   OH210952   6.503   5.438   1.304
 3670TIP3    H110953   6.522   5.456   1.212
 3670TIP3    H210954   6.477   5.346   1.306
 3671TIP3   OH210955   6.587   4.479   2.098
 3671TIP3    H110956   6.680   4.499   2.109
 3671TIP3    H210957   6.542   4.550   2.145
 3672TIP3   OH210958   5.134   1.448   5.242
 3672TIP3    H110959   5.080   1.456   5.164
 3672TIP3    H210960   5.093   1.507   5.305
 3673TIP3   OH210961   3.960   1.049   4.361
 3673TIP3    H110962   3.958   0.964   4.404
 3673TIP3    H210963   3.917   1.108   4.423
 3674TIP3   OH210964   2.660   1.322   1.843
 3674TIP3    H110965   2.630   1.411   1.828
 3674TIP3    H210966   2.748   1.333   1.881
 3675TIP3   OH210967   4.149   4.663   4.702
 3675TIP3    H110968   4.107   4.600   4.644
 3675TIP3    H210969   4.151   4.744   4.650
 3676TIP3   OH210970   6.049   3.683   0.436
 3676TIP3    H110971   6.029   3.775   0.423
 3676TIP3    H210972   6.114   3.681   0.506
 3677TIP3   OH210973   7.726   6.288   4.997
 3677TIP3    H110974   7.785   6.320   5.065
 3677TIP3    H210975   7.717   6.195   5.014
 3678TIP3   OH210976   0.825   3.176   4.856
 3678TIP3    H110977   0.734   3.146   4.855
 3678TIP3    H210978   0.877   3.096   4.866
 3679TIP3   OH210979   7.847   0.549   2.341
 3679TIP3    H110980   7.873   0.461   2.314
 3679TIP3    H210981   7.781   0.535   2.409
 3680TIP3   OH210982   2.810   2.883   4.708
 3680TIP3    H110983   2.736   2.944   4.706
 3680TIP3    H210984   2.864   2.910   4.633
 3681TIP3   OH210985   1.380   1.808   3.182
 3681TIP3    H110986   1.399   1.719   3.213
 3681TIP3    H210987   1.453   1.830   3.124
 3682TIP3   OH210988   0.340   2.661   2.739
 3682TIP3    H110989   0.363   2.635   2.650
 3682TIP3    H210990   0.253   2.622   2.753
 3683TIP3   OH210991   5.716   1.409   4.592
 3683TIP3    H110992   5.631   1.368   4.613
 3683TIP3    H210993   5.760   1.344   4.537
 3684TIP3   OH210994   1.323   7.165   0.918
 3684TIP3    H110995   1.307   7.256   0.892
 3684TIP3    H210996   1.407   7.143   0.879
 3685TIP3   OH210997   1.799   0.216   1.776
 3685TIP3    H110998   1.865   0.204   1.708
 3685TIP3    H210999   1.850   0.239   1.854
 3686TIP3   OH211000   3.984   2.065   6.161
 3686TIP3    H111001   4.078   2.079   6.169
 3686TIP3    H211002   3.970   1.977   6.196
 3687TIP3   OH211003   2.142   2.092   5.913
 3687TIP3    H111004   2.176   2.083   6.002
 3687TIP3    H211005   2.211   2.138   5.866
 3688TIP3   OH211006   2.919   6.265   1.832
 3688TIP3    H111007   2.983   6.196   1.846
 3688TIP3    H211008   2.838   6.219   1.810
 3689TIP3   OH211009   5.088   5.089   2.244
 3689TIP3    H111010   5.038   5.153   2.195
 3689TIP3    H211011   5.075   5.006   2.197
 3690TIP3   OH211012   1.769   3.013   6.481
 3690TIP3    H111013   1.800   3.052   6.563
 3690TIP3    H211014   1.690   2.965   6.505
 3691TIP3   OH211015   1.938   1.387   4.556
 3691TIP3    H111016   1.926   1.453   4.624
 3691TIP3    H211017   2.005   1.424   4.499
 3692TIP3   OH211018   3.812   3.450   3.850
 3692TIP3    H111019   3.827   3.359   3.874
 3692TIP3    H211020   3.720   3.465   3.870
 3693TIP3   OH211021   0.176   4.448   2.449
 3693TIP3    H111022   0.270   4.441   2.467
 3693TIP3    H211023   0.170   4.451   2.354
 3694TIP3   OH211024   5.544   1.155   3.888
 3694TIP3    H111025   5.456   1.145   3.925
 3694TIP3    H211026   5.532   1.214   3.813
 3695TIP3   OH211027   8.099   7.382   3.448
 3695TIP3    H111028   8.171   7.359   3.506
 3695TIP3    H211029   8.040   7.307   3.452
 3696TIP3   OH211030   4.646   6.964   4.633
 3696TIP3    H111031   4.672   6.884   4.678
 3696TIP3    H211032   4.563   6.989   4.675
 3697TIP3   OH211033   4.532   4.785   3.057
 3697TIP3    H111034   4.532   4.722   3.129
 3697TIP3    H211035   4.442   4.782   3.024
 3698TIP3   OH211036   5.943   3.427   2.965
 3698TIP3    H111037   6.007   3.420   2.895
 3698TIP3    H211038   5.880   3.492   2.933
 3699TIP3   OH211039   3.769   4.546   0.933
 3699TIP3    H111040   3.691   4.595   0.909
 3699TIP3    H211041   3.773   4.475   0.870
 3700TIP3   OH211042   0.006   5.191   5.213
 3700TIP3    H111043   0.008   5.158   5.303
 3700TIP3    H211044  -0.086   5.186   5.186
 3701TIP3   OH211045   7.785   4.993   5.815
 3701TIP3    H111046   7.840   4.922   5.847
 3701TIP3    H211047   7.827   5.073   5.849
 3702TIP3   OH211048   1.479   3.972   4.638
 3702TIP3    H111049   1.551   3.949   4.580
 3702TIP3    H211050   1.517   3.972   4.726
 3703TIP3   OH211051   6.832   0.894   5.266
 3703TIP3    H111052   6.754   0.844   5.292
 3703TIP3    H211053   6.824   0.977   5.313
 3704TIP3   OH211054   4.166   7.440   2.721
 3704TIP3    H111055   4.167   7.522   2.673
 3704TIP3    H211056   4.098   7.450   2.787
 3705TIP3   OH211057   6.061   4.636   1.626
 3705TIP3    H111058   5.994   4.632   1.558
 3705TIP3    H211059   6.082   4.729   1.632
 3706TIP3   OH211060   0.644   5.033   3.996
 3706TIP3    H111061   0.550   5.049   3.984
 3706TIP3    H211062   0.687   5.103   3.947
 3707TIP3   OH211063   5.431   3.991   5.398
 3707TIP3    H111064   5.356   4.047   5.416
 3707TIP3    H211065   5.473   4.032   5.322
 3708TIP3   OH211066   6.459   0.953   2.761
 3708TIP3    H111067   6.449   0.948   2.856
 3708TIP3    H211068   6.388   0.899   2.727
 3709TIP3   OH211069   5.242   7.189   3.527
 3709TIP3    H111070   5.324   7.238   3.538
 3709TIP3    H211071   5.233   7.180   3.432
 3710TIP3   OH211072   1.656  -0.002   6.121
 3710TIP3    H111073   1.651   0.093   6.112
 3710TIP3    H211074   1.567  -0.028   6.147
 3711TIP3   OH211075   6.804   0.960   4.598
 3711TIP3    H111076   6.813   0.867   4.574
 3711TIP3    H211077   6.729   0.961   4.658
 3712TIP3   OH211078   7.778   3.917   3.564
 3712TIP3    H111079   7.758   3.872   3.646
 3712TIP3    H211080   7.698   3.908   3.511
 3713TIP3   OH211081   7.324   0.522   3.440
 3713TIP3    H111082   7.290   0.612   3.438
 3713TIP3    H211083   7.258   0.473   3.489
 3714TIP3   OH211084   1.329   1.600   4.422
 3714TIP3    H111085   1.326   1.628   4.514
 3714TIP3    H211086   1.328   1.682   4.372
 3715TIP3   OH211087   4.229   3.588   0.239
 3715TIP3    H111088   4.161   3.531   0.276
 3715TIP3    H211089   4.223   3.576   0.145
 3716TIP3   OH211090   6.710   2.033   6.226
 3716TIP3    H111091   6.717   1.983   6.308
 3716TIP3    H211092   6.715   2.125   6.253
 3717TIP3   OH211093   0.006   3.299   1.129
 3717TIP3    H111094   0.081   3.278   1.185
 3717TIP3    H211095   0.004   3.228   1.065
 3718TIP3   OH211096   0.258   7.659   5.047
 3718TIP3    H111097   0.196   7.719   5.089
 3718TIP3    H211098   0.212   7.576   5.042
 3719TIP3   OH211099   7.849   5.365   0.332
 3719TIP3    H111100   7.867   5.346   0.240
 3719TIP3    H211101   7.934   5.387   0.370
 3720TIP3   OH211102   3.586   7.596   4.625
 3720TIP3    H111103   3.659   7.560   4.676
 3720TIP3    H211104   3.616   7.683   4.598
 3721TIP3   OH211105   7.567   3.945   1.678
 3721TIP3    H111106   7.557   3.865   1.627
 3721TIP3    H211107   7.552   4.016   1.615
 3722TIP3   OH211108   1.658   7.119   4.235
 3722TIP3    H111109   1.658   7.080   4.322
 3722TIP3    H211110   1.595   7.190   4.241
 3723TIP3   OH211111   2.536   1.279   1.033
 3723TIP3    H111112   2.472   1.270   1.104
 3723TIP3    H211113   2.543   1.374   1.019
 3724TIP3   OH211114   8.148   0.464   4.946
 3724TIP3    H111115   8.179   0.523   5.015
 3724TIP3    H211116   8.228   0.439   4.900
 3725TIP3   OH211117   2.937   6.025   0.752
 3725TIP3    H111118   2.844   6.048   0.754
 3725TIP3    H211119   2.938   5.931   0.733
 3726TIP3   OH211120   2.462   5.507   3.443
 3726TIP3    H111121   2.446   5.413   3.434
 3726TIP3    H211122   2.438   5.527   3.533
 3727TIP3   OH211123   3.650   0.662   5.418
 3727TIP3    H111124   3.650   0.730   5.486
 3727TIP3    H211125   3.741   0.637   5.409
 3728TIP3   OH211126   8.108   3.859   6.023
 3728TIP3    H111127   8.014   3.863   6.005
 3728TIP3    H211128   8.149   3.876   5.938
 3729TIP3   OH211129   4.572   6.664   4.678
 3729TIP3    H111130   4.542   6.659   4.588
 3729TIP3    H211131   4.662   6.631   4.675
 3730TIP3   OH211132   2.014   3.704   5.226
 3730TIP3    H111133   2.084   3.751   5.180
 3730TIP3    H211134   1.942   3.767   5.228
 3731TIP3   OH211135   1.823   1.715   4.656
 3731TIP3    H111136   1.881   1.769   4.602
 3731TIP3    H211137   1.746   1.700   4.601
 3732TIP3   OH211138   7.685   7.502   1.027
 3732TIP3    H111139   7.653   7.539   0.945
 3732TIP3    H211140   7.690   7.407   1.011
 3733TIP3   OH211141   5.158   6.527   3.511
 3733TIP3    H111142   5.234   6.487   3.552
 3733TIP3    H211143   5.174   6.518   3.417
 3734TIP3   OH211144   4.940   0.115   2.233
 3734TIP3    H111145   4.928   0.193   2.179
 3734TIP3    H211146   4.911   0.043   2.178
 3735TIP3   OH211147   2.091   0.957   4.857
 3735TIP3    H111148   2.140   0.908   4.792
 3735TIP3    H211149   2.157   0.990   4.918
 3736TIP3   OH211150   3.091   7.085   0.194
 3736TIP3    H111151   3.173   7.125   0.223
 3736TIP3    H211152   3.056   7.144   0.128
 3737TIP3   OH211153   7.879   1.268   1.402
 3737TIP3    H111154   7.792   1.243   1.433
 3737TIP3    H211155   7.862   1.329   1.330
 3738TIP3   OH211156   1.360   7.037   2.352
 3738TIP3    H111157   1.418   7.105   2.317
 3738TIP3    H211158   1.309   7.082   2.419
 3739TIP3   OH211159   5.978   0.563   3.412
 3739TIP3    H111160   5.954   0.642   3.460
 3739TIP3    H211161   6.074   0.564   3.411
 3740TIP3   OH211162   3.393   1.894   1.368
 3740TIP3    H111163   3.401   1.799   1.375
 3740TIP3    H211164   3.473   1.927   1.408
 3741TIP3   OH211165   0.848   3.691   3.846
 3741TIP3    H111166   0.913   3.645   3.900
 3741TIP3    H211167   0.885   3.778   3.834
 3742TIP3   OH211168   0.809   4.377   0.432
 3742TIP3    H111169   0.817   4.471   0.446
 3742TIP3    H211170   0.878   4.355   0.370
 3743TIP3   OH211171   2.270   5.855   4.037
 3743TIP3    H111172   2.327   5.847   3.960
 3743TIP3    H211173   2.305   5.931   4.084
 3744TIP3   OH211174   5.003   5.677   2.027
 3744TIP3    H111175   4.971   5.757   2.068
 3744TIP3    H211176   5.045   5.707   1.946
 3745TIP3   OH211177   1.296   1.003   2.375
 3745TIP3    H111178   1.331   1.024   2.461
 3745TIP3    H211179   1.214   1.053   2.370
 3746TIP3   OH211180   6.626   7.561   1.281
 3746TIP3    H111181   6.601   7.601   1.364
 3746TIP3    H211182   6.599   7.469   1.289
 3747TIP3   OH211183   6.611   6.382   4.284
 3747TIP3    H111184   6.599   6.333   4.365
 3747TIP3    H211185   6.541   6.351   4.226
 3748TIP3   OH211186   1.689   0.002   0.758
 3748TIP3    H111187   1.679   0.076   0.819
 3748TIP3    H211188   1.679   0.042   0.671
 3749TIP3   OH211189   6.694   0.951   4.329
 3749TIP3    H111190   6.689   0.902   4.248
 3749TIP3    H211191   6.749   0.898   4.386
 3750TIP3   OH211192   1.441   2.901   6.057
 3750TIP3    H111193   1.378   2.972   6.045
 3750TIP3    H211194   1.389   2.827   6.087
 3751TIP3   OH211195   4.815   4.674   0.944
 3751TIP3    H111196   4.773   4.743   0.995
 3751TIP3    H211197   4.776   4.681   0.857
 3752TIP3   OH211198   7.101   4.430   2.257
 3752TIP3    H111199   7.186   4.388   2.247
 3752TIP3    H211200   7.120   4.513   2.302
 3753TIP3   OH211201   1.014   4.905   6.119
 3753TIP3    H111202   1.013   4.910   6.023
 3753TIP3    H211203   1.100   4.938   6.144
 3754TIP3   OH211204   0.523   4.492   4.409
 3754TIP3    H111205   0.605   4.450   4.436
 3754TIP3    H211206   0.502   4.552   4.481
 3755TIP3   OH211207   1.285   3.881   2.618
 3755TIP3    H111208   1.201   3.835   2.616
 3755TIP3    H211209   1.296   3.907   2.709
 3756TIP3   OH211210   2.024   1.104   4.598
 3756TIP3    H111211   2.065   1.096   4.684
 3756TIP3    H211212   1.974   1.186   4.603
 3757TIP3   OH211213   4.117   3.213   1.422
 3757TIP3    H111214   4.140   3.189   1.512
 3757TIP3    H211215   4.193   3.185   1.370
 3758TIP3   OH211216   5.436   6.330   4.570
 3758TIP3    H111217   5.491   6.263   4.610
 3758TIP3    H211218   5.350   6.289   4.562
 3759TIP3   OH211219   0.695   0.122   1.760
 3759TIP3    H111220   0.730   0.052   1.816
 3759TIP3    H211221   0.767   0.144   1.701
 3760TIP3   OH211222   1.985   1.361   0.469
 3760TIP3    H111223   2.053   1.297   0.447
 3760TIP3    H211224   2.002   1.435   0.411
 3761TIP3   OH211225   3.194   3.699   1.723
 3761TIP3    H111226   3.206   3.612   1.760
 3761TIP3    H211227   3.102   3.720   1.740
 3762TIP3   OH211228   2.364   3.844   6.324
 3762TIP3    H111229   2.355   3.769   6.266
 3762TIP3    H211230   2.288   3.899   6.306
 3763TIP3   OH211231   3.065   6.923   5.923
 3763TIP3    H111232   3.046   6.999   5.979
 3763TIP3    H211233   3.137   6.879   5.968
 3764TIP3   OH211234   1.144   5.834   2.122
 3764TIP3    H111235   1.203   5.831   2.047
 3764TIP3    H211236   1.203   5.841   2.198
 3765TIP3   OH211237   5.718   4.325   3.935
 3765TIP3    H111238   5.688   4.235   3.934
 3765TIP3    H211239   5.665   4.368   4.001
 3766TIP3   OH211240   3.974   6.950   4.683
 3766TIP3    H111241   3.965   6.988   4.596
 3766TIP3    H211242   4.032   7.009   4.730
 3767TIP3   OH211243   5.413   5.671   0.346
 3767TIP3    H111244   5.366   5.587   0.354
 3767TIP3    H211245   5.505   5.647   0.353
 3768TIP3   OH211246   6.131   6.573   1.467
 3768TIP3    H111247   6.133   6.608   1.556
 3768TIP3    H211248   6.128   6.650   1.411
 3769TIP3   OH211249   4.648   3.932   4.328
 3769TIP3    H111250   4.587   3.901   4.261
 3769TIP3    H211251   4.734   3.903   4.298
 3770TIP3   OH211252   0.520   6.566   0.606
 3770TIP3    H111253   0.595   6.601   0.655
 3770TIP3    H211254   0.535   6.594   0.516
 3771TIP3   OH211255   3.863   2.438   2.746
 3771TIP3    H111256   3.872   2.532   2.729
 3771TIP3    H211257   3.768   2.424   2.749
 3772TIP3   OH211258   2.706   1.718   5.519
 3772TIP3    H111259   2.697   1.623   5.526
 3772TIP3    H211260   2.728   1.734   5.427
 3773TIP3   OH211261   8.177   6.335   4.561
 3773TIP3    H111262   8.197   6.395   4.633
 3773TIP3    H211263   8.132   6.389   4.497
 3774TIP3   OH211264   1.784   5.939   0.128
 3774TIP3    H111265   1.828   5.888   0.061
 3774TIP3    H211266   1.727   5.876   0.173
 3775TIP3   OH211267   5.732   6.195   5.508
 3775TIP3    H111268   5.645   6.217   5.475
 3775TIP3    H211269   5.788   6.264   5.474
 3776TIP3   OH211270   2.413   0.389   1.017
 3776TIP3    H111271   2.358   0.440   0.957
 3776TIP3    H211272   2.480   0.350   0.961
 3777TIP3   OH211273   5.170   0.044   4.887
 3777TIP3    H111274   5.205  -0.020   4.825
 3777TIP3    H211275   5.087   0.006   4.916
 3778TIP3   OH211276   2.385   4.577   4.313
 3778TIP3    H111277   2.369   4.568   4.219
 3778TIP3    H211278   2.462   4.523   4.329
 3779TIP3   OH211279   7.734   1.199   4.311
 3779TIP3    H111280   7.764   1.176   4.399
 3779TIP3    H211281   7.667   1.134   4.291
 3780TIP3   OH211282   5.426   6.715   3.645
 3780TIP3    H111283   5.407   6.677   3.730
 3780TIP3    H211284   5.405   6.808   3.655
 3781TIP3   OH211285   7.275   4.105   5.744
 3781TIP3    H111286   7.279   4.131   5.652
 3781TIP3    H211287   7.182   4.114   5.768
 3782TIP3   OH211288   7.356   7.004   6.095
 3782TIP3    H111289   7.341   6.941   6.165
 3782TIP3    H211290   7.410   6.956   6.031
 3783TIP3   OH211291   4.089   3.728   1.806
 3783TIP3    H111292   4.110   3.811   1.764
 3783TIP3    H211293   4.090   3.663   1.736
 3784TIP3   OH211294   5.714   7.538   1.884
 3784TIP3    H111295   5.795   7.489   1.894
 3784TIP3    H211296   5.705   7.551   1.789
 3785TIP3   OH211297   5.974   0.963   4.569
 3785TIP3    H111298   6.042   0.980   4.504
 3785TIP3    H211299   5.895   0.947   4.517
 3786TIP3   OH211300   4.408   0.658   6.514
 3786TIP3    H111301   4.359   0.729   6.471
 3786TIP3    H211302   4.470   0.628   6.447
 3787TIP3   OH211303   2.168   5.643   3.392
 3787TIP3    H111304   2.167   5.638   3.488
 3787TIP3    H211305   2.160   5.553   3.363
 3788TIP3   OH211306   1.682   0.905   2.497
 3788TIP3    H111307   1.687   0.908   2.593
 3788TIP3    H211308   1.770   0.877   2.469
 3789TIP3   OH211309   1.906   1.134   4.183
 3789TIP3    H111310   1.985   1.162   4.230
 3789TIP3    H211311   1.856   1.084   4.247
 3790TIP3   OH211312   7.596   3.779   2.231
 3790TIP3    H111313   7.648   3.775   2.151
 3790TIP3    H211314   7.613   3.866   2.267
 3791TIP3   OH211315   7.022   3.269   6.611
 3791TIP3    H111316   7.041   3.206   6.542
 3791TIP3    H211317   7.109   3.300   6.640
 3792TIP3   OH211318   0.682   5.286   6.022
 3792TIP3    H111319   0.594   5.249   6.022
 3792TIP3    H211320   0.671   5.376   6.052
 3793TIP3   OH211321   4.372   2.733   5.402
 3793TIP3    H111322   4.416   2.760   5.483
 3793TIP3    H211323   4.318   2.658   5.427
 3794TIP3   OH211324   1.494   5.233   6.518
 3794TIP3    H111325   1.564   5.171   6.498
 3794TIP3    H211326   1.482   5.282   6.436
 3795TIP3   OH211327   0.937   6.949   4.845
 3795TIP3    H111328   0.900   6.901   4.771
 3795TIP3    H211329   1.030   6.926   4.844
 3796TIP3   OH211330   6.430   6.592   2.259
 3796TIP3    H111331   6.429   6.513   2.205
 3796TIP3    H211332   6.444   6.560   2.348
 3797TIP3   OH211333   5.995   2.786   6.163
 3797TIP3    H111334   6.063   2.725   6.192
 3797TIP3    H211335   6.014   2.799   6.070
 3798TIP3   OH211336   6.861   1.830   6.051
 3798TIP3    H111337   6.813   1.868   6.124
 3798TIP3    H211338   6.804   1.841   5.975
 3799TIP3   OH211339   7.916   4.040   0.130
 3799TIP3    H111340   7.906   4.048   0.035
 3799TIP3    H211341   7.836   3.996   0.158
 3800TIP3   OH211342   4.736   1.503   6.425
 3800TIP3    H111343   4.739   1.432   6.489
 3800TIP3    H211344   4.678   1.471   6.356
 3801TIP3   OH211345   4.618   1.851   3.408
 3801TIP3    H111346   4.564   1.849   3.329
 3801TIP3    H211347   4.563   1.893   3.474
 3802TIP3   OH211348   3.751   2.286   1.699
 3802TIP3    H111349   3.727   2.369   1.739
 3802TIP3    H211350   3.709   2.220   1.754
 3803TIP3   OH211351   0.569   6.607   0.345
 3803TIP3    H111352   0.500   6.611   0.279
 3803TIP3    H211353   0.611   6.522   0.332
 3804TIP3   OH211354   1.249   6.178   0.500
 3804TIP3    H111355   1.280   6.189   0.590
 3804TIP3    H211356   1.326   6.150   0.451
 3805TIP3   OH211357   5.815   7.597   1.602
 3805TIP3    H111358   5.893   7.542   1.589
 3805TIP3    H211359   5.848   7.675   1.645
 3806TIP3   OH211360   7.365   0.388   5.152
 3806TIP3    H111361   7.329   0.449   5.217
 3806TIP3    H211362   7.433   0.438   5.107
 3807TIP3   OH211363   2.729   4.723   3.211
 3807TIP3    H111364   2.744   4.755   3.300
 3807TIP3    H211365   2.808   4.675   3.189
 3808TIP3   OH211366   4.536   0.426   6.699
 3808TIP3    H111367   4.457   0.442   6.751
 3808TIP3    H211368   4.526   0.482   6.622
 3809TIP3   OH211369   0.192   1.303   4.323
 3809TIP3    H111370   0.183   1.394   4.296
 3809TIP3    H211371   0.255   1.265   4.262
 3810TIP3   OH211372   7.027   2.432   6.547
 3810TIP3    H111373   7.014   2.524   6.524
 3810TIP3    H211374   7.024   2.386   6.463
 3811TIP3   OH211375   5.231   4.119   2.658
 3811TIP3    H111376   5.294   4.142   2.726
 3811TIP3    H211377   5.245   4.186   2.590
 3812TIP3   OH211378   2.519   1.677   2.748
 3812TIP3    H111379   2.555   1.598   2.789
 3812TIP3    H211380   2.574   1.748   2.780
 3813TIP3   OH211381   0.904   1.420   5.486
 3813TIP3    H111382   0.872   1.508   5.506
 3813TIP3    H211383   0.867   1.400   5.400
 3814TIP3   OH211384   1.213   7.087   5.024
 3814TIP3    H111385   1.135   7.113   5.074
 3814TIP3    H211386   1.258   7.170   5.006
 3815TIP3   OH211387   1.612   6.412   3.253
 3815TIP3    H111388   1.530   6.369   3.229
 3815TIP3    H211389   1.644   6.450   3.172
 3816TIP3   OH211390   2.244   6.131   0.701
 3816TIP3    H111391   2.335   6.160   0.695
 3816TIP3    H211392   2.197   6.185   0.638
 3817TIP3   OH211393   4.678   3.695   0.622
 3817TIP3    H111394   4.697   3.603   0.642
 3817TIP3    H211395   4.588   3.695   0.591
 3818TIP3   OH211396   7.373   4.272   2.172
 3818TIP3    H111397   7.412   4.356   2.196
 3818TIP3    H211398   7.432   4.237   2.105
 3819TIP3   OH211399   2.970   6.514   4.185
 3819TIP3    H111400   2.909   6.462   4.236
 3819TIP3    H211401   2.964   6.478   4.096
 3820TIP3   OH211402   7.335   5.187   5.298
 3820TIP3    H111403   7.421   5.213   5.263
 3820TIP3    H211404   7.296   5.269   5.330
 3821TIP3   OH211405   7.942   1.584   3.875
 3821TIP3    H111406   8.004   1.603   3.946
 3821TIP3    H211407   7.904   1.670   3.853
 3822TIP3   OH211408   3.205   2.261   1.416
 3822TIP3    H111409   3.241   2.209   1.345
 3822TIP3    H211410   3.281   2.290   1.466
 3823TIP3   OH211411   3.595   3.103   4.557
 3823TIP3    H111412   3.612   3.040   4.628
 3823TIP3    H211413   3.677   3.150   4.547
 3824TIP3   OH211414   2.670   6.128   1.603
 3824TIP3    H111415   2.616   6.176   1.666
 3824TIP3    H211416   2.620   6.131   1.522
 3825TIP3   OH211417   2.588   4.723   6.657
 3825TIP3    H111418   2.597   4.818   6.659
 3825TIP3    H211419   2.661   4.690   6.709
 3826TIP3   OH211420   2.343   1.328   0.670
 3826TIP3    H111421   2.338   1.251   0.726
 3826TIP3    H211422   2.364   1.293   0.583
 3827TIP3   OH211423   5.283   6.865   5.744
 3827TIP3    H111424   5.350   6.851   5.677
 3827TIP3    H211425   5.292   6.789   5.802
 3828TIP3   OH211426   6.263   6.782   6.437
 3828TIP3    H111427   6.198   6.823   6.379
 3828TIP3    H211428   6.212   6.748   6.510
 3829TIP3   OH211429   5.600   2.258   4.173
 3829TIP3    H111430   5.538   2.274   4.102
 3829TIP3    H211431   5.686   2.255   4.130
 3830TIP3   OH211432   4.091   3.900   2.784
 3830TIP3    H111433   4.155   3.886   2.715
 3830TIP3    H211434   4.043   3.979   2.758
 3831TIP3   OH211435   7.508   7.791   5.543
 3831TIP3    H111436   7.478   7.808   5.453
 3831TIP3    H211437   7.460   7.712   5.569
 3832TIP3   OH211438   2.338   5.786   6.542
 3832TIP3    H111439   2.325   5.878   6.567
 3832TIP3    H211440   2.396   5.750   6.609
 3833TIP3   OH211441   5.523   7.167   2.256
 3833TIP3    H111442   5.486   7.092   2.303
 3833TIP3    H211443   5.540   7.135   2.168
 3834TIP3   OH211444   5.495   2.383   5.626
 3834TIP3    H111445   5.483   2.317   5.559
 3834TIP3    H211446   5.467   2.341   5.707
 3835TIP3   OH211447   8.030   2.265   3.722
 3835TIP3    H111448   8.000   2.215   3.798
 3835TIP3    H211449   8.046   2.199   3.654
 3836TIP3   OH211450   3.569   6.197   6.489
 3836TIP3    H111451   3.589   6.272   6.545
 3836TIP3    H211452   3.558   6.124   6.549
 3837TIP3   OH211453   6.536   0.116   0.933
 3837TIP3    H111454   6.467   0.182   0.920
 3837TIP3    H211455   6.542   0.108   1.028
 3838TIP3   OH211456   2.600   2.476   2.943
 3838TIP3    H111457   2.593   2.381   2.934
 3838TIP3    H211458   2.623   2.490   3.035
 3839TIP3   OH211459   2.720   4.165   2.819
 3839TIP3    H111460   2.771   4.197   2.745
 3839TIP3    H211461   2.771   4.191   2.896
 3840TIP3   OH211462   6.435   7.604   5.448
 3840TIP3    H111463   6.408   7.515   5.426
 3840TIP3    H211464   6.465   7.597   5.539
 3841TIP3   OH211465   6.124   2.411   6.711
 3841TIP3    H111466   6.135   2.388   6.619
 3841TIP3    H211467   6.182   2.485   6.725
 3842TIP3   OH211468   4.191   6.695   4.388
 3842TIP3    H111469   4.127   6.682   4.459
 3842TIP3    H211470   4.276   6.695   4.432
 3843TIP3   OH211471   0.786   4.120   3.439
 3843TIP3    H111472   0.752   4.197   3.485
 3843TIP3    H211473   0.881   4.131   3.441
 3844TIP3   OH211474   5.363   0.193   5.007
 3844TIP3    H111475   5.302   0.135   4.961
 3844TIP3    H211476   5.375   0.151   5.092
 3845TIP3   OH211477   3.316   7.631   2.598
 3845TIP3    H111478   3.303   7.622   2.693
 3845TIP3    H211479   3.410   7.644   2.588
 3846TIP3   OH211480   2.348   6.517   2.304
 3846TIP3    H111481   2.313   6.445   2.356
 3846TIP3    H211482   2.273   6.551   2.256
 3847TIP3   OH211483   2.485   7.065   1.114
 3847TIP3    H111484   2.426   7.128   1.074
 3847TIP3    H211485   2.429   7.012   1.171
 3848TIP3   OH211486   3.632   1.467   0.972
 3848TIP3    H111487   3.695   1.527   0.931
 3848TIP3    H211488   3.550   1.517   0.975
 3849TIP3   OH211489   8.083   6.883   6.138
 3849TIP3    H111490   8.010   6.904   6.080
 3849TIP3    H211491   8.101   6.790   6.121
 3850TIP3   OH211492   7.657   0.382   2.161
 3850TIP3    H111493   7.695   0.455   2.112
 3850TIP3    H211494   7.733   0.335   2.196
 3851TIP3   OH211495   3.397   1.637   5.661
 3851TIP3    H111496   3.445   1.627   5.578
 3851TIP3    H211497   3.415   1.555   5.708
 3852TIP3   OH211498   3.364   5.500   2.471
 3852TIP3    H111499   3.388   5.415   2.433
 3852TIP3    H211500   3.431   5.516   2.537
 3853TIP3   OH211501   1.064   3.902   2.041
 3853TIP3    H111502   1.048   3.940   2.128
 3853TIP3    H211503   1.122   3.964   1.998
 3854TIP3   OH211504   1.583   0.908   5.370
 3854TIP3    H111505   1.582   0.886   5.463
 3854TIP3    H211506   1.512   0.972   5.360
 3855TIP3   OH211507   0.741   3.935   5.634
 3855TIP3    H111508   0.739   3.956   5.541
 3855TIP3    H211509   0.832   3.949   5.660
 3856TIP3   OH211510   7.200   2.695   0.204
 3856TIP3    H111511   7.279   2.747   0.214
 3856TIP3    H211512   7.129   2.752   0.235
 3857TIP3   OH211513   5.308   4.385   1.593
 3857TIP3    H111514   5.263   4.374   1.677
 3857TIP3    H211515   5.263   4.324   1.534
 3858TIP3   OH211516   6.557   7.320   0.924
 3858TIP3    H111517   6.506   7.362   0.854
 3858TIP3    H211518   6.524   7.231   0.928
 3859TIP3   OH211519   1.312   3.070   4.912
 3859TIP3    H111520   1.368   3.011   4.963
 3859TIP3    H211521   1.231   3.076   4.961
 3860TIP3   OH211522   0.965   2.461   5.648
 3860TIP3    H111523   1.035   2.519   5.677
 3860TIP3    H211524   0.938   2.496   5.563
 3861TIP3   OH211525   2.018   3.858   0.513
 3861TIP3    H111526   1.981   3.849   0.426
 3861TIP3    H211527   2.050   3.771   0.535
 3862TIP3   OH211528   3.034   4.384   3.849
 3862TIP3    H111529   3.098   4.409   3.915
 3862TIP3    H211530   3.048   4.291   3.835
 3863TIP3   OH211531   4.227   3.399   2.999
 3863TIP3    H111532   4.254   3.441   2.917
 3863TIP3    H211533   4.280   3.442   3.066
 3864TIP3   OH211534   6.532   1.681   1.868
 3864TIP3    H111535   6.483   1.628   1.805
 3864TIP3    H211536   6.467   1.742   1.904
 3865TIP3   OH211537   3.396   5.443   0.533
 3865TIP3    H111538   3.412   5.490   0.451
 3865TIP3    H211539   3.378   5.512   0.597
 3866TIP3   OH211540   4.660   4.897   2.632
 3866TIP3    H111541   4.697   4.837   2.696
 3866TIP3    H211542   4.627   4.971   2.684
 3867TIP3   OH211543   0.549   3.515   0.925
 3867TIP3    H111544   0.557   3.545   0.834
 3867TIP3    H211545   0.635   3.478   0.945
 3868TIP3   OH211546   7.487   2.463   6.193
 3868TIP3    H111547   7.495   2.519   6.270
 3868TIP3    H211548   7.551   2.393   6.208
 3869TIP3   OH211549   0.349   1.239   4.803
 3869TIP3    H111550   0.382   1.254   4.715
 3869TIP3    H211551   0.408   1.173   4.840
 3870TIP3   OH211552   0.856   1.281   0.240
 3870TIP3    H111553   0.808   1.203   0.269
 3870TIP3    H211554   0.800   1.354   0.264
 3871TIP3   OH211555   4.827   4.991   5.542
 3871TIP3    H111556   4.745   5.038   5.526
 3871TIP3    H211557   4.851   5.014   5.632
 3872TIP3   OH211558   0.812   6.177   4.934
 3872TIP3    H111559   0.764   6.260   4.930
 3872TIP3    H211560   0.764   6.125   4.998
 3873TIP3   OH211561   0.466   2.262   4.243
 3873TIP3    H111562   0.441   2.233   4.155
 3873TIP3    H211563   0.468   2.181   4.294
 3874TIP3   OH211564   6.685   0.873   4.069
 3874TIP3    H111565   6.612   0.909   4.019
 3874TIP3    H211566   6.737   0.826   4.005
 3875TIP3   OH211567   6.036   7.183   5.528
 3875TIP3    H111568   5.966   7.201   5.466
 3875TIP3    H211569   6.040   7.087   5.532
 3876TIP3   OH211570   7.286   5.693   2.666
 3876TIP3    H111571   7.235   5.770   2.641
 3876TIP3    H211572   7.220   5.626   2.684
 3877TIP3   OH211573   5.323   2.633   1.439
 3877TIP3    H111574   5.402   2.651   1.491
 3877TIP3    H211575   5.265   2.587   1.499
 3878TIP3   OH211576   0.827   5.629   2.494
 3878TIP3    H111577   0.834   5.638   2.399
 3878TIP3    H211578   0.830   5.719   2.527
 3879TIP3   OH211579   4.878   1.982   6.495
 3879TIP3    H111580   4.946   1.996   6.430
 3879TIP3    H211581   4.923   1.939   6.568
 3880TIP3   OH211582   3.087   0.714   1.726
 3880TIP3    H111583   3.054   0.642   1.672
 3880TIP3    H211584   3.025   0.720   1.798
 3881TIP3   OH211585   4.239   4.620   4.095
 3881TIP3    H111586   4.232   4.593   4.186
 3881TIP3    H211587   4.174   4.690   4.085
 3882TIP3   OH211588   7.825   7.636   4.032
 3882TIP3    H111589   7.748   7.691   4.016
 3882TIP3    H211590   7.890   7.696   4.069
 3883TIP3   OH211591   3.335   1.016   0.107
 3883TIP3    H111592   3.299   0.977   0.187
 3883TIP3    H211593   3.309   0.955   0.037
 3884TIP3   OH211594   6.480   2.733   2.792
 3884TIP3    H111595   6.479   2.707   2.884
 3884TIP3    H211596   6.409   2.683   2.752
 3885TIP3   OH211597   2.176   1.979   2.954
 3885TIP3    H111598   2.232   1.906   2.983
 3885TIP3    H211599   2.153   2.025   3.035
 3886TIP3   OH211600   4.067   7.756   5.224
 3886TIP3    H111601   4.091   7.727   5.312
 3886TIP3    H211602   3.977   7.788   5.233
 3887TIP3   OH211603   7.464   3.280   4.255
 3887TIP3    H111604   7.536   3.254   4.311
 3887TIP3    H211605   7.477   3.230   4.174
 3888TIP3   OH211606   7.568   1.169   0.516
 3888TIP3    H111607   7.550   1.131   0.430
 3888TIP3    H211608   7.520   1.252   0.516
 3889TIP3   OH211609   3.233   2.816   1.830
 3889TIP3    H111610   3.263   2.905   1.851
 3889TIP3    H211611   3.145   2.828   1.794
 3890TIP3   OH211612   2.247   5.021   4.530
 3890TIP3    H111613   2.153   5.013   4.519
 3890TIP3    H211614   2.281   4.933   4.513
 3891TIP3   OH211615   5.539   0.086   6.257
 3891TIP3    H111616   5.581   0.000   6.264
 3891TIP3    H211617   5.551   0.126   6.343
 3892TIP3   OH211618   4.796   0.389   4.909
 3892TIP3    H111619   4.797   0.367   5.002
 3892TIP3    H211620   4.866   0.336   4.871
 3893TIP3   OH211621   4.152   1.774   2.027
 3893TIP3    H111622   4.065   1.733   2.037
 3893TIP3    H211623   4.134   1.868   2.022
 3894TIP3   OH211624   8.270   2.845  -0.005
 3894TIP3    H111625   8.294   2.782   0.063
 3894TIP3    H211626   8.235   2.920   0.043
 3895TIP3   OH211627   3.558   6.931   1.061
 3895TIP3    H111628   3.511   6.850   1.041
 3895TIP3    H211629   3.572   6.928   1.156
 3896TIP3   OH211630   5.693   6.542   5.925
 3896TIP3    H111631   5.633   6.537   5.850
 3896TIP3    H211632   5.695   6.454   5.960
 3897TIP3   OH211633   2.075   3.655   4.623
 3897TIP3    H111634   2.119   3.645   4.538
 3897TIP3    H211635   1.982   3.661   4.600
 3898TIP3   OH211636   6.599   0.059   2.693
 3898TIP3    H111637   6.537   0.020   2.754
 3898TIP3    H211638   6.681   0.012   2.708
 3899TIP3   OH211639   4.162   6.653   0.936
 3899TIP3    H111640   4.239   6.636   0.990
 3899TIP3    H211641   4.135   6.566   0.906
 3900TIP3   OH211642   7.009   6.125   1.234
 3900TIP3    H111643   6.943   6.056   1.235
 3900TIP3    H211644   7.068   6.102   1.306
 3901TIP3   OH211645   1.364   4.964   5.907
 3901TIP3    H111646   1.320   5.016   5.973
 3901TIP3    H211647   1.301   4.895   5.886
 3902TIP3   OH211648   7.029   0.567   3.015
 3902TIP3    H111649   7.013   0.557   3.109
 3902TIP3    H211650   7.063   0.656   3.006
 3903TIP3   OH211651   0.773   7.556   4.714
 3903TIP3    H111652   0.792   7.532   4.623
 3903TIP3    H211653   0.680   7.537   4.724
 3904TIP3   OH211654   5.815   3.667   6.361
 3904TIP3    H111655   5.764   3.667   6.280
 3904TIP3    H211656   5.871   3.590   6.355
 3905TIP3   OH211657   8.014   6.505   5.542
 3905TIP3    H111658   7.935   6.461   5.509
 3905TIP3    H211659   8.008   6.594   5.506
 3906TIP3   OH211660   2.002   6.316   6.311
 3906TIP3    H111661   2.016   6.271   6.227
 3906TIP3    H211662   2.044   6.401   6.299
 3907TIP3   OH211663   4.773   0.698   4.461
 3907TIP3    H111664   4.838   0.642   4.418
 3907TIP3    H211665   4.777   0.781   4.412
 3908TIP3   OH211666   5.937   0.654   2.896
 3908TIP3    H111667   5.956   0.580   2.954
 3908TIP3    H211668   5.931   0.729   2.955
 3909TIP3   OH211669   6.027   1.591   5.807
 3909TIP3    H111670   5.993   1.502   5.801
 3909TIP3    H211671   5.950   1.647   5.809
 3910TIP3   OH211672   0.447   6.387   3.186
 3910TIP3    H111673   0.427   6.412   3.276
 3910TIP3    H211674   0.380   6.432   3.134
 3911TIP3   OH211675   7.598   5.871   2.054
 3911TIP3    H111676   7.512   5.911   2.070
 3911TIP3    H211677   7.654   5.944   2.028
 3912TIP3   OH211678   1.374   6.218   1.359
 3912TIP3    H111679   1.432   6.287   1.393
 3912TIP3    H211680   1.290   6.262   1.347
 3913TIP3   OH211681   3.793   7.575   1.330
 3913TIP3    H111682   3.864   7.602   1.388
 3913TIP3    H211683   3.716   7.572   1.386
 3914TIP3   OH211684   0.205   0.321   2.756
 3914TIP3    H111685   0.160   0.380   2.696
 3914TIP3    H211686   0.298   0.331   2.734
 3915TIP3   OH211687   4.800   1.371   0.393
 3915TIP3    H111688   4.751   1.446   0.429
 3915TIP3    H211689   4.745   1.295   0.413
 3916TIP3   OH211690   6.420   5.009   6.561
 3916TIP3    H111691   6.373   4.926   6.565
 3916TIP3    H211692   6.418   5.033   6.469
 3917TIP3   OH211693   0.350   2.346   2.701
 3917TIP3    H111694   0.406   2.356   2.778
 3917TIP3    H211695   0.371   2.422   2.646
 3918TIP3   OH211696   4.994   7.515   6.580
 3918TIP3    H111697   5.089   7.520   6.569
 3918TIP3    H211698   4.960   7.499   6.492
 3919TIP3   OH211699   6.860   2.822   4.031
 3919TIP3    H111700   6.766   2.812   4.048
 3919TIP3    H211701   6.898   2.740   4.063
 3920TIP3   OH211702   7.881   0.573   0.214
 3920TIP3    H111703   7.877   0.624   0.133
 3920TIP3    H211704   7.937   0.498   0.192
 3921TIP3   OH211705   0.224   3.036   5.558
 3921TIP3    H111706   0.246   3.122   5.594
 3921TIP3    H211707   0.206   3.053   5.465
 3922TIP3   OH211708   6.902   7.656   1.454
 3922TIP3    H111709   6.876   7.564   1.463
 3922TIP3    H211710   6.949   7.676   1.536
 3923TIP3   OH211711   2.573   6.080   2.684
 3923TIP3    H111712   2.588   6.162   2.731
 3923TIP3    H211713   2.630   6.086   2.607
 3924TIP3   OH211714   3.337   7.321   1.408
 3924TIP3    H111715   3.413   7.334   1.351
 3924TIP3    H211716   3.317   7.227   1.399
 3925TIP3   OH211717   3.633   7.097   5.640
 3925TIP3    H111718   3.575   7.069   5.711
 3925TIP3    H211719   3.635   7.022   5.581
 3926TIP3   OH211720   1.029   4.656   5.913
 3926TIP3    H111721   0.998   4.616   5.831
 3926TIP3    H211722   1.026   4.750   5.896
 3927TIP3   OH211723   7.864   6.938   5.941
 3927TIP3    H111724   7.848   7.021   5.896
 3927TIP3    H211725   7.851   6.871   5.873
 3928TIP3   OH211726   5.919   1.420   2.335
 3928TIP3    H111727   5.995   1.389   2.384
 3928TIP3    H211728   5.880   1.487   2.392
 3929TIP3   OH211729   6.963   5.688   6.389
 3929TIP3    H111730   6.909   5.612   6.411
 3929TIP3    H211731   7.015   5.658   6.314
 3930TIP3   OH211732   0.118   1.761   4.999
 3930TIP3    H111733   0.095   1.778   5.090
 3930TIP3    H211734   0.123   1.665   4.993
 3931TIP3   OH211735   5.699   1.401   1.782
 3931TIP3    H111736   5.719   1.308   1.791
 3931TIP3    H211737   5.625   1.404   1.722
 3932TIP3   OH211738   5.169   6.203   6.159
 3932TIP3    H111739   5.198   6.272   6.219
 3932TIP3    H211740   5.250   6.170   6.120
 3933TIP3   OH211741   1.605   4.006   2.370
 3933TIP3    H111742   1.544   4.053   2.426
 3933TIP3    H211743   1.674   3.976   2.429
 3934TIP3   OH211744   4.867   5.607   5.166
 3934TIP3    H111745   4.963   5.606   5.165
 3934TIP3    H211746   4.843   5.575   5.079
 3935TIP3   OH211747   3.156   5.650   1.631
 3935TIP3    H111748   3.246   5.680   1.620
 3935TIP3    H211749   3.121   5.644   1.542
 3936TIP3   OH211750   1.329   5.420   5.892
 3936TIP3    H111751   1.251   5.378   5.857
 3936TIP3    H211752   1.370   5.461   5.816
 3937TIP3   OH211753   7.094   4.612   3.608
 3937TIP3    H111754   7.067   4.620   3.516
 3937TIP3    H211755   7.157   4.684   3.620
 3938TIP3   OH211756   7.816   6.305   0.694
 3938TIP3    H111757   7.808   6.280   0.601
 3938TIP3    H211758   7.732   6.280   0.732
 3939TIP3   OH211759   5.520   4.304   3.333
 3939TIP3    H111760   5.440   4.306   3.281
 3939TIP3    H211761   5.489   4.294   3.424
 3940TIP3   OH211762   0.632   6.374   6.720
 3940TIP3    H111763   0.701   6.333   6.772
 3940TIP3    H211764   0.678   6.436   6.664
 3941TIP3   OH211765   0.033   3.385   1.920
 3941TIP3    H111766   0.096   3.314   1.915
 3941TIP3    H211767   0.078   3.454   1.968
 3942TIP3   OH211768   6.593   0.312   1.773
 3942TIP3    H111769   6.535   0.350   1.707
 3942TIP3    H211770   6.538   0.251   1.821
 3943TIP3   OH211771   1.190   3.088   6.113
 3943TIP3    H111772   1.096   3.068   6.105
 3943TIP3    H211773   1.204   3.160   6.052
 3944TIP3   OH211774   8.170   3.921   3.144
 3944TIP3    H111775   8.253   3.880   3.121
 3944TIP3    H211776   8.111   3.897   3.073
 3945TIP3   OH211777   5.159   5.325   0.769
 3945TIP3    H111778   5.137   5.407   0.813
 3945TIP3    H211779   5.081   5.271   0.779
 3946TIP3   OH211780   8.145   6.761   4.580
 3946TIP3    H111781   8.117   6.767   4.671
 3946TIP3    H211782   8.240   6.753   4.585
 3947TIP3   OH211783   0.862   0.573   2.193
 3947TIP3    H111784   0.808   0.550   2.117
 3947TIP3    H211785   0.805   0.557   2.268
 3948TIP3   OH211786   6.362   1.414   5.789
 3948TIP3    H111787   6.392   1.376   5.707
 3948TIP3    H211788   6.291   1.357   5.818
 3949TIP3   OH211789   2.641   6.681   3.312
 3949TIP3    H111790   2.723   6.730   3.303
 3949TIP3    H211791   2.621   6.651   3.223
 3950TIP3   OH211792   1.134   2.015   5.926
 3950TIP3    H111793   1.223   2.045   5.944
 3950TIP3    H211794   1.119   1.943   5.986
 3951TIP3   OH211795   7.651   5.970   2.626
 3951TIP3    H111796   7.566   5.985   2.585
 3951TIP3    H211797   7.670   6.051   2.674
 3952TIP3   OH211798   7.499   3.825   4.444
 3952TIP3    H111799   7.468   3.898   4.497
 3952TIP3    H211800   7.573   3.860   4.395
 3953TIP3   OH211801   1.918   3.058   2.198
 3953TIP3    H111802   1.959   3.142   2.218
 3953TIP3    H211803   1.953   2.997   2.264
 3954TIP3   OH211804   1.066   6.280   5.778
 3954TIP3    H111805   1.084   6.350   5.841
 3954TIP3    H211806   0.972   6.264   5.787
 3955TIP3   OH211807   3.564   4.729   2.282
 3955TIP3    H111808   3.620   4.789   2.333
 3955TIP3    H211809   3.616   4.708   2.205
 3956TIP3   OH211810   0.473   3.349   3.495
 3956TIP3    H111811   0.420   3.423   3.465
 3956TIP3    H211812   0.409   3.285   3.526
 3957TIP3   OH211813   0.735   1.341   5.275
 3957TIP3    H111814   0.778   1.373   5.196
 3957TIP3    H211815   0.642   1.338   5.252
 3958TIP3   OH211816   1.154   3.501   0.457
 3958TIP3    H111817   1.100   3.471   0.384
 3958TIP3    H211818   1.239   3.519   0.417
 3959TIP3   OH211819   2.877   0.762   6.112
 3959TIP3    H111820   2.964   0.777   6.074
 3959TIP3    H211821   2.881   0.803   6.198
 3960TIP3   OH211822   0.368   0.724   3.800
 3960TIP3    H111823   0.461   0.720   3.780
 3960TIP3    H211824   0.325   0.715   3.716
 3961TIP3   OH211825   6.563   1.850   0.659
 3961TIP3    H111826   6.593   1.922   0.603
 3961TIP3    H211827   6.560   1.887   0.747
 3962TIP3   OH211828   3.959   6.403   2.238
 3962TIP3    H111829   4.034   6.434   2.288
 3962TIP3    H211830   3.993   6.330   2.186
 3963TIP3   OH211831   0.704   1.478   0.329
 3963TIP3    H111832   0.740   1.523   0.406
 3963TIP3    H211833   0.610   1.469   0.348
 3964TIP3   OH211834   6.703   4.747   3.720
 3964TIP3    H111835   6.708   4.689   3.644
 3964TIP3    H211836   6.774   4.717   3.777
 3965TIP3   OH211837   7.805   2.471   6.432
 3965TIP3    H111838   7.747   2.516   6.494
 3965TIP3    H211839   7.841   2.541   6.378
 3966TIP3   OH211840   3.259   7.460   2.297
 3966TIP3    H111841   3.321   7.403   2.343
 3966TIP3    H211842   3.315   7.516   2.242
 3967TIP3   OH211843   1.225   3.962   4.526
 3967TIP3    H111844   1.313   3.975   4.560
 3967TIP3    H211845   1.230   3.992   4.435
 3968TIP3   OH211846   8.140   5.036   2.479
 3968TIP3    H111847   8.109   4.981   2.407
 3968TIP3    H211848   8.205   5.093   2.438
 3969TIP3   OH211849   5.614   5.342   6.223
 3969TIP3    H111850   5.635   5.396   6.300
 3969TIP3    H211851   5.578   5.404   6.160
 3970TIP3   OH211852   6.238   5.856   2.521
 3970TIP3    H111853   6.209   5.858   2.612
 3970TIP3    H211854   6.160   5.880   2.470
 3971TIP3   OH211855   7.234   7.741   0.392
 3971TIP3    H111856   7.178   7.674   0.432
 3971TIP3    H211857   7.323   7.709   0.405
 3972TIP3   OH211858   1.196   4.231   1.289
 3972TIP3    H111859   1.258   4.271   1.228
 3972TIP3    H211860   1.149   4.305   1.327
 3973TIP3   OH211861   5.375   1.830   3.364
 3973TIP3    H111862   5.317   1.779   3.307
 3973TIP3    H211863   5.463   1.802   3.339
 3974TIP3   OH211864   0.606   7.025   6.251
 3974TIP3    H111865   0.529   6.999   6.302
 3974TIP3    H211866   0.676   7.033   6.317
 3975TIP3   OH211867   0.386   7.709   0.869
 3975TIP3    H111868   0.293   7.686   0.872
 3975TIP3    H211869   0.387   7.804   0.871
 3976TIP3   OH211870   5.429   5.367   0.901
 3976TIP3    H111871   5.341   5.356   0.865
 3976TIP3    H211872   5.441   5.462   0.906
 3977TIP3   OH211873   4.958   1.154   5.040
 3977TIP3    H111874   4.897   1.087   5.009
 3977TIP3    H211875   4.940   1.161   5.134
 3978TIP3   OH211876   2.145   6.788   5.378
 3978TIP3    H111877   2.212   6.723   5.358
 3978TIP3    H211878   2.126   6.775   5.471
 3979TIP3   OH211879   1.774   1.481   3.485
 3979TIP3    H111880   1.827   1.526   3.420
 3979TIP3    H211881   1.789   1.388   3.467
 3980TIP3   OH211882   0.607   4.841   1.159
 3980TIP3    H111883   0.587   4.887   1.241
 3980TIP3    H211884   0.703   4.837   1.158
 3981TIP3   OH211885   1.403   1.518   2.416
 3981TIP3    H111886   1.391   1.590   2.479
 3981TIP3    H211887   1.341   1.451   2.444
 3982TIP3   OH211888   2.553   2.512   1.312
 3982TIP3    H111889   2.534   2.432   1.262
 3982TIP3    H211890   2.600   2.568   1.250
 3983TIP3   OH211891   1.581   2.151   6.180
 3983TIP3    H111892   1.670   2.182   6.192
 3983TIP3    H211893   1.583   2.059   6.208
 3984TIP3   OH211894   3.358   3.150   0.555
 3984TIP3    H111895   3.319   3.151   0.467
 3984TIP3    H211896   3.404   3.234   0.561
 3985TIP3   OH211897   1.292   3.350   2.820
 3985TIP3    H111898   1.329   3.277   2.770
 3985TIP3    H211899   1.281   3.420   2.756
 3986TIP3   OH211900   2.581   6.210   2.233
 3986TIP3    H111901   2.605   6.173   2.318
 3986TIP3    H211902   2.530   6.289   2.255
 3987TIP3   OH211903   0.004   7.647   0.610
 3987TIP3    H111904   0.089   7.681   0.636
 3987TIP3    H211905  -0.001   7.664   0.516
 3988TIP3   OH211906   1.502   1.879   0.080
 3988TIP3    H111907   1.514   1.825   0.158
 3988TIP3    H211908   1.468   1.819   0.014
 3989TIP3   OH211909   3.434   5.160   0.905
 3989TIP3    H111910   3.511   5.157   0.848
 3989TIP3    H211911   3.416   5.069   0.927
 3990TIP3   OH211912   6.848   5.868   4.738
 3990TIP3    H111913   6.814   5.779   4.748
 3990TIP3    H211914   6.927   5.870   4.792
 3991TIP3   OH211915   4.083   2.131   4.605
 3991TIP3    H111916   4.075   2.083   4.687
 3991TIP3    H211917   4.177   2.149   4.597
 3992TIP3   OH211918   7.580   6.789   0.102
 3992TIP3    H111919   7.582   6.738   0.184
 3992TIP3    H211920   7.617   6.874   0.126
 3993TIP3   OH211921   7.125   7.040   5.716
 3993TIP3    H111922   7.208   7.006   5.750
 3993TIP3    H211923   7.148   7.125   5.679
 3994TIP3   OH211924   2.559   7.711   0.686
 3994TIP3    H111925   2.581   7.629   0.642
 3994TIP3    H211926   2.592   7.700   0.775
 3995TIP3   OH211927   2.583   3.964   2.454
 3995TIP3    H111928   2.644   3.891   2.457
 3995TIP3    H211929   2.630   4.033   2.407
 3996TIP3   OH211930   3.110   2.089  -0.004
 3996TIP3    H111931   3.069   2.169   0.031
 3996TIP3    H211932   3.119   2.032   0.071
 3997TIP3   OH211933   5.978   6.311   6.545
 3997TIP3    H111934   5.987   6.292   6.639
 3997TIP3    H211935   5.918   6.245   6.513
 3998TIP3   OH211936   7.659   6.368   0.012
 3998TIP3    H111937   7.594   6.373  -0.059
 3998TIP3    H211938   7.656   6.277   0.041
 3999TIP3   OH211939   4.979   4.187   6.147
 3999TIP3    H111940   4.900   4.218   6.102
 3999TIP3    H211941   5.026   4.137   6.080
 4000TIP3   OH211942   7.422   6.630   6.582
 4000TIP3    H111943   7.472   6.600   6.658
 4000TIP3    H211944   7.438   6.724   6.579
 4001TIP3   OH211945   1.885   6.840   3.976
 4001TIP3    H111946   1.922   6.925   3.997
 4001TIP3    H211947   1.791   6.856   3.967
 4002TIP3   OH211948   4.758   7.648   0.950
 4002TIP3    H111949   4.790   7.715   0.890
 4002TIP3    H211950   4.670   7.629   0.920
 4003TIP3   OH211951   1.768   1.375   4.002
 4003TIP3    H111952   1.773   1.442   4.071
 4003TIP3    H211953   1.708   1.310   4.038
 4004TIP3   OH211954   0.895   2.311   5.887
 4004TIP3    H111955   0.923   2.369   5.816
 4004TIP3    H211956   0.937   2.345   5.965
 4005TIP3   OH211957   4.821   5.780   3.261
 4005TIP3    H111958   4.892   5.834   3.295
 4005TIP3    H211959   4.770   5.756   3.338
 4006TIP3   OH211960   1.002   4.893   2.584
 4006TIP3    H111961   0.920   4.939   2.603
 4006TIP3    H211962   1.012   4.901   2.489
 4007TIP3   OH211963   4.863   6.301   1.021
 4007TIP3    H111964   4.873   6.277   1.114
 4007TIP3    H211965   4.769   6.313   1.009
 4008TIP3   OH211966   4.302   2.057   0.933
 4008TIP3    H111967   4.280   2.047   0.840
 4008TIP3    H211968   4.387   2.100   0.933
 4009TIP3   OH211969   2.216   0.770   4.698
 4009TIP3    H111970   2.265   0.724   4.766
 4009TIP3    H211971   2.281   0.826   4.656
 4010TIP3   OH211972   5.026   6.748   3.130
 4010TIP3    H111973   5.109   6.750   3.179
 4010TIP3    H211974   4.996   6.839   3.132
 4011TIP3   OH211975   3.797   4.735   6.247
 4011TIP3    H111976   3.728   4.709   6.186
 4011TIP3    H211977   3.864   4.668   6.236
 4012TIP3   OH211978   5.752   0.363   6.582
 4012TIP3    H111979   5.811   0.379   6.656
 4012TIP3    H211980   5.805   0.379   6.504
 4013TIP3   OH211981   8.163   1.562   2.834
 4013TIP3    H111982   8.067   1.566   2.834
 4013TIP3    H211983   8.187   1.579   2.925
 4014TIP3   OH211984   1.981   1.719   0.583
 4014TIP3    H111985   2.060   1.698   0.632
 4014TIP3    H211986   1.910   1.681   0.635
 4015TIP3   OH211987   7.656   2.978   6.531
 4015TIP3    H111988   7.739   3.005   6.492
 4015TIP3    H211989   7.668   2.886   6.555
 4016TIP3   OH211990   0.861   4.345   1.463
 4016TIP3    H111991   0.775   4.308   1.486
 4016TIP3    H211992   0.924   4.286   1.504
 4017TIP3   OH211993   7.503   2.851   5.209
 4017TIP3    H111994   7.486   2.925   5.151
 4017TIP3    H211995   7.544   2.786   5.152
 4018TIP3   OH211996   2.557   2.005   0.082
 4018TIP3    H111997   2.551   1.948   0.159
 4018TIP3    H211998   2.618   1.960   0.023
 4019TIP3   OH211999   4.895   0.647   4.919
 4019TIP3    H112000   4.964   0.635   4.983
 4019TIP3    H212001   4.854   0.561   4.910
 4020TIP3   OH212002   0.553   1.516   3.371
 4020TIP3    H112003   0.516   1.431   3.397
 4020TIP3    H212004   0.476   1.567   3.345
 4021TIP3   OH212005   6.249   1.369   4.246
 4021TIP3    H112006   6.269   1.335   4.159
 4021TIP3    H212007   6.202   1.451   4.230
 4022TIP3   OH212008   0.694   5.677   4.325
 4022TIP3    H112009   0.693   5.766   4.359
 4022TIP3    H212010   0.770   5.636   4.367
 4023TIP3   OH212011   7.509   1.789   6.719
 4023TIP3    H112012   7.589   1.770   6.770
 4023TIP3    H212013   7.510   1.724   6.649
 4024TIP3   OH212014   6.440   7.254   2.049
 4024TIP3    H112015   6.405   7.191   1.986
 4024TIP3    H212016   6.515   7.293   2.005
 4025TIP3   OH212017   1.308   4.534   5.461
 4025TIP3    H112018   1.263   4.453   5.437
 4025TIP3    H212019   1.398   4.522   5.433
 4026TIP3   OH212020   6.708   7.160   4.386
 4026TIP3    H112021   6.740   7.225   4.449
 4026TIP3    H212022   6.786   7.112   4.360
 4027TIP3   OH212023   5.039   1.983   3.337
 4027TIP3    H112024   5.035   1.912   3.273
 4027TIP3    H212025   5.071   1.941   3.417
 4028TIP3   OH212026   4.024   7.779   1.211
 4028TIP3    H112027   4.040   7.727   1.289
 4028TIP3    H212028   3.938   7.818   1.226
 4029TIP3   OH212029   0.200   0.699   4.032
 4029TIP3    H112030   0.271   0.635   4.040
 4029TIP3    H212031   0.209   0.734   3.944
 4030TIP3   OH212032   2.018   5.806   0.400
 4030TIP3    H112033   2.086   5.844   0.344
 4030TIP3    H212034   1.936   5.825   0.354
 4031TIP3   OH212035   7.587   2.110   6.544
 4031TIP3    H112036   7.557   2.174   6.480
 4031TIP3    H212037   7.651   2.157   6.597
 4032TIP3   OH212038   1.158   1.605   5.511
 4032TIP3    H112039   1.245   1.585   5.476
 4032TIP3    H212040   1.103   1.532   5.483
 4033TIP3   OH212041   7.056   6.529   6.279
 4033TIP3    H112042   7.061   6.624   6.289
 4033TIP3    H212043   7.000   6.516   6.202
 4034TIP3   OH212044   1.709   7.043   4.528
 4034TIP3    H112045   1.648   7.073   4.595
 4034TIP3    H212046   1.795   7.050   4.568
 4035TIP3   OH212047   3.579   7.518   6.608
 4035TIP3    H112048   3.590   7.490   6.699
 4035TIP3    H212049   3.495   7.565   6.608
 4036TIP3   OH212050   6.051   3.564   5.225
 4036TIP3    H112051   5.994   3.617   5.281
 4036TIP3    H212052   6.131   3.616   5.217
 4037TIP3   OH212053   4.443   5.880   4.309
 4037TIP3    H112054   4.444   5.925   4.393
 4037TIP3    H212055   4.350   5.879   4.284
 4038TIP3   OH212056   6.707   0.237   5.433
 4038TIP3    H112057   6.614   0.223   5.448
 4038TIP3    H212058   6.749   0.154   5.457
 4039TIP3   OH212059   8.274   0.423   5.681
 4039TIP3    H112060   8.314   0.490   5.736
 4039TIP3    H212061   8.184   0.417   5.711
 4040TIP3   OH212062   7.835   6.041   1.973
 4040TIP3    H112063   7.889   5.962   1.965
 4040TIP3    H212064   7.838   6.080   1.886
 4041TIP3   OH212065   6.851   6.463   6.452
 4041TIP3    H112066   6.826   6.523   6.522
 4041TIP3    H212067   6.946   6.472   6.444
 4042TIP3   OH212068   3.300   2.428   2.535
 4042TIP3    H112069   3.265   2.361   2.594
 4042TIP3    H212070   3.391   2.438   2.563
 4043TIP3   OH212071   7.836   0.103   2.985
 4043TIP3    H112072   7.930   0.098   2.967
 4043TIP3    H212073   7.816   0.021   3.031
 4044TIP3   OH212074   3.407   3.233   1.569
 4044TIP3    H112075   3.371   3.145   1.559
 4044TIP3    H212076   3.364   3.285   1.501
 4045TIP3   OH212077   4.346   3.090   6.710
 4045TIP3    H112078   4.315   3.079   6.800
 4045TIP3    H212079   4.440   3.069   6.714
 4046TIP3   OH212080   5.018   0.837   2.955
 4046TIP3    H112081   5.052   0.853   3.043
 4046TIP3    H212082   4.923   0.846   2.963
 4047TIP3   OH212083   1.640   2.504   1.239
 4047TIP3    H112084   1.675   2.539   1.157
 4047TIP3    H212085   1.714   2.509   1.300
 4048TIP3   OH212086   4.554   0.568   2.792
 4048TIP3    H112087   4.623   0.504   2.779
 4048TIP3    H212088   4.546   0.613   2.708
 4049TIP3   OH212089   8.098   2.067   2.328
 4049TIP3    H112090   8.165   2.129   2.357
 4049TIP3    H212091   8.018   2.120   2.318
 4050TIP3   OH212092   1.530   4.536   2.855
 4050TIP3    H112093   1.493   4.615   2.816
 4050TIP3    H212094   1.590   4.568   2.922
 4051TIP3   OH212095   4.071   5.030   4.704
 4051TIP3    H112096   4.103   5.089   4.636
 4051TIP3    H212097   3.979   5.054   4.717
 4052TIP3   OH212098   7.366   4.021   1.862
 4052TIP3    H112099   7.311   3.945   1.877
 4052TIP3    H212100   7.397   4.011   1.772
 4053TIP3   OH212101   3.521   4.899   1.149
 4053TIP3    H112102   3.588   4.947   1.102
 4053TIP3    H212103   3.442   4.953   1.139
 4054TIP3   OH212104   3.520   1.824   6.776
 4054TIP3    H112105   3.587   1.799   6.712
 4054TIP3    H212106   3.474   1.898   6.735
 4055TIP3   OH212107   6.948   1.218   3.186
 4055TIP3    H112108   6.998   1.146   3.224
 4055TIP3    H212109   7.003   1.295   3.198
 4056TIP3   OH212110   3.503   3.384   5.360
 4056TIP3    H112111   3.408   3.384   5.374
 4056TIP3    H212112   3.526   3.291   5.352
 4057TIP3   OH212113   2.811   6.266   5.575
 4057TIP3    H112114   2.819   6.178   5.612
 4057TIP3    H212115   2.881   6.272   5.511
 4058TIP3   OH212116   7.695   5.425   1.427
 4058TIP3    H112117   7.653   5.404   1.344
 4058TIP3    H212118   7.684   5.346   1.480
 4059TIP3   OH212119   3.319   2.776   4.952
 4059TIP3    H112120   3.234   2.820   4.947
 4059TIP3    H212121   3.377   2.842   4.990
 4060TIP3   OH212122   3.933   5.247   2.345
 4060TIP3    H112123   3.952   5.195   2.267
 4060TIP3    H212124   3.862   5.306   2.318
 4061TIP3   OH212125   8.226   0.585   3.166
 4061TIP3    H112126   8.269   0.500   3.183
 4061TIP3    H212127   8.139   0.561   3.134
 4062TIP3   OH212128   3.753   5.116   4.115
 4062TIP3    H112129   3.760   5.207   4.086
 4062TIP3    H212130   3.740   5.122   4.210
 4063TIP3   OH212131   4.274   5.197   6.444
 4063TIP3    H112132   4.326   5.163   6.370
 4063TIP3    H212133   4.311   5.284   6.461
 4064TIP3   OH212134   2.455   7.450   0.705
 4064TIP3    H112135   2.368   7.471   0.739
 4064TIP3    H212136   2.512   7.455   0.782
 4065TIP3   OH212137   1.384   0.791   5.008
 4065TIP3    H112138   1.340   0.828   5.084
 4065TIP3    H212139   1.374   0.696   5.017
 4066TIP3   OH212140   7.637   2.485   4.252
 4066TIP3    H112141   7.698   2.414   4.270
 4066TIP3    H212142   7.692   2.557   4.221
 4067TIP3   OH212143   8.066   4.176   4.929
 4067TIP3    H112144   7.977   4.157   4.959
 4067TIP3    H212145   8.101   4.091   4.902
 4068TIP3   OH212146   3.371   7.116   6.609
 4068TIP3    H112147   3.279   7.141   6.624
 4068TIP3    H212148   3.406   7.187   6.555
 4069TIP3   OH212149   3.466   1.605   2.396
 4069TIP3    H112150   3.484   1.615   2.489
 4069TIP3    H212151   3.414   1.682   2.373
 4070TIP3   OH212152   8.077   4.775   5.040
 4070TIP3    H112153   8.090   4.699   4.983
 4070TIP3    H212154   8.052   4.739   5.125
 4071TIP3   OH212155   6.352   4.012   2.192
 4071TIP3    H112156   6.369   4.105   2.205
 4071TIP3    H212157   6.403   3.989   2.115
 4072TIP3   OH212158   7.181   2.527   3.663
 4072TIP3    H112159   7.260   2.518   3.609
 4072TIP3    H212160   7.165   2.438   3.696
 4073TIP3   OH212161   4.848   4.550   5.117
 4073TIP3    H112162   4.905   4.490   5.068
 4073TIP3    H212163   4.899   4.630   5.124
 4074TIP3   OH212164   0.854   6.616   5.022
 4074TIP3    H112165   0.834   6.618   5.115
 4074TIP3    H212166   0.785   6.562   4.983
 4075TIP3   OH212167   4.784   0.759   5.212
 4075TIP3    H112168   4.782   0.849   5.179
 4075TIP3    H212169   4.874   0.730   5.198
 4076TIP3   OH212170   4.162   0.287   5.648
 4076TIP3    H112171   4.142   0.254   5.560
 4076TIP3    H212172   4.255   0.309   5.644
 4077TIP3   OH212173   2.139   5.992   0.115
 4077TIP3    H112174   2.094   6.071   0.084
 4077TIP3    H212175   2.189   6.022   0.191
 4078TIP3   OH212176   2.373  -0.002   0.138
 4078TIP3    H112177   2.308  -0.061   0.100
 4078TIP3    H212178   2.334   0.029   0.219
 4079TIP3   OH212179   5.056   5.623   2.984
 4079TIP3    H112180   5.078   5.552   2.924
 4079TIP3    H212181   5.135   5.633   3.038
 4080TIP3   OH212182   3.796   3.985   2.549
 4080TIP3    H112183   3.774   4.066   2.593
 4080TIP3    H212184   3.890   3.992   2.532
 4081TIP3   OH212185   8.211   2.140   1.094
 4081TIP3    H112186   8.211   2.071   1.160
 4081TIP3    H212187   8.245   2.217   1.140
 4082TIP3   OH212188   3.062   3.272   4.754
 4082TIP3    H112189   3.105   3.219   4.688
 4082TIP3    H212190   3.127   3.283   4.823
 4083TIP3   OH212191   3.755   1.766   5.473
 4083TIP3    H112192   3.847   1.752   5.451
 4083TIP3    H212193   3.758   1.829   5.546
 4084TIP3   OH212194   0.329   2.666   0.343
 4084TIP3    H112195   0.365   2.683   0.256
 4084TIP3    H212196   0.350   2.574   0.361
 4085TIP3   OH212197   6.858   0.903   0.689
 4085TIP3    H112198   6.779   0.852   0.671
 4085TIP3    H212199   6.831   0.994   0.676
 4086TIP3   OH212200   5.996   2.311   3.299
 4086TIP3    H112201   5.916   2.281   3.255
 4086TIP3    H212202   6.067   2.266   3.254
 4087TIP3   OH212203   5.008   1.860   1.172
 4087TIP3    H112204   5.034   1.769   1.152
 4087TIP3    H212205   5.087   1.900   1.208
 4088TIP3   OH212206   7.860   1.370   1.957
 4088TIP3    H112207   7.833   1.304   1.894
 4088TIP3    H212208   7.923   1.325   2.014
 4089TIP3   OH212209   2.015   0.812   0.141
 4089TIP3    H112210   2.048   0.722   0.132
 4089TIP3    H212211   2.013   0.828   0.235
 4090TIP3   OH212212   1.701   7.088   1.059
 4090TIP3    H112213   1.645   7.014   1.037
 4090TIP3    H212214   1.647   7.144   1.115
 4091TIP3   OH212215   5.446   7.296   4.215
 4091TIP3    H112216   5.500   7.333   4.285
 4091TIP3    H212217   5.497   7.310   4.135
 4092TIP3   OH212218   3.685   0.181   3.438
 4092TIP3    H112219   3.725   0.156   3.355
 4092TIP3    H212220   3.700   0.275   3.445
 4093TIP3   OH212221   6.700   6.277   0.391
 4093TIP3    H112222   6.632   6.247   0.451
 4093TIP3    H212223   6.671   6.248   0.305
 4094TIP3   OH212224   4.206   0.735   1.352
 4094TIP3    H112225   4.202   0.799   1.281
 4094TIP3    H212226   4.285   0.758   1.401
 4095TIP3   OH212227   5.347   3.458   0.298
 4095TIP3    H112228   5.278   3.393   0.287
 4095TIP3    H212229   5.371   3.482   0.208
 4096TIP3   OH212230   3.832   2.132   1.157
 4096TIP3    H112231   3.909   2.101   1.109
 4096TIP3    H212232   3.858   2.126   1.249
 4097TIP3   OH212233   8.047   4.412   0.670
 4097TIP3    H112234   8.126   4.358   0.664
 4097TIP3    H212235   8.055   4.458   0.753
 4098TIP3   OH212236   0.693   3.964   5.100
 4098TIP3    H112237   0.724   4.030   5.038
 4098TIP3    H212238   0.698   3.881   5.053
 4099TIP3   OH212239   6.249   3.440   5.557
 4099TIP3    H112240   6.311   3.389   5.505
 4099TIP3    H212241   6.275   3.531   5.543
 4100TIP3   OH212242   7.270   7.091   2.253
 4100TIP3    H112243   7.187   7.043   2.264
 4100TIP3    H212244   7.286   7.089   2.159
 4101TIP3   OH212245   5.185   6.718   6.385
 4101TIP3    H112246   5.126   6.793   6.381
 4101TIP3    H212247   5.266   6.749   6.344
 4102TIP3   OH212248   2.982   7.184   4.502
 4102TIP3    H112249   2.971   7.118   4.433
 4102TIP3    H212250   3.014   7.135   4.577
 4103TIP3   OH212251   3.064   5.186   3.968
 4103TIP3    H112252   3.121   5.263   3.962
 4103TIP3    H212253   3.117   5.119   4.010
 4104TIP3   OH212254   0.770   4.385   5.893
 4104TIP3    H112255   0.752   4.469   5.935
 4104TIP3    H212256   0.717   4.386   5.813
 4105TIP3   OH212257   6.184   4.021   6.633
 4105TIP3    H112258   6.108   4.033   6.577
 4105TIP3    H212259   6.194   3.927   6.641
 4106TIP3   OH212260   6.938   7.106   3.759
 4106TIP3    H112261   6.933   7.202   3.758
 4106TIP3    H212262   6.851   7.078   3.729
 4107TIP3   OH212263   7.589   5.272   2.007
 4107TIP3    H112264   7.512   5.292   1.954
 4107TIP3    H212265   7.565   5.193   2.056
 4108TIP3   OH212266   7.392   4.741   5.499
 4108TIP3    H112267   7.330   4.812   5.513
 4108TIP3    H212268   7.432   4.761   5.415
 4109TIP3   OH212269   7.462   5.177   1.376
 4109TIP3    H112270   7.460   5.111   1.306
 4109TIP3    H212271   7.378   5.222   1.369
 4110TIP3   OH212272   0.492   6.259   2.458
 4110TIP3    H112273   0.545   6.234   2.382
 4110TIP3    H212274   0.548   6.319   2.507
 4111TIP3   OH212275   2.063   6.892   6.693
 4111TIP3    H112276   2.049   6.885   6.788
 4111TIP3    H212277   2.071   6.986   6.677
 4112TIP3   OH212278   0.628   6.946   4.874
 4112TIP3    H112279   0.596   6.923   4.961
 4112TIP3    H212280   0.723   6.956   4.886
 4113TIP3   OH212281   1.405   6.210   1.041
 4113TIP3    H112282   1.404   6.187   1.134
 4113TIP3    H212283   1.482   6.167   1.005
 4114TIP3   OH212284   7.520   0.985   3.924
 4114TIP3    H112285   7.535   0.891   3.925
 4114TIP3    H212286   7.430   0.995   3.893
 4115TIP3   OH212287   3.487   1.015   1.262
 4115TIP3    H112288   3.407   1.038   1.309
 4115TIP3    H212289   3.521   1.099   1.231
 4116TIP3   OH212290   5.748   5.991   4.966
 4116TIP3    H112291   5.744   6.010   5.060
 4116TIP3    H212292   5.659   5.965   4.944
 4117TIP3   OH212293   2.966   7.346   1.298
 4117TIP3    H112294   2.980   7.368   1.206
 4117TIP3    H212295   2.881   7.383   1.319
 4118TIP3   OH212296   5.252   3.058   6.017
 4118TIP3    H112297   5.292   3.023   5.938
 4118TIP3    H212298   5.305   3.023   6.088
 4119TIP3   OH212299   0.864   6.703   5.970
 4119TIP3    H112300   0.903   6.785   5.999
 4119TIP3    H212301   0.798   6.729   5.906
 4120TIP3   OH212302   4.609   0.012   2.889
 4120TIP3    H112303   4.695  -0.028   2.881
 4120TIP3    H212304   4.624   0.096   2.933
 4121TIP3   OH212305   2.729   3.190   2.402
 4121TIP3    H112306   2.756   3.104   2.369
 4121TIP3    H212307   2.736   3.247   2.326
 4122TIP3   OH212308   0.077   7.401   1.824
 4122TIP3    H112309   0.134   7.390   1.749
 4122TIP3    H212310   0.103   7.484   1.863
 4123TIP3   OH212311   1.906   7.312   4.265
 4123TIP3    H112312   1.825   7.261   4.277
 4123TIP3    H212313   1.899   7.383   4.329
 4124TIP3   OH212314   4.492   1.016   0.989
 4124TIP3    H112315   4.564   0.996   1.049
 4124TIP3    H212316   4.449   1.093   1.027
 4125TIP3   OH212317   6.665   6.329   4.540
 4125TIP3    H112318   6.727   6.402   4.533
 4125TIP3    H212319   6.718   6.251   4.526
 4126TIP3   OH212320   8.186   2.022   6.663
 4126TIP3    H112321   8.279   2.041   6.672
 4126TIP3    H212322   8.174   1.938   6.708
 4127TIP3   OH212323   1.836   4.164   1.243
 4127TIP3    H112324   1.919   4.159   1.290
 4127TIP3    H212325   1.859   4.204   1.159
 4128TIP3   OH212326   5.162   2.625   5.028
 4128TIP3    H112327   5.134   2.539   4.995
 4128TIP3    H212328   5.241   2.646   4.978
 4129TIP3   OH212329   4.639   1.690   5.931
 4129TIP3    H112330   4.724   1.725   5.905
 4129TIP3    H212331   4.611   1.637   5.856
 4130TIP3   OH212332   5.917   5.939   4.725
 4130TIP3    H112333   5.918   6.035   4.721
 4130TIP3    H212334   5.870   5.919   4.806
 4131TIP3   OH212335   8.005   3.419   5.840
 4131TIP3    H112336   7.935   3.478   5.868
 4131TIP3    H212337   7.959   3.347   5.797
 4132TIP3   OH212338   1.777   6.093   1.227
 4132TIP3    H112339   1.686   6.070   1.204
 4132TIP3    H212340   1.779   6.188   1.223
 4133TIP3   OH212341   5.337   0.761   0.144
 4133TIP3    H112342   5.417   0.775   0.094
 4133TIP3    H212343   5.267   0.793   0.087
 4134TIP3   OH212344   1.053   1.121   6.036
 4134TIP3    H112345   0.975   1.176   6.022
 4134TIP3    H212346   1.114   1.178   6.083
 4135TIP3   OH212347   4.281   0.907   2.043
 4135TIP3    H112348   4.201   0.876   2.002
 4135TIP3    H212349   4.286   1.000   2.019
 4136TIP3   OH212350   7.638   0.251   3.658
 4136TIP3    H112351   7.601   0.339   3.659
 4136TIP3    H212352   7.645   0.229   3.565
 4137TIP3   OH212353   1.676   2.211   0.516
 4137TIP3    H112354   1.707   2.121   0.529
 4137TIP3    H212355   1.747   2.254   0.469
 4138TIP3   OH212356   7.643   5.370   3.915
 4138TIP3    H112357   7.710   5.391   3.980
 4138TIP3    H212358   7.621   5.278   3.932
 4139TIP3   OH212359   0.637   6.066   1.516
 4139TIP3    H112360   0.571   6.033   1.577
 4139TIP3    H212361   0.587   6.114   1.450
 4140TIP3   OH212362   7.516   0.047   3.806
 4140TIP3    H112363   7.543   0.127   3.760
 4140TIP3    H212364   7.506   0.075   3.897
 4141TIP3   OH212365   4.777   5.941   1.974
 4141TIP3    H112366   4.869   5.968   1.975
 4141TIP3    H212367   4.743   5.971   2.058
 4142TIP3   OH212368   6.117   6.501   2.188
 4142TIP3    H112369   6.106   6.573   2.127
 4142TIP3    H212370   6.111   6.542   2.275
 4143TIP3   OH212371   4.657   5.076   6.546
 4143TIP3    H112372   4.740   5.122   6.554
 4143TIP3    H212373   4.654   5.047   6.455
 4144TIP3   OH212374   0.767   5.046   6.216
 4144TIP3    H112375   0.759   5.120   6.156
 4144TIP3    H212376   0.842   4.997   6.183
 4145TIP3   OH212377   0.554   3.806   0.187
 4145TIP3    H112378   0.637   3.809   0.138
 4145TIP3    H212379   0.574   3.752   0.263
 4146TIP3   OH212380   5.384   2.254   5.145
 4146TIP3    H112381   5.392   2.345   5.118
 4146TIP3    H212382   5.344   2.258   5.232
 4147TIP3   OH212383   7.671   6.458   0.990
 4147TIP3    H112384   7.628   6.395   0.931
 4147TIP3    H212385   7.629   6.443   1.074
 4148TIP3   OH212386   1.745   6.605   5.748
 4148TIP3    H112387   1.794   6.525   5.767
 4148TIP3    H212388   1.711   6.593   5.660
 4149TIP3   OH212389   6.241   6.725   0.131
 4149TIP3    H112390   6.149   6.740   0.108
 4149TIP3    H212391   6.286   6.806   0.106
 4150TIP3   OH212392   5.631   3.695   6.129
 4150TIP3    H112393   5.587   3.779   6.116
 4150TIP3    H212394   5.685   3.684   6.051
 4151TIP3   OH212395   7.900   1.709   6.590
 4151TIP3    H112396   7.968   1.688   6.526
 4151TIP3    H212397   7.867   1.795   6.563
 4152TIP3   OH212398   3.452   0.104   0.852
 4152TIP3    H112399   3.522   0.107   0.916
 4152TIP3    H212400   3.372   0.115   0.903
 4153TIP3   OH212401   7.619   1.179   1.508
 4153TIP3    H112402   7.530   1.214   1.509
 4153TIP3    H212403   7.634   1.156   1.416
 4154TIP3   OH212404   5.281   6.287   6.694
 4154TIP3    H112405   5.311   6.367   6.650
 4154TIP3    H212406   5.347   6.271   6.762
 4155TIP3   OH212407   7.546   2.456   5.076
 4155TIP3    H112408   7.615   2.432   5.014
 4155TIP3    H212409   7.480   2.388   5.067
 4156TIP3   OH212410   0.725   7.040   3.234
 4156TIP3    H112411   0.809   7.066   3.196
 4156TIP3    H212412   0.662   7.104   3.199
 4157TIP3   OH212413   0.683   7.634   5.390
 4157TIP3    H112414   0.592   7.643   5.362
 4157TIP3    H212415   0.717   7.723   5.394
 4158TIP3   OH212416   1.432   0.603   6.429
 4158TIP3    H112417   1.522   0.595   6.461
 4158TIP3    H212418   1.379   0.607   6.509
 4159TIP3   OH212419   3.292   6.096   0.117
 4159TIP3    H112420   3.267   6.173   0.066
 4159TIP3    H212421   3.318   6.131   0.202
 4160TIP3   OH212422   8.211   2.323   2.961
 4160TIP3    H112423   8.130   2.279   2.984
 4160TIP3    H212424   8.273   2.252   2.943
 4161TIP3   OH212425   5.741   4.858   3.761
 4161TIP3    H112426   5.800   4.928   3.790
 4161TIP3    H212427   5.768   4.840   3.671
 4162TIP3   OH212428   1.209   6.551   2.974
 4162TIP3    H112429   1.269   6.481   2.996
 4162TIP3    H212430   1.251   6.630   3.007
 4163TIP3   OH212431   2.699   2.485   0.230
 4163TIP3    H112432   2.672   2.574   0.251
 4163TIP3    H212433   2.787   2.495   0.192
 4164TIP3   OH212434  -0.043   3.247   4.188
 4164TIP3    H112435   0.050   3.253   4.169
 4164TIP3    H212436  -0.050   3.271   4.281
 4165TIP3   OH212437   7.953   6.194   0.941
 4165TIP3    H112438   7.967   6.100   0.952
 4165TIP3    H212439   7.910   6.201   0.856
 4166TIP3   OH212440   2.331   2.129   4.867
 4166TIP3    H112441   2.407   2.100   4.816
 4166TIP3    H212442   2.321   2.222   4.844
 4167TIP3   OH212443   0.627   2.504   3.185
 4167TIP3    H112444   0.592   2.559   3.115
 4167TIP3    H212445   0.722   2.505   3.171
 4168TIP3   OH212446   2.806   6.647   0.227
 4168TIP3    H112447   2.775   6.667   0.139
 4168TIP3    H212448   2.884   6.593   0.214
 4169TIP3   OH212449   1.080   6.018   5.707
 4169TIP3    H112450   0.997   6.042   5.665
 4169TIP3    H212451   1.130   6.099   5.710
 4170TIP3   OH212452   6.837   3.433   3.137
 4170TIP3    H112453   6.905   3.451   3.071
 4170TIP3    H212454   6.764   3.398   3.087
 4171TIP3   OH212455   0.744   7.498   3.053
 4171TIP3    H112456   0.730   7.580   3.006
 4171TIP3    H212457   0.839   7.491   3.060
 4172TIP3   OH212458   1.273   4.851   3.317
 4172TIP3    H112459   1.340   4.822   3.254
 4172TIP3    H212460   1.210   4.779   3.320
 4173TIP3   OH212461   0.416   1.010   5.604
 4173TIP3    H112462   0.359   1.044   5.534
 4173TIP3    H212463   0.410   1.075   5.674
 4174TIP3   OH212464   2.192   3.443   4.118
 4174TIP3    H112465   2.155   3.489   4.043
 4174TIP3    H212466   2.163   3.352   4.107
 4175TIP3   OH212467   7.430   6.551   2.551
 4175TIP3    H112468   7.384   6.506   2.621
 4175TIP3    H212469   7.498   6.602   2.596
 4176TIP3   OH212470   0.505   5.914   0.311
 4176TIP3    H112471   0.502   5.864   0.230
 4176TIP3    H212472   0.598   5.935   0.323
 4177TIP3   OH212473   1.845   5.302   3.600
 4177TIP3    H112474   1.885   5.389   3.599
 4177TIP3    H212475   1.851   5.274   3.691
 4178TIP3   OH212476   1.883   3.815   2.378
 4178TIP3    H112477   1.884   3.746   2.444
 4178TIP3    H212478   1.816   3.786   2.315
 4179TIP3   OH212479   1.838   2.878   3.457
 4179TIP3    H112480   1.859   2.894   3.365
 4179TIP3    H212481   1.750   2.915   3.468
 4180TIP3   OH212482   6.921   6.166   2.436
 4180TIP3    H112483   6.852   6.226   2.408
 4180TIP3    H212484   6.977   6.156   2.359
 4181TIP3   OH212485   7.602   7.761   1.747
 4181TIP3    H112486   7.540   7.784   1.678
 4181TIP3    H212487   7.550   7.715   1.812
 4182TIP3   OH212488   3.739   7.489   2.782
 4182TIP3    H112489   3.823   7.517   2.818
 4182TIP3    H212490   3.756   7.403   2.743
 4183TIP3   OH212491   6.272   6.800   5.830
 4183TIP3    H112492   6.346   6.755   5.789
 4183TIP3    H212493   6.232   6.734   5.887
 4184TIP3   OH212494   7.393   4.935   1.203
 4184TIP3    H112495   7.429   4.899   1.123
 4184TIP3    H212496   7.394   4.862   1.265
 4185TIP3   OH212497   7.665   5.252   1.068
 4185TIP3    H112498   7.607   5.212   1.002
 4185TIP3    H212499   7.606   5.297   1.128
 4186TIP3   OH212500   4.001   6.513   6.208
 4186TIP3    H112501   4.069   6.448   6.229
 4186TIP3    H212502   4.048   6.597   6.206
 4187TIP3   OH212503   4.202   4.210   3.580
 4187TIP3    H112504   4.220   4.254   3.497
 4187TIP3    H212505   4.238   4.268   3.647
 4188TIP3   OH212506   5.439   5.167   4.708
 4188TIP3    H112507   5.441   5.258   4.678
 4188TIP3    H212508   5.424   5.173   4.802
 4189TIP3   OH212509   2.975   4.057   4.243
 4189TIP3    H112510   3.008   3.976   4.284
 4189TIP3    H212511   3.048   4.118   4.250
 4190TIP3   OH212512   2.238   3.344   6.716
 4190TIP3    H112513   2.203   3.301   6.638
 4190TIP3    H212514   2.249   3.435   6.689
 4191TIP3   OH212515   6.008   5.392   2.956
 4191TIP3    H112516   5.981   5.306   2.988
 4191TIP3    H212517   6.059   5.429   3.028
 4192TIP3   OH212518   3.941   2.471   3.159
 4192TIP3    H112519   3.867   2.474   3.098
 4192TIP3    H212520   3.956   2.562   3.183
 4193TIP3   OH212521   3.303   3.654   0.539
 4193TIP3    H112522   3.306   3.635   0.633
 4193TIP3    H212523   3.287   3.748   0.534
 4194TIP3   OH212524   2.142   2.351   4.229
 4194TIP3    H112525   2.073   2.298   4.189
 4194TIP3    H212526   2.097   2.409   4.289
 4195TIP3   OH212527   5.062   4.680   3.857
 4195TIP3    H112528   5.007   4.701   3.933
 4195TIP3    H212529   5.091   4.765   3.824
 4196TIP3   OH212530   2.910   3.588   4.414
 4196TIP3    H112531   2.844   3.557   4.352
 4196TIP3    H212532   2.897   3.535   4.492
 4197TIP3   OH212533   6.310   0.487   3.458
 4197TIP3    H112534   6.300   0.521   3.547
 4197TIP3    H212535   6.322   0.393   3.469
 4198TIP3   OH212536   4.125   3.158   3.428
 4198TIP3    H112537   4.177   3.118   3.358
 4198TIP3    H212538   4.035   3.155   3.395
 4199TIP3   OH212539   3.054   2.368   1.815
 4199TIP3    H112540   3.076   2.304   1.883
 4199TIP3    H212541   3.131   2.425   1.811
 4200TIP3   OH212542   1.713   3.293   6.460
 4200TIP3    H112543   1.711   3.202   6.490
 4200TIP3    H212544   1.737   3.343   6.539
 4201TIP3   OH212545   7.435   0.932   4.481
 4201TIP3    H112546   7.504   0.940   4.414
 4201TIP3    H212547   7.369   0.876   4.440
 4202TIP3   OH212548   3.135   5.095   6.152
 4202TIP3    H112549   3.223   5.107   6.117
 4202TIP3    H212550   3.102   5.017   6.107
 4203TIP3   OH212551   4.165   6.609   3.398
 4203TIP3    H112552   4.247   6.580   3.438
 4203TIP3    H212553   4.102   6.610   3.470
 4204TIP3   OH212554   2.425   1.923   0.607
 4204TIP3    H112555   2.434   1.907   0.701
 4204TIP3    H212556   2.350   1.871   0.581
 4205TIP3   OH212557   3.803   5.203   0.184
 4205TIP3    H112558   3.889   5.245   0.185
 4205TIP3    H212559   3.741   5.274   0.200
 4206TIP3   OH212560   5.916   4.420   5.083
 4206TIP3    H112561   5.960   4.335   5.080
 4206TIP3    H212562   5.827   4.402   5.053
 4207TIP3   OH212563   7.626   4.906   2.177
 4207TIP3    H112564   7.674   4.904   2.260
 4207TIP3    H212565   7.693   4.891   2.111
 4208TIP3   OH212566   4.594   4.468   0.826
 4208TIP3    H112567   4.643   4.405   0.774
 4208TIP3    H212568   4.620   4.553   0.791
 4209TIP3   OH212569   6.191   0.495   6.295
 4209TIP3    H112570   6.212   0.542   6.376
 4209TIP3    H212571   6.133   0.554   6.247
 4210TIP3   OH212572   6.447   4.666   0.833
 4210TIP3    H112573   6.534   4.637   0.805
 4210TIP3    H212574   6.415   4.595   0.889
 4211TIP3   OH212575   8.199   3.401   5.662
 4211TIP3    H112576   8.129   3.412   5.727
 4211TIP3    H212577   8.184   3.472   5.599
 4212TIP3   OH212578   5.904   2.149   0.051
 4212TIP3    H112579   5.810   2.138   0.035
 4212TIP3    H212580   5.940   2.171  -0.035
 4213TIP3   OH212581   5.727   7.074   0.580
 4213TIP3    H112582   5.786   7.125   0.524
 4213TIP3    H212583   5.646   7.067   0.529
 4214TIP3   OH212584   2.639   2.596   6.367
 4214TIP3    H112585   2.710   2.614   6.428
 4214TIP3    H212586   2.588   2.526   6.409
 4215TIP3   OH212587   3.776   7.023   1.661
 4215TIP3    H112588   3.790   7.062   1.575
 4215TIP3    H212589   3.863   7.019   1.700
 4216TIP3   OH212590   7.729   4.335   0.307
 4216TIP3    H112591   7.807   4.385   0.332
 4216TIP3    H212592   7.739   4.251   0.352
 4217TIP3   OH212593   1.647   4.059   3.937
 4217TIP3    H112594   1.586   4.120   3.978
 4217TIP3    H212595   1.626   4.063   3.844
 4218TIP3   OH212596   4.086   3.753   4.793
 4218TIP3    H112597   4.151   3.819   4.817
 4218TIP3    H212598   4.005   3.783   4.834
 4219TIP3   OH212599   4.404   7.763   1.571
 4219TIP3    H112600   4.413   7.857   1.589
 4219TIP3    H212601   4.493   7.734   1.551
 4220TIP3   OH212602   4.683   0.230   5.477
 4220TIP3    H112603   4.678   0.270   5.390
 4220TIP3    H212604   4.774   0.202   5.485
 4221TIP3   OH212605   5.553   5.953   3.648
 4221TIP3    H112606   5.481   5.955   3.712
 4221TIP3    H212607   5.511   5.974   3.565
 4222TIP3   OH212608   5.132   4.030   0.369
 4222TIP3    H112609   5.039   4.053   0.374
 4222TIP3    H212610   5.177   4.114   0.379
 4223TIP3   OH212611   0.935   0.052   2.250
 4223TIP3    H112612   1.024   0.067   2.282
 4223TIP3    H212613   0.937   0.085   2.160
 4224TIP3   OH212614   7.696   0.810   1.008
 4224TIP3    H112615   7.613   0.798   1.054
 4224TIP3    H212616   7.712   0.726   0.964
 4225TIP3   OH212617   5.229   0.821   5.760
 4225TIP3    H112618   5.183   0.882   5.818
 4225TIP3    H212619   5.173   0.744   5.756
 4226TIP3   OH212620   0.802   6.295   5.833
 4226TIP3    H112621   0.712   6.277   5.863
 4226TIP3    H212622   0.796   6.382   5.793
 4227TIP3   OH212623   3.909   2.386   5.537
 4227TIP3    H112624   3.936   2.386   5.629
 4227TIP3    H212625   3.887   2.477   5.519
 4228TIP3   OH212626   0.426   1.433   3.774
 4228TIP3    H112627   0.446   1.342   3.798
 4228TIP3    H212628   0.330   1.436   3.772
 4229TIP3   OH212629   1.702   6.866   1.567
 4229TIP3    H112630   1.630   6.927   1.547
 4229TIP3    H212631   1.723   6.825   1.484
 4230TIP3   OH212632   3.969   1.297   4.508
 4230TIP3    H112633   3.904   1.351   4.555
 4230TIP3    H212634   4.005   1.356   4.442
 4231TIP3   OH212635   6.938   0.589   5.784
 4231TIP3    H112636   6.916   0.644   5.708
 4231TIP3    H212637   6.914   0.500   5.757
 4232TIP3   OH212638   1.573   2.005   3.080
 4232TIP3    H112639   1.574   2.019   3.175
 4232TIP3    H212640   1.628   2.075   3.045
 4233TIP3   OH212641   8.153   5.914   2.077
 4233TIP3    H112642   8.093   5.950   2.143
 4233TIP3    H212643   8.120   5.826   2.060
 4234TIP3   OH212644   0.769   1.824   5.834
 4234TIP3    H112645   0.768   1.789   5.924
 4234TIP3    H212646   0.789   1.748   5.780
 4235TIP3   OH212647   3.789   1.515   3.939
 4235TIP3    H112648   3.860   1.531   4.001
 4235TIP3    H212649   3.753   1.601   3.921
 4236TIP3   OH212650   3.121   1.488   0.102
 4236TIP3    H112651   3.044   1.501   0.047
 4236TIP3    H212652   3.158   1.404   0.072
 4237TIP3   OH212653   5.364   3.077   6.552
 4237TIP3    H112654   5.452   3.047   6.526
 4237TIP3    H212655   5.368   3.085   6.647
 4238TIP3   OH212656   1.393   6.164   6.796
 4238TIP3    H112657   1.469   6.213   6.765
 4238TIP3    H212658   1.422   6.073   6.796
 4239TIP3   OH212659   3.872   0.634   6.572
 4239TIP3    H112660   3.912   0.571   6.631
 4239TIP3    H212661   3.793   0.591   6.540
 4240TIP3   OH212662   3.276   0.253   4.682
 4240TIP3    H112663   3.225   0.251   4.763
 4240TIP3    H212664   3.356   0.300   4.706
 4241TIP3   OH212665   6.370   6.213   6.038
 4241TIP3    H112666   6.364   6.202   5.943
 4241TIP3    H212667   6.450   6.167   6.062
 4242TIP3   OH212668   7.378   2.666   1.034
 4242TIP3    H112669   7.456   2.721   1.040
 4242TIP3    H212670   7.407   2.587   0.987
 4243TIP3   OH212671   3.794   5.371   0.566
 4243TIP3    H112672   3.843   5.375   0.648
 4243TIP3    H212673   3.860   5.352   0.499
 4244TIP3   OH212674   7.266   5.013   1.583
 4244TIP3    H112675   7.181   5.010   1.628
 4244TIP3    H212676   7.263   5.093   1.532
 4245TIP3   OH212677   1.949   7.804   1.660
 4245TIP3    H112678   2.025   7.767   1.705
 4245TIP3    H212679   1.893   7.729   1.643
 4246TIP3   OH212680   2.258   7.177   1.015
 4246TIP3    H112681   2.169   7.204   1.034
 4246TIP3    H212682   2.249   7.092   0.973
 4247TIP3   OH212683   5.317   7.625   2.458
 4247TIP3    H112684   5.275   7.558   2.405
 4247TIP3    H212685   5.409   7.600   2.460
 4248TIP3   OH212686   4.279   4.646   3.281
 4248TIP3    H112687   4.185   4.645   3.297
 4248TIP3    H212688   4.317   4.686   3.359
 4249TIP3   OH212689   6.839   1.041   1.453
 4249TIP3    H112690   6.748   1.034   1.484
 4249TIP3    H212691   6.880   0.959   1.481
 4250TIP3   OH212692   3.019   4.682   1.637
 4250TIP3    H112693   3.062   4.658   1.719
 4250TIP3    H212694   3.060   4.626   1.571
 4251TIP3   OH212695   5.583   7.513   1.444
 4251TIP3    H112696   5.654   7.550   1.495
 4251TIP3    H212697   5.615   7.427   1.416
 4252TIP3   OH212698   7.777   6.410   4.298
 4252TIP3    H112699   7.701   6.443   4.347
 4252TIP3    H212700   7.781   6.467   4.221
 4253TIP3   OH212701   4.512   5.477   2.102
 4253TIP3    H112702   4.590   5.423   2.117
 4253TIP3    H212703   4.451   5.449   2.170
 4254TIP3   OH212704   2.997   3.827   6.135
 4254TIP3    H112705   2.971   3.777   6.213
 4254TIP3    H212706   2.985   3.766   6.063
 4255TIP3   OH212707   2.371   0.070   0.401
 4255TIP3    H112708   2.386  -0.016   0.442
 4255TIP3    H212709   2.410   0.133   0.462
 4256TIP3   OH212710   0.734   2.169   2.913
 4256TIP3    H112711   0.683   2.183   2.993
 4256TIP3    H212712   0.768   2.255   2.890
 4257TIP3   OH212713   3.102   0.829   3.856
 4257TIP3    H112714   3.151   0.911   3.863
 4257TIP3    H212715   3.127   0.780   3.934
 4258TIP3   OH212716   1.066   6.272   5.105
 4258TIP3    H112717   1.082   6.366   5.111
 4258TIP3    H212718   1.042   6.257   5.014
 4259TIP3   OH212719   3.501   5.164   4.872
 4259TIP3    H112720   3.480   5.089   4.816
 4259TIP3    H212721   3.596   5.166   4.875
 4260TIP3   OH212722   8.192   1.202   1.628
 4260TIP3    H112723   8.233   1.162   1.705
 4260TIP3    H212724   8.130   1.135   1.597
 4261TIP3   OH212725   0.301   6.242   1.724
 4261TIP3    H112726   0.220   6.192   1.734
 4261TIP3    H212727   0.283   6.302   1.652
 4262TIP3   OH212728   0.920   5.172   3.519
 4262TIP3    H112729   0.826   5.169   3.500
 4262TIP3    H212730   0.925   5.196   3.611
 4263TIP3   OH212731   6.781   7.253   1.125
 4263TIP3    H112732   6.732   7.258   1.207
 4263TIP3    H212733   6.719   7.283   1.058
 4264TIP3   OH212734   5.891   6.845   4.281
 4264TIP3    H112735   5.937   6.916   4.326
 4264TIP3    H212736   5.949   6.769   4.290
 4265TIP3   OH212737   1.909   6.006   4.394
 4265TIP3    H112738   1.956   6.057   4.459
 4265TIP3    H212739   1.855   6.070   4.347
 4266TIP3   OH212740   1.297   2.771   6.602
 4266TIP3    H112741   1.266   2.838   6.540
 4266TIP3    H212742   1.356   2.716   6.550
 4267TIP3   OH212743   7.648   6.957   3.868
 4267TIP3    H112744   7.652   7.049   3.842
 4267TIP3    H212745   7.737   6.924   3.852
 4268TIP3   OH212746   4.058   2.917   3.862
 4268TIP3    H112747   4.153   2.913   3.855
 4268TIP3    H212748   4.031   2.826   3.873
 4269TIP3   OH212749   0.861   0.045   3.468
 4269TIP3    H112750   0.809  -0.032   3.445
 4269TIP3    H212751   0.952   0.015   3.465
 4270TIP3   OH212752   2.372   3.476   4.411
 4270TIP3    H112753   2.303   3.442   4.353
 4270TIP3    H212754   2.445   3.416   4.397
 4271TIP3   OH212755   0.709   7.577   5.129
 4271TIP3    H112756   0.753   7.661   5.115
 4271TIP3    H212757   0.687   7.577   5.222
 4272TIP3   OH212758   6.247   7.104   4.177
 4272TIP3    H112759   6.159   7.136   4.197
 4272TIP3    H212760   6.303   7.182   4.187
 4273TIP3   OH212761   1.567   6.328   1.667
 4273TIP3    H112762   1.488   6.274   1.678
 4273TIP3    H212763   1.548   6.381   1.589
 4274TIP3   OH212764   4.904   2.818   5.414
 4274TIP3    H112765   4.957   2.896   5.424
 4274TIP3    H212766   4.819   2.850   5.384
 4275TIP3   OH212767   3.184   3.970   5.588
 4275TIP3    H112768   3.196   3.963   5.682
 4275TIP3    H212769   3.104   3.921   5.570
 4276TIP3   OH212770   4.527   4.514   4.134
 4276TIP3    H112771   4.509   4.420   4.127
 4276TIP3    H212772   4.445   4.555   4.107
 4277TIP3   OH212773   0.240   7.013   5.580
 4277TIP3    H112774   0.257   7.104   5.557
 4277TIP3    H212775   0.296   6.996   5.656
 4278TIP3   OH212776   1.371   6.778   0.591
 4278TIP3    H112777   1.371   6.826   0.674
 4278TIP3    H212778   1.453   6.804   0.548
 4279TIP3   OH212779   5.930   7.495   0.965
 4279TIP3    H112780   5.861   7.430   0.951
 4279TIP3    H212781   6.011   7.448   0.947
 4280TIP3   OH212782   1.175   4.606   3.767
 4280TIP3    H112783   1.223   4.638   3.691
 4280TIP3    H212784   1.192   4.670   3.835
 4281TIP3   OH212785   8.279   3.585   4.869
 4281TIP3    H112786   8.333   3.629   4.804
 4281TIP3    H212787   8.291   3.492   4.850
 4282TIP3   OH212788   1.912   4.640   5.679
 4282TIP3    H112789   1.985   4.580   5.666
 4282TIP3    H212790   1.948   4.727   5.659
 4283TIP3   OH212791   0.161   5.068   1.442
 4283TIP3    H112792   0.221   5.090   1.371
 4283TIP3    H212793   0.098   5.140   1.443
 4284TIP3   OH212794   2.489   7.495   3.913
 4284TIP3    H112795   2.519   7.420   3.965
 4284TIP3    H212796   2.474   7.459   3.826
 4285TIP3   OH212797   7.551   0.557   5.015
 4285TIP3    H112798   7.602   0.584   5.092
 4285TIP3    H212799   7.592   0.603   4.942
 4286TIP3   OH212800   6.000   2.899   0.659
 4286TIP3    H112801   6.005   2.815   0.613
 4286TIP3    H212802   6.088   2.911   0.696
 4287TIP3   OH212803   1.431   7.609   4.203
 4287TIP3    H112804   1.347   7.584   4.165
 4287TIP3    H212805   1.413   7.615   4.297
 4288TIP3   OH212806   1.607   1.125   6.059
 4288TIP3    H112807   1.544   1.087   6.120
 4288TIP3    H212808   1.555   1.145   5.981
 4289TIP3   OH212809   1.702   1.770   3.419
 4289TIP3    H112810   1.705   1.739   3.509
 4289TIP3    H212811   1.700   1.865   3.426
 4290TIP3   OH212812   7.471   1.597   1.305
 4290TIP3    H112813   7.439   1.681   1.272
 4290TIP3    H212814   7.419   1.531   1.259
 4291TIP3   OH212815   4.736   3.218   6.386
 4291TIP3    H112816   4.706   3.292   6.438
 4291TIP3    H212817   4.765   3.153   6.451
 4292TIP3   OH212818   3.965   6.723   0.429
 4292TIP3    H112819   3.902   6.681   0.487
 4292TIP3    H212820   3.928   6.713   0.341
 4293TIP3   OH212821   2.817   3.707   5.814
 4293TIP3    H112822   2.734   3.706   5.862
 4293TIP3    H212823   2.882   3.676   5.878
 4294TIP3   OH212824   0.269   3.074   0.357
 4294TIP3    H112825   0.317   2.999   0.321
 4294TIP3    H212826   0.208   3.035   0.419
 4295TIP3   OH212827   3.904   7.075   2.232
 4295TIP3    H112828   3.856   7.053   2.152
 4295TIP3    H212829   3.836   7.083   2.299
 4296TIP3   OH212830   6.191   6.138   2.713
 4296TIP3    H112831   6.170   6.120   2.621
 4296TIP3    H212832   6.197   6.233   2.718
 4297TIP3   OH212833   1.573   2.236   1.263
 4297TIP3    H112834   1.635   2.193   1.204
 4297TIP3    H212835   1.585   2.329   1.248
 4298TIP3   OH212836   1.056   1.129   2.365
 4298TIP3    H112837   0.982   1.089   2.319
 4298TIP3    H212838   1.032   1.221   2.374
 4299TIP3   OH212839   7.105   0.462   2.766
 4299TIP3    H112840   7.042   0.498   2.828
 4299TIP3    H212841   7.141   0.385   2.811
 4300TIP3   OH212842   1.964   6.003   5.493
 4300TIP3    H112843   1.907   6.079   5.506
 4300TIP3    H212844   2.050   6.041   5.474
 4301TIP3   OH212845   3.515   0.751   2.653
 4301TIP3    H112846   3.524   0.820   2.719
 4301TIP3    H212847   3.592   0.696   2.666
 4302TIP3   OH212848   0.165   2.103   6.675
 4302TIP3    H112849   0.236   2.052   6.637
 4302TIP3    H212850   0.196   2.126   6.763
 4303TIP3   OH212851   0.080   0.778   0.564
 4303TIP3    H112852   0.117   0.698   0.601
 4303TIP3    H212853   0.022   0.748   0.493
 4304TIP3   OH212854   4.901   3.350   4.302
 4304TIP3    H112855   4.955   3.339   4.223
 4304TIP3    H212856   4.894   3.263   4.339
 4305TIP3   OH212857   7.005   6.670   0.366
 4305TIP3    H112858   6.952   6.733   0.414
 4305TIP3    H212859   7.029   6.604   0.431
 4306TIP3   OH212860   4.619   5.588   3.126
 4306TIP3    H112861   4.681   5.638   3.179
 4306TIP3    H212862   4.671   5.555   3.053
 4307TIP3   OH212863   1.496   4.859   2.335
 4307TIP3    H112864   1.543   4.793   2.385
 4307TIP3    H212865   1.469   4.924   2.400
 4308TIP3   OH212866   4.109   4.301   6.568
 4308TIP3    H112867   4.089   4.217   6.527
 4308TIP3    H212868   4.185   4.283   6.624
 4309TIP3   OH212869   4.223   1.307   5.257
 4309TIP3    H112870   4.273   1.356   5.192
 4309TIP3    H212871   4.259   1.335   5.341
 4310TIP3   OH212872   3.955   3.801   4.494
 4310TIP3    H112873   3.938   3.861   4.421
 4310TIP3    H212874   3.916   3.845   4.570
 4311TIP3   OH212875   4.115   6.698   2.432
 4311TIP3    H112876   4.023   6.707   2.457
 4311TIP3    H212877   4.130   6.604   2.427
 4312TIP3   OH212878   8.090   3.742   1.139
 4312TIP3    H112879   8.031   3.666   1.146
 4312TIP3    H212880   8.132   3.732   1.053
 4313TIP3   OH212881   5.669   0.005   2.435
 4313TIP3    H112882   5.757   0.014   2.397
 4313TIP3    H212883   5.679  -0.064   2.501
 4314TIP3   OH212884   0.603   4.330   5.654
 4314TIP3    H112885   0.578   4.266   5.721
 4314TIP3    H212886   0.541   4.316   5.583
 4315TIP3   OH212887   7.648   5.892   3.388
 4315TIP3    H112888   7.710   5.874   3.317
 4315TIP3    H212889   7.580   5.825   3.379
 4316TIP3   OH212890   3.376   0.723   3.475
 4316TIP3    H112891   3.349   0.702   3.386
 4316TIP3    H212892   3.294   0.739   3.522
 4317TIP3   OH212893   3.630   3.634   0.721
 4317TIP3    H112894   3.573   3.626   0.798
 4317TIP3    H212895   3.662   3.724   0.724
 4318TIP3   OH212896   0.269   1.938   5.336
 4318TIP3    H112897   0.273   2.000   5.409
 4318TIP3    H212898   0.356   1.939   5.298
 4319TIP3   OH212899   5.274   6.564   0.963
 4319TIP3    H112900   5.277   6.515   1.045
 4319TIP3    H212901   5.216   6.514   0.907
 4320TIP3   OH212902   4.666   6.981   4.969
 4320TIP3    H112903   4.603   7.052   4.978
 4320TIP3    H212904   4.616   6.902   4.987
 4321TIP3   OH212905   0.032   1.662   5.834
 4321TIP3    H112906   0.001   1.572   5.822
 4321TIP3    H212907   0.126   1.657   5.814
 4322TIP3   OH212908   2.432   2.413   1.656
 4322TIP3    H112909   2.437   2.433   1.749
 4322TIP3    H212910   2.368   2.343   1.650
 4323TIP3   OH212911   5.708   5.701   3.841
 4323TIP3    H112912   5.784   5.719   3.895
 4323TIP3    H212913   5.703   5.774   3.780
 4324TIP3   OH212914   0.330   7.665   0.108
 4324TIP3    H112915   0.342   7.756   0.136
 4324TIP3    H212916   0.362   7.663   0.018
 4325TIP3   OH212917   8.118   5.849   1.760
 4325TIP3    H112918   8.041   5.825   1.811
 4325TIP3    H212919   8.148   5.767   1.720
 4326TIP3   OH212920   8.018   5.773   5.703
 4326TIP3    H112921   8.107   5.810   5.701
 4326TIP3    H212922   8.005   5.738   5.615
 4327TIP3   OH212923   2.441   0.746   2.641
 4327TIP3    H112924   2.500   0.671   2.644
 4327TIP3    H212925   2.382   0.727   2.568
 4328TIP3   OH212926   7.084   3.204   6.300
 4328TIP3    H112927   7.141   3.269   6.340
 4328TIP3    H212928   7.140   3.157   6.239
 4329TIP3   OH212929   4.617   4.787   1.502
 4329TIP3    H112930   4.620   4.707   1.555
 4329TIP3    H212931   4.698   4.785   1.451
 4330TIP3   OH212932   4.486   3.986   1.259
 4330TIP3    H112933   4.477   3.890   1.258
 4330TIP3    H212934   4.565   4.003   1.208
 4331TIP3   OH212935   5.406   3.628   6.416
 4331TIP3    H112936   5.446   3.647   6.501
 4331TIP3    H212937   5.369   3.712   6.388
 4332TIP3   OH212938   8.235   0.170   6.707
 4332TIP3    H112939   8.145   0.158   6.676
 4332TIP3    H212940   8.236   0.129   6.793
 4333TIP3   OH212941   1.780   0.622   1.902
 4333TIP3    H112942   1.720   0.590   1.834
 4333TIP3    H212943   1.725   0.672   1.961
 4334TIP3   OH212944   2.202   5.536   2.080
 4334TIP3    H112945   2.293   5.534   2.112
 4334TIP3    H212946   2.173   5.626   2.096
 4335TIP3   OH212947   0.775   7.756   6.335
 4335TIP3    H112948   0.757   7.799   6.251
 4335TIP3    H212949   0.793   7.665   6.312
 4336TIP3   OH212950   0.548   4.086   1.040
 4336TIP3    H112951   0.617   4.075   0.975
 4336TIP3    H212952   0.502   4.165   1.013
 4337TIP3   OH212953   1.888   7.152   2.255
 4337TIP3    H112954   1.858   7.111   2.336
 4337TIP3    H212955   1.875   7.246   2.270
 4338TIP3   OH212956   7.633   3.530   4.385
 4338TIP3    H112957   7.715   3.579   4.379
 4338TIP3    H212958   7.643   3.475   4.463
 4339TIP3   OH212959   3.849   0.138   0.732
 4339TIP3    H112960   3.926   0.186   0.763
 4339TIP3    H212961   3.802   0.200   0.677
 4340TIP3   OH212962   1.044   0.536   1.667
 4340TIP3    H112963   1.115   0.522   1.730
 4340TIP3    H212964   1.088   0.569   1.588
 4341TIP3   OH212965   4.211   7.178   3.018
 4341TIP3    H112966   4.136   7.218   2.973
 4341TIP3    H212967   4.181   7.092   3.045
 4342TIP3   OH212968   3.648   4.247   1.900
 4342TIP3    H112969   3.741   4.228   1.886
 4342TIP3    H212970   3.632   4.220   1.990
 4343TIP3   OH212971   1.343   2.356   2.359
 4343TIP3    H112972   1.347   2.333   2.266
 4343TIP3    H212973   1.399   2.290   2.402
 4344TIP3   OH212974   2.347   0.320   0.093
 4344TIP3    H112975   2.379   0.354   0.009
 4344TIP3    H212976   2.385   0.232   0.099
 4345TIP3   OH212977   3.095   3.370   5.089
 4345TIP3    H112978   3.026   3.432   5.115
 4345TIP3    H212979   3.169   3.425   5.065
 4346TIP3   OH212980   1.721   4.552   5.912
 4346TIP3    H112981   1.647   4.556   5.851
 4346TIP3    H212982   1.790   4.601   5.868
 4347TIP3   OH212983   0.415   7.781   1.741
 4347TIP3    H112984   0.453   7.843   1.678
 4347TIP3    H212985   0.491   7.742   1.784
 4348TIP3   OH212986   6.677   2.205   5.752
 4348TIP3    H112987   6.770   2.179   5.746
 4348TIP3    H212988   6.646   2.202   5.662
 4349TIP3   OH212989   6.126   5.867   5.489
 4349TIP3    H112990   6.080   5.810   5.550
 4349TIP3    H212991   6.059   5.928   5.459
 4350TIP3   OH212992   4.959   3.454   2.108
 4350TIP3    H112993   4.941   3.388   2.041
 4350TIP3    H212994   4.877   3.501   2.117
 4351TIP3   OH212995   5.771   1.297   1.234
 4351TIP3    H112996   5.729   1.381   1.216
 4351TIP3    H212997   5.781   1.255   1.149
 4352TIP3   OH212998   0.127   0.695   1.865
 4352TIP3    H112999   0.121   0.604   1.895
 4352TIP3    H213000   0.124   0.689   1.769
 4353TIP3   OH213001   6.214   4.020   0.284
 4353TIP3    H113002   6.186   4.002   0.374
 4353TIP3    H213003   6.136   4.007   0.231
 4354TIP3   OH213004   7.667   6.104   4.303
 4354TIP3    H113005   7.707   6.138   4.223
 4354TIP3    H213006   7.724   6.134   4.373
 4355TIP3   OH213007   3.254   4.469   5.856
 4355TIP3    H113008   3.256   4.509   5.769
 4355TIP3    H213009   3.308   4.390   5.847
 4356TIP3   OH213010   6.362   3.562   2.540
 4356TIP3    H113011   6.415   3.488   2.568
 4356TIP3    H213012   6.280   3.522   2.508
 4357TIP3   OH213013   1.110   7.722   0.099
 4357TIP3    H113014   1.096   7.793   0.162
 4357TIP3    H213015   1.135   7.765   0.018
 4358TIP3   OH213016   1.923   0.223   2.834
 4358TIP3    H113017   1.907   0.266   2.918
 4358TIP3    H213018   1.994   0.274   2.794
 4359TIP3   OH213019   1.799   5.239   0.912
 4359TIP3    H113020   1.867   5.237   0.845
 4359TIP3    H213021   1.770   5.331   0.914
 4360TIP3   OH213022   1.064   4.078   0.797
 4360TIP3    H113023   1.094   4.168   0.810
 4360TIP3    H213024   1.087   4.033   0.878
 4361TIP3   OH213025   0.881   5.521   3.702
 4361TIP3    H113026   0.928   5.604   3.699
 4361TIP3    H213027   0.795   5.544   3.736
 4362TIP3   OH213028   4.910   6.642   5.455
 4362TIP3    H113029   4.834   6.692   5.426
 4362TIP3    H213030   4.888   6.615   5.544
 4363TIP3   OH213031   2.609   7.591   4.990
 4363TIP3    H113032   2.621   7.525   5.058
 4363TIP3    H213033   2.520   7.576   4.959
 4364TIP3   OH213034   7.415   5.554   3.957
 4364TIP3    H113035   7.452   5.641   3.973
 4364TIP3    H213036   7.492   5.498   3.941
 4365TIP3   OH213037   5.442   7.730   5.095
 4365TIP3    H113038   5.425   7.636   5.105
 4365TIP3    H213039   5.530   7.742   5.132
 4366TIP3   OH213040   1.595   3.437   0.468
 4366TIP3    H113041   1.595   3.504   0.399
 4366TIP3    H213042   1.679   3.448   0.513
 4367TIP3   OH213043   2.278   4.597   0.322
 4367TIP3    H113044   2.338   4.645   0.380
 4367TIP3    H213045   2.234   4.535   0.380
 4368TIP3   OH213046   5.749   1.131   6.770
 4368TIP3    H113047   5.661   1.136   6.733
 4368TIP3    H213048   5.758   1.211   6.822
 4369TIP3   OH213049   0.274   4.354   6.569
 4369TIP3    H113050   0.370   4.350   6.560
 4369TIP3    H213051   0.241   4.317   6.487
 4370TIP3   OH213052   5.818   2.723   4.879
 4370TIP3    H113053   5.752   2.772   4.927
 4370TIP3    H213054   5.821   2.765   4.793
 4371TIP3   OH213055   5.797   3.551   4.681
 4371TIP3    H113056   5.706   3.533   4.706
 4371TIP3    H213057   5.817   3.635   4.722
 4372TIP3   OH213058   3.797   0.693   5.030
 4372TIP3    H113059   3.781   0.664   4.940
 4372TIP3    H213060   3.716   0.737   5.056
 4373TIP3   OH213061   0.887   3.140   2.963
 4373TIP3    H113062   0.956   3.205   2.974
 4373TIP3    H213063   0.810   3.178   3.007
 4374TIP3   OH213064   8.084   2.864   0.742
 4374TIP3    H113065   8.000   2.909   0.729
 4374TIP3    H213066   8.148   2.934   0.751
 4375TIP3   OH213067   3.285   7.215   5.272
 4375TIP3    H113068   3.346   7.284   5.248
 4375TIP3    H213069   3.315   7.184   5.357
 4376TIP3   OH213070   6.920   7.573   5.311
 4376TIP3    H113071   6.842   7.518   5.321
 4376TIP3    H213072   6.946   7.594   5.401
 4377TIP3   OH213073   2.802   0.577   3.661
 4377TIP3    H113074   2.829   0.604   3.574
 4377TIP3    H213075   2.747   0.500   3.646
 4378TIP3   OH213076   1.959   7.497   0.275
 4378TIP3    H113077   1.981   7.589   0.261
 4378TIP3    H213078   1.872   7.487   0.238
 4379TIP3   OH213079   4.902   5.478   3.229
 4379TIP3    H113080   4.893   5.567   3.196
 4379TIP3    H213081   4.972   5.484   3.294
 4380TIP3   OH213082   1.115   7.283   5.467
 4380TIP3    H113083   1.161   7.333   5.400
 4380TIP3    H213084   1.151   7.194   5.460
 4381TIP3   OH213085   4.263   2.246   0.094
 4381TIP3    H113086   4.275   2.323   0.150
 4381TIP3    H213087   4.265   2.281   0.005
 4382TIP3   OH213088   6.710   3.317   2.808
 4382TIP3    H113089   6.670   3.271   2.734
 4382TIP3    H213090   6.635   3.349   2.859
 4383TIP3   OH213091   7.652   3.932   0.966
 4383TIP3    H113092   7.673   3.956   1.056
 4383TIP3    H213093   7.580   3.870   0.974
 4384TIP3   OH213094   7.613   1.514   3.725
 4384TIP3    H113095   7.632   1.520   3.818
 4384TIP3    H213096   7.699   1.506   3.683
 4385TIP3   OH213097   3.224   3.666   5.689
 4385TIP3    H113098   3.311   3.647   5.725
 4385TIP3    H213099   3.241   3.720   5.612
 4386TIP3   OH213100   3.775   0.622   5.682
 4386TIP3    H113101   3.776   0.530   5.654
 4386TIP3    H213102   3.844   0.664   5.630
 4387TIP3   OH213103   2.204   7.425   6.499
 4387TIP3    H113104   2.190   7.338   6.537
 4387TIP3    H213105   2.239   7.407   6.412
 4388TIP3   OH213106   8.021   0.906   3.941
 4388TIP3    H113107   7.931   0.935   3.960
 4388TIP3    H213108   8.056   0.974   3.883
 4389TIP3   OH213109   2.148   3.575   1.990
 4389TIP3    H113110   2.146   3.661   2.032
 4389TIP3    H213111   2.150   3.593   1.896
 4390TIP3   OH213112   5.077   0.268   6.542
 4390TIP3    H113113   5.129   0.335   6.498
 4390TIP3    H213114   5.141   0.209   6.581
 4391TIP3   OH213115   0.570   4.921   4.297
 4391TIP3    H113116   0.480   4.892   4.280
 4391TIP3    H213117   0.567   5.016   4.285
 4392TIP3   OH213118   6.418   7.757   6.235
 4392TIP3    H113119   6.499   7.784   6.191
 4392TIP3    H213120   6.445   7.686   6.293
 4393TIP3   OH213121   0.341   5.171   3.753
 4393TIP3    H113122   0.375   5.207   3.671
 4393TIP3    H213123   0.321   5.080   3.733
 4394TIP3   OH213124   2.252   6.507   5.698
 4394TIP3    H113125   2.275   6.474   5.785
 4394TIP3    H213126   2.215   6.432   5.652
 4395TIP3   OH213127   7.516   5.102   3.463
 4395TIP3    H113128   7.454   5.138   3.399
 4395TIP3    H213129   7.593   5.078   3.412
 4396TIP3   OH213130   3.786   3.034   4.295
 4396TIP3    H113131   3.826   3.048   4.380
 4396TIP3    H213132   3.772   3.121   4.259
 4397TIP3   OH213133   6.186   1.010   5.413
 4397TIP3    H113134   6.280   0.999   5.405
 4397TIP3    H213135   6.157   1.041   5.328
 4398TIP3   OH213136   2.867   4.502   1.421
 4398TIP3    H113137   2.932   4.434   1.438
 4398TIP3    H213138   2.783   4.455   1.418
 4399TIP3   OH213139   3.897   6.030   5.785
 4399TIP3    H113140   3.937   5.957   5.832
 4399TIP3    H213141   3.901   6.005   5.693
 4400TIP3   OH213142   0.882   5.140   4.649
 4400TIP3    H113143   0.811   5.193   4.613
 4400TIP3    H213144   0.947   5.205   4.677
 4401TIP3   OH213145   4.062   0.621   4.203
 4401TIP3    H113146   4.032   0.684   4.138
 4401TIP3    H213147   4.031   0.656   4.287
 4402TIP3   OH213148   3.525   4.895   3.734
 4402TIP3    H113149   3.482   4.839   3.798
 4402TIP3    H213150   3.618   4.875   3.742
 4403TIP3   OH213151   2.493   0.178   2.596
 4403TIP3    H113152   2.506   0.239   2.523
 4403TIP3    H213153   2.410   0.205   2.636
 4404TIP3   OH213154   8.300   5.921   3.302
 4404TIP3    H113155   8.254   5.837   3.292
 4404TIP3    H213156   8.308   5.955   3.213
 4405TIP3   OH213157   1.350   4.096   5.144
 4405TIP3    H113158   1.319   4.111   5.054
 4405TIP3    H213159   1.345   4.182   5.185
 4406TIP3   OH213160   3.614   3.614   2.238
 4406TIP3    H113161   3.576   3.666   2.308
 4406TIP3    H213162   3.574   3.527   2.248
 4407TIP3   OH213163   8.030   1.539   5.789
 4407TIP3    H113164   7.973   1.600   5.741
 4407TIP3    H213165   8.033   1.575   5.878
 4408TIP3   OH213166   3.087   3.717   2.672
 4408TIP3    H113167   3.134   3.637   2.652
 4408TIP3    H213168   3.054   3.748   2.587
 4409TIP3   OH213169   5.037   3.776   1.261
 4409TIP3    H113170   4.966   3.830   1.295
 4409TIP3    H213171   5.103   3.777   1.329
 4410TIP3   OH213172   1.869   3.486   4.135
 4410TIP3    H113173   1.852   3.446   4.050
 4410TIP3    H213174   1.877   3.579   4.117
 4411TIP3   OH213175   3.576   6.800   4.612
 4411TIP3    H113176   3.594   6.788   4.518
 4411TIP3    H213177   3.525   6.723   4.636
 4412TIP3   OH213178   0.096   6.051   5.930
 4412TIP3    H113179   0.130   6.125   5.979
 4412TIP3    H213180   0.168   5.988   5.929
 4413TIP3   OH213181   0.261   0.041   2.325
 4413TIP3    H113182   0.249  -0.013   2.247
 4413TIP3    H213183   0.216   0.123   2.305
 4414TIP3   OH213184   4.254   7.463   5.771
 4414TIP3    H113185   4.166   7.466   5.735
 4414TIP3    H213186   4.292   7.383   5.734
 4415TIP3   OH213187   2.062   4.873   5.649
 4415TIP3    H113188   2.114   4.827   5.714
 4415TIP3    H213189   2.127   4.914   5.591
 4416TIP3   OH213190   6.471   5.787   6.587
 4416TIP3    H113191   6.452   5.880   6.602
 4416TIP3    H213192   6.413   5.763   6.515
 4417TIP3   OH213193   1.862   4.609   0.075
 4417TIP3    H113194   1.903   4.525   0.059
 4417TIP3    H213195   1.915   4.672   0.025
 4418TIP3   OH213196   0.954   4.659   0.695
 4418TIP3    H113197   1.046   4.657   0.721
 4418TIP3    H213198   0.923   4.570   0.710
 4419TIP3   OH213199   8.061   7.004   5.308
 4419TIP3    H113200   8.080   7.010   5.215
 4419TIP3    H213201   8.108   7.078   5.347
 4420TIP3   OH213202   6.753   6.008   5.907
 4420TIP3    H113203   6.730   5.965   5.824
 4420TIP3    H213204   6.835   5.967   5.933
 4421TIP3   OH213205   0.326   0.470   5.716
 4421TIP3    H113206   0.231   0.454   5.721
 4421TIP3    H213207   0.344   0.480   5.623
 4422TIP3   OH213208   4.840   1.805   2.130
 4422TIP3    H113209   4.802   1.717   2.127
 4422TIP3    H213210   4.815   1.844   2.046
 4423TIP3   OH213211   0.351   1.689   3.218
 4423TIP3    H113212   0.411   1.724   3.154
 4423TIP3    H213213   0.273   1.745   3.212
 4424TIP3   OH213214   2.703   2.454   4.990
 4424TIP3    H113215   2.714   2.549   4.984
 4424TIP3    H213216   2.684   2.426   4.900
 4425TIP3   OH213217   4.649   3.606   6.290
 4425TIP3    H113218   4.599   3.529   6.263
 4425TIP3    H213219   4.741   3.580   6.279
 4426TIP3   OH213220   7.145   3.140   0.377
 4426TIP3    H113221   7.075   3.199   0.350
 4426TIP3    H213222   7.207   3.197   0.423
 4427TIP3   OH213223   2.979   5.567   5.367
 4427TIP3    H113224   3.058   5.561   5.419
 4427TIP3    H213225   2.920   5.622   5.418
 4428TIP3   OH213226   4.441   4.114   5.210
 4428TIP3    H113227   4.390   4.143   5.134
 4428TIP3    H213228   4.532   4.116   5.180
 4429TIP3   OH213229   8.108   2.060   5.968
 4429TIP3    H113230   8.013   2.047   5.968
 4429TIP3    H213231   8.129   2.085   6.058
 4430TIP3   OH213232   2.621   6.858   4.441
 4430TIP3    H113233   2.572   6.781   4.471
 4430TIP3    H213234   2.556   6.928   4.437
 4431TIP3   OH213235   3.223  -0.008   5.271
 4431TIP3    H113236   3.258  -0.034   5.185
 4431TIP3    H213237   3.207   0.086   5.264
 4432TIP3   OH213238   6.103   7.437   5.582
 4432TIP3    H113239   6.058   7.354   5.568
 4432TIP3    H213240   6.190   7.424   5.545
 4433TIP3   OH213241   4.602   6.404   0.949
 4433TIP3    H113242   4.513   6.378   0.975
 4433TIP3    H213243   4.594   6.426   0.856
 4434TIP3   OH213244   4.773   2.641   5.932
 4434TIP3    H113245   4.853   2.693   5.925
 4434TIP3    H213246   4.710   2.698   5.977
 4435TIP3   OH213247   6.537   3.046   6.155
 4435TIP3    H113248   6.589   3.089   6.087
 4435TIP3    H213249   6.451   3.086   6.148
 4436TIP3   OH213250   1.985   4.510   0.635
 4436TIP3    H113251   1.894   4.485   0.651
 4436TIP3    H213252   1.980   4.591   0.585
 4437TIP3   OH213253   3.519   5.072   0.612
 4437TIP3    H113254   3.594   5.081   0.671
 4437TIP3    H213255   3.558   5.071   0.524
 4438TIP3   OH213256   1.172   1.150   5.321
 4438TIP3    H113257   1.129   1.174   5.403
 4438TIP3    H213258   1.176   1.232   5.272
 4439TIP3   OH213259   5.574   1.073   4.646
 4439TIP3    H113260   5.636   1.099   4.714
 4439TIP3    H213261   5.595   0.982   4.627
 4440TIP3   OH213262   2.950   4.474   6.343
 4440TIP3    H113263   2.892   4.484   6.419
 4440TIP3    H213264   2.914   4.534   6.277
 4441TIP3   OH213265   4.934   7.222   0.444
 4441TIP3    H113266   4.972   7.168   0.513
 4441TIP3    H213267   4.840   7.212   0.455
 4442TIP3   OH213268   1.963   7.772   1.132
 4442TIP3    H113269   1.993   7.809   1.049
 4442TIP3    H213270   2.019   7.695   1.144
 4443TIP3   OH213271   3.484   7.389   3.442
 4443TIP3    H113272   3.553   7.350   3.496
 4443TIP3    H213273   3.424   7.428   3.506
 4444TIP3   OH213274   8.135   0.503   4.585
 4444TIP3    H113275   8.144   0.573   4.649
 4444TIP3    H213276   8.097   0.430   4.634
 4445TIP3   OH213277   0.742   4.359   3.536
 4445TIP3    H113278   0.692   4.342   3.616
 4445TIP3    H213279   0.812   4.418   3.563
 4446TIP3   OH213280   4.857   1.440   1.362
 4446TIP3    H113281   4.897   1.516   1.405
 4446TIP3    H213282   4.931   1.395   1.320
 4447TIP3   OH213283   5.686   4.510   5.654
 4447TIP3    H113284   5.611   4.543   5.703
 4447TIP3    H213285   5.744   4.586   5.645
 4448TIP3   OH213286   4.010   5.033   4.260
 4448TIP3    H113287   3.922   5.046   4.224
 4448TIP3    H213288   4.014   5.092   4.335
 4449TIP3   OH213289   5.544   6.479   4.926
 4449TIP3    H113290   5.534   6.498   5.020
 4449TIP3    H213291   5.624   6.426   4.921
 4450TIP3   OH213292   1.053   5.793   1.683
 4450TIP3    H113293   1.049   5.764   1.592
 4450TIP3    H213294   1.015   5.881   1.681
 4451TIP3   OH213295   5.004   5.936   2.108
 4451TIP3    H113296   5.084   5.960   2.156
 4451TIP3    H213297   4.933   5.969   2.163
 4452TIP3   OH213298   4.180   3.351   6.212
 4452TIP3    H113299   4.169   3.261   6.182
 4452TIP3    H213300   4.120   3.360   6.285
 4453TIP3   OH213301   0.850   2.845   4.542
 4453TIP3    H113302   0.783   2.823   4.478
 4453TIP3    H213303   0.903   2.914   4.500
 4454TIP3   OH213304   0.096   1.731   6.669
 4454TIP3    H113305   0.065   1.736   6.760
 4454TIP3    H213306   0.189   1.749   6.675
 4455TIP3   OH213307   4.545   5.737   6.654
 4455TIP3    H113308   4.499   5.681   6.716
 4455TIP3    H213309   4.610   5.783   6.707
 4456TIP3   OH213310   4.456   0.912   4.470
 4456TIP3    H113311   4.464   0.903   4.375
 4456TIP3    H213312   4.546   0.908   4.502
 4457TIP3   OH213313   2.891   5.655   3.778
 4457TIP3    H113314   2.945   5.593   3.729
 4457TIP3    H213315   2.820   5.603   3.815
 4458TIP3   OH213316   7.334   7.799   3.733
 4458TIP3    H113317   7.428   7.796   3.714
 4458TIP3    H213318   7.328   7.781   3.826
 4459TIP3   OH213319   6.451   3.706   3.488
 4459TIP3    H113320   6.536   3.706   3.532
 4459TIP3    H213321   6.431   3.799   3.474
 4460TIP3   OH213322   2.158   6.167   2.174
 4460TIP3    H113323   2.240   6.173   2.125
 4460TIP3    H213324   2.163   6.239   2.237
 4461TIP3   OH213325   1.210   3.656   3.697
 4461TIP3    H113326   1.161   3.609   3.765
 4461TIP3    H213327   1.251   3.729   3.744
 4462TIP3   OH213328   6.842   6.862   3.095
 4462TIP3    H113329   6.865   6.853   3.002
 4462TIP3    H213330   6.847   6.773   3.130
 4463TIP3   OH213331   5.018   3.923   4.668
 4463TIP3    H113332   5.075   3.900   4.595
 4463TIP3    H213333   5.063   3.994   4.713
 4464TIP3   OH213334   5.128   7.190   6.639
 4464TIP3    H113335   5.201   7.200   6.578
 4464TIP3    H213336   5.158   7.234   6.719
 4465TIP3   OH213337   3.002   4.701   0.895
 4465TIP3    H113338   2.958   4.784   0.875
 4465TIP3    H213339   3.066   4.724   0.962
 4466TIP3   OH213340   7.078   0.829   4.921
 4466TIP3    H113341   7.099   0.800   4.832
 4466TIP3    H213342   7.164   0.847   4.961
 4467TIP3   OH213343   2.777   1.121   6.078
 4467TIP3    H113344   2.871   1.132   6.096
 4467TIP3    H213345   2.734   1.188   6.131
 4468TIP3   OH213346   0.149   2.535   3.880
 4468TIP3    H113347   0.230   2.584   3.865
 4468TIP3    H213348   0.086   2.602   3.908
 4469TIP3   OH213349   3.559   1.663   3.098
 4469TIP3    H113350   3.576   1.660   3.192
 4469TIP3    H213351   3.493   1.595   3.083
 4470TIP3   OH213352   0.190   0.324   1.712
 4470TIP3    H113353   0.192   0.317   1.807
 4470TIP3    H213354   0.170   0.235   1.682
 4471TIP3   OH213355   7.422   4.487   2.888
 4471TIP3    H113356   7.491   4.503   2.952
 4471TIP3    H213357   7.386   4.402   2.912
 4472TIP3   OH213358   0.960   5.884   6.284
 4472TIP3    H113359   1.043   5.895   6.238
 4472TIP3    H213360   0.947   5.967   6.331
 4473TIP3   OH213361   4.582   6.280   1.506
 4473TIP3    H113362   4.649   6.226   1.547
 4473TIP3    H213363   4.628   6.360   1.479
 4474TIP3   OH213364   1.573   4.569   0.085
 4474TIP3    H113365   1.594   4.559  -0.008
 4474TIP3    H213366   1.645   4.526   0.131
 4475TIP3   OH213367   4.029   2.348   5.224
 4475TIP3    H113368   4.072   2.429   5.194
 4475TIP3    H213369   4.087   2.315   5.293
 4476TIP3   OH213370   7.151   6.660   5.753
 4476TIP3    H113371   7.139   6.593   5.820
 4476TIP3    H213372   7.243   6.651   5.727
 4477TIP3   OH213373   3.065   5.887   1.868
 4477TIP3    H113374   3.062   5.861   1.960
 4477TIP3    H213375   3.003   5.827   1.825
 4478TIP3   OH213376   6.967   7.746   1.183
 4478TIP3    H113377   6.951   7.692   1.260
 4478TIP3    H213378   6.964   7.685   1.109
 4479TIP3   OH213379   7.591   0.299   2.809
 4479TIP3    H113380   7.516   0.359   2.803
 4479TIP3    H213381   7.553   0.215   2.835
 4480TIP3   OH213382   0.426   6.946   1.547
 4480TIP3    H113383   0.371   6.900   1.483
 4480TIP3    H213384   0.397   6.912   1.631
 4481TIP3   OH213385   6.921   3.656   3.260
 4481TIP3    H113386   6.871   3.727   3.219
 4481TIP3    H213387   6.896   3.578   3.211
 4482TIP3   OH213388   3.718   7.016   2.429
 4482TIP3    H113389   3.645   7.009   2.491
 4482TIP3    H213390   3.796   6.998   2.482
 4483TIP3   OH213391   6.944   2.990   3.045
 4483TIP3    H113392   7.012   2.961   3.106
 4483TIP3    H213393   6.988   3.056   2.991
 4484TIP3   OH213394   3.771   2.390   1.113
 4484TIP3    H113395   3.785   2.295   1.105
 4484TIP3    H213396   3.742   2.401   1.204
 4485TIP3   OH213397   8.237   3.583   4.268
 4485TIP3    H113398   8.201   3.500   4.238
 4485TIP3    H213399   8.210   3.646   4.202
 4486TIP3   OH213400   3.709   7.219   5.139
 4486TIP3    H113401   3.620   7.248   5.160
 4486TIP3    H213402   3.758   7.300   5.128
 4487TIP3   OH213403   5.433   3.322   5.742
 4487TIP3    H113404   5.492   3.271   5.798
 4487TIP3    H213405   5.390   3.258   5.687
 4488TIP3   OH213406   3.824   0.316   5.827
 4488TIP3    H113407   3.734   0.323   5.859
 4488TIP3    H213408   3.867   0.396   5.857
 4489TIP3   OH213409   5.859   0.088   4.780
 4489TIP3    H113410   5.807   0.008   4.789
 4489TIP3    H213411   5.943   0.066   4.821
 4490TIP3   OH213412   1.971   5.969   2.639
 4490TIP3    H113413   2.041   5.908   2.617
 4490TIP3    H213414   1.989   6.047   2.586
 4491TIP3   OH213415   5.305   7.790   6.306
 4491TIP3    H113416   5.280   7.882   6.292
 4491TIP3    H213417   5.380   7.777   6.248
 4492TIP3   OH213418   5.169   7.294   5.245
 4492TIP3    H113419   5.152   7.207   5.207
 4492TIP3    H213420   5.197   7.347   5.170
 4493TIP3   OH213421   5.849   2.913   5.163
 4493TIP3    H113422   5.824   2.974   5.232
 4493TIP3    H213423   5.945   2.906   5.172
 4494TIP3   OH213424   4.442   6.349   4.171
 4494TIP3    H113425   4.392   6.423   4.135
 4494TIP3    H213426   4.529   6.358   4.132
 4495TIP3   OH213427   5.497   0.711   3.191
 4495TIP3    H113428   5.563   0.761   3.239
 4495TIP3    H213429   5.441   0.675   3.259
 4496TIP3   OH213430   3.976   3.069   6.326
 4496TIP3    H113431   3.952   3.049   6.235
 4496TIP3    H213432   4.068   3.044   6.333
 4497TIP3   OH213433   7.621   1.222   2.542
 4497TIP3    H113434   7.582   1.294   2.592
 4497TIP3    H213435   7.552   1.193   2.483
 4498TIP3   OH213436   2.282   1.668   1.767
 4498TIP3    H113437   2.319   1.612   1.698
 4498TIP3    H213438   2.188   1.664   1.753
 4499TIP3   OH213439   2.924   1.486   3.118
 4499TIP3    H113440   2.871   1.410   3.143
 4499TIP3    H213441   3.005   1.448   3.084
 4500TIP3   OH213442   5.556   7.058   5.491
 4500TIP3    H113443   5.534   7.082   5.401
 4500TIP3    H213444   5.651   7.049   5.492
 4501TIP3   OH213445   5.368   2.840   0.853
 4501TIP3    H113446   5.421   2.902   0.904
 4501TIP3    H213447   5.385   2.755   0.895
 4502TIP3   OH213448   4.444   2.391   4.959
 4502TIP3    H113449   4.498   2.392   4.880
 4502TIP3    H213450   4.428   2.298   4.976
 4503TIP3   OH213451   8.303   6.463   5.585
 4503TIP3    H113452   8.291   6.524   5.513
 4503TIP3    H213453   8.215   6.442   5.614
 4504TIP3   OH213454   0.905   4.755   5.079
 4504TIP3    H113455   0.867   4.837   5.048
 4504TIP3    H213456   0.987   4.781   5.121
 4505TIP3   OH213457   7.821   0.746   4.893
 4505TIP3    H113458   7.883   0.746   4.819
 4505TIP3    H213459   7.832   0.660   4.933
 4506TIP3   OH213460   5.527   1.540   4.851
 4506TIP3    H113461   5.475   1.587   4.916
 4506TIP3    H213462   5.584   1.606   4.813
 4507TIP3   OH213463   6.723   1.258   3.482
 4507TIP3    H113464   6.667   1.272   3.558
 4507TIP3    H213465   6.773   1.340   3.474
 4508TIP3   OH213466   4.885   7.462   3.884
 4508TIP3    H113467   4.809   7.408   3.861
 4508TIP3    H213468   4.959   7.419   3.840
 4509TIP3   OH213469   4.512   5.788   2.085
 4509TIP3    H113470   4.539   5.731   2.012
 4509TIP3    H213471   4.563   5.757   2.160
 4510TIP3   OH213472   1.636   5.388   6.720
 4510TIP3    H113473   1.585   5.346   6.651
 4510TIP3    H213474   1.667   5.470   6.680
 4511TIP3   OH213475   3.312   1.237   6.007
 4511TIP3    H113476   3.360   1.241   5.924
 4511TIP3    H213477   3.357   1.169   6.057
 4512TIP3   OH213478   6.567   1.177   4.105
 4512TIP3    H113479   6.475   1.195   4.126
 4512TIP3    H213480   6.574   1.082   4.113
 4513TIP3   OH213481   7.624   0.175   2.336
 4513TIP3    H113482   7.710   0.132   2.334
 4513TIP3    H213483   7.628   0.232   2.414
 4514TIP3   OH213484   3.438   3.209   6.097
 4514TIP3    H113485   3.496   3.224   6.022
 4514TIP3    H213486   3.439   3.114   6.109
 4515TIP3   OH213487   4.571   6.414   6.764
 4515TIP3    H113488   4.540   6.397   6.853
 4515TIP3    H213489   4.607   6.331   6.735
 4516TIP3   OH213490   6.367   6.675   1.247
 4516TIP3    H113491   6.371   6.713   1.335
 4516TIP3    H213492   6.274   6.678   1.223
 4517TIP3   OH213493   1.565   2.259   4.874
 4517TIP3    H113494   1.580   2.344   4.915
 4517TIP3    H213495   1.486   2.226   4.916
 4518TIP3   OH213496   2.296   2.435   4.504
 4518TIP3    H113497   2.337   2.407   4.586
 4518TIP3    H213498   2.232   2.501   4.531
 4519TIP3   OH213499   7.927   6.673   3.588
 4519TIP3    H113500   7.885   6.758   3.598
 4519TIP3    H213501   7.910   6.648   3.497
 4520TIP3   OH213502   1.778   4.767   6.080
 4520TIP3    H113503   1.740   4.704   6.019
 4520TIP3    H213504   1.709   4.833   6.092
 4521TIP3   OH213505   6.610   0.383   0.682
 4521TIP3    H113506   6.678   0.394   0.616
 4521TIP3    H213507   6.590   0.290   0.680
 4522TIP3   OH213508   3.317   1.683   3.955
 4522TIP3    H113509   3.335   1.589   3.957
 4522TIP3    H213510   3.350   1.715   4.039
 4523TIP3   OH213511   8.127   3.320   3.953
 4523TIP3    H113512   8.189   3.304   4.024
 4523TIP3    H213513   8.125   3.238   3.904
 4524TIP3   OH213514   2.583   0.072   0.550
 4524TIP3    H113515   2.641   0.079   0.626
 4524TIP3    H213516   2.631   0.016   0.489
 4525TIP3   OH213517   0.367   5.222   6.581
 4525TIP3    H113518   0.456   5.203   6.553
 4525TIP3    H213519   0.351   5.159   6.651
 4526TIP3   OH213520   2.255   5.598   3.075
 4526TIP3    H113521   2.247   5.538   3.149
 4526TIP3    H213522   2.216   5.550   3.001
 4527TIP3   OH213523   4.387   7.662   2.531
 4527TIP3    H113524   4.476   7.667   2.497
 4527TIP3    H213525   4.384   7.729   2.600
 4528TIP3   OH213526   6.798   0.659   0.526
 4528TIP3    H113527   6.750   0.669   0.608
 4528TIP3    H213528   6.874   0.605   0.550
 4529TIP3   OH213529   0.063   2.342   0.808
 4529TIP3    H113530   0.001   2.357   0.737
 4529TIP3    H213531   0.046   2.252   0.836
 4530TIP3   OH213532   6.914   5.878  -0.039
 4530TIP3    H113533   6.996   5.919  -0.066
 4530TIP3    H213534   6.929   5.852   0.052
 4531TIP3   OH213535   2.595   1.583   5.065
 4531TIP3    H113536   2.523   1.532   5.029
 4531TIP3    H213537   2.602   1.659   5.008
 4532TIP3   OH213538   0.845   0.670   4.610
 4532TIP3    H113539   0.860   0.578   4.630
 4532TIP3    H213540   0.928   0.713   4.632
 4533TIP3   OH213541   2.587   5.618   1.528
 4533TIP3    H113542   2.600   5.524   1.521
 4533TIP3    H213543   2.636   5.644   1.606
 4534TIP3   OH213544   1.009   0.727   5.065
 4534TIP3    H113545   1.047   0.709   4.979
 4534TIP3    H213546   0.945   0.657   5.079
 4535TIP3   OH213547   5.315   7.588   0.519
 4535TIP3    H113548   5.277   7.574   0.606
 4535TIP3    H213549   5.302   7.681   0.503
 4536TIP3   OH213550   4.708   4.201   4.341
 4536TIP3    H113551   4.677   4.112   4.357
 4536TIP3    H213552   4.783   4.191   4.283
 4537TIP3   OH213553   5.565   1.187   0.791
 4537TIP3    H113554   5.566   1.200   0.886
 4537TIP3    H213555   5.481   1.143   0.774
 4538TIP3   OH213556   7.536   4.516   3.932
 4538TIP3    H113557   7.609   4.475   3.978
 4538TIP3    H213558   7.540   4.609   3.957
 4539TIP3   OH213559   0.362   2.849   5.711
 4539TIP3    H113560   0.304   2.880   5.642
 4539TIP3    H213561   0.424   2.920   5.724
 4540TIP3   OH213562   3.550   6.129   1.487
 4540TIP3    H113563   3.501   6.048   1.472
 4540TIP3    H213564   3.510   6.193   1.428
 4541TIP3   OH213565   5.069   4.535   0.694
 4541TIP3    H113566   5.049   4.554   0.603
 4541TIP3    H213567   5.126   4.458   0.692
 4542TIP3   OH213568   5.023   7.045   1.371
 4542TIP3    H113569   5.071   7.074   1.448
 4542TIP3    H213570   5.026   7.119   1.311
 4543TIP3   OH213571   3.182   5.262   4.643
 4543TIP3    H113572   3.087   5.254   4.652
 4543TIP3    H213573   3.216   5.227   4.726
 4544TIP3   OH213574   0.274   2.577   4.703
 4544TIP3    H113575   0.187   2.546   4.729
 4544TIP3    H213576   0.327   2.568   4.783
 4545TIP3   OH213577   6.666   1.063   0.426
 4545TIP3    H113578   6.654   0.971   0.406
 4545TIP3    H213579   6.752   1.085   0.392
 4546TIP3   OH213580   4.717   0.114   6.470
 4546TIP3    H113581   4.728   0.025   6.437
 4546TIP3    H213582   4.765   0.169   6.409
 4547TIP3   OH213583   3.646   1.642   3.366
 4547TIP3    H113584   3.662   1.638   3.460
 4547TIP3    H213585   3.733   1.631   3.327
 4548TIP3   OH213586   0.560   3.353   0.342
 4548TIP3    H113587   0.483   3.330   0.290
 4548TIP3    H213588   0.628   3.293   0.312
 4549TIP3   OH213589   8.116   4.386   1.928
 4549TIP3    H113590   8.095   4.295   1.951
 4549TIP3    H213591   8.076   4.399   1.843
 4550TIP3   OH213592   0.643   2.243   5.911
 4550TIP3    H113593   0.729   2.233   5.870
 4550TIP3    H213594   0.591   2.290   5.846
 4551TIP3   OH213595   4.695   5.286   2.912
 4551TIP3    H113596   4.726   5.375   2.894
 4551TIP3    H213597   4.774   5.232   2.909
 4552TIP3   OH213598   4.719   3.283   4.005
 4552TIP3    H113599   4.740   3.333   3.926
 4552TIP3    H213600   4.804   3.262   4.043
 4553TIP3   OH213601   4.993   0.557   4.334
 4553TIP3    H113602   4.990   0.617   4.260
 4553TIP3    H213603   5.056   0.596   4.394
 4554TIP3   OH213604   7.089   6.880   5.452
 4554TIP3    H113605   7.116   6.918   5.535
 4554TIP3    H213606   7.143   6.925   5.387
 4555TIP3   OH213607   5.835   3.565   0.652
 4555TIP3    H113608   5.807   3.594   0.565
 4555TIP3    H213609   5.908   3.505   0.635
 4556TIP3   OH213610   1.891   4.865   2.588
 4556TIP3    H113611   1.879   4.842   2.496
 4556TIP3    H213612   1.985   4.862   2.602
 4557TIP3   OH213613   0.281   5.898   3.710
 4557TIP3    H113614   0.189   5.880   3.731
 4557TIP3    H213615   0.281   5.917   3.617
 4558TIP3   OH213616   4.724   1.633   3.179
 4558TIP3    H113617   4.771   1.676   3.108
 4558TIP3    H213618   4.632   1.656   3.165
 4559TIP3   OH213619   7.953   4.637   6.356
 4559TIP3    H113620   8.003   4.668   6.432
 4559TIP3    H213621   7.917   4.552   6.384
 4560TIP3   OH213622   8.325   0.494   4.338
 4560TIP3    H113623   8.300   0.485   4.430
 4560TIP3    H213624   8.293   0.580   4.313
 4561TIP3   OH213625   1.851   0.548   4.811
 4561TIP3    H113626   1.934   0.502   4.804
 4561TIP3    H213627   1.865   0.613   4.880
 4562TIP3   OH213628   5.551   6.600   3.436
 4562TIP3    H113629   5.588   6.653   3.366
 4562TIP3    H213630   5.499   6.662   3.488
 4563TIP3   OH213631   4.943   3.118   6.238
 4563TIP3    H113632   4.870   3.154   6.288
 4563TIP3    H213633   5.016   3.179   6.254
 4564TIP3   OH213634   2.654   1.406   1.517
 4564TIP3    H113635   2.712   1.384   1.589
 4564TIP3    H213636   2.709   1.455   1.456
 4565TIP3   OH213637   5.698   2.350   4.428
 4565TIP3    H113638   5.713   2.275   4.485
 4565TIP3    H213639   5.664   2.312   4.347
 4566TIP3   OH213640   7.129   5.491   0.999
 4566TIP3    H113641   7.117   5.578   1.037
 4566TIP3    H213642   7.110   5.431   1.071
 4567TIP3   OH213643   3.618   4.677   2.813
 4567TIP3    H113644   3.572   4.595   2.796
 4567TIP3    H213645   3.663   4.664   2.896
 4568TIP3   OH213646   4.073   0.338   0.406
 4568TIP3    H113647   4.049   0.409   0.347
 4568TIP3    H213648   4.161   0.361   0.436
 4569TIP3   OH213649   7.977   1.613   2.250
 4569TIP3    H113650   8.033   1.573   2.183
 4569TIP3    H213651   8.025   1.691   2.278
 4570TIP3   OH213652   4.181   3.952   3.581
 4570TIP3    H113653   4.199   4.043   3.606
 4570TIP3    H213654   4.168   3.956   3.486
 4571TIP3   OH213655   6.514   2.925   4.665
 4571TIP3    H113656   6.562   2.912   4.747
 4571TIP3    H213657   6.431   2.879   4.678
 4572TIP3   OH213658   3.799   3.733   4.096
 4572TIP3    H113659   3.885   3.762   4.064
 4572TIP3    H213660   3.746   3.722   4.018
 4573TIP3   OH213661   2.284   7.059   4.236
 4573TIP3    H113662   2.191   7.045   4.252
 4573TIP3    H213663   2.306   6.997   4.167
 4574TIP3   OH213664   6.721   0.682   5.068
 4574TIP3    H113665   6.635   0.704   5.104
 4574TIP3    H213666   6.741   0.754   5.008
 4575TIP3   OH213667   4.688   7.630   4.493
 4575TIP3    H113668   4.749   7.559   4.473
 4575TIP3    H213669   4.741   7.709   4.492
 4576TIP3   OH213670   8.194   2.173   0.604
 4576TIP3    H113671   8.134   2.173   0.529
 4576TIP3    H213672   8.137   2.190   0.680
 4577TIP3   OH213673   5.990   1.688   3.391
 4577TIP3    H113674   5.956   1.767   3.348
 4577TIP3    H213675   5.918   1.625   3.385
 4578TIP3   OH213676   6.369   7.667   6.710
 4578TIP3    H113677   6.357   7.759   6.687
 4578TIP3    H213678   6.280   7.634   6.725
 4579TIP3   OH213679   1.642   1.422   2.360
 4579TIP3    H113680   1.638   1.383   2.273
 4579TIP3    H213681   1.554   1.456   2.375
 4580TIP3   OH213682   4.971   5.031   1.389
 4580TIP3    H113683   5.054   5.031   1.343
 4580TIP3    H213684   4.917   5.095   1.343
 4581TIP3   OH213685   0.650   4.326   2.109
 4581TIP3    H113686   0.587   4.264   2.145
 4581TIP3    H213687   0.735   4.298   2.143
 4582TIP3   OH213688   6.756   7.544   1.753
 4582TIP3    H113689   6.836   7.597   1.766
 4582TIP3    H213690   6.768   7.504   1.667
 4583TIP3   OH213691   4.065   3.461   6.481
 4583TIP3    H113692   4.142   3.508   6.511
 4583TIP3    H213693   4.067   3.379   6.530
 4584TIP3   OH213694   1.832   3.118   0.404
 4584TIP3    H113695   1.859   3.150   0.318
 4584TIP3    H213696   1.740   3.095   0.394
 4585TIP3   OH213697   0.150   5.413   5.420
 4585TIP3    H113698   0.179   5.325   5.398
 4585TIP3    H213699   0.109   5.405   5.506
 4586TIP3   OH213700   2.194   2.622   1.576
 4586TIP3    H113701   2.215   2.529   1.562
 4586TIP3    H213702   2.278   2.662   1.599
 4587TIP3   OH213703   2.757   2.974   1.607
 4587TIP3    H113704   2.679   2.984   1.552
 4587TIP3    H213705   2.767   3.059   1.650
 4588TIP3   OH213706   5.489   2.088   2.759
 4588TIP3    H113707   5.513   2.010   2.710
 4588TIP3    H213708   5.471   2.056   2.848
 4589TIP3   OH213709   3.858   3.220   5.250
 4589TIP3    H113710   3.837   3.314   5.253
 4589TIP3    H213711   3.891   3.206   5.161
 4590TIP3   OH213712   7.515   6.562   5.943
 4590TIP3    H113713   7.461   6.496   5.986
 4590TIP3    H213714   7.597   6.518   5.923
 4591TIP3   OH213715   3.914   2.269   2.045
 4591TIP3    H113716   3.826   2.304   2.034
 4591TIP3    H213717   3.942   2.247   1.956
 4592TIP3   OH213718   0.158   1.542   1.852
 4592TIP3    H113719   0.067   1.544   1.881
 4592TIP3    H213720   0.154   1.563   1.759
 4593TIP3   OH213721   5.113   0.445   4.020
 4593TIP3    H113722   5.063   0.373   4.059
 4593TIP3    H213723   5.047   0.503   3.983
 4594TIP3   OH213724   0.593   7.822   3.271
 4594TIP3    H113725   0.602   7.871   3.190
 4594TIP3    H213726   0.543   7.745   3.247
 4595TIP3   OH213727   6.872   2.494   6.269
 4595TIP3    H113728   6.921   2.506   6.188
 4595TIP3    H213729   6.904   2.563   6.327
 4596TIP3   OH213730   6.103   6.587   0.512
 4596TIP3    H113731   6.036   6.599   0.580
 4596TIP3    H213732   6.146   6.505   0.536
 4597TIP3   OH213733   0.464   4.692   0.979
 4597TIP3    H113734   0.372   4.675   0.999
 4597TIP3    H213735   0.489   4.763   1.039
 4598TIP3   OH213736   5.627   0.539   0.977
 4598TIP3    H113737   5.576   0.540   0.897
 4598TIP3    H213738   5.693   0.471   0.963
 4599TIP3   OH213739   0.659   0.050   0.909
 4599TIP3    H113740   0.645   0.105   0.987
 4599TIP3    H213741   0.623   0.102   0.837
 4600TIP3   OH213742   6.150   1.660   6.528
 4600TIP3    H113743   6.221   1.648   6.591
 4600TIP3    H213744   6.082   1.599   6.557
 4601TIP3   OH213745   7.884   2.040   2.578
 4601TIP3    H113746   7.822   1.968   2.571
 4601TIP3    H213747   7.882   2.083   2.493
 4602TIP3   OH213748   6.011   0.244   3.401
 4602TIP3    H113749   6.057   0.325   3.382
 4602TIP3    H213750   5.925   0.272   3.434
 4603TIP3   OH213751   4.840   0.359   3.934
 4603TIP3    H113752   4.745   0.356   3.923
 4603TIP3    H213753   4.872   0.287   3.879
 4604TIP3   OH213754   6.573   2.238   1.992
 4604TIP3    H113755   6.512   2.227   2.065
 4604TIP3    H213756   6.527   2.295   1.930
 4605TIP3   OH213757   5.102   6.485   5.074
 4605TIP3    H113758   5.081   6.450   5.160
 4605TIP3    H213759   5.019   6.517   5.039
 4606TIP3   OH213760   4.730   4.114   5.164
 4606TIP3    H113761   4.821   4.119   5.132
 4606TIP3    H213762   4.734   4.051   5.236
 4607TIP3   OH213763   5.490   5.900   4.875
 4607TIP3    H113764   5.489   5.809   4.903
 4607TIP3    H213765   5.408   5.937   4.910
 4608TIP3   OH213766   5.735   6.001   5.226
 4608TIP3    H113767   5.797   5.994   5.299
 4608TIP3    H213768   5.655   6.037   5.266
 4609TIP3   OH213769   1.488   7.334   0.415
 4609TIP3    H113770   1.464   7.264   0.476
 4609TIP3    H213771   1.582   7.345   0.428
 4610TIP3   OH213772   4.688   4.148   3.231
 4610TIP3    H113773   4.648   4.061   3.237
 4610TIP3    H213774   4.742   4.145   3.153
 4611TIP3   OH213775   1.226   6.381   5.549
 4611TIP3    H113776   1.166   6.354   5.618
 4611TIP3    H213777   1.171   6.428   5.487
 4612TIP3   OH213778   3.124   7.374   5.563
 4612TIP3    H113779   3.077   7.362   5.646
 4612TIP3    H213780   3.212   7.339   5.581
 4613TIP3   OH213781   3.041   0.664   6.431
 4613TIP3    H113782   3.089   0.717   6.495
 4613TIP3    H213783   2.967   0.718   6.405
 4614TIP3   OH213784   5.685   5.181   1.062
 4614TIP3    H113785   5.683   5.122   0.987
 4614TIP3    H213786   5.778   5.196   1.078
 4615TIP3   OH213787   2.596   6.345   4.142
 4615TIP3    H113788   2.551   6.273   4.098
 4615TIP3    H213789   2.526   6.405   4.168
 4616TIP3   OH213790   7.671   2.738   5.007
 4616TIP3    H113791   7.703   2.819   4.968
 4616TIP3    H213792   7.747   2.681   5.010
 4617TIP3   OH213793   2.369   3.763   4.418
 4617TIP3    H113794   2.382   3.668   4.421
 4617TIP3    H213795   2.457   3.800   4.419
 4618TIP3   OH213796   1.060   3.290   4.532
 4618TIP3    H113797   1.092   3.203   4.555
 4618TIP3    H213798   0.982   3.302   4.587
 4619TIP3   OH213799   3.616   3.874   5.565
 4619TIP3    H113800   3.582   3.788   5.542
 4619TIP3    H213801   3.544   3.934   5.549
 4620TIP3   OH213802   6.416   6.867   0.543
 4620TIP3    H113803   6.416   6.799   0.476
 4620TIP3    H213804   6.379   6.944   0.500
 4621TIP3   OH213805   6.487   4.059   5.122
 4621TIP3    H113806   6.579   4.038   5.134
 4621TIP3    H213807   6.479   4.151   5.146
 4622TIP3   OH213808   0.083   2.893   2.513
 4622TIP3    H113809   0.053   2.883   2.603
 4622TIP3    H213810   0.004   2.912   2.463
 4623TIP3   OH213811   0.132   2.208   4.945
 4623TIP3    H113812   0.225   2.229   4.947
 4623TIP3    H213813   0.110   2.199   4.852
 4624TIP3   OH213814   4.133   7.616   4.652
 4624TIP3    H113815   4.091   7.630   4.567
 4624TIP3    H213816   4.088   7.539   4.688
 4625TIP3   OH213817   1.481   6.223   4.918
 4625TIP3    H113818   1.399   6.198   4.874
 4625TIP3    H213819   1.456   6.292   4.979
 4626TIP3   OH213820   2.697   6.052   0.526
 4626TIP3    H113821   2.702   6.146   0.507
 4626TIP3    H213822   2.680   6.048   0.621
 4627TIP3   OH213823   6.147  -0.010   3.441
 4627TIP3    H113824   6.067  -0.061   3.455
 4627TIP3    H213825   6.120   0.059   3.380
 4628TIP3   OH213826   7.376   4.376   3.766
 4628TIP3    H113827   7.432   4.431   3.820
 4628TIP3    H213828   7.433   4.305   3.737
 4629TIP3   OH213829   0.409   6.442   2.711
 4629TIP3    H113830   0.455   6.367   2.749
 4629TIP3    H213831   0.330   6.405   2.673
 4630TIP3   OH213832   0.560   5.502   0.410
 4630TIP3    H113833   0.563   5.594   0.437
 4630TIP3    H213834   0.486   5.466   0.459
 4631TIP3   OH213835   3.404   1.272   0.292
 4631TIP3    H113836   3.461   1.197   0.309
 4631TIP3    H213837   3.461   1.338   0.253
 4632TIP3   OH213838   2.710   7.719   1.193
 4632TIP3    H113839   2.753   7.766   1.265
 4632TIP3    H213840   2.732   7.769   1.115
 4633TIP3   OH213841   6.163   0.271   4.722
 4633TIP3    H113842   6.118   0.212   4.783
 4633TIP3    H213843   6.107   0.271   4.644
 4634TIP3   OH213844   4.386   2.015   6.370
 4634TIP3    H113845   4.468   2.060   6.352
 4634TIP3    H213846   4.319   2.069   6.328
 4635TIP3   OH213847   2.727   5.691   1.751
 4635TIP3    H113848   2.817   5.666   1.774
 4635TIP3    H213849   2.674   5.656   1.823
 4636TIP3   OH213850   7.864   4.626   3.014
 4636TIP3    H113851   7.802   4.699   3.008
 4636TIP3    H213852   7.924   4.640   2.941
 4637TIP3   OH213853   7.656   1.468   1.448
 4637TIP3    H113854   7.580   1.494   1.398
 4637TIP3    H213855   7.726   1.526   1.417
 4638TIP3   OH213856   0.810   3.442   5.565
 4638TIP3    H113857   0.766   3.429   5.649
 4638TIP3    H213858   0.744   3.419   5.499
 4639TIP3   OH213859   4.518   6.716   4.937
 4639TIP3    H113860   4.546   6.684   4.851
 4639TIP3    H213861   4.446   6.658   4.962
 4640TIP3   OH213862   1.695   7.486   0.168
 4640TIP3    H113863   1.602   7.491   0.189
 4640TIP3    H213864   1.698   7.485   0.072
 4641TIP3   OH213865   8.279   5.250   3.596
 4641TIP3    H113866   8.211   5.258   3.529
 4641TIP3    H213867   8.358   5.282   3.554
 4642TIP3   OH213868   5.965   3.000   6.616
 4642TIP3    H113869   5.956   3.036   6.528
 4642TIP3    H213870   6.052   2.959   6.616
 4643TIP3   OH213871   7.986   0.951   4.636
 4643TIP3    H113872   7.898   0.917   4.626
 4643TIP3    H213873   7.974   1.040   4.670
 4644TIP3   OH213874   6.498   2.600   3.669
 4644TIP3    H113875   6.563   2.651   3.717
 4644TIP3    H213876   6.417   2.611   3.719
 4645TIP3   OH213877   7.334   1.242   1.581
 4645TIP3    H113878   7.297   1.176   1.522
 4645TIP3    H213879   7.340   1.198   1.666
 4646TIP3   OH213880   6.835   4.634   5.235
 4646TIP3    H113881   6.767   4.681   5.283
 4646TIP3    H213882   6.788   4.586   5.167
 4647TIP3   OH213883   6.753   5.756   6.652
 4647TIP3    H113884   6.662   5.747   6.623
 4647TIP3    H213885   6.801   5.781   6.573
 4648TIP3   OH213886   1.452   1.908   6.284
 4648TIP3    H113887   1.466   1.929   6.376
 4648TIP3    H213888   1.533   1.864   6.257
 4649TIP3   OH213889   3.154   6.814   6.178
 4649TIP3    H113890   3.074   6.821   6.229
 4649TIP3    H213891   3.218   6.867   6.225
 4650TIP3   OH213892   8.018   4.468   1.627
 4650TIP3    H113893   7.998   4.528   1.556
 4650TIP3    H213894   7.953   4.488   1.695
 4651TIP3   OH213895   4.836   2.330   4.233
 4651TIP3    H113896   4.931   2.340   4.243
 4651TIP3    H213897   4.804   2.419   4.218
 4652TIP3   OH213898   4.842   0.644   0.808
 4652TIP3    H113899   4.763   0.607   0.846
 4652TIP3    H213900   4.900   0.569   0.795
 4653TIP3   OH213901   7.986   7.090   2.505
 4653TIP3    H113902   8.067   7.125   2.542
 4653TIP3    H213903   7.979   7.002   2.543
 4654TIP3   OH213904   3.878   3.638   0.105
 4654TIP3    H113905   3.793   3.682   0.103
 4654TIP3    H213906   3.942   3.709   0.096
 4655TIP3   OH213907   7.320   7.635   0.931
 4655TIP3    H113908   7.275   7.692   0.869
 4655TIP3    H213909   7.326   7.688   1.011
 4656TIP3   OH213910   8.243   7.006   0.567
 4656TIP3    H113911   8.200   6.975   0.487
 4656TIP3    H213912   8.228   6.937   0.631
 4657TIP3   OH213913   1.385   3.415   4.742
 4657TIP3    H113914   1.365   3.503   4.775
 4657TIP3    H213915   1.461   3.388   4.794
 4658TIP3   OH213916   3.187   0.283   5.274
 4658TIP3    H113917   3.240   0.337   5.215
 4658TIP3    H213918   3.211   0.313   5.362
 4659TIP3   OH213919   5.945   0.781   5.661
 4659TIP3    H113920   5.893   0.728   5.601
 4659TIP3    H213921   5.882   0.841   5.701
 4660TIP3   OH213922   3.487   2.852   0.249
 4660TIP3    H113923   3.490   2.894   0.335
 4660TIP3    H213924   3.496   2.924   0.186
 4661TIP3   OH213925   0.414   3.516   4.902
 4661TIP3    H113926   0.368   3.472   4.830
 4661TIP3    H213927   0.470   3.449   4.940
 4662TIP3   OH213928   1.195   4.935   0.843
 4662TIP3    H113929   1.270   4.972   0.888
 4662TIP3    H213930   1.152   5.010   0.801
 4663TIP3   OH213931   6.872   3.462   0.023
 4663TIP3    H113932   6.904   3.538   0.072
 4663TIP3    H213933   6.813   3.498  -0.043
 4664TIP3   OH213934   5.323   2.685   1.913
 4664TIP3    H113935   5.407   2.707   1.953
 4664TIP3    H213936   5.345   2.661   1.823
 4665TIP3   OH213937   3.534   4.648   1.800
 4665TIP3    H113938   3.482   4.684   1.728
 4665TIP3    H213939   3.491   4.566   1.822
 4666TIP3   OH213940   6.284   6.276   2.210
 4666TIP3    H113941   6.305   6.277   2.304
 4666TIP3    H213942   6.220   6.346   2.200
 4667TIP3   OH213943   0.023   7.718   3.390
 4667TIP3    H113944   0.007   7.731   3.296
 4667TIP3    H213945   0.007   7.625   3.404
 4668TIP3   OH213946   2.923   3.875   3.178
 4668TIP3    H113947   2.992   3.827   3.133
 4668TIP3    H213948   2.961   3.962   3.194
 4669TIP3   OH213949   4.068   5.696   5.402
 4669TIP3    H113950   4.069   5.756   5.327
 4669TIP3    H213951   3.976   5.672   5.413
 4670TIP3   OH213952   3.560   3.328   2.080
 4670TIP3    H113953   3.465   3.320   2.083
 4670TIP3    H213954   3.585   3.295   1.994
 4671TIP3   OH213955   2.319   3.117   4.499
 4671TIP3    H113956   2.249   3.139   4.438
 4671TIP3    H213957   2.334   3.023   4.485
 4672TIP3   OH213958   7.039   7.102   5.127
 4672TIP3    H113959   6.956   7.062   5.100
 4672TIP3    H213960   7.086   7.117   5.045
 4673TIP3   OH213961   5.994   2.031   3.889
 4673TIP3    H113962   6.064   2.039   3.953
 4673TIP3    H213963   5.976   1.937   3.885
 4674TIP3   OH213964   7.462   1.305   1.903
 4674TIP3    H113965   7.376   1.347   1.915
 4674TIP3    H213966   7.445   1.212   1.917
 4675TIP3   OH213967   7.402   3.307   4.898
 4675TIP3    H113968   7.409   3.255   4.818
 4675TIP3    H213969   7.443   3.391   4.876
 4676TIP3   OH213970   5.419   5.357   2.805
 4676TIP3    H113971   5.476   5.430   2.781
 4676TIP3    H213972   5.454   5.282   2.757
 4677TIP3   OH213973   1.131   0.199   1.263
 4677TIP3    H113974   1.087   0.121   1.229
 4677TIP3    H213975   1.188   0.167   1.333
 4678TIP3   OH213976   0.115   3.210   2.666
 4678TIP3    H113977   0.020   3.219   2.652
 4678TIP3    H213978   0.148   3.174   2.583
 4679TIP3   OH213979   7.532   5.496   6.570
 4679TIP3    H113980   7.599   5.429   6.584
 4679TIP3    H213981   7.571   5.576   6.605
 4680TIP3   OH213982   5.943   2.779   4.281
 4680TIP3    H113983   5.854   2.744   4.278
 4680TIP3    H213984   5.983   2.739   4.358
 4681TIP3   OH213985   5.414   3.752   4.921
 4681TIP3    H113986   5.472   3.823   4.950
 4681TIP3    H213987   5.444   3.731   4.833
 4682TIP3   OH213988   1.616   0.292   6.120
 4682TIP3    H113989   1.550   0.351   6.156
 4682TIP3    H213990   1.679   0.350   6.077
 4683TIP3   OH213991   4.857   6.519   1.276
 4683TIP3    H113992   4.882   6.611   1.262
 4683TIP3    H213993   4.859   6.508   1.371
 4684TIP3   OH213994   3.791   4.337   5.592
 4684TIP3    H113995   3.723   4.303   5.649
 4684TIP3    H213996   3.841   4.260   5.564
 4685TIP3   OH213997   7.771   6.576   6.423
 4685TIP3    H113998   7.806   6.495   6.461
 4685TIP3    H213999   7.833   6.644   6.450
 4686TIP3   OH214000   1.346   7.398   2.360
 4686TIP3    H114001   1.313   7.482   2.392
 4686TIP3    H214002   1.286   7.333   2.397
 4687TIP3   OH214003   4.276   5.096   5.335
 4687TIP3    H114004   4.251   5.028   5.397
 4687TIP3    H214005   4.200   5.105   5.278
 4688TIP3   OH214006   2.891   2.943   0.804
 4688TIP3    H114007   2.978   2.970   0.777
 4688TIP3    H214008   2.834   2.968   0.731
 4689TIP3   OH214009   0.833   1.972   1.150
 4689TIP3    H114010   0.918   1.931   1.135
 4689TIP3    H214011   0.781   1.948   1.074
 4690TIP3   OH214012   6.632   3.550   0.183
 4690TIP3    H114013   6.623   3.502   0.100
 4690TIP3    H214014   6.667   3.485   0.244
 4691TIP3   OH214015   5.019   0.654   1.145
 4691TIP3    H114016   5.095   0.626   1.095
 4691TIP3    H214017   4.957   0.582   1.137
 4692TIP3   OH214018   2.771   0.930   3.327
 4692TIP3    H114019   2.817   0.868   3.382
 4692TIP3    H214020   2.773   1.012   3.376
 4693TIP3   OH214021   5.366   3.954   1.104
 4693TIP3    H114022   5.332   3.983   1.019
 4693TIP3    H214023   5.323   4.012   1.168
 4694TIP3   OH214024   0.079   5.013   0.594
 4694TIP3    H114025   0.137   5.051   0.528
 4694TIP3    H214026   0.137   4.979   0.661
 4695TIP3   OH214027   1.418   2.819   0.818
 4695TIP3    H114028   1.346   2.821   0.755
 4695TIP3    H214029   1.496   2.809   0.764
 4696TIP3   OH214030   5.448   4.704   1.589
 4696TIP3    H114031   5.450   4.662   1.675
 4696TIP3    H214032   5.521   4.665   1.542
 4697TIP3   OH214033   1.562   3.645   2.040
 4697TIP3    H114034   1.545   3.685   2.125
 4697TIP3    H214035   1.499   3.686   1.981
 4698TIP3   OH214036   6.910   6.714   5.640
 4698TIP3    H114037   6.923   6.770   5.563
 4698TIP3    H214038   6.998   6.708   5.679
 4699TIP3   OH214039   7.508   4.136   5.287
 4699TIP3    H114040   7.434   4.108   5.340
 4699TIP3    H214041   7.482   4.118   5.197
 4700TIP3   OH214042   8.028   5.165   1.856
 4700TIP3    H114043   7.944   5.203   1.829
 4700TIP3    H214044   8.004   5.083   1.898
 4701TIP3   OH214045   7.060   0.955   0.109
 4701TIP3    H114046   7.053   0.864   0.138
 4701TIP3    H214047   7.136   0.990   0.155
 4702TIP3   OH214048   6.982   6.725   1.720
 4702TIP3    H114049   6.940   6.640   1.738
 4702TIP3    H214050   6.910   6.788   1.721
 4703TIP3   OH214051   6.791   6.456   1.316
 4703TIP3    H114052   6.849   6.387   1.347
 4703TIP3    H214053   6.847   6.515   1.266
 4704TIP3   OH214054   3.059   3.781   1.307
 4704TIP3    H114055   3.127   3.783   1.239
 4704TIP3    H214056   3.025   3.871   1.310
 4705TIP3   OH214057   7.024   5.453   2.474
 4705TIP3    H114058   7.078   5.446   2.552
 4705TIP3    H214059   7.040   5.372   2.426
 4706TIP3   OH214060   4.203   6.018   4.536
 4706TIP3    H114061   4.279   6.057   4.579
 4706TIP3    H214062   4.159   6.092   4.493
 4707TIP3   OH214063   5.285   3.354   4.762
 4707TIP3    H114064   5.293   3.272   4.713
 4707TIP3    H214065   5.222   3.335   4.831
 4708TIP3   OH214066   2.765   7.232   6.463
 4708TIP3    H114067   2.743   7.230   6.556
 4708TIP3    H214068   2.685   7.263   6.420
 4709TIP3   OH214069   4.508   4.192   3.710
 4709TIP3    H114070   4.458   4.273   3.699
 4709TIP3    H214071   4.475   4.154   3.792
 4710TIP3   OH214072   7.723   1.471   5.082
 4710TIP3    H114073   7.645   1.525   5.088
 4710TIP3    H214074   7.721   1.417   5.161
 4711TIP3   OH214075   5.143   0.355   0.008
 4711TIP3    H114076   5.216   0.379   0.065
 4711TIP3    H214077   5.142   0.259   0.010
 4712TIP3   OH214078   4.753   6.648   2.381
 4712TIP3    H114079   4.793   6.713   2.439
 4712TIP3    H214080   4.827   6.597   2.347
 4713TIP3   OH214081   7.872   4.717   6.764
 4713TIP3    H114082   7.852   4.635   6.720
 4713TIP3    H214083   7.869   4.783   6.695
 4714TIP3   OH214084   4.215   7.106   2.572
 4714TIP3    H114085   4.190   7.198   2.577
 4714TIP3    H214086   4.296   7.105   2.521
 4715TIP3   OH214087   5.010   6.952   5.561
 4715TIP3    H114088   5.046   6.895   5.493
 4715TIP3    H214089   4.915   6.943   5.552
 4716TIP3   OH214090   4.504   1.615   1.145
 4716TIP3    H114091   4.543   1.531   1.168
 4716TIP3    H214092   4.573   1.679   1.161
 4717TIP3   OH214093   6.637   7.350   2.482
 4717TIP3    H114094   6.690   7.292   2.428
 4717TIP3    H214095   6.694   7.425   2.500
 4718TIP3   OH214096   7.568   3.032   1.540
 4718TIP3    H114097   7.518   2.967   1.491
 4718TIP3    H214098   7.606   3.088   1.472
 4719TIP3   OH214099   5.388   0.034   5.239
 4719TIP3    H114100   5.483   0.027   5.247
 4719TIP3    H214101   5.354  -0.034   5.297
 4720TIP3   OH214102   3.428   0.640   2.995
 4720TIP3    H114103   3.490   0.712   3.001
 4720TIP3    H214104   3.376   0.659   2.917
 4721TIP3   OH214105   0.785  -0.008   5.916
 4721TIP3    H114106   0.757   0.027   5.832
 4721TIP3    H214107   0.717   0.020   5.977
 4722TIP3   OH214108   6.890   0.205   1.087
 4722TIP3    H114109   6.856   0.118   1.106
 4722TIP3    H214110   6.823   0.265   1.121
 4723TIP3   OH214111   1.145   5.016   3.563
 4723TIP3    H114112   1.076   5.057   3.510
 4723TIP3    H214113   1.180   4.947   3.506
 4724TIP3   OH214114   2.780   5.172   3.940
 4724TIP3    H114115   2.873   5.163   3.918
 4724TIP3    H214116   2.750   5.246   3.886
 4725TIP3   OH214117   0.112   4.772   1.496
 4725TIP3    H114118   0.158   4.856   1.489
 4725TIP3    H214119   0.034   4.793   1.548
 4726TIP3   OH214120   7.480   1.440   2.702
 4726TIP3    H114121   7.440   1.524   2.725
 4726TIP3    H214122   7.492   1.395   2.785
 4727TIP3   OH214123   0.962   4.312   2.188
 4727TIP3    H114124   0.992   4.342   2.274
 4727TIP3    H214125   0.987   4.382   2.128
 4728TIP3   OH214126   2.846   3.515   3.140
 4728TIP3    H114127   2.851   3.467   3.058
 4728TIP3    H214128   2.778   3.580   3.126
 4729TIP3   OH214129   0.652   2.834   5.560
 4729TIP3    H114130   0.691   2.837   5.473
 4729TIP3    H214131   0.640   2.926   5.584
 4730TIP3   OH214132   2.390   7.004   2.674
 4730TIP3    H114133   2.432   6.931   2.628
 4730TIP3    H214134   2.316   7.027   2.619
 4731TIP3   OH214135   5.685   6.813   3.312
 4731TIP3    H114136   5.653   6.813   3.221
 4731TIP3    H214137   5.710   6.904   3.328
 4732TIP3   OH214138   6.885   7.381   3.793
 4732TIP3    H114139   6.828   7.367   3.869
 4732TIP3    H214140   6.946   7.449   3.822
 4733TIP3   OH214141   5.785   2.610   5.990
 4733TIP3    H114142   5.851   2.555   5.947
 4733TIP3    H214143   5.777   2.572   6.078
 4734TIP3   OH214144   6.238   5.056   3.683
 4734TIP3    H114145   6.229   5.037   3.777
 4734TIP3    H214146   6.260   5.149   3.680
 4735TIP3   OH214147   1.043   4.355   0.242
 4735TIP3    H114148   1.073   4.393   0.159
 4735TIP3    H214149   1.063   4.261   0.234
 4736TIP3   OH214150   3.950   0.439   5.169
 4736TIP3    H114151   4.011   0.426   5.097
 4736TIP3    H214152   3.880   0.493   5.132
 4737TIP3   OH214153   5.437   2.022   1.947
 4737TIP3    H114154   5.511   2.029   1.887
 4737TIP3    H214155   5.424   1.927   1.959
 4738TIP3   OH214156   3.433   0.991   0.960
 4738TIP3    H114157   3.377   0.925   1.001
 4738TIP3    H214158   3.479   1.032   1.033
 4739TIP3   OH214159   3.506   4.818   2.578
 4739TIP3    H114160   3.530   4.731   2.611
 4739TIP3    H214161   3.431   4.802   2.521
 4740TIP3   OH214162   5.552   2.721   5.845
 4740TIP3    H114163   5.496   2.687   5.915
 4740TIP3    H214164   5.640   2.693   5.868
 4741TIP3   OH214165   0.823   7.209   6.449
 4741TIP3    H114166   0.878   7.244   6.519
 4741TIP3    H214167   0.739   7.255   6.459
 4742TIP3   OH214168   2.985   7.171   6.037
 4742TIP3    H114169   2.901   7.130   6.055
 4742TIP3    H214170   3.004   7.222   6.116
 4743TIP3   OH214171   6.053   5.365   0.815
 4743TIP3    H114172   5.958   5.358   0.811
 4743TIP3    H214173   6.084   5.309   0.744
 4744TIP3   OH214174   4.809   6.768   2.044
 4744TIP3    H114175   4.763   6.845   2.076
 4744TIP3    H214176   4.844   6.726   2.123
 4745TIP3   OH214177   4.035   4.872   4.936
 4745TIP3    H114178   4.088   4.924   4.876
 4745TIP3    H214179   3.958   4.925   4.952
 4746TIP3   OH214180   7.952   6.821   1.412
 4746TIP3    H114181   7.874   6.795   1.462
 4746TIP3    H214182   8.025   6.796   1.468
 4747TIP3   OH214183   5.558   0.948   2.450
 4747TIP3    H114184   5.479   0.904   2.417
 4747TIP3    H214185   5.580   1.011   2.381
 4748TIP3   OH214186   6.256   4.666   0.254
 4748TIP3    H114187   6.246   4.734   0.321
 4748TIP3    H214188   6.201   4.697   0.181
 4749TIP3   OH214189   1.342   6.604   6.391
 4749TIP3    H114190   1.314   6.525   6.345
 4749TIP3    H214191   1.343   6.672   6.324
 4750TIP3   OH214192   6.165   4.997   5.423
 4750TIP3    H114193   6.192   4.977   5.513
 4750TIP3    H214194   6.238   5.047   5.387
 4751TIP3   OH214195   6.469   0.095   0.597
 4751TIP3    H114196   6.552   0.081   0.644
 4751TIP3    H214197   6.463   0.020   0.537
 4752TIP3   OH214198   1.827   5.550   2.122
 4752TIP3    H114199   1.892   5.530   2.054
 4752TIP3    H214200   1.822   5.645   2.123
 4753TIP3   OH214201   4.474   1.719   3.117
 4753TIP3    H114202   4.416   1.765   3.055
 4753TIP3    H214203   4.418   1.701   3.192
 4754TIP3   OH214204   5.174   4.638   1.502
 4754TIP3    H114205   5.147   4.551   1.530
 4754TIP3    H214206   5.269   4.640   1.516
 4755TIP3   OH214207   0.194   1.691   2.508
 4755TIP3    H114208   0.185   1.780   2.542
 4755TIP3    H214209   0.246   1.645   2.575
 4756TIP3   OH214210   0.267   4.733   0.513
 4756TIP3    H114211   0.222   4.726   0.428
 4756TIP3    H214212   0.211   4.685   0.574
 4757TIP3   OH214213   1.261   5.991   1.507
 4757TIP3    H114214   1.169   5.998   1.483
 4757TIP3    H214215   1.307   6.039   1.437
 4758TIP3   OH214216   2.637   2.281   5.402
 4758TIP3    H114217   2.709   2.282   5.338
 4758TIP3    H214218   2.562   2.315   5.354
 4759TIP3   OH214219   5.939   7.536   3.076
 4759TIP3    H114220   5.943   7.543   3.171
 4759TIP3    H214221   5.862   7.588   3.052
 4760TIP3   OH214222   6.623   6.298   1.792
 4760TIP3    H114223   6.601   6.332   1.705
 4760TIP3    H214224   6.538   6.278   1.832
 4761TIP3   OH214225   5.560   5.866   5.565
 4761TIP3    H114226   5.639   5.892   5.516
 4761TIP3    H214227   5.526   5.791   5.518
 4762TIP3   OH214228   7.407   7.178   3.613
 4762TIP3    H114229   7.364   7.167   3.698
 4762TIP3    H214230   7.360   7.251   3.572
 4763TIP3   OH214231   5.071   6.119   1.484
 4763TIP3    H114232   5.127   6.114   1.407
 4763TIP3    H214233   5.105   6.194   1.534
 4764TIP3   OH214234   0.716   7.324   2.716
 4764TIP3    H114235   0.742   7.383   2.645
 4764TIP3    H214236   0.721   7.378   2.795
 4765TIP3   OH214237   6.295   4.553   6.386
 4765TIP3    H114238   6.336   4.517   6.308
 4765TIP3    H214239   6.234   4.485   6.415
 4766TIP3   OH214240   2.629   1.390   3.616
 4766TIP3    H114241   2.696   1.380   3.684
 4766TIP3    H214242   2.546   1.389   3.664
 4767TIP3   OH214243   5.400   4.792   4.835
 4767TIP3    H114244   5.346   4.715   4.849
 4767TIP3    H214245   5.476   4.777   4.892
 4768TIP3   OH214246   5.226   6.608   1.776
 4768TIP3    H114247   5.150   6.648   1.733
 4768TIP3    H214248   5.209   6.619   1.869
 4769TIP3   OH214249   0.527   7.156   2.830
 4769TIP3    H114250   0.434   7.164   2.810
 4769TIP3    H214251   0.569   7.219   2.772
 4770TIP3   OH214252   6.133   7.669   4.417
 4770TIP3    H114253   6.083   7.718   4.482
 4770TIP3    H214254   6.080   7.673   4.338
 4771TIP3   OH214255   6.426   1.486   4.858
 4771TIP3    H114256   6.347   1.456   4.813
 4771TIP3    H214257   6.425   1.581   4.846
 4772TIP3   OH214258   1.261   1.733   4.678
 4772TIP3    H114259   1.273   1.819   4.637
 4772TIP3    H214260   1.166   1.720   4.680
 4773TIP3   OH214261   2.331   3.479   2.510
 4773TIP3    H114262   2.361   3.404   2.459
 4773TIP3    H214263   2.253   3.510   2.463
 4774TIP3   OH214264   2.321   3.057   5.062
 4774TIP3    H114265   2.353   3.143   5.088
 4774TIP3    H214266   2.312   3.062   4.967
 4775TIP3   OH214267   1.474   2.327   1.529
 4775TIP3    H114268   1.493   2.316   1.436
 4775TIP3    H214269   1.544   2.385   1.561
 4776TIP3   OH214270   4.791   6.886   0.694
 4776TIP3    H114271   4.735   6.808   0.694
 4776TIP3    H214272   4.860   6.866   0.631
 4777TIP3   OH214273   7.118   5.729   0.664
 4777TIP3    H114274   7.182   5.685   0.720
 4777TIP3    H214275   7.162   5.739   0.580
 4778TIP3   OH214276   4.937   1.989   4.954
 4778TIP3    H114277   5.013   2.046   4.948
 4778TIP3    H214278   4.923   1.976   5.048
 4779TIP3   OH214279   6.189   2.590   2.842
 4779TIP3    H114280   6.226   2.509   2.878
 4779TIP3    H214281   6.164   2.641   2.918
 4780TIP3   OH214282   6.969   2.315   4.608
 4780TIP3    H114283   7.001   2.382   4.548
 4780TIP3    H214284   6.964   2.235   4.555
 4781TIP3   OH214285   3.803   3.883   6.379
 4781TIP3    H114286   3.805   3.795   6.342
 4781TIP3    H214287   3.751   3.934   6.317
 4782TIP3   OH214288   7.833   6.240   4.508
 4782TIP3    H114289   7.915   6.207   4.472
 4782TIP3    H214290   7.815   6.320   4.458
 4783TIP3   OH214291   0.938   0.744   0.512
 4783TIP3    H114292   0.984   0.757   0.594
 4783TIP3    H214293   0.865   0.686   0.534
 4784TIP3   OH214294   5.914   0.500   4.526
 4784TIP3    H114295   5.908   0.412   4.490
 4784TIP3    H214296   5.912   0.558   4.450
 4785TIP3   OH214297   3.285   5.323   6.600
 4785TIP3    H114298   3.319   5.309   6.512
 4785TIP3    H214299   3.360   5.356   6.650
 4786TIP3   OH214300   8.184   5.303   1.052
 4786TIP3    H114301   8.103   5.260   1.027
 4786TIP3    H214302   8.253   5.259   1.002
 4787TIP3   OH214303   1.779   3.490   5.033
 4787TIP3    H114304   1.807   3.449   5.115
 4787TIP3    H214305   1.726   3.565   5.060
 4788TIP3   OH214306   0.535   7.032   0.555
 4788TIP3    H114307   0.473   7.015   0.485
 4788TIP3    H214308   0.481   7.039   0.634
 4789TIP3   OH214309   4.187   5.810   3.197
 4789TIP3    H114310   4.241   5.733   3.180
 4789TIP3    H214311   4.234   5.882   3.155
 4790TIP3   OH214312   2.727   7.575   0.876
 4790TIP3    H114313   2.751   7.489   0.910
 4790TIP3    H214314   2.792   7.592   0.807
 4791TIP3   OH214315   4.894   4.673   2.776
 4791TIP3    H114316   4.862   4.735   2.841
 4791TIP3    H214317   4.857   4.589   2.802
 4792TIP3   OH214318   7.091   0.080   6.111
 4792TIP3    H114319   7.118   0.137   6.183
 4792TIP3    H214320   7.154   0.008   6.114
 4793TIP3   OH214321   5.410   7.047   3.220
 4793TIP3    H114322   5.494   7.014   3.189
 4793TIP3    H214323   5.407   7.137   3.186
 4794TIP3   OH214324   6.743   4.540   2.465
 4794TIP3    H114325   6.783   4.537   2.378
 4794TIP3    H214326   6.746   4.450   2.495
 4795TIP3   OH214327   2.022   4.888   5.302
 4795TIP3    H114328   2.071   4.815   5.265
 4795TIP3    H214329   2.051   4.893   5.393
 4796TIP3   OH214330   7.402   5.031   4.582
 4796TIP3    H114331   7.458   5.109   4.572
 4796TIP3    H214332   7.327   5.048   4.525
 4797TIP3   OH214333   1.210   2.499   6.019
 4797TIP3    H114334   1.303   2.521   6.030
 4797TIP3    H214335   1.179   2.560   5.952
 4798TIP3   OH214336   6.363   0.888   0.520
 4798TIP3    H114337   6.349   0.947   0.446
 4798TIP3    H214338   6.398   0.808   0.480
 4799TIP3   OH214339   2.935   5.186   0.055
 4799TIP3    H114340   2.923   5.257   0.118
 4799TIP3    H214341   3.024   5.155   0.072
 4800TIP3   OH214342   5.558   2.121   1.203
 4800TIP3    H114343   5.487   2.165   1.155
 4800TIP3    H214344   5.551   2.156   1.292
 4801TIP3   OH214345   4.955   7.699   3.349
 4801TIP3    H114346   4.972   7.629   3.412
 4801TIP3    H214347   4.926   7.773   3.403
 4802TIP3   OH214348   7.203   4.737   0.331
 4802TIP3    H114349   7.280   4.754   0.276
 4802TIP3    H214350   7.166   4.824   0.346
 4803TIP3   OH214351   7.552   3.687   1.510
 4803TIP3    H114352   7.516   3.660   1.426
 4803TIP3    H214353   7.642   3.655   1.509
 4804TIP3   OH214354   0.216   7.242   0.620
 4804TIP3    H114355   0.185   7.257   0.531
 4804TIP3    H214356   0.271   7.318   0.640
 4805TIP3   OH214357   7.248   3.062   2.924
 4805TIP3    H114358   7.331   3.079   2.968
 4805TIP3    H214359   7.271   3.050   2.832
 4806TIP3   OH214360   1.835   4.246   5.897
 4806TIP3    H114361   1.781   4.197   5.834
 4806TIP3    H214362   1.812   4.337   5.882
 4807TIP3   OH214363   4.511   3.778   4.515
 4807TIP3    H114364   4.547   3.827   4.442
 4807TIP3    H214365   4.587   3.737   4.557
 4808TIP3   OH214366   5.289   0.987   2.347
 4808TIP3    H114367   5.200   0.951   2.356
 4808TIP3    H214368   5.329   0.933   2.279
 4809TIP3   OH214369   1.779  -0.018   1.171
 4809TIP3    H114370   1.696  -0.056   1.201
 4809TIP3    H214371   1.774   0.074   1.198
 4810TIP3   OH214372   0.678   3.598   5.885
 4810TIP3    H114373   0.648   3.552   5.964
 4810TIP3    H214374   0.773   3.592   5.889
 4811TIP3   OH214375   2.065   3.160   3.983
 4811TIP3    H114376   2.077   3.069   3.955
 4811TIP3    H214377   1.971   3.167   4.000
 4812TIP3   OH214378   2.165   0.646   3.229
 4812TIP3    H114379   2.115   0.579   3.274
 4812TIP3    H214380   2.248   0.604   3.207
 4813TIP3   OH214381   5.634   4.187   5.229
 4813TIP3    H114382   5.651   4.211   5.320
 4813TIP3    H214383   5.594   4.265   5.191
 4814TIP3   OH214384   1.906   1.342   3.753
 4814TIP3    H114385   1.924   1.259   3.797
 4814TIP3    H214386   1.848   1.389   3.814
 4815TIP3   OH214387   0.089   3.897   0.944
 4815TIP3    H114388   0.100   3.948   0.864
 4815TIP3    H214389   0.030   3.826   0.920
 4816TIP3   OH214390   2.997   5.018   4.522
 4816TIP3    H114391   2.916   5.068   4.513
 4816TIP3    H214392   3.022   4.996   4.432
 4817TIP3   OH214393   4.993   7.778   1.306
 4817TIP3    H114394   5.001   7.783   1.401
 4817TIP3    H214395   4.908   7.818   1.287
 4818TIP3   OH214396   7.144   4.463   2.588
 4818TIP3    H114397   7.098   4.544   2.567
 4818TIP3    H214398   7.074   4.399   2.600
 4819TIP3   OH214399   4.325   0.583   1.045
 4819TIP3    H114400   4.379   0.511   1.012
 4819TIP3    H214401   4.386   0.644   1.086
 4820TIP3   OH214402   8.031   7.773   2.765
 4820TIP3    H114403   8.070   7.827   2.696
 4820TIP3    H214404   7.971   7.715   2.719
 4821TIP3   OH214405   0.990   1.240   0.562
 4821TIP3    H114406   1.019   1.327   0.589
 4821TIP3    H214407   0.943   1.256   0.480
 4822TIP3   OH214408   7.222   6.739   1.002
 4822TIP3    H114409   7.247   6.831   1.006
 4822TIP3    H214410   7.218   6.711   1.093
 4823TIP3   OH214411   7.816   6.564   0.808
 4823TIP3    H114412   7.868   6.493   0.769
 4823TIP3    H214413   7.781   6.526   0.889
 4824TIP3   OH214414   1.369   7.460   3.643
 4824TIP3    H114415   1.423   7.381   3.653
 4824TIP3    H214416   1.429   7.533   3.655
 4825TIP3   OH214417   5.613   5.168   0.775
 4825TIP3    H114418   5.539   5.198   0.827
 4825TIP3    H214419   5.675   5.241   0.777
 4826TIP3   OH214420   7.722   1.900   6.420
 4826TIP3    H114421   7.737   1.958   6.346
 4826TIP3    H214422   7.690   1.958   6.489
 4827TIP3   OH214423   4.184   0.694   3.865
 4827TIP3    H114424   4.183   0.774   3.918
 4827TIP3    H214425   4.104   0.698   3.813
 4828TIP3   OH214426   7.851   2.409   3.229
 4828TIP3    H114427   7.939   2.433   3.259
 4828TIP3    H214428   7.808   2.372   3.306
 4829TIP3   OH214429   5.891   7.170   0.325
 4829TIP3    H114430   5.831   7.149   0.253
 4829TIP3    H214431   5.954   7.098   0.325
 4830TIP3   OH214432   6.431   3.014   2.756
 4830TIP3    H114433   6.444   2.920   2.772
 4830TIP3    H214434   6.397   3.048   2.839
 4831TIP3   OH214435   3.324   0.894   4.685
 4831TIP3    H114436   3.413   0.913   4.714
 4831TIP3    H214437   3.319   0.798   4.684
 4832TIP3   OH214438   5.616   5.130   5.491
 4832TIP3    H114439   5.639   5.182   5.414
 4832TIP3    H214440   5.700   5.098   5.524
 4833TIP3   OH214441   4.564   0.712   1.197
 4833TIP3    H114442   4.536   0.795   1.236
 4833TIP3    H214443   4.629   0.678   1.257
 4834TIP3   OH214444   2.230   1.515   6.033
 4834TIP3    H114445   2.325   1.524   6.027
 4834TIP3    H214446   2.213   1.498   6.126
 4835TIP3   OH214447   4.839   1.610   0.955
 4835TIP3    H114448   4.798   1.696   0.963
 4835TIP3    H214449   4.769   1.552   0.925
 4836TIP3   OH214450   6.436   6.056   3.933
 4836TIP3    H114451   6.434   6.005   3.852
 4836TIP3    H214452   6.529   6.063   3.955
 4837TIP3   OH214453   1.298   4.672   2.457
 4837TIP3    H114454   1.272   4.731   2.387
 4837TIP3    H214455   1.392   4.683   2.465
 4838TIP3   OH214456   6.828   6.635   0.141
 4838TIP3    H114457   6.777   6.649   0.221
 4838TIP3    H214458   6.919   6.635   0.171
 4839TIP3   OH214459   0.060   0.371   0.816
 4839TIP3    H114460   0.002   0.423   0.871
 4839TIP3    H214461   0.078   0.292   0.868
 4840TIP3   OH214462   7.005   0.504   3.745
 4840TIP3    H114463   7.054   0.433   3.705
 4840TIP3    H214464   7.056   0.529   3.821
 4841TIP3   OH214465   0.097   3.488   5.423
 4841TIP3    H114466   0.086   3.548   5.498
 4841TIP3    H214467   0.016   3.496   5.374
 4842TIP3   OH214468   2.937   2.329   1.192
 4842TIP3    H114469   2.963   2.240   1.170
 4842TIP3    H214470   2.854   2.342   1.146
 4843TIP3   OH214471   4.239   3.678   2.285
 4843TIP3    H114472   4.213   3.728   2.207
 4843TIP3    H214473   4.187   3.598   2.280
 4844TIP3   OH214474   5.170   3.539   2.309
 4844TIP3    H114475   5.082   3.576   2.316
 4844TIP3    H214476   5.174   3.504   2.220
 4845TIP3   OH214477   4.758   1.875   2.380
 4845TIP3    H114478   4.775   1.862   2.286
 4845TIP3    H214479   4.823   1.941   2.406
 4846TIP3   OH214480   1.486   6.428   1.946
 4846TIP3    H114481   1.551   6.434   1.876
 4846TIP3    H214482   1.403   6.450   1.904
 4847TIP3   OH214483   6.234   2.949   0.810
 4847TIP3    H114484   6.320   2.951   0.768
 4847TIP3    H214485   6.248   2.895   0.888
 4848TIP3   OH214486   1.996   6.730   2.825
 4848TIP3    H114487   1.938   6.719   2.750
 4848TIP3    H214488   2.054   6.653   2.822
 4849TIP3   OH214489   1.182   3.945   3.389
 4849TIP3    H114490   1.123   3.890   3.440
 4849TIP3    H214491   1.198   4.021   3.444
 4850TIP3   OH214492   4.218   4.072   0.514
 4850TIP3    H114493   4.136   4.067   0.464
 4850TIP3    H214494   4.251   3.982   0.515
 4851TIP3   OH214495   7.227   3.806   0.381
 4851TIP3    H114496   7.296   3.778   0.441
 4851TIP3    H214497   7.197   3.726   0.339
 4852TIP3   OH214498   5.860   3.979   3.986
 4852TIP3    H114499   5.877   4.031   3.908
 4852TIP3    H214500   5.945   3.940   4.007
 4853TIP3   OH214501   3.880   6.158   2.695
 4853TIP3    H114502   3.884   6.242   2.740
 4853TIP3    H214503   3.922   6.174   2.610
 4854TIP3   OH214504   5.328   1.162   1.759
 4854TIP3    H114505   5.376   1.084   1.787
 4854TIP3    H214506   5.240   1.130   1.738
 4855TIP3   OH214507   3.845   2.672   5.522
 4855TIP3    H114508   3.781   2.675   5.450
 4855TIP3    H214509   3.803   2.722   5.592
 4856TIP3   OH214510   0.901   4.866   4.743
 4856TIP3    H114511   0.976   4.832   4.693
 4856TIP3    H214512   0.868   4.938   4.689
 4857TIP3   OH214513   6.312   4.489   1.027
 4857TIP3    H114514   6.263   4.418   0.985
 4857TIP3    H214515   6.395   4.449   1.053
 4858TIP3   OH214516   0.338   3.693   0.880
 4858TIP3    H114517   0.293   3.690   0.964
 4858TIP3    H214518   0.418   3.643   0.894
 4859TIP3   OH214519   1.103   1.396   5.832
 4859TIP3    H114520   1.178   1.444   5.798
 4859TIP3    H214521   1.124   1.378   5.923
 4860TIP3   OH214522   3.223   7.708   0.079
 4860TIP3    H114523   3.273   7.784   0.110
 4860TIP3    H214524   3.154   7.697   0.144
 4861TIP3   OH214525   7.234   2.837   2.314
 4861TIP3    H114526   7.288   2.832   2.394
 4861TIP3    H214527   7.293   2.809   2.244
 4862TIP3   OH214528   2.257   4.127   4.353
 4862TIP3    H114529   2.168   4.097   4.371
 4862TIP3    H214530   2.251   4.171   4.268
 4863TIP3   OH214531   7.666   6.391   0.313
 4863TIP3    H114532   7.610   6.466   0.333
 4863TIP3    H214533   7.677   6.394   0.218
 4864TIP3   OH214534   7.433   0.974   2.488
 4864TIP3    H114535   7.423   0.972   2.393
 4864TIP3    H214536   7.528   0.970   2.502
 4865TIP3   OH214537   3.670   2.492   6.434
 4865TIP3    H114538   3.664   2.586   6.419
 4865TIP3    H214539   3.611   2.453   6.370
 4866TIP3   OH214540   2.697   0.890   4.996
 4866TIP3    H114541   2.722   0.980   4.979
 4866TIP3    H214542   2.753   0.837   4.940
 4867TIP3   OH214543  -0.015   4.709   2.888
 4867TIP3    H114544  -0.002   4.625   2.844
 4867TIP3    H214545   0.069   4.754   2.880
 4868TIP3   OH214546   7.018   1.584   2.089
 4868TIP3    H114547   6.944   1.614   2.037
 4868TIP3    H214548   6.994   1.605   2.179
 4869TIP3   OH214549   5.573   7.229   4.697
 4869TIP3    H114550   5.486   7.198   4.723
 4869TIP3    H214551   5.634   7.169   4.740
 4870TIP3   OH214552   2.865   0.714   0.581
 4870TIP3    H114553   2.872   0.802   0.543
 4870TIP3    H214554   2.828   0.729   0.668
 4871TIP3   OH214555   4.396   3.485   3.209
 4871TIP3    H114556   4.480   3.531   3.208
 4871TIP3    H214557   4.382   3.463   3.302
 4872TIP3   OH214558   2.480   2.462   0.391
 4872TIP3    H114559   2.447   2.392   0.446
 4872TIP3    H214560   2.537   2.418   0.327
 4873TIP3   OH214561   5.752   6.871   5.589
 4873TIP3    H114562   5.687   6.866   5.659
 4873TIP3    H214563   5.819   6.807   5.613
 4874TIP3   OH214564   1.400   3.719   0.360
 4874TIP3    H114565   1.477   3.686   0.315
 4874TIP3    H214566   1.431   3.742   0.448
 4875TIP3   OH214567   4.350   7.338   0.555
 4875TIP3    H114568   4.301   7.342   0.637
 4875TIP3    H214569   4.284   7.349   0.487
 4876TIP3   OH214570   0.710   3.972   6.208
 4876TIP3    H114571   0.696   4.065   6.188
 4876TIP3    H214572   0.638   3.950   6.268
 4877TIP3   OH214573   0.040   0.568   5.445
 4877TIP3    H114574   0.014   0.520   5.524
 4877TIP3    H214575   0.099   0.636   5.476
 4878TIP3   OH214576   4.384   5.678   2.841
 4878TIP3    H114577   4.432   5.652   2.762
 4878TIP3    H214578   4.416   5.620   2.909
 4879TIP3   OH214579   6.879   5.997   3.068
 4879TIP3    H114580   6.868   6.033   3.156
 4879TIP3    H214581   6.789   5.981   3.038
 4880TIP3   OH214582   3.834   0.116   5.523
 4880TIP3    H114583   3.828   0.114   5.428
 4880TIP3    H214584   3.894   0.045   5.545
 4881TIP3   OH214585   5.238   1.935   4.571
 4881TIP3    H114586   5.332   1.918   4.564
 4881TIP3    H214587   5.219   1.999   4.502
 4882TIP3   OH214588   0.311   2.827   3.705
 4882TIP3    H114589   0.386   2.862   3.657
 4882TIP3    H214590   0.347   2.751   3.752
 4883TIP3   OH214591   6.809   3.202   5.584
 4883TIP3    H114592   6.802   3.245   5.499
 4883TIP3    H214593   6.839   3.270   5.644
 4884TIP3   OH214594   7.299   5.905   1.226
 4884TIP3    H114595   7.335   5.986   1.191
 4884TIP3    H214596   7.216   5.930   1.265
 4885TIP3   OH214597   4.736   7.656   0.068
 4885TIP3    H114598   4.745   7.748   0.093
 4885TIP3    H214599   4.666   7.656   0.003
 4886TIP3   OH214600   0.460   4.280   1.697
 4886TIP3    H114601   0.527   4.266   1.764
 4886TIP3    H214602   0.506   4.272   1.614
 4887TIP3   OH214603   2.787   6.503   2.024
 4887TIP3    H114604   2.814   6.591   2.000
 4887TIP3    H214605   2.863   6.448   2.005
 4888TIP3   OH214606   5.248   0.576   1.789
 4888TIP3    H114607   5.180   0.618   1.737
 4888TIP3    H214608   5.330   0.601   1.747
 4889TIP3   OH214609   8.245   5.029   3.753
 4889TIP3    H114610   8.242   5.108   3.699
 4889TIP3    H214611   8.173   4.975   3.719
 4890TIP3   OH214612   5.162   4.132   3.738
 4890TIP3    H114613   5.243   4.183   3.732
 4890TIP3    H214614   5.134   4.142   3.829
 4891TIP3   OH214615   7.615   5.122   2.454
 4891TIP3    H114616   7.570   5.151   2.375
 4891TIP3    H214617   7.694   5.177   2.457
 4892TIP3   OH214618   3.795   2.082   3.368
 4892TIP3    H114619   3.865   2.093   3.303
 4892TIP3    H214620   3.722   2.133   3.334
 4893TIP3   OH214621   2.107   4.770   0.598
 4893TIP3    H114622   2.103   4.802   0.508
 4893TIP3    H214623   2.127   4.848   0.649
 4894TIP3   OH214624   2.685   3.125   5.883
 4894TIP3    H114625   2.638   3.112   5.800
 4894TIP3    H214626   2.736   3.044   5.893
 4895TIP3   OH214627   5.046   6.792   3.667
 4895TIP3    H114628   5.117   6.764   3.610
 4895TIP3    H214629   4.968   6.792   3.611
 4896TIP3   OH214630   4.004   7.291   2.389
 4896TIP3    H114631   4.082   7.345   2.379
 4896TIP3    H214632   4.012   7.224   2.320
 4897TIP3   OH214633   2.591  -0.034   4.591
 4897TIP3    H114634   2.513   0.000   4.547
 4897TIP3    H214635   2.570  -0.029   4.684
 4898TIP3   OH214636   5.562   2.672   3.846
 4898TIP3    H114637   5.519   2.628   3.772
 4898TIP3    H214638   5.648   2.631   3.851
 4899TIP3   OH214639   4.245   0.443   1.480
 4899TIP3    H114640   4.263   0.519   1.536
 4899TIP3    H214641   4.157   0.458   1.446
 4900TIP3   OH214642   2.693   5.726   0.498
 4900TIP3    H114643   2.692   5.817   0.470
 4900TIP3    H214644   2.603   5.696   0.487
 4901TIP3   OH214645   2.128   6.265   0.449
 4901TIP3    H114646   2.095   6.300   0.367
 4901TIP3    H214647   2.223   6.273   0.442
 4902TIP3   OH214648   4.364   4.298   1.708
 4902TIP3    H114649   4.320   4.218   1.737
 4902TIP3    H214650   4.457   4.274   1.703
 4903TIP3   OH214651   8.184   5.643   1.306
 4903TIP3    H114652   8.121   5.676   1.242
 4903TIP3    H214653   8.226   5.722   1.341
 4904TIP3   OH214654   7.797   7.861   4.703
 4904TIP3    H114655   7.837   7.786   4.747
 4904TIP3    H214656   7.717   7.878   4.753
 4905TIP3   OH214657   5.861   4.719   1.414
 4905TIP3    H114658   5.777   4.673   1.425
 4905TIP3    H214659   5.836   4.808   1.390
 4906TIP3   OH214660   7.634   0.472   4.250
 4906TIP3    H114661   7.672   0.509   4.330
 4906TIP3    H214662   7.545   0.506   4.248
 4907TIP3   OH214663   4.094   0.145   3.145
 4907TIP3    H114664   4.120   0.138   3.237
 4907TIP3    H214665   4.112   0.236   3.122
 4908TIP3   OH214666   6.425   5.898   6.084
 4908TIP3    H114667   6.475   5.822   6.054
 4908TIP3    H214668   6.491   5.958   6.117
 4909TIP3   OH214669   4.096   5.966   2.132
 4909TIP3    H114670   4.164   5.971   2.065
 4909TIP3    H214671   4.120   5.889   2.184
 4910TIP3   OH214672   5.609   1.865   3.600
 4910TIP3    H114673   5.699   1.891   3.580
 4910TIP3    H214674   5.554   1.923   3.547
 4911TIP3   OH214675   1.227   7.459   1.675
 4911TIP3    H114676   1.169   7.496   1.608
 4911TIP3    H214677   1.312   7.499   1.657
 4912TIP3   OH214678   1.764   6.037   2.001
 4912TIP3    H114679   1.790   6.128   1.988
 4912TIP3    H214680   1.720   6.013   1.920
 4913TIP3   OH214681   3.848   2.770   0.537
 4913TIP3    H114682   3.830   2.692   0.485
 4913TIP3    H214683   3.927   2.748   0.587
 4914TIP3   OH214684   7.094   4.076   6.289
 4914TIP3    H114685   7.148   4.039   6.219
 4914TIP3    H214686   7.114   4.023   6.366
 4915TIP3   OH214687   7.832   1.981   2.045
 4915TIP3    H114688   7.817   1.928   1.966
 4915TIP3    H214689   7.928   1.985   2.053
 4916TIP3   OH214690   3.178   5.315   2.987
 4916TIP3    H114691   3.223   5.288   3.068
 4916TIP3    H214692   3.120   5.386   3.014
 4917TIP3   OH214693   3.866   2.152   1.445
 4917TIP3    H114694   3.935   2.207   1.407
 4917TIP3    H214695   3.846   2.194   1.529
 4918TIP3   OH214696   2.511   3.810   5.069
 4918TIP3    H114697   2.578   3.796   5.001
 4918TIP3    H214698   2.560   3.842   5.145
 4919TIP3   OH214699   2.581   1.452   0.050
 4919TIP3    H114700   2.530   1.532   0.061
 4919TIP3    H214701   2.662   1.468   0.099
 4920TIP3   OH214702   3.824   1.405   6.738
 4920TIP3    H114703   3.838   1.457   6.660
 4920TIP3    H214704   3.897   1.342   6.739
 4921TIP3   OH214705   3.367   2.344   4.737
 4921TIP3    H114706   3.457   2.347   4.705
 4921TIP3    H214707   3.326   2.275   4.687
 4922TIP3   OH214708   5.626   4.730   4.974
 4922TIP3    H114709   5.695   4.722   4.908
 4922TIP3    H214710   5.649   4.665   5.040
 4923TIP3   OH214711   3.943   0.959   0.545
 4923TIP3    H114712   3.859   0.945   0.502
 4923TIP3    H214713   3.922   0.964   0.638
 4924TIP3   OH214714   3.265   1.166   2.218
 4924TIP3    H114715   3.244   1.127   2.133
 4924TIP3    H214716   3.202   1.128   2.279
 4925TIP3   OH214717   7.411   2.730   3.337
 4925TIP3    H114718   7.416   2.637   3.356
 4925TIP3    H214719   7.407   2.736   3.242
 4926TIP3   OH214720   1.306   0.905   4.691
 4926TIP3    H114721   1.324   0.819   4.730
 4926TIP3    H214722   1.278   0.884   4.602
 4927TIP3   OH214723   2.614   1.770   4.878
 4927TIP3    H114724   2.692   1.739   4.832
 4927TIP3    H214725   2.612   1.864   4.861
 4928TIP3   OH214726   3.321   6.158   0.374
 4928TIP3    H114727   3.233   6.182   0.402
 4928TIP3    H214728   3.360   6.115   0.450
 4929TIP3   OH214729   3.244   0.368   2.314
 4929TIP3    H114730   3.301   0.437   2.280
 4929TIP3    H214731   3.300   0.290   2.317
 4930TIP3   OH214732   0.315   0.659   6.228
 4930TIP3    H114733   0.298   0.577   6.181
 4930TIP3    H214734   0.407   0.678   6.212
 4931TIP3   OH214735   6.751   5.872   1.968
 4931TIP3    H114736   6.656   5.879   1.970
 4931TIP3    H214737   6.779   5.930   1.897
 4932TIP3   OH214738   7.978   6.783   1.854
 4932TIP3    H114739   8.009   6.738   1.932
 4932TIP3    H214740   7.886   6.760   1.848
 4933TIP3   OH214741   0.754   2.577   4.256
 4933TIP3    H114742   0.820   2.621   4.201
 4933TIP3    H214743   0.706   2.649   4.296
 4934TIP3   OH214744   8.154   3.002   3.082
 4934TIP3    H114745   8.231   2.946   3.095
 4934TIP3    H214746   8.189   3.091   3.077
 4935TIP3   OH214747   6.703   0.694   0.966
 4935TIP3    H114748   6.630   0.739   1.010
 4935TIP3    H214749   6.780   0.716   1.018
 4936TIP3   OH214750   7.725   2.511   2.466
 4936TIP3    H114751   7.777   2.438   2.500
 4936TIP3    H214752   7.673   2.472   2.395
 4937TIP3   OH214753   5.065   6.276   5.902
 4937TIP3    H114754   5.013   6.198   5.882
 4937TIP3    H214755   5.107   6.256   5.986
 4938TIP3   OH214756   7.851   4.466   6.634
 4938TIP3    H114757   7.876   4.399   6.697
 4938TIP3    H214758   7.843   4.418   6.551
 4939TIP3   OH214759   0.416   4.487   4.177
 4939TIP3    H114760   0.453   4.475   4.264
 4939TIP3    H214761   0.321   4.490   4.190
 4940TIP3   OH214762   8.110   2.117   3.308
 4940TIP3    H114763   8.111   2.077   3.221
 4940TIP3    H214764   8.097   2.210   3.291
 4941TIP3   OH214765   3.242   3.022   5.786
 4941TIP3    H114766   3.337   3.022   5.801
 4941TIP3    H214767   3.212   2.942   5.829
 4942TIP3   OH214768   7.783   2.076   6.192
 4942TIP3    H114769   7.855   2.136   6.174
 4942TIP3    H214770   7.789   2.010   6.124
 4943TIP3   OH214771   1.850   0.022   4.678
 4943TIP3    H114772   1.795   0.099   4.658
 4943TIP3    H214773   1.811  -0.015   4.757
 4944TIP3   OH214774   2.795   5.780   6.407
 4944TIP3    H114775   2.842   5.707   6.447
 4944TIP3    H214776   2.778   5.840   6.480
 4945TIP3   OH214777   6.209   0.078   4.310
 4945TIP3    H114778   6.255   0.069   4.394
 4945TIP3    H214779   6.119   0.051   4.329
 4946TIP3   OH214780   0.810   3.302   3.445
 4946TIP3    H114781   0.869   3.360   3.397
 4946TIP3    H214782   0.736   3.288   3.386
 4947TIP3   OH214783   0.215   6.655   5.211
 4947TIP3    H114784   0.152   6.615   5.271
 4947TIP3    H214785   0.268   6.582   5.180
 4948TIP3   OH214786   3.585   2.797   0.766
 4948TIP3    H114787   3.587   2.778   0.860
 4948TIP3    H214788   3.673   2.831   0.747
 4949TIP3   OH214789   5.803   0.226   6.025
 4949TIP3    H114790   5.894   0.216   6.053
 4949TIP3    H214791   5.778   0.314   6.054
 4950TIP3   OH214792   3.504   6.922   5.302
 4950TIP3    H114793   3.538   6.861   5.369
 4950TIP3    H214794   3.409   6.921   5.315
 4951TIP3   OH214795   3.317   1.077   1.740
 4951TIP3    H114796   3.260   1.029   1.680
 4951TIP3    H214797   3.297   1.040   1.826
 4952TIP3   OH214798   3.610   2.248   2.558
 4952TIP3    H114799   3.586   2.236   2.466
 4952TIP3    H214800   3.613   2.343   2.570
 4953TIP3   OH214801   8.207   0.850   4.996
 4953TIP3    H114802   8.298   0.824   5.010
 4953TIP3    H214803   8.191   0.917   5.063
 4954TIP3   OH214804   7.040   4.836   4.433
 4954TIP3    H114805   6.968   4.804   4.487
 4954TIP3    H214806   7.073   4.913   4.480
 4955TIP3   OH214807   1.823   0.872   3.840
 4955TIP3    H114808   1.755   0.845   3.901
 4955TIP3    H214809   1.776   0.897   3.761
 4956TIP3   OH214810   3.744   1.700   5.950
 4956TIP3    H114811   3.807   1.677   6.018
 4956TIP3    H214812   3.780   1.778   5.909
 4957TIP3   OH214813   6.479   6.488   0.859
 4957TIP3    H114814   6.491   6.508   0.952
 4957TIP3    H214815   6.522   6.403   0.847
 4958TIP3   OH214816   8.178   6.008   5.358
 4958TIP3    H114817   8.167   5.916   5.336
 4958TIP3    H214818   8.131   6.055   5.288
 4959TIP3   OH214819   5.184   0.982   2.066
 4959TIP3    H114820   5.261   0.929   2.083
 4959TIP3    H214821   5.132   0.931   2.004
 4960TIP3   OH214822   5.579   4.440   2.459
 4960TIP3    H114823   5.594   4.513   2.399
 4960TIP3    H214824   5.521   4.381   2.411
 4961TIP3   OH214825   7.307   1.431   0.834
 4961TIP3    H114826   7.292   1.386   0.917
 4961TIP3    H214827   7.289   1.523   0.852
 4962TIP3   OH214828   4.474   4.141   1.477
 4962TIP3    H114829   4.519   4.223   1.456
 4962TIP3    H214830   4.459   4.099   1.393
 4963TIP3   OH214831   2.037   7.056   3.108
 4963TIP3    H114832   2.065   7.082   3.195
 4963TIP3    H214833   1.955   7.009   3.122
 4964TIP3   OH214834   6.348   1.494   2.239
 4964TIP3    H114835   6.395   1.422   2.198
 4964TIP3    H214836   6.393   1.573   2.209
 4965TIP3   OH214837   3.993   2.854   4.166
 4965TIP3    H114838   4.009   2.873   4.073
 4965TIP3    H214839   3.948   2.932   4.199
 4966TIP3   OH214840   0.310   7.279   5.488
 4966TIP3    H114841   0.257   7.329   5.426
 4966TIP3    H214842   0.399   7.312   5.476
 4967TIP3   OH214843   2.915   3.319   0.166
 4967TIP3    H114844   2.901   3.403   0.210
 4967TIP3    H214845   2.832   3.299   0.124
 4968TIP3   OH214846   0.912   7.020   0.357
 4968TIP3    H114847   0.956   7.051   0.277
 4968TIP3    H214848   0.864   6.942   0.329
 4969TIP3   OH214849   3.498   5.249   1.187
 4969TIP3    H114850   3.581   5.293   1.173
 4969TIP3    H214851   3.468   5.224   1.100
 4970TIP3   OH214852   6.046   2.142   6.191
 4970TIP3    H114853   6.127   2.115   6.149
 4970TIP3    H214854   6.064   2.136   6.285
 4971TIP3   OH214855   4.131   4.570   2.806
 4971TIP3    H114856   4.176   4.568   2.721
 4971TIP3    H214857   4.199   4.593   2.869
 4972TIP3   OH214858   0.323   6.343  -0.047
 4972TIP3    H114859   0.334   6.407   0.024
 4972TIP3    H214860   0.412   6.314  -0.067
 4973TIP3   OH214861   2.435   1.168   0.466
 4973TIP3    H114862   2.510   1.197   0.414
 4973TIP3    H214863   2.465   1.088   0.509
 4974TIP3   OH214864   0.823   3.464   2.160
 4974TIP3    H114865   0.841   3.372   2.143
 4974TIP3    H214866   0.870   3.511   2.091
 4975TIP3   OH214867   4.551   2.751   5.604
 4975TIP3    H114868   4.518   2.740   5.693
 4975TIP3    H214869   4.638   2.710   5.607
 4976TIP3   OH214870   1.840   2.248   0.287
 4976TIP3    H114871   1.775   2.193   0.243
 4976TIP3    H214872   1.907   2.263   0.221
 4977TIP3   OH214873   3.337   4.932   3.498
 4977TIP3    H114874   3.395   4.886   3.558
 4977TIP3    H214875   3.395   4.974   3.435
 4978TIP3   OH214876   1.062   7.563   3.275
 4978TIP3    H114877   1.057   7.508   3.196
 4978TIP3    H214878   0.971   7.580   3.298
 4979TIP3   OH214879   7.720   0.564   5.685
 4979TIP3    H114880   7.736   0.615   5.764
 4979TIP3    H214881   7.629   0.583   5.662
 4980TIP3   OH214882   4.043   0.796   5.011
 4980TIP3    H114883   3.961   0.748   5.026
 4980TIP3    H214884   4.015   0.878   4.971
 4981TIP3   OH214885   1.421   5.129   4.711
 4981TIP3    H114886   1.391   5.209   4.668
 4981TIP3    H214887   1.340   5.082   4.732
 4982TIP3   OH214888   4.393   4.915   6.046
 4982TIP3    H114889   4.452   4.990   6.054
 4982TIP3    H214890   4.306   4.954   6.046
 4983TIP3   OH214891   1.810   3.044   6.203
 4983TIP3    H114892   1.820   2.954   6.172
 4983TIP3    H214893   1.787   3.035   6.295
 4984TIP3   OH214894   0.038   4.364   0.435
 4984TIP3    H114895   0.129   4.365   0.467
 4984TIP3    H214896  -0.006   4.300   0.491
 4985TIP3   OH214897   8.104   2.940   4.923
 4985TIP3    H114898   8.161   2.966   4.996
 4985TIP3    H214899   8.146   2.863   4.885
 4986TIP3   OH214900   2.884   5.579   0.202
 4986TIP3    H114901   2.924   5.497   0.174
 4986TIP3    H214902   2.805   5.553   0.249
 4987TIP3   OH214903   2.961   1.767   0.760
 4987TIP3    H114904   2.989   1.720   0.681
 4987TIP3    H214905   2.880   1.811   0.734
 4988TIP3   OH214906   0.023   7.307   0.926
 4988TIP3    H114907   0.000   7.373   0.992
 4988TIP3    H214908   0.073   7.241   0.975
 4989TIP3   OH214909   5.816   7.239   3.030
 4989TIP3    H114910   5.864   7.292   3.093
 4989TIP3    H214911   5.870   7.240   2.951
 4990TIP3   OH214912   0.713   7.565   3.569
 4990TIP3    H114913   0.758   7.533   3.490
 4990TIP3    H214914   0.620   7.545   3.553
 4991TIP3   OH214915   3.617   6.324   1.236
 4991TIP3    H114916   3.650   6.280   1.315
 4991TIP3    H214917   3.694   6.368   1.200
 4992TIP3   OH214918   0.960   0.115   6.731
 4992TIP3    H114919   1.012   0.183   6.775
 4992TIP3    H214920   0.984   0.121   6.639
 4993TIP3   OH214921   5.077   4.705   5.811
 4993TIP3    H114922   5.029   4.711   5.894
 4993TIP3    H214923   5.009   4.706   5.744
 4994TIP3   OH214924   1.976   6.874   2.054
 4994TIP3    H114925   1.924   6.954   2.066
 4994TIP3    H214926   1.959   6.848   1.963
 4995TIP3   OH214927   2.938   3.940   6.481
 4995TIP3    H114928   2.995   3.876   6.438
 4995TIP3    H214929   2.978   4.024   6.462
 4996TIP3   OH214930   4.728   5.780   0.063
 4996TIP3    H114931   4.815   5.816   0.047
 4996TIP3    H214932   4.710   5.726  -0.014
 4997TIP3   OH214933   2.817   1.240   6.391
 4997TIP3    H114934   2.782   1.155   6.420
 4997TIP3    H214935   2.745   1.280   6.343
 4998TIP3   OH214936   0.258   3.857   1.362
 4998TIP3    H114937   0.233   3.922   1.297
 4998TIP3    H214938   0.284   3.909   1.439
 4999TIP3   OH214939   5.232   0.669   6.050
 4999TIP3    H114940   5.306   0.729   6.054
 4999TIP3    H214941   5.262   0.598   5.993
 5000TIP3   OH214942   5.898   3.975   2.431
 5000TIP3    H114943   5.987   4.008   2.444
 5000TIP3    H214944   5.844   4.027   2.490
 5001TIP3   OH214945   3.930   5.187   1.558
 5001TIP3    H114946   3.969   5.248   1.620
 5001TIP3    H214947   3.976   5.204   1.475
 5002TIP3   OH214948   2.270   6.080   3.638
 5002TIP3    H114949   2.234   6.018   3.701
 5002TIP3    H214950   2.266   6.034   3.554
 5003TIP3   OH214951   4.991   6.798   5.823
 5003TIP3    H114952   4.896   6.793   5.837
 5003TIP3    H214953   5.022   6.709   5.839
 5004TIP3   OH214954   7.334   3.363   2.805
 5004TIP3    H114955   7.302   3.361   2.895
 5004TIP3    H214956   7.402   3.431   2.806
 5005TIP3   OH214957   4.114   4.795   6.651
 5005TIP3    H114958   4.091   4.718   6.599
 5005TIP3    H214959   4.133   4.759   6.738
 5006TIP3   OH214960   6.135   7.538   6.045
 5006TIP3    H114961   6.119   7.626   6.079
 5006TIP3    H214962   6.092   7.537   5.960
 5007TIP3   OH214963   2.395   5.154   3.092
 5007TIP3    H114964   2.432   5.090   3.031
 5007TIP3    H214965   2.321   5.108   3.132
 5008TIP3   OH214966   2.536   3.101   0.351
 5008TIP3    H114967   2.486   3.025   0.382
 5008TIP3    H214968   2.555   3.080   0.260
 5009TIP3   OH214969   6.897   5.386   3.625
 5009TIP3    H114970   6.921   5.295   3.639
 5009TIP3    H214971   6.886   5.393   3.530
 5010TIP3   OH214972   7.688   0.213   6.220
 5010TIP3    H114973   7.719   0.189   6.132
 5010TIP3    H214974   7.753   0.174   6.279
 5011TIP3   OH214975   3.319   5.520   3.233
 5011TIP3    H114976   3.316   5.537   3.139
 5011TIP3    H214977   3.239   5.560   3.267
 5012TIP3   OH214978   4.679   2.174   5.321
 5012TIP3    H114979   4.683   2.235   5.395
 5012TIP3    H214980   4.732   2.214   5.253
 5013TIP3   OH214981   5.156   0.147   5.917
 5013TIP3    H114982   5.207   0.218   5.878
 5013TIP3    H214983   5.071   0.186   5.936
 5014TIP3   OH214984   4.722   7.043   5.502
 5014TIP3    H114985   4.652   6.995   5.546
 5014TIP3    H214986   4.682   7.075   5.421
 5015TIP3   OH214987   7.730   3.727   4.060
 5015TIP3    H114988   7.660   3.778   4.020
 5015TIP3    H214989   7.798   3.791   4.082
 5016TIP3   OH214990   6.071   5.371   6.203
 5016TIP3    H114991   5.986   5.335   6.177
 5016TIP3    H214992   6.087   5.334   6.290
 5017TIP3   OH214993   3.192   0.666   4.086
 5017TIP3    H114994   3.227   0.585   4.049
 5017TIP3    H214995   3.123   0.637   4.146
 5018TIP3   OH214996   5.616   6.226   6.749
 5018TIP3    H114997   5.619   6.320   6.728
 5018TIP3    H214998   5.618   6.183   6.663
 5019TIP3   OH214999   0.618   2.578   6.448
 5019TIP3    H115000   0.564   2.639   6.398
 5019TIP3    H215001   0.694   2.561   6.393
 5020TIP3   OH215002   8.234   1.920   0.292
 5020TIP3    H115003   8.172   1.847   0.295
 5020TIP3    H215004   8.248   1.942   0.384
 5021TIP3   OH215005   1.927   7.758   4.227
 5021TIP3    H115006   1.999   7.771   4.166
 5021TIP3    H215007   1.858   7.716   4.175
 5022TIP3   OH215008   3.195   7.567   1.739
 5022TIP3    H115009   3.154   7.534   1.659
 5022TIP3    H215010   3.288   7.573   1.719
 5023TIP3   OH215011   3.726   7.387   4.774
 5023TIP3    H115012   3.772   7.314   4.732
 5023TIP3    H215013   3.797   7.440   4.813
 5024TIP3   OH215014   0.183   5.728   4.571
 5024TIP3    H115015   0.264   5.687   4.602
 5024TIP3    H215016   0.152   5.669   4.502
 5025TIP3   OH215017   6.053   3.874   3.411
 5025TIP3    H115018   6.106   3.936   3.461
 5025TIP3    H215019   6.102   3.792   3.415
 5026TIP3   OH215020   6.295   0.171   1.656
 5026TIP3    H115021   6.369   0.120   1.690
 5026TIP3    H215022   6.227   0.106   1.640
 5027TIP3   OH215023   4.906   4.613   4.171
 5027TIP3    H115024   4.904   4.707   4.157
 5027TIP3    H215025   4.835   4.597   4.235
 5028TIP3   OH215026   5.635   6.204   5.768
 5028TIP3    H115027   5.552   6.158   5.755
 5028TIP3    H215028   5.680   6.196   5.683
 5029TIP3   OH215029   6.196   1.354   2.421
 5029TIP3    H115030   6.211   1.266   2.386
 5029TIP3    H215031   6.228   1.413   2.353
 5030TIP3   OH215032   5.875   4.207   4.213
 5030TIP3    H115033   5.880   4.230   4.120
 5030TIP3    H215034   5.843   4.116   4.213
 5031TIP3   OH215035   3.310   1.686   4.802
 5031TIP3    H115036   3.364   1.765   4.797
 5031TIP3    H215037   3.335   1.645   4.885
 5032TIP3   OH215038   1.007   0.778   2.783
 5032TIP3    H115039   0.997   0.842   2.712
 5032TIP3    H215040   1.075   0.816   2.839
 5033TIP3   OH215041   6.223   3.541   4.815
 5033TIP3    H115042   6.179   3.605   4.760
 5033TIP3    H215043   6.152   3.490   4.855
 5034TIP3   OH215044   0.996   6.412   4.770
 5034TIP3    H115045   1.082   6.431   4.733
 5034TIP3    H215046   0.998   6.450   4.857
 5035TIP3   OH215047   6.601   7.345   3.641
 5035TIP3    H115048   6.623   7.274   3.702
 5035TIP3    H215049   6.653   7.326   3.562
 5036TIP3   OH215050   5.768   5.204   3.238
 5036TIP3    H115051   5.702   5.164   3.180
 5036TIP3    H215052   5.741   5.295   3.245
 5037TIP3   OH215053   6.463   3.693   4.631
 5037TIP3    H115054   6.416   3.684   4.548
 5037TIP3    H215055   6.410   3.755   4.681
 5038TIP3   OH215056   1.672   2.819   5.920
 5038TIP3    H115057   1.646   2.821   5.828
 5038TIP3    H215058   1.591   2.831   5.969
 5039TIP3   OH215059   3.516   6.355   0.448
 5039TIP3    H115060   3.460   6.298   0.394
 5039TIP3    H215061   3.465   6.435   0.460
 5040TIP3   OH215062   5.170   0.812   0.448
 5040TIP3    H115063   5.200   0.902   0.463
 5040TIP3    H215064   5.137   0.812   0.359
 5041TIP3   OH215065   2.931   3.159   5.630
 5041TIP3    H115066   2.938   3.254   5.627
 5041TIP3    H215067   2.886   3.135   5.549
 5042TIP3   OH215068   4.481   6.472   5.817
 5042TIP3    H115069   4.536   6.549   5.834
 5042TIP3    H215070   4.544   6.402   5.799
 5043TIP3   OH215071   7.032   1.276   3.637
 5043TIP3    H115072   6.991   1.315   3.714
 5043TIP3    H215073   6.978   1.200   3.616
 5044TIP3   OH215074   2.896   6.087   2.778
 5044TIP3    H115075   2.825   6.043   2.824
 5044TIP3    H215076   2.878   6.181   2.790
 5045TIP3   OH215077   7.042   2.370   5.256
 5045TIP3    H115078   7.107   2.405   5.317
 5045TIP3    H215079   6.963   2.360   5.308
 5046TIP3   OH215080   4.329   3.611   5.338
 5046TIP3    H115081   4.284   3.666   5.402
 5046TIP3    H215082   4.283   3.527   5.343
 5047TIP3   OH215083   2.367   4.574   4.041
 5047TIP3    H115084   2.284   4.620   4.026
 5047TIP3    H215085   2.426   4.608   3.974
 5048TIP3   OH215086   3.791   5.565   1.934
 5048TIP3    H115087   3.811   5.478   1.898
 5048TIP3    H215088   3.730   5.603   1.871
 5049TIP3   OH215089   4.429   7.607   1.175
 5049TIP3    H115090   4.492   7.538   1.154
 5049TIP3    H215091   4.460   7.645   1.257
 5050TIP3   OH215092   3.482   5.079   1.437
 5050TIP3    H115093   3.576   5.067   1.423
 5050TIP3    H215094   3.452   5.127   1.360
 5051TIP3   OH215095   0.489   6.378   6.341
 5051TIP3    H115096   0.472   6.363   6.434
 5051TIP3    H215097   0.561   6.318   6.320
 5052TIP3   OH215098   7.497   1.206   6.442
 5052TIP3    H115099   7.425   1.262   6.472
 5052TIP3    H215100   7.475   1.186   6.351
 5053TIP3   OH215101   7.337   6.824   6.322
 5053TIP3    H115102   7.276   6.788   6.257
 5053TIP3    H215103   7.418   6.775   6.309
 5054TIP3   OH215104   2.523   0.286   0.788
 5054TIP3    H115105   2.433   0.277   0.759
 5054TIP3    H215106   2.573   0.306   0.708
 5055TIP3   OH215107   1.725   5.174   2.984
 5055TIP3    H115108   1.653   5.222   3.023
 5055TIP3    H215109   1.803   5.201   3.033
 5056TIP3   OH215110   6.781   1.290   1.944
 5056TIP3    H115111   6.758   1.292   2.037
 5056TIP3    H215112   6.787   1.382   1.919
 5057TIP3   OH215113   2.022   7.035   5.710
 5057TIP3    H115114   1.948   7.090   5.737
 5057TIP3    H215115   1.989   6.945   5.716
 5058TIP3   OH215116   8.235   4.843   6.647
 5058TIP3    H115117   8.177   4.767   6.651
 5058TIP3    H215118   8.177   4.919   6.656
 5059TIP3   OH215119   1.945   6.389   3.332
 5059TIP3    H115120   1.901   6.312   3.368
 5059TIP3    H215121   1.968   6.441   3.409
 5060TIP3   OH215122   3.512   3.378   1.190
 5060TIP3    H115123   3.546   3.464   1.166
 5060TIP3    H215124   3.582   3.339   1.243
 5061TIP3   OH215125   3.392   2.084   6.667
 5061TIP3    H115126   3.344   2.130   6.598
 5061TIP3    H215127   3.368   2.129   6.747
 5062TIP3   OH215128   0.824   6.100   5.629
 5062TIP3    H115129   0.802   6.140   5.713
 5062TIP3    H215130   0.764   6.141   5.566
 5063TIP3   OH215131   4.259   6.677   4.774
 5063TIP3    H115132   4.326   6.738   4.744
 5063TIP3    H215133   4.197   6.671   4.702
 5064TIP3   OH215134   5.822   0.402   2.748
 5064TIP3    H115135   5.755   0.459   2.784
 5064TIP3    H215136   5.775   0.343   2.688
 5065TIP3   OH215137   4.171   4.902   1.872
 5065TIP3    H115138   4.188   4.980   1.820
 5065TIP3    H215139   4.242   4.900   1.937
 5066TIP3   OH215140   0.348   5.816   1.233
 5066TIP3    H115141   0.290   5.799   1.158
 5066TIP3    H215142   0.364   5.729   1.271
 5067TIP3   OH215143   2.919   4.089   3.518
 5067TIP3    H115144   3.005   4.058   3.489
 5067TIP3    H215145   2.936   4.130   3.603
 5068TIP3   OH215146   2.977   2.095   4.049
 5068TIP3    H115147   2.923   2.026   4.087
 5068TIP3    H215148   3.044   2.048   4.000
 5069TIP3   OH215149   4.531   6.834   2.882
 5069TIP3    H115150   4.530   6.811   2.975
 5069TIP3    H215151   4.472   6.910   2.876
 5070TIP3   OH215152   6.683   7.659   2.702
 5070TIP3    H115153   6.702   7.747   2.670
 5070TIP3    H215154   6.740   7.648   2.779
 5071TIP3   OH215155   3.025   3.169   3.914
 5071TIP3    H115156   3.042   3.240   3.976
 5071TIP3    H215157   2.996   3.213   3.834
 5072TIP3   OH215158   4.202   0.470   2.745
 5072TIP3    H115159   4.169   0.549   2.788
 5072TIP3    H215160   4.151   0.464   2.664
 5073TIP3   OH215161   7.240   5.181   3.847
 5073TIP3    H115162   7.270   5.148   3.932
 5073TIP3    H215163   7.242   5.276   3.855
 5074TIP3   OH215164   4.222   4.518   1.601
 5074TIP3    H115165   4.300   4.555   1.558
 5074TIP3    H215166   4.253   4.439   1.645
 5075TIP3   OH215167   3.749   6.904   0.599
 5075TIP3    H115168   3.754   6.810   0.584
 5075TIP3    H215169   3.836   6.937   0.577
 5076TIP3   OH215170   7.945   1.491   0.457
 5076TIP3    H115171   7.854   1.483   0.486
 5076TIP3    H215172   7.958   1.417   0.398
 5077TIP3   OH215173   3.154   2.336   3.371
 5077TIP3    H115174   3.110   2.271   3.316
 5077TIP3    H215175   3.226   2.288   3.411
 5078TIP3   OH215176   1.509   6.460   1.456
 5078TIP3    H115177   1.428   6.509   1.444
 5078TIP3    H215178   1.575   6.512   1.410
 5079TIP3   OH215179   3.213   0.369   5.545
 5079TIP3    H115180   3.302   0.402   5.553
 5079TIP3    H215181   3.157   0.444   5.564
 5080TIP3   OH215182   1.435   0.745   1.803
 5080TIP3    H115183   1.452   0.775   1.892
 5080TIP3    H215184   1.515   0.764   1.754
 5081TIP3   OH215185   2.621   0.299   6.500
 5081TIP3    H115186   2.699   0.296   6.555
 5081TIP3    H215187   2.554   0.337   6.556
 5082TIP3   OH215188   5.800   5.516   5.988
 5082TIP3    H115189   5.715   5.508   6.030
 5082TIP3    H215190   5.853   5.565   6.052
 5083TIP3   OH215191   0.316   3.764   2.224
 5083TIP3    H115192   0.379   3.742   2.292
 5083TIP3    H215193   0.281   3.849   2.250
 5084TIP3   OH215194   7.685   3.778   4.923
 5084TIP3    H115195   7.761   3.739   4.967
 5084TIP3    H215196   7.669   3.720   4.848
 5085TIP3   OH215197   6.402   6.276   3.015
 5085TIP3    H115198   6.436   6.359   3.047
 5085TIP3    H215199   6.476   6.235   2.971
 5086TIP3   OH215200   4.189   2.485   0.630
 5086TIP3    H115201   4.277   2.514   0.607
 5086TIP3    H215202   4.170   2.415   0.567
 5087TIP3   OH215203   3.622   7.760   3.931
 5087TIP3    H115204   3.582   7.739   3.846
 5087TIP3    H215205   3.679   7.834   3.914
 5088TIP3   OH215206   3.641   7.690   3.509
 5088TIP3    H115207   3.604   7.612   3.551
 5088TIP3    H215208   3.574   7.719   3.448
 5089TIP3   OH215209   5.417   1.931   1.596
 5089TIP3    H115210   5.337   1.939   1.647
 5089TIP3    H215211   5.478   1.886   1.654
 5090TIP3   OH215212   3.422   5.807   4.786
 5090TIP3    H115213   3.395   5.784   4.875
 5090TIP3    H215214   3.344   5.848   4.748
 5091TIP3   OH215215   6.342   7.355   6.122
 5091TIP3    H115216   6.292   7.431   6.092
 5091TIP3    H215217   6.339   7.293   6.050
 5092TIP3   OH215218   1.342   2.061   5.541
 5092TIP3    H115219   1.280   2.000   5.500
 5092TIP3    H215220   1.426   2.014   5.539
 5093TIP3   OH215221   3.999   4.507   5.633
 5093TIP3    H115222   3.918   4.460   5.616
 5093TIP3    H215223   4.002   4.575   5.565
 5094TIP3   OH215224   1.824   0.601   2.809
 5094TIP3    H115225   1.798   0.692   2.794
 5094TIP3    H215226   1.837   0.596   2.904
 5095TIP3   OH215227   6.984   0.904   6.416
 5095TIP3    H115228   7.017   0.990   6.392
 5095TIP3    H215229   6.911   0.888   6.356
 5096TIP3   OH215230   6.446   5.877   3.690
 5096TIP3    H115231   6.529   5.879   3.642
 5096TIP3    H215232   6.390   5.819   3.638
 5097TIP3   OH215233   8.004   2.669   6.045
 5097TIP3    H115234   8.020   2.616   5.967
 5097TIP3    H215235   7.923   2.716   6.026
 5098TIP3   OH215236   5.861   7.106   1.220
 5098TIP3    H115237   5.874   7.013   1.233
 5098TIP3    H215238   5.900   7.125   1.135
 5099TIP3   OH215239   6.463   1.398  -0.024
 5099TIP3    H115240   6.538   1.349   0.009
 5099TIP3    H215241   6.396   1.388   0.044
 5100TIP3   OH215242   3.276   4.168   2.167
 5100TIP3    H115243   3.288   4.141   2.258
 5100TIP3    H215244   3.365   4.174   2.132
 5101TIP3   OH215245   1.798   5.310   0.214
 5101TIP3    H115246   1.825   5.222   0.237
 5101TIP3    H215247   1.872   5.347   0.166
 5102TIP3   OH215248   7.840   6.282   5.618
 5102TIP3    H115249   7.921   6.231   5.611
 5102TIP3    H215250   7.851   6.333   5.698
 5103TIP3   OH215251   2.305   2.840   1.302
 5103TIP3    H115252   2.276   2.879   1.385
 5103TIP3    H215253   2.247   2.877   1.236
 5104TIP3   OH215254   7.003   6.060   5.320
 5104TIP3    H115255   7.002   6.150   5.289
 5104TIP3    H215256   6.917   6.049   5.361
 5105TIP3   OH215257   6.246   1.051   0.301
 5105TIP3    H115258   6.159   1.037   0.340
 5105TIP3    H215259   6.236   1.130   0.248
 5106TIP3   OH215260   6.945   0.466   6.143
 5106TIP3    H115261   7.028   0.426   6.169
 5106TIP3    H215262   6.888   0.392   6.122
 5107TIP3   OH215263   2.620   0.948   2.380
 5107TIP3    H115264   2.715   0.956   2.369
 5107TIP3    H215265   2.599   1.008   2.451
 5108TIP3   OH215266   2.860   0.801   5.634
 5108TIP3    H115267   2.766   0.816   5.625
 5108TIP3    H215268   2.896   0.884   5.665
 5109TIP3   OH215269   0.768   7.855   0.215
 5109TIP3    H115270   0.843   7.797   0.209
 5109TIP3    H215271   0.713   7.817   0.283
 5110TIP3   OH215272   4.768   5.719   4.056
 5110TIP3    H115273   4.746   5.671   3.976
 5110TIP3    H215274   4.713   5.679   4.123
 5111TIP3   OH215275   1.597   5.029   0.623
 5111TIP3    H115276   1.583   5.020   0.717
 5111TIP3    H215277   1.690   5.009   0.610
 5112TIP3   OH215278   5.291   2.505   2.546
 5112TIP3    H115279   5.301   2.581   2.603
 5112TIP3    H215280   5.335   2.434   2.593
 5113TIP3   OH215281   6.501   4.755   1.447
 5113TIP3    H115282   6.586   4.801   1.449
 5113TIP3    H215283   6.481   4.738   1.539
 5114TIP3   OH215284   3.736   6.435   1.672
 5114TIP3    H115285   3.749   6.415   1.579
 5114TIP3    H215286   3.663   6.378   1.698
 5115TIP3   OH215287   1.482   3.979   5.404
 5115TIP3    H115288   1.393   3.967   5.436
 5115TIP3    H215289   1.472   3.999   5.311
 5116TIP3   OH215290   0.318   1.774   2.236
 5116TIP3    H115291   0.247   1.732   2.285
 5116TIP3    H215292   0.301   1.749   2.145
 5117TIP3   OH215293   7.333   5.438   4.678
 5117TIP3    H115294   7.288   5.370   4.728
 5117TIP3    H215295   7.398   5.392   4.626
 5118TIP3   OH215296   2.992   6.580   6.044
 5118TIP3    H115297   3.043   6.659   6.062
 5118TIP3    H215298   2.995   6.530   6.126
 5119TIP3   OH215299   3.976   7.359   0.686
 5119TIP3    H115300   3.956   7.327   0.774
 5119TIP3    H215301   3.930   7.299   0.627
 5120TIP3   OH215302   3.192   4.327   5.492
 5120TIP3    H115303   3.221   4.260   5.430
 5120TIP3    H215304   3.145   4.278   5.560
 5121TIP3   OH215305   1.671   3.326   5.455
 5121TIP3    H115306   1.621   3.376   5.520
 5121TIP3    H215307   1.689   3.242   5.497
 5122TIP3   OH215308   3.662   2.751   6.342
 5122TIP3    H115309   3.723   2.806   6.293
 5122TIP3    H215310   3.590   2.734   6.281
 5123TIP3   OH215311   7.106   2.393   2.044
 5123TIP3    H115312   7.126   2.479   2.008
 5123TIP3    H215313   7.153   2.331   1.987
 5124TIP3   OH215314   3.922   4.008   2.143
 5124TIP3    H115315   3.902   3.998   2.050
 5124TIP3    H215316   3.892   3.927   2.183
 5125TIP3   OH215317   3.234   1.280   6.538
 5125TIP3    H115318   3.196   1.333   6.468
 5125TIP3    H215319   3.160   1.231   6.574
 5126TIP3   OH215320   4.781   0.345   6.134
 5126TIP3    H115321   4.689   0.320   6.141
 5126TIP3    H215322   4.829   0.274   6.177
 5127TIP3   OH215323   3.004   4.955   1.388
 5127TIP3    H115324   3.099   4.960   1.386
 5127TIP3    H215325   2.984   4.868   1.354
 5128TIP3   OH215326   1.883   2.290   2.734
 5128TIP3    H115327   1.977   2.282   2.719
 5128TIP3    H215328   1.869   2.253   2.821
 5129TIP3   OH215329   0.175   2.632   1.762
 5129TIP3    H115330   0.164   2.724   1.741
 5129TIP3    H215331   0.259   2.628   1.808
 5130TIP3   OH215332   0.890   0.397   4.590
 5130TIP3    H115333   0.941   0.382   4.511
 5130TIP3    H215334   0.862   0.309   4.617
 5131TIP3   OH215335   4.513   3.199   2.084
 5131TIP3    H115336   4.486   3.108   2.073
 5131TIP3    H215337   4.586   3.210   2.023
 5132TIP3   OH215338   4.124   4.699   5.139
 5132TIP3    H115339   4.081   4.768   5.088
 5132TIP3    H215340   4.126   4.624   5.079
 5133TIP3   OH215341   3.336   1.348   1.626
 5133TIP3    H115342   3.372   1.270   1.668
 5133TIP3    H215343   3.328   1.325   1.534
 5134TIP3   OH215344   1.901   7.293   1.241
 5134TIP3    H115345   1.944   7.363   1.291
 5134TIP3    H215346   1.859   7.238   1.307
 5135TIP3   OH215347   1.078   0.887   4.504
 5135TIP3    H115348   1.031   0.912   4.584
 5135TIP3    H215349   1.055   0.956   4.441
 5136TIP3   OH215350   1.187   6.980   1.681
 5136TIP3    H115351   1.210   7.065   1.642
 5136TIP3    H215352   1.094   6.988   1.702
 5137TIP3   OH215353   6.938   4.793   6.261
 5137TIP3    H115354   6.857   4.762   6.222
 5137TIP3    H215355   6.927   4.887   6.269
 5138TIP3   OH215356   4.026   6.088   4.958
 5138TIP3    H115357   3.940   6.130   4.951
 5138TIP3    H215358   4.028   6.028   4.884
 5139TIP3   OH215359   3.634   1.810   0.922
 5139TIP3    H115360   3.651   1.768   0.838
 5139TIP3    H215361   3.541   1.833   0.918
 5140TIP3   OH215362   1.637   5.732   5.292
 5140TIP3    H115363   1.699   5.781   5.237
 5140TIP3    H215364   1.556   5.729   5.241
 5141TIP3   OH215365   7.824   5.498   6.261
 5141TIP3    H115366   7.915   5.493   6.234
 5141TIP3    H215367   7.783   5.421   6.220
 5142TIP3   OH215368   5.107   2.911   6.233
 5142TIP3    H115369   5.067   2.998   6.234
 5142TIP3    H215370   5.163   2.911   6.156
 5143TIP3   OH215371   7.865   5.669   3.889
 5143TIP3    H115372   7.916   5.747   3.908
 5143TIP3    H215373   7.866   5.619   3.971
 5144TIP3   OH215374   2.459   2.746   4.168
 5144TIP3    H115375   2.481   2.665   4.214
 5144TIP3    H215376   2.371   2.768   4.199
 5145TIP3   OH215377   5.555   3.465   4.849
 5145TIP3    H115378   5.497   3.394   4.820
 5145TIP3    H215379   5.499   3.542   4.848
 5146TIP3   OH215380   5.356   3.371   3.516
 5146TIP3    H115381   5.366   3.408   3.428
 5146TIP3    H215382   5.439   3.390   3.560
 5147TIP3   OH215383   8.132   0.200   0.732
 5147TIP3    H115384   8.210   0.255   0.731
 5147TIP3    H215385   8.166   0.112   0.748
 5148TIP3   OH215386   3.973   6.222   1.322
 5148TIP3    H115387   3.920   6.301   1.335
 5148TIP3    H215388   3.920   6.168   1.263
 5149TIP3   OH215389   1.695   1.439   5.870
 5149TIP3    H115390   1.658   1.514   5.918
 5149TIP3    H215391   1.771   1.414   5.922
 5150TIP3   OH215392   1.129   2.115   0.865
 5150TIP3    H115393   1.125   2.112   0.960
 5150TIP3    H215394   1.205   2.169   0.845
 5151TIP3   OH215395   4.630   7.718   1.418
 5151TIP3    H115396   4.664   7.629   1.420
 5151TIP3    H215397   4.656   7.752   1.332
 5152TIP3   OH215398   5.093   1.792   0.179
 5152TIP3    H115399   5.011   1.743   0.179
 5152TIP3    H215400   5.131   1.775   0.265
 5153TIP3   OH215401   5.734   7.323   5.787
 5153TIP3    H115402   5.725   7.399   5.845
 5153TIP3    H215403   5.770   7.254   5.844
 5154TIP3   OH215404   1.640   5.414   3.817
 5154TIP3    H115405   1.635   5.470   3.894
 5154TIP3    H215406   1.648   5.325   3.852
 5155TIP3   OH215407   4.139   5.194   1.391
 5155TIP3    H115408   4.191   5.126   1.348
 5155TIP3    H215409   4.197   5.269   1.396
 5156TIP3   OH215410   0.130   7.686   0.920
 5156TIP3    H115411   0.085   7.754   0.870
 5156TIP3    H215412   0.061   7.622   0.939
 5157TIP3   OH215413   2.230   0.657   3.527
 5157TIP3    H115414   2.190   0.732   3.482
 5157TIP3    H215415   2.193   0.580   3.483
 5158TIP3   OH215416   7.511   7.661   4.489
 5158TIP3    H115417   7.563   7.719   4.434
 5158TIP3    H215418   7.484   7.716   4.563
 5159TIP3   OH215419   6.059   2.480   3.667
 5159TIP3    H115420   6.041   2.448   3.755
 5159TIP3    H215421   6.056   2.402   3.612
 5160TIP3   OH215422   2.438   5.306   1.323
 5160TIP3    H115423   2.484   5.270   1.247
 5160TIP3    H215424   2.485   5.388   1.342
 5161TIP3   OH215425   0.843   6.773   2.829
 5161TIP3    H115426   0.808   6.718   2.899
 5161TIP3    H215427   0.767   6.811   2.787
 5162TIP3   OH215428   1.766   7.614   4.658
 5162TIP3    H115429   1.827   7.672   4.611
 5162TIP3    H215430   1.728   7.559   4.590
 5163TIP3   OH215431   6.154   1.325   6.144
 5163TIP3    H115432   6.111   1.251   6.101
 5163TIP3    H215433   6.085   1.392   6.150
 5164TIP3   OH215434   7.902   3.585   2.267
 5164TIP3    H115435   7.860   3.500   2.281
 5164TIP3    H215436   7.966   3.593   2.338
 5165TIP3   OH215437   5.068   5.510   5.466
 5165TIP3    H115438   4.996   5.452   5.443
 5165TIP3    H215439   5.140   5.451   5.488
 5166TIP3   OH215440   1.699   3.366   5.911
 5166TIP3    H115441   1.772   3.388   5.970
 5166TIP3    H215442   1.678   3.275   5.932
 5167TIP3   OH215443   3.233   2.167   1.713
 5167TIP3    H115444   3.197   2.161   1.801
 5167TIP3    H215445   3.157   2.172   1.655
 5168TIP3   OH215446   2.059   1.093   0.613
 5168TIP3    H115447   2.111   1.153   0.559
 5168TIP3    H215448   1.970   1.099   0.578
 5169TIP3   OH215449   4.527   0.995   0.707
 5169TIP3    H115450   4.490   0.980   0.794
 5169TIP3    H215451   4.620   0.974   0.716
 5170TIP3   OH215452   6.538   6.586   2.969
 5170TIP3    H115453   6.614   6.547   2.925
 5170TIP3    H215454   6.542   6.678   2.945
 5171TIP3   OH215455   1.766   2.788   4.136
 5171TIP3    H115456   1.768   2.734   4.215
 5171TIP3    H215457   1.709   2.741   4.076
 5172TIP3   OH215458   2.461   2.798   6.413
 5172TIP3    H115459   2.513   2.724   6.382
 5172TIP3    H215460   2.451   2.784   6.507
 5173TIP3   OH215461   5.839   5.765   3.117
 5173TIP3    H115462   5.784   5.708   3.063
 5173TIP3    H215463   5.880   5.825   3.055
 5174TIP3   OH215464   0.663   1.407   3.122
 5174TIP3    H115465   0.599   1.439   3.186
 5174TIP3    H215466   0.623   1.424   3.037
 5175TIP3   OH215467   3.801   5.851   6.316
 5175TIP3    H115468   3.895   5.844   6.296
 5175TIP3    H215469   3.798   5.904   6.396
 5176TIP3   OH215470   8.100   6.503   6.649
 5176TIP3    H115471   8.085   6.447   6.726
 5176TIP3    H215472   8.118   6.441   6.578
 5177TIP3   OH215473   3.337   5.747   5.027
 5177TIP3    H115474   3.273   5.676   5.027
 5177TIP3    H215475   3.285   5.827   5.035
 5178TIP3   OH215476   7.218   1.741   5.783
 5178TIP3    H115477   7.187   1.758   5.872
 5178TIP3    H215478   7.151   1.779   5.727
 5179TIP3   OH215479   1.952   3.563   6.549
 5179TIP3    H115480   1.884   3.545   6.614
 5179TIP3    H215481   1.927   3.647   6.511
 5180TIP3   OH215482   2.285   0.859   1.712
 5180TIP3    H115483   2.293   0.889   1.802
 5180TIP3    H215484   2.359   0.800   1.699
 5181TIP3   OH215485   6.373   5.235   4.644
 5181TIP3    H115486   6.457   5.190   4.642
 5181TIP3    H215487   6.393   5.326   4.625
 5182TIP3   OH215488   7.937   7.057   2.990
 5182TIP3    H115489   7.922   7.141   3.034
 5182TIP3    H215490   7.865   7.001   3.020
 5183TIP3   OH215491   4.990   3.199   4.592
 5183TIP3    H115492   4.919   3.137   4.574
 5183TIP3    H215493   5.015   3.232   4.505
 5184TIP3   OH215494   5.125   2.109   1.559
 5184TIP3    H115495   5.139   2.070   1.473
 5184TIP3    H215496   5.147   2.039   1.621
 5185TIP3   OH215497   3.693   4.567   6.569
 5185TIP3    H115498   3.634   4.586   6.642
 5185TIP3    H215499   3.762   4.632   6.577
 5186TIP3   OH215500   1.071   5.313   2.821
 5186TIP3    H115501   1.042   5.222   2.815
 5186TIP3    H215502   1.044   5.353   2.739
 5187TIP3   OH215503   3.766   3.748   1.585
 5187TIP3    H115504   3.754   3.798   1.665
 5187TIP3    H215505   3.681   3.752   1.541
 5188TIP3   OH215506   7.021   7.250   1.760
 5188TIP3    H115507   6.989   7.166   1.727
 5188TIP3    H215508   7.036   7.302   1.681
 5189TIP3   OH215509   1.887   5.869   4.971
 5189TIP3    H115510   1.836   5.928   4.915
 5189TIP3    H215511   1.908   5.921   5.049
 5190TIP3   OH215512   7.261   5.361   2.611
 5190TIP3    H115513   7.287   5.349   2.520
 5190TIP3    H215514   7.338   5.335   2.662
 5191TIP3   OH215515   1.534   0.740   6.709
 5191TIP3    H115516   1.587   0.685   6.651
 5191TIP3    H215517   1.547   0.829   6.677
 5192TIP3   OH215518   2.844   3.277   2.644
 5192TIP3    H115519   2.927   3.317   2.618
 5192TIP3    H215520   2.806   3.245   2.562
 5193TIP3   OH215521   3.033   3.976   0.323
 5193TIP3    H115522   2.964   4.042   0.316
 5193TIP3    H215523   3.090   3.994   0.248
 5194TIP3   OH215524   8.185   5.043   3.207
 5194TIP3    H115525   8.145   4.961   3.237
 5194TIP3    H215526   8.145   5.110   3.261
 5195TIP3   OH215527   4.530   7.661   3.802
 5195TIP3    H115528   4.603   7.716   3.776
 5195TIP3    H215529   4.469   7.721   3.846
 5196TIP3   OH215530   6.832   4.033   0.775
 5196TIP3    H115531   6.764   4.096   0.749
 5196TIP3    H215532   6.795   3.947   0.751
 5197TIP3   OH215533   2.248   0.381   1.420
 5197TIP3    H115534   2.228   0.330   1.499
 5197TIP3    H215535   2.343   0.389   1.420
 5198TIP3   OH215536   0.286   7.190   6.759
 5198TIP3    H115537   0.210   7.157   6.711
 5198TIP3    H215538   0.272   7.163   6.850
 5199TIP3   OH215539   2.664   2.076   0.903
 5199TIP3    H115540   2.630   2.037   0.984
 5199TIP3    H215541   2.593   2.133   0.873
 5200TIP3   OH215542   3.626   7.494   3.834
 5200TIP3    H115543   3.642   7.467   3.924
 5200TIP3    H215544   3.555   7.558   3.840
 5201TIP3   OH215545   6.447   5.385   1.770
 5201TIP3    H115546   6.404   5.470   1.760
 5201TIP3    H215547   6.514   5.400   1.836
 5202TIP3   OH215548   4.284   7.683   3.266
 5202TIP3    H115549   4.234   7.724   3.337
 5202TIP3    H215550   4.354   7.636   3.311
 5203TIP3   OH215551   3.738   2.044   5.323
 5203TIP3    H115552   3.670   1.990   5.282
 5203TIP3    H215553   3.751   2.117   5.263
 5204TIP3   OH215554   7.971   6.440   3.028
 5204TIP3    H115555   8.038   6.509   3.020
 5204TIP3    H215556   7.888   6.486   3.019
 5205TIP3   OH215557   8.118   2.528   0.057
 5205TIP3    H115558   8.168   2.480   0.123
 5205TIP3    H215559   8.027   2.510   0.078
 5206TIP3   OH215560   4.698   2.590   4.932
 5206TIP3    H115561   4.729   2.507   4.969
 5206TIP3    H215562   4.709   2.652   5.004
 5207TIP3   OH215563   1.249   3.980   2.308
 5207TIP3    H115564   1.279   3.916   2.244
 5207TIP3    H215565   1.281   3.948   2.392
 5208TIP3   OH215566   4.624   3.553   3.360
 5208TIP3    H115567   4.630   3.501   3.440
 5208TIP3    H215568   4.652   3.641   3.387
 5209TIP3   OH215569   0.532   1.721   1.118
 5209TIP3    H115570   0.537   1.725   1.213
 5209TIP3    H215571   0.492   1.804   1.092
 5210TIP3   OH215572   0.323   0.740   5.947
 5210TIP3    H115573   0.381   0.708   5.878
 5210TIP3    H215574   0.323   0.671   6.013
 5211TIP3   OH215575   2.751   0.636   4.798
 5211TIP3    H115576   2.731   0.550   4.761
 5211TIP3    H215577   2.705   0.698   4.740
 5212TIP3   OH215578   3.488   2.373   0.768
 5212TIP3    H115579   3.428   2.411   0.832
 5212TIP3    H215580   3.479   2.278   0.780
 5213TIP3   OH215581   2.950   1.396   2.393
 5213TIP3    H115582   2.907   1.330   2.340
 5213TIP3    H215583   2.893   1.408   2.469
 5214TIP3   OH215584   2.242   1.991   3.609
 5214TIP3    H115585   2.303   2.064   3.613
 5214TIP3    H215586   2.274   1.936   3.538
 5215TIP3   OH215587   6.386   1.475   5.415
 5215TIP3    H115588   6.315   1.536   5.435
 5215TIP3    H215589   6.368   1.445   5.326
 5216TIP3   OH215590   4.492   2.564   4.050
 5216TIP3    H115591   4.460   2.560   4.140
 5216TIP3    H215592   4.587   2.560   4.058
 5217TIP3   OH215593   2.205   0.791   5.856
 5217TIP3    H115594   2.133   0.735   5.828
 5217TIP3    H215595   2.247   0.818   5.774
 5218TIP3   OH215596   2.171   4.923   4.236
 5218TIP3    H115597   2.100   4.859   4.239
 5218TIP3    H215598   2.228   4.900   4.309
 5219TIP3   OH215599   1.051   5.668   5.099
 5219TIP3    H115600   1.103   5.732   5.050
 5219TIP3    H215601   1.084   5.673   5.188
 5220TIP3   OH215602   3.836   0.013   2.369
 5220TIP3    H115603   3.776   0.086   2.381
 5220TIP3    H215604   3.891   0.014   2.447
 5221TIP3   OH215605   4.680   4.154   5.459
 5221TIP3    H115606   4.612   4.197   5.408
 5221TIP3    H215607   4.665   4.060   5.446
 5222TIP3   OH215608   0.407   5.202   3.486
 5222TIP3    H115609   0.364   5.117   3.476
 5222TIP3    H215610   0.349   5.264   3.440
 5223TIP3   OH215611   3.246   2.218   6.363
 5223TIP3    H115612   3.251   2.122   6.364
 5223TIP3    H215613   3.179   2.239   6.428
 5224TIP3   OH215614   1.624   2.735   3.227
 5224TIP3    H115615   1.581   2.817   3.203
 5224TIP3    H215616   1.709   2.740   3.183
 5225TIP3   OH215617   7.054   0.774   4.598
 5225TIP3    H115618   7.137   0.749   4.556
 5225TIP3    H215619   6.987   0.750   4.535
 5226TIP3   OH215620   6.475   0.233   3.195
 5226TIP3    H115621   6.504   0.243   3.104
 5226TIP3    H215622   6.418   0.156   3.194
 5227TIP3   OH215623   3.501   0.869   3.750
 5227TIP3    H115624   3.479   0.777   3.737
 5227TIP3    H215625   3.567   0.888   3.684
 5228TIP3   OH215626   3.399   1.619   1.058
 5228TIP3    H115627   3.366   1.664   1.136
 5228TIP3    H215628   3.359   1.666   0.985
 5229TIP3   OH215629   5.805   3.456   4.991
 5229TIP3    H115630   5.721   3.460   4.945
 5229TIP3    H215631   5.816   3.543   5.030
 5230TIP3   OH215632   5.654   4.969   5.754
 5230TIP3    H115633   5.560   4.974   5.736
 5230TIP3    H215634   5.660   4.921   5.836
 5231TIP3   OH215635   5.937   4.888   6.159
 5231TIP3    H115636   5.955   4.803   6.200
 5231TIP3    H215637   6.023   4.925   6.140
 5232TIP3   OH215638   3.525   2.644   4.433
 5232TIP3    H115639   3.619   2.656   4.448
 5232TIP3    H215640   3.483   2.713   4.485
 5233TIP3   OH215641   5.208   7.178   5.790
 5233TIP3    H115642   5.200   7.266   5.827
 5233TIP3    H215643   5.295   7.177   5.749
 5234TIP3   OH215644   8.154   4.438   2.280
 5234TIP3    H115645   8.222   4.468   2.220
 5234TIP3    H215646   8.140   4.346   2.256
 5235TIP3   OH215647   2.953   0.163   5.132
 5235TIP3    H115648   2.877   0.135   5.184
 5235TIP3    H215649   3.007   0.212   5.193
 5236TIP3   OH215650   5.278   5.195   5.285
 5236TIP3    H115651   5.314   5.107   5.298
 5236TIP3    H215652   5.183   5.183   5.287
 5237TIP3   OH215653   3.391   4.860   5.208
 5237TIP3    H115654   3.456   4.856   5.137
 5237TIP3    H215655   3.316   4.811   5.174
 5238TIP3   OH215656   2.911   2.551   6.250
 5238TIP3    H115657   2.816   2.560   6.250
 5238TIP3    H215658   2.927   2.462   6.218
 5239TIP3   OH215659   3.194   5.405   3.933
 5239TIP3    H115660   3.275   5.439   3.972
 5239TIP3    H215661   3.205   5.417   3.839
 5240TIP3   OH215662   7.754   7.559   6.112
 5240TIP3    H115663   7.777   7.635   6.165
 5240TIP3    H215664   7.675   7.585   6.065
 5241TIP3   OH215665   6.175   3.630   3.722
 5241TIP3    H115666   6.227   3.653   3.646
 5241TIP3    H215667   6.205   3.542   3.747
 5242TIP3   OH215668   0.102   1.761   5.576
 5242TIP3    H115669   0.050   1.840   5.566
 5242TIP3    H215670   0.072   1.723   5.659
 5243TIP3   OH215671   1.926   5.503   4.234
 5243TIP3    H115672   2.009   5.507   4.282
 5243TIP3    H215673   1.876   5.578   4.267
 5244TIP3   OH215674   3.793   4.516   0.069
 5244TIP3    H115675   3.792   4.602   0.111
 5244TIP3    H215676   3.742   4.528  -0.011
 5245TIP3   OH215677   3.012   4.272   1.440
 5245TIP3    H115678   2.980   4.228   1.519
 5245TIP3    H215679   3.107   4.268   1.446
 5246TIP3   OH215680   1.908   0.796   2.427
 5246TIP3    H115681   1.972   0.816   2.494
 5246TIP3    H215682   1.936   0.712   2.390
 5247TIP3   OH215683   5.258   7.340   0.306
 5247TIP3    H115684   5.315   7.414   0.328
 5247TIP3    H215685   5.171   7.367   0.334
 5248TIP3   OH215686   6.297   5.960   2.909
 5248TIP3    H115687   6.228   5.988   2.970
 5248TIP3    H215688   6.274   6.002   2.826
 5249TIP3   OH215689   1.355   2.089   3.571
 5249TIP3    H115690   1.301   2.093   3.491
 5249TIP3    H215691   1.362   1.995   3.590
 5250TIP3   OH215692   8.053   2.339   1.645
 5250TIP3    H115693   8.132   2.393   1.640
 5250TIP3    H215694   8.085   2.249   1.648
 5251TIP3   OH215695   6.042   5.018   6.511
 5251TIP3    H115696   6.100   5.068   6.453
 5251TIP3    H215697   6.089   4.936   6.526
 5252TIP3   OH215698   2.656   1.790   5.234
 5252TIP3    H115699   2.576   1.842   5.220
 5252TIP3    H215700   2.636   1.705   5.194
 5253TIP3   OH215701   2.320   6.232   4.720
 5253TIP3    H115702   2.387   6.198   4.778
 5253TIP3    H215703   2.249   6.167   4.724
 5254TIP3   OH215704   3.627   2.593   1.797
 5254TIP3    H115705   3.711   2.638   1.794
 5254TIP3    H215706   3.567   2.649   1.747
 5255TIP3   OH215707   7.136   5.913   2.535
 5255TIP3    H115708   7.088   5.992   2.559
 5255TIP3    H215709   7.076   5.842   2.554
 5256TIP3   OH215710   5.353   7.130   4.824
 5256TIP3    H115711   5.297   7.078   4.882
 5256TIP3    H215712   5.296   7.152   4.750
 5257TIP3   OH215713   4.702   4.490   4.356
 5257TIP3    H115714   4.624   4.501   4.301
 5257TIP3    H215715   4.696   4.400   4.388
 5258TIP3   OH215716   2.830   0.724   2.287
 5258TIP3    H115717   2.871   0.729   2.200
 5258TIP3    H215718   2.846   0.810   2.326
 5259TIP3   OH215719   3.027   0.821   4.486
 5259TIP3    H115720   3.004   0.745   4.540
 5259TIP3    H215721   2.993   0.801   4.399
 5260TIP3   OH215722   4.677   0.238   5.748
 5260TIP3    H115723   4.622   0.162   5.767
 5260TIP3    H215724   4.672   0.248   5.653
 5261TIP3   OH215725   5.162   3.549   6.057
 5261TIP3    H115726   5.103   3.580   6.126
 5261TIP3    H215727   5.227   3.496   6.102
 5262TIP3   OH215728   1.406   3.043   3.235
 5262TIP3    H115729   1.402   2.977   3.166
 5262TIP3    H215730   1.412   3.126   3.187
 5263TIP3   OH215731   4.185   0.926   4.020
 5263TIP3    H115732   4.220   0.896   4.104
 5263TIP3    H215733   4.090   0.920   4.031
 5264TIP3   OH215734   1.247   5.061   2.929
 5264TIP3    H115735   1.335   5.029   2.908
 5264TIP3    H215736   1.239   5.049   3.023
 5265TIP3   OH215737   7.102   7.570   4.555
 5265TIP3    H115738   7.092   7.616   4.472
 5265TIP3    H215739   7.137   7.484   4.532
 5266TIP3   OH215740   4.961   1.110   5.948
 5266TIP3    H115741   4.907   1.069   5.881
 5266TIP3    H215742   4.992   1.038   6.002
 5267TIP3   OH215743   4.513   1.754   1.443
 5267TIP3    H115744   4.521   1.672   1.492
 5267TIP3    H215745   4.502   1.821   1.511
 5268TIP3   OH215746   5.073   5.930   0.560
 5268TIP3    H115747   5.019   5.988   0.507
 5268TIP3    H215748   5.019   5.852   0.573
 5269TIP3   OH215749   2.846   3.341   0.850
 5269TIP3    H115750   2.883   3.329   0.763
 5269TIP3    H215751   2.894   3.279   0.905
 5270TIP3   OH215752   5.608   1.143   2.266
 5270TIP3    H115753   5.676   1.093   2.219
 5270TIP3    H215754   5.564   1.194   2.198
 5271TIP3   OH215755   2.921   2.497   4.600
 5271TIP3    H115756   2.834   2.511   4.637
 5271TIP3    H215757   2.965   2.438   4.661
 5272TIP3   OH215758   0.592   7.079   3.921
 5272TIP3    H115759   0.673   7.050   3.880
 5272TIP3    H215760   0.523   7.039   3.869
 5273TIP3   OH215761   5.373   4.770   5.720
 5273TIP3    H115762   5.280   4.774   5.743
 5273TIP3    H215763   5.375   4.787   5.626
 5274TIP3   OH215764   7.433   7.029   4.331
 5274TIP3    H115765   7.436   6.936   4.308
 5274TIP3    H215766   7.506   7.069   4.283
 5275TIP3   OH215767   4.837   6.093   2.869
 5275TIP3    H115768   4.797   6.021   2.917
 5275TIP3    H215769   4.776   6.166   2.879
 5276TIP3   OH215770   8.156   3.606   0.553
 5276TIP3    H115771   8.178   3.610   0.460
 5276TIP3    H215772   8.236   3.574   0.595
 5277TIP3   OH215773   1.379   2.109   5.052
 5277TIP3    H115774   1.433   2.043   5.094
 5277TIP3    H215775   1.292   2.098   5.092
 5278TIP3   OH215776   5.042   4.251   1.892
 5278TIP3    H115777   5.047   4.263   1.986
 5278TIP3    H215778   5.009   4.334   1.858
 5279TIP3   OH215779   6.646   0.587   6.765
 5279TIP3    H115780   6.599   0.532   6.703
 5279TIP3    H215781   6.685   0.656   6.712
 5280TIP3   OH215782   5.498   3.821   1.547
 5280TIP3    H115783   5.472   3.740   1.590
 5280TIP3    H215784   5.583   3.842   1.585
 5281TIP3   OH215785   3.949   7.647   4.142
 5281TIP3    H115786   3.898   7.677   4.066
 5281TIP3    H215787   3.969   7.556   4.122
 5282TIP3   OH215788   3.828   4.160   0.584
 5282TIP3    H115789   3.860   4.122   0.665
 5282TIP3    H215790   3.892   4.136   0.518
 5283TIP3   OH215791   0.577   4.801   1.879
 5283TIP3    H115792   0.539   4.881   1.844
 5283TIP3    H215793   0.531   4.787   1.962
 5284TIP3   OH215794   2.243   1.783   5.989
 5284TIP3    H115795   2.325   1.818   5.952
 5284TIP3    H215796   2.255   1.688   5.987
 5285TIP3   OH215797   1.115   5.857   1.095
 5285TIP3    H115798   1.053   5.801   1.141
 5285TIP3    H215799   1.076   5.945   1.098
 5286TIP3   OH215800   1.312   6.895   3.610
 5286TIP3    H115801   1.313   6.900   3.514
 5286TIP3    H215802   1.271   6.977   3.637
 5287TIP3   OH215803   3.219   2.518   2.127
 5287TIP3    H115804   3.275   2.460   2.179
 5287TIP3    H215805   3.266   2.529   2.045
 5288TIP3   OH215806   0.242   0.533   2.962
 5288TIP3    H115807   0.224   0.626   2.977
 5288TIP3    H215808   0.171   0.504   2.906
 5289TIP3   OH215809   5.423   0.845   2.143
 5289TIP3    H115810   5.419   0.750   2.144
 5289TIP3    H215811   5.515   0.866   2.160
 5290TIP3   OH215812   0.435   3.479   4.007
 5290TIP3    H115813   0.401   3.545   3.947
 5290TIP3    H215814   0.411   3.396   3.967
 5291TIP3   OH215815   1.461   1.864   5.795
 5291TIP3    H115816   1.419   1.945   5.822
 5291TIP3    H215817   1.390   1.800   5.791
 5292TIP3   OH215818   3.948   0.964   4.817
 5292TIP3    H115819   4.010   1.028   4.783
 5292TIP3    H215820   3.948   0.893   4.753
 5293TIP3   OH215821   3.501   6.388   2.397
 5293TIP3    H115822   3.526   6.336   2.474
 5293TIP3    H215823   3.430   6.338   2.356
 5294TIP3   OH215824   4.856   3.471   3.856
 5294TIP3    H115825   4.853   3.451   3.763
 5294TIP3    H215826   4.788   3.537   3.869
 5295TIP3   OH215827   2.961   0.394   6.396
 5295TIP3    H115828   2.983   0.487   6.404
 5295TIP3    H215829   2.888   0.392   6.334
 5296TIP3   OH215830   1.265   0.981   6.595
 5296TIP3    H115831   1.343   0.987   6.541
 5296TIP3    H215832   1.266   0.890   6.627
 5297TIP3   OH215833   4.555   7.014   6.549
 5297TIP3    H115834   4.557   7.041   6.641
 5297TIP3    H215835   4.623   6.946   6.543
 5298TIP3   OH215836   7.176   5.874   4.608
 5298TIP3    H115837   7.251   5.930   4.624
 5298TIP3    H215838   7.121   5.883   4.685
 5299TIP3   OH215839   2.764   7.362   4.314
 5299TIP3    H115840   2.789   7.399   4.229
 5299TIP3    H215841   2.808   7.277   4.317
 5300TIP3   OH215842   7.974   7.110   6.408
 5300TIP3    H115843   7.879   7.112   6.413
 5300TIP3    H215844   7.998   7.023   6.439
 5301TIP3   OH215845   8.093   0.529   2.610
 5301TIP3    H115846   8.021   0.482   2.569
 5301TIP3    H215847   8.064   0.620   2.612
 5302TIP3   OH215848   0.191   2.721   6.571
 5302TIP3    H115849   0.132   2.740   6.498
 5302TIP3    H215850   0.259   2.788   6.565
 5303TIP3   OH215851   2.337   7.533   3.643
 5303TIP3    H115852   2.312   7.571   3.727
 5303TIP3    H215853   2.306   7.596   3.578
 5304TIP3   OH215854   2.622   3.282   6.102
 5304TIP3    H115855   2.642   3.275   6.008
 5304TIP3    H215856   2.601   3.192   6.128
 5305TIP3   OH215857   5.959   5.411   5.412
 5305TIP3    H115858   6.017   5.372   5.346
 5305TIP3    H215859   6.016   5.425   5.488
 5306TIP3   OH215860   1.029   1.588   0.128
 5306TIP3    H115861   1.063   1.661   0.179
 5306TIP3    H215862   0.978   1.629   0.058
 5307TIP3   OH215863   3.397   5.176   4.482
 5307TIP3    H115864   3.448   5.251   4.510
 5307TIP3    H215865   3.318   5.179   4.536
 5308TIP3   OH215866   0.905   2.550   3.130
 5308TIP3    H115867   0.996   2.579   3.131
 5308TIP3    H215868   0.897   2.499   3.049
 5309TIP3   OH215869   2.420   1.471   5.502
 5309TIP3    H115870   2.509   1.444   5.523
 5309TIP3    H215871   2.405   1.548   5.557
 5310TIP3   OH215872   6.722   1.859   3.634
 5310TIP3    H115873   6.778   1.821   3.567
 5310TIP3    H215874   6.744   1.811   3.714
 5311TIP3   OH215875   7.318   3.817   3.679
 5311TIP3    H115876   7.275   3.774   3.753
 5311TIP3    H215877   7.300   3.760   3.604
 5312TIP3   OH215878   5.491   4.471   2.983
 5312TIP3    H115879   5.442   4.546   2.948
 5312TIP3    H215880   5.446   4.394   2.947
 5313TIP3   OH215881   3.040   3.693   2.069
 5313TIP3    H115882   3.039   3.769   2.127
 5313TIP3    H215883   3.004   3.622   2.122
 5314TIP3   OH215884   5.346   5.048   0.880
 5314TIP3    H115885   5.289   5.114   0.840
 5314TIP3    H215886   5.357   5.077   0.970
 5315TIP3   OH215887   4.766   5.551   2.898
 5315TIP3    H115888   4.771   5.603   2.818
 5315TIP3    H215889   4.853   5.561   2.938
 5316TIP3   OH215890   7.207   7.459   2.795
 5316TIP3    H115891   7.245   7.532   2.747
 5316TIP3    H215892   7.117   7.453   2.763
 5317TIP3   OH215893   3.583   4.893   3.058
 5317TIP3    H115894   3.591   4.953   3.132
 5317TIP3    H215895   3.642   4.821   3.079
 5318TIP3   OH215896   5.122   0.082   0.058
 5318TIP3    H115897   5.056   0.046  -0.001
 5318TIP3    H215898   5.201   0.031   0.040
 5319TIP3   OH215899   2.636   5.810   5.266
 5319TIP3    H115900   2.600   5.727   5.297
 5319TIP3    H215901   2.666   5.854   5.346
 5320TIP3   OH215902   7.411   3.989   0.663
 5320TIP3    H115903   7.324   4.028   0.654
 5320TIP3    H215904   7.464   4.058   0.704
 5321TIP3   OH215905   7.300   7.637   5.894
 5321TIP3    H115906   7.266   7.615   5.981
 5321TIP3    H215907   7.279   7.730   5.883
 5322TIP3   OH215908   8.245   7.113   1.656
 5322TIP3    H115909   8.166   7.091   1.706
 5322TIP3    H215910   8.316   7.074   1.706
 5323TIP3   OH215911   1.207   1.270   1.847
 5323TIP3    H115912   1.183   1.357   1.879
 5323TIP3    H215913   1.142   1.211   1.884
 5324TIP3   OH215914   0.771   4.871   6.413
 5324TIP3    H115915   0.680   4.885   6.389
 5324TIP3    H215916   0.813   4.956   6.397
 5325TIP3   OH215917   5.416   2.183   1.464
 5325TIP3    H115918   5.425   2.088   1.472
 5325TIP3    H215919   5.339   2.204   1.517
 5326TIP3   OH215920   5.066   6.985   3.411
 5326TIP3    H115921   5.136   6.938   3.365
 5326TIP3    H215922   5.007   6.915   3.442
 5327TIP3   OH215923   5.542   1.320   2.021
 5327TIP3    H115924   5.552   1.407   1.983
 5327TIP3    H215925   5.594   1.263   1.963
 5328TIP3   OH215926   7.817   0.725   2.624
 5328TIP3    H115927   7.818   0.809   2.669
 5328TIP3    H215928   7.792   0.662   2.692
 5329TIP3   OH215929   1.518   6.706   3.035
 5329TIP3    H115930   1.569   6.631   3.064
 5329TIP3    H215931   1.562   6.782   3.074
 5330TIP3   OH215932   2.731   3.849   0.931
 5330TIP3    H115933   2.743   3.906   0.854
 5330TIP3    H215934   2.806   3.790   0.930
 5331TIP3   OH215935   3.864   3.778   5.110
 5331TIP3    H115936   3.851   3.842   5.040
 5331TIP3    H215937   3.944   3.732   5.086
 5332TIP3   OH215938   3.726   5.324   3.770
 5332TIP3    H115939   3.771   5.345   3.852
 5332TIP3    H215940   3.669   5.399   3.755
 5333TIP3   OH215941   3.506   2.957   5.826
 5333TIP3    H115942   3.511   2.862   5.836
 5333TIP3    H215943   3.562   2.976   5.751
 5334TIP3   OH215944   0.777   4.376   4.469
 5334TIP3    H115945   0.820   4.294   4.442
 5334TIP3    H215946   0.826   4.444   4.423
 5335TIP3   OH215947   7.696   3.535   6.087
 5335TIP3    H115948   7.767   3.509   6.146
 5335TIP3    H215949   7.671   3.454   6.042
 5336TIP3   OH215950   5.579   6.804   5.836
 5336TIP3    H115951   5.532   6.738   5.784
 5336TIP3    H215952   5.510   6.848   5.887
 5337TIP3   OH215953   7.844   6.291   3.267
 5337TIP3    H115954   7.932   6.318   3.239
 5337TIP3    H215955   7.856   6.260   3.356
 5338TIP3   OH215956   2.061   7.374   3.531
 5338TIP3    H115957   2.010   7.346   3.607
 5338TIP3    H215958   2.018   7.453   3.500
 5339TIP3   OH215959   0.276   2.077   1.340
 5339TIP3    H115960   0.252   2.129   1.264
 5339TIP3    H215961   0.361   2.112   1.367
 5340TIP3   OH215962   5.177   2.482   6.824
 5340TIP3    H115963   5.154   2.424   6.751
 5340TIP3    H215964   5.104   2.544   6.829
 5341TIP3   OH215965   1.360   1.147   3.608
 5341TIP3    H115966   1.276   1.159   3.652
 5341TIP3    H215967   1.364   1.217   3.543
 5342TIP3   OH215968   5.432   6.283   5.482
 5342TIP3    H115969   5.388   6.364   5.457
 5342TIP3    H215970   5.391   6.257   5.565
 5343TIP3   OH215971   2.415   4.121   1.407
 5343TIP3    H115972   2.347   4.066   1.368
 5343TIP3    H215973   2.462   4.158   1.332
 5344TIP3   OH215974   6.311   7.586   0.454
 5344TIP3    H115975   6.314   7.606   0.548
 5344TIP3    H215976   6.312   7.491   0.450
 5345TIP3   OH215977   7.281   4.277   0.306
 5345TIP3    H115978   7.344   4.347   0.292
 5345TIP3    H215979   7.331   4.196   0.293
 5346TIP3   OH215980   3.626   4.943  -0.005
 5346TIP3    H115981   3.554   4.881  -0.014
 5346TIP3    H215982   3.583   5.027   0.014
 5347TIP3   OH215983   5.203   4.011   1.902
 5347TIP3    H115984   5.170   3.955   1.972
 5347TIP3    H215985   5.133   4.074   1.885
 5348TIP3   OH215986   4.828   4.940   5.831
 5348TIP3    H115987   4.791   4.853   5.845
 5348TIP3    H215988   4.764   4.999   5.870
 5349TIP3   OH215989   7.143   1.717   1.571
 5349TIP3    H115990   7.210   1.649   1.565
 5349TIP3    H215991   7.096   1.711   1.488
 5350TIP3   OH215992   3.758   6.867   4.808
 5350TIP3    H115993   3.830   6.905   4.758
 5350TIP3    H215994   3.699   6.830   4.741
 5351TIP3   OH215995   0.507   2.171   1.500
 5351TIP3    H115996   0.528   2.098   1.559
 5351TIP3    H215997   0.555   2.246   1.536
 5352TIP3   OH215998   7.179   4.242   1.985
 5352TIP3    H115999   7.165   4.154   1.952
 5352TIP3    H216000   7.256   4.236   2.041
 5353TIP3   OH216001   4.428   2.508   2.372
 5353TIP3    H116002   4.380   2.534   2.450
 5353TIP3    H216003   4.432   2.412   2.378
 5354TIP3   OH216004   3.342   7.183   5.589
 5354TIP3    H116005   3.377   7.108   5.638
 5354TIP3    H216006   3.411   7.249   5.594
 5355TIP3   OH216007   3.577   1.518   4.823
 5355TIP3    H116008   3.571   1.443   4.883
 5355TIP3    H216009   3.645   1.573   4.861
 5356TIP3   OH216010   5.551   1.819   5.358
 5356TIP3    H116011   5.460   1.846   5.342
 5356TIP3    H216012   5.593   1.822   5.273
 5357TIP3   OH216013   1.875   3.611   0.147
 5357TIP3    H116014   1.919   3.557   0.081
 5357TIP3    H216015   1.906   3.577   0.231
 5358TIP3   OH216016   2.590   6.111   1.058
 5358TIP3    H116017   2.497   6.097   1.043
 5358TIP3    H216018   2.627   6.129   0.972
 5359TIP3   OH216019   7.372   0.535   4.209
 5359TIP3    H116020   7.344   0.445   4.226
 5359TIP3    H216021   7.308   0.569   4.147
 5360TIP3   OH216022   0.737   0.953   2.429
 5360TIP3    H116023   0.668   0.927   2.369
 5360TIP3    H216024   0.753   0.876   2.483
 5361TIP3   OH216025   5.608   3.603   1.929
 5361TIP3    H116026   5.521   3.635   1.955
 5361TIP3    H216027   5.644   3.673   1.875
 5362TIP3   OH216028   5.939   3.268   5.299
 5362TIP3    H116029   5.941   3.363   5.286
 5362TIP3    H216030   6.018   3.249   5.348
 5363TIP3   OH216031   5.229   2.123   3.206
 5363TIP3    H116032   5.247   2.209   3.244
 5363TIP3    H216033   5.167   2.082   3.267
 5364TIP3   OH216034   6.861   2.751   0.766
 5364TIP3    H116035   6.873   2.703   0.848
 5364TIP3    H216036   6.778   2.797   0.777
 5365TIP3   OH216037   3.244   3.425   6.005
 5365TIP3    H116038   3.218   3.388   6.089
 5365TIP3    H216039   3.297   3.357   5.963
 5366TIP3   OH216040   6.586   5.758   1.180
 5366TIP3    H116041   6.553   5.776   1.268
 5366TIP3    H216042   6.525   5.694   1.143
 5367TIP3   OH216043   0.901   5.367   1.591
 5367TIP3    H116044   0.873   5.277   1.609
 5367TIP3    H216045   0.864   5.418   1.663
 5368TIP3   OH216046   0.700   0.063   6.473
 5368TIP3    H116047   0.632   0.124   6.445
 5368TIP3    H216048   0.743   0.036   6.392
 5369TIP3   OH216049   7.222   5.662   0.177
 5369TIP3    H116050   7.266   5.714   0.110
 5369TIP3    H216051   7.134   5.647   0.141
 5370TIP3   OH216052   1.279   3.209   0.336
 5370TIP3    H116053   1.255   3.171   0.421
 5370TIP3    H216054   1.231   3.157   0.272
 5371TIP3   OH216055   4.982   4.429   4.580
 5371TIP3    H116056   5.015   4.481   4.507
 5371TIP3    H216057   4.908   4.479   4.614
 5372TIP3   OH216058   4.652   0.566   6.351
 5372TIP3    H116059   4.662   0.639   6.412
 5372TIP3    H216060   4.697   0.493   6.393
 5373TIP3   OH216061   2.851   3.154   5.354
 5373TIP3    H116062   2.783   3.208   5.313
 5373TIP3    H216063   2.898   3.115   5.280
 5374TIP3   OH216064   1.747   2.870   1.536
 5374TIP3    H116065   1.825   2.821   1.560
 5374TIP3    H216066   1.714   2.906   1.618
 5375TIP3   OH216067   3.163   7.451   4.419
 5375TIP3    H116068   3.091   7.424   4.476
 5375TIP3    H216069   3.229   7.383   4.429
 5376TIP3   OH216070   3.281   2.124   3.791
 5376TIP3    H116071   3.330   2.055   3.747
 5376TIP3    H216072   3.199   2.083   3.818
 5377TIP3   OH216073   1.376   3.602   5.297
 5377TIP3    H116074   1.393   3.652   5.377
 5377TIP3    H216075   1.331   3.523   5.327
 5378TIP3   OH216076   4.634   4.622   2.116
 5378TIP3    H116077   4.606   4.532   2.097
 5378TIP3    H216078   4.588   4.646   2.196
 5379TIP3   OH216079   1.702   5.012   2.222
 5379TIP3    H116080   1.622   4.966   2.246
 5379TIP3    H216081   1.694   5.098   2.263
 5380TIP3   OH216082   7.434   5.038   3.715
 5380TIP3    H116083   7.375   5.110   3.740
 5380TIP3    H216084   7.461   5.059   3.626
 5381TIP3   OH216085   3.665   2.626   1.039
 5381TIP3    H116086   3.630   2.538   1.052
 5381TIP3    H216087   3.754   2.612   1.009
 5382TIP3   OH216088   1.023   6.295   0.390
 5382TIP3    H116089   1.105   6.275   0.436
 5382TIP3    H216090   1.017   6.229   0.321
 5383TIP3   OH216091   3.116   6.633   1.321
 5383TIP3    H116092   3.152   6.549   1.292
 5383TIP3    H216093   3.152   6.645   1.409
 5384TIP3   OH216094   4.747   3.736   5.553
 5384TIP3    H116095   4.824   3.689   5.519
 5384TIP3    H216096   4.679   3.722   5.487
 5385TIP3   OH216097   3.746   2.892   3.420
 5385TIP3    H116098   3.827   2.890   3.471
 5385TIP3    H216099   3.680   2.924   3.481
 5386TIP3   OH216100   1.063   2.043   3.855
 5386TIP3    H116101   1.148   2.004   3.836
 5386TIP3    H216102   1.075   2.088   3.939
 5387TIP3   OH216103   4.760   1.186   2.118
 5387TIP3    H116104   4.666   1.176   2.132
 5387TIP3    H216105   4.767   1.217   2.027
 5388TIP3   OH216106   0.523   1.738   5.007
 5388TIP3    H116107   0.474   1.657   5.022
 5388TIP3    H216108   0.457   1.807   5.010
 5389TIP3   OH216109   6.415   3.547   1.960
 5389TIP3    H116110   6.319   3.553   1.960
 5389TIP3    H216111   6.433   3.454   1.969
 5390TIP3   OH216112   7.942   0.455   6.190
 5390TIP3    H116113   8.007   0.516   6.155
 5390TIP3    H216114   7.927   0.393   6.118
 5391TIP3   OH216115   6.601   5.489   5.202
 5391TIP3    H116116   6.557   5.410   5.169
 5391TIP3    H216117   6.549   5.561   5.167
 5392TIP3   OH216118   5.072   4.189   2.988
 5392TIP3    H116119   5.051   4.171   3.080
 5392TIP3    H216120   5.130   4.117   2.962
 5393TIP3   OH216121   5.324   5.654   6.602
 5393TIP3    H116122   5.350   5.657   6.694
 5393TIP3    H216123   5.347   5.740   6.568
 5394TIP3   OH216124   4.315   6.449   2.659
 5394TIP3    H116125   4.221   6.429   2.663
 5394TIP3    H216126   4.349   6.389   2.593
 5395TIP3   OH216127   6.876   0.505   5.204
 5395TIP3    H116128   6.963   0.538   5.224
 5395TIP3    H216129   6.841   0.565   5.139
 5396TIP3   OH216130   1.672   4.569   4.494
 5396TIP3    H116131   1.740   4.533   4.552
 5396TIP3    H216132   1.705   4.656   4.471
 5397TIP3   OH216133   1.066   0.702   2.400
 5397TIP3    H116134   1.146   0.649   2.402
 5397TIP3    H216135   0.996   0.640   2.416
 5398TIP3   OH216136   4.852   1.346   5.705
 5398TIP3    H116137   4.876   1.276   5.766
 5398TIP3    H216138   4.774   1.314   5.660
 5399TIP3   OH216139   0.707   6.219   6.279
 5399TIP3    H116140   0.733   6.133   6.313
 5399TIP3    H216141   0.744   6.222   6.191
 5400TIP3   OH216142   0.964   0.686   4.266
 5400TIP3    H116143   0.983   0.690   4.360
 5400TIP3    H216144   0.879   0.730   4.258
 5401TIP3   OH216145   6.389   7.301   0.399
 5401TIP3    H116146   6.475   7.315   0.360
 5401TIP3    H216147   6.354   7.223   0.355
 5402TIP3   OH216148   0.815   5.829   5.586
 5402TIP3    H116149   0.795   5.921   5.571
 5402TIP3    H216150   0.834   5.794   5.499
 5403TIP3   OH216151   8.148   3.762   3.789
 5403TIP3    H116152   8.106   3.814   3.720
 5403TIP3    H216153   8.242   3.774   3.775
 5404TIP3   OH216154   5.594   0.927   3.664
 5404TIP3    H116155   5.682   0.960   3.646
 5404TIP3    H216156   5.608   0.837   3.694
 5405TIP3   OH216157   0.404   2.606   3.275
 5405TIP3    H116158   0.489   2.565   3.256
 5405TIP3    H216159   0.370   2.632   3.190
 5406TIP3   OH216160   2.601   3.477   1.368
 5406TIP3    H116161   2.685   3.522   1.367
 5406TIP3    H216162   2.548   3.525   1.305
 5407TIP3   OH216163   6.157   2.252   1.639
 5407TIP3    H116164   6.179   2.203   1.718
 5407TIP3    H216165   6.132   2.339   1.671
 5408TIP3   OH216166   5.123   4.615   4.421
 5408TIP3    H116167   5.119   4.636   4.328
 5408TIP3    H216168   5.103   4.698   4.465
 5409TIP3   OH216169   3.863   6.673   1.116
 5409TIP3    H116170   3.934   6.679   1.180
 5409TIP3    H216171   3.877   6.749   1.059
 5410TIP3   OH216172   4.736   2.492   2.620
 5410TIP3    H116173   4.716   2.409   2.575
 5410TIP3    H216174   4.827   2.483   2.648
 5411TIP3   OH216175   8.062   4.331   4.698
 5411TIP3    H116176   8.137   4.314   4.642
 5411TIP3    H216177   8.079   4.280   4.777
 5412TIP3   OH216178   7.335   0.574   0.252
 5412TIP3    H116179   7.252   0.618   0.232
 5412TIP3    H216180   7.356   0.601   0.341
 5413TIP3   OH216181   3.155   4.839   6.003
 5413TIP3    H116182   3.216   4.833   5.930
 5413TIP3    H216183   3.177   4.764   6.059
 5414TIP3   OH216184   4.250   3.873   4.534
 5414TIP3    H116185   4.331   3.825   4.550
 5414TIP3    H216186   4.180   3.810   4.551
 5415TIP3   OH216187   7.977   5.878   0.117
 5415TIP3    H116188   8.037   5.937   0.162
 5415TIP3    H216189   7.919   5.846   0.187
 5416TIP3   OH216190   5.966   1.471   1.044
 5416TIP3    H116191   5.926   1.388   1.018
 5416TIP3    H216192   6.010   1.452   1.127
 5417TIP3   OH216193   8.065   4.201   4.369
 5417TIP3    H116194   8.106   4.287   4.356
 5417TIP3    H216195   7.971   4.217   4.361
 5418TIP3   OH216196   2.927   1.457   1.995
 5418TIP3    H116197   2.903   1.547   1.972
 5418TIP3    H216198   3.004   1.438   1.942
 5419TIP3   OH216199   1.152   6.754   6.559
 5419TIP3    H116200   1.085   6.767   6.627
 5419TIP3    H216201   1.202   6.678   6.589
 5420TIP3   OH216202   0.676   1.911   1.661
 5420TIP3    H116203   0.729   1.953   1.592
 5420TIP3    H216204   0.614   1.857   1.613
 5421TIP3   OH216205   5.672   0.465   2.033
 5421TIP3    H116206   5.742   0.459   2.098
 5421TIP3    H216207   5.693   0.397   1.969
 5422TIP3   OH216208   4.663   2.405   1.443
 5422TIP3    H116209   4.731   2.347   1.479
 5422TIP3    H216210   4.612   2.349   1.385
 5423TIP3   OH216211   0.814   3.406   1.843
 5423TIP3    H116212   0.804   3.478   1.781
 5423TIP3    H216213   0.908   3.404   1.862
 5424TIP3   OH216214   5.420   1.263   5.655
 5424TIP3    H116215   5.409   1.295   5.566
 5424TIP3    H216216   5.353   1.195   5.665
 5425TIP3   OH216217   1.661   5.295   5.056
 5425TIP3    H116218   1.711   5.368   5.091
 5425TIP3    H216219   1.577   5.335   5.029
 5426TIP3   OH216220   7.501   1.822   2.137
 5426TIP3    H116221   7.582   1.797   2.181
 5426TIP3    H216222   7.489   1.756   2.068
 5427TIP3   OH216223   4.430   4.640   2.333
 5427TIP3    H116224   4.339   4.644   2.361
 5427TIP3    H216225   4.451   4.546   2.333
 5428TIP3   OH216226   4.167   5.169   0.855
 5428TIP3    H116227   4.243   5.159   0.913
 5428TIP3    H216228   4.200   5.218   0.780
 5429TIP3   OH216229   4.071   5.941   0.251
 5429TIP3    H116230   4.117   5.988   0.320
 5429TIP3    H216231   4.046   6.009   0.188
 5430TIP3   OH216232   1.033   3.517   1.376
 5430TIP3    H116233   1.090   3.568   1.319
 5430TIP3    H216234   0.955   3.501   1.324
 5431TIP3   OH216235   1.925   5.491   5.812
 5431TIP3    H116236   1.871   5.460   5.884
 5431TIP3    H216237   1.892   5.579   5.793
 5432TIP3   OH216238   2.450   6.259   1.681
 5432TIP3    H116239   2.397   6.180   1.667
 5432TIP3    H216240   2.461   6.263   1.776
 5433TIP3   OH216241   2.288   1.382   2.490
 5433TIP3    H116242   2.213   1.397   2.547
 5433TIP3    H216243   2.332   1.467   2.485
 5434TIP3   OH216244   5.002   6.173   3.451
 5434TIP3    H116245   5.008   6.239   3.382
 5434TIP3    H216246   4.935   6.207   3.511
 5435TIP3   OH216247   6.159   0.136   0.115
 5435TIP3    H116248   6.241   0.130   0.164
 5435TIP3    H216249   6.102   0.191   0.168
 5436TIP3   OH216250   1.111   0.599   3.833
 5436TIP3    H116251   1.081   0.688   3.814
 5436TIP3    H216252   1.056   0.572   3.907
 5437TIP3   OH216253   7.162   1.902   3.469
 5437TIP3    H116254   7.146   1.905   3.564
 5437TIP3    H216255   7.199   1.987   3.448
 5438TIP3   OH216256   0.418   7.530   2.903
 5438TIP3    H116257   0.450   7.535   2.813
 5438TIP3    H216258   0.416   7.436   2.923
 5439TIP3   OH216259   2.932   3.140   0.568
 5439TIP3    H116260   2.958   3.097   0.486
 5439TIP3    H216261   3.008   3.128   0.626
 5440TIP3   OH216262   1.785   5.655   4.705
 5440TIP3    H116263   1.878   5.631   4.714
 5440TIP3    H216264   1.741   5.571   4.692
 5441TIP3   OH216265   5.992   5.671   6.170
 5441TIP3    H116266   6.061   5.734   6.150
 5441TIP3    H216267   6.026   5.587   6.140
 5442TIP3   OH216268   4.118   1.227   2.930
 5442TIP3    H116269   4.161   1.162   2.985
 5442TIP3    H216270   4.159   1.310   2.953
 5443TIP3   OH216271   1.797   5.891   3.732
 5443TIP3    H116272   1.703   5.903   3.724
 5443TIP3    H216273   1.835   5.973   3.700
 5444TIP3   OH216274   7.899   2.503   3.722
 5444TIP3    H116275   7.965   2.435   3.739
 5444TIP3    H216276   7.876   2.537   3.808
 5445TIP3   OH216277   5.625   5.982   2.832
 5445TIP3    H116278   5.705   5.967   2.881
 5445TIP3    H216279   5.555   5.952   2.890
 5446TIP3   OH216280   2.631   6.428   4.932
 5446TIP3    H116281   2.655   6.518   4.951
 5446TIP3    H216282   2.551   6.434   4.880
 5447TIP3   OH216283   2.696   3.723   2.550
 5447TIP3    H116284   2.629   3.655   2.553
 5447TIP3    H216285   2.704   3.753   2.640
 5448TIP3   OH216286   7.894   0.271   2.286
 5448TIP3    H116287   7.924   0.265   2.376
 5448TIP3    H216288   7.974   0.272   2.234
 5449TIP3   OH216289   3.946   1.408   2.448
 5449TIP3    H116290   4.021   1.387   2.504
 5449TIP3    H216291   3.984   1.449   2.370
 5450TIP3   OH216292   0.465   0.487   2.263
 5450TIP3    H116293   0.537   0.526   2.312
 5450TIP3    H216294   0.450   0.403   2.305
 5451TIP3   OH216295   7.895   7.442   5.900
 5451TIP3    H116296   7.828   7.396   5.850
 5451TIP3    H216297   7.847   7.479   5.974
 5452TIP3   OH216298   5.353   0.568   2.619
 5452TIP3    H116299   5.308   0.579   2.703
 5452TIP3    H216300   5.283   0.562   2.555
 5453TIP3   OH216301   7.250   1.842   1.273
 5453TIP3    H116302   7.252   1.937   1.269
 5453TIP3    H216303   7.157   1.820   1.269
 5454TIP3   OH216304   0.584   6.562   2.225
 5454TIP3    H116305   0.668   6.522   2.203
 5454TIP3    H216306   0.524   6.489   2.234
 5455TIP3   OH216307   1.035   4.589   4.884
 5455TIP3    H116308   1.114   4.640   4.866
 5455TIP3    H216309   0.989   4.638   4.952
 5456TIP3   OH216310   5.950   7.377   2.341
 5456TIP3    H116311   5.986   7.315   2.404
 5456TIP3    H216312   6.022   7.395   2.281
 5457TIP3   OH216313   1.407   1.496   5.451
 5457TIP3    H116314   1.435   1.542   5.372
 5457TIP3    H216315   1.489   1.478   5.499
 5458TIP3   OH216316   0.452   1.478   1.670
 5458TIP3    H116317   0.370   1.445   1.634
 5458TIP3    H216318   0.445   1.461   1.764
 5459TIP3   OH216319   6.071   0.683   5.381
 5459TIP3    H116320   6.031   0.598   5.359
 5459TIP3    H216321   6.043   0.741   5.310
 5460TIP3   OH216322   5.085   2.897   5.005
 5460TIP3    H116323   5.108   2.930   4.918
 5460TIP3    H216324   5.105   2.804   5.001
 5461TIP3   OH216325   6.986   7.404   0.115
 5461TIP3    H116326   6.942   7.336   0.166
 5461TIP3    H216327   6.967   7.485   0.161
 5462TIP3   OH216328   0.059   4.847   5.422
 5462TIP3    H116329   0.145   4.870   5.456
 5462TIP3    H216330   0.041   4.760   5.459
 5463TIP3   OH216331   5.699   5.627   6.264
 5463TIP3    H116332   5.697   5.698   6.200
 5463TIP3    H216333   5.785   5.634   6.305
 5464TIP3   OH216334   0.271   0.541   0.977
 5464TIP3    H116335   0.178   0.525   0.961
 5464TIP3    H216336   0.279   0.539   1.072
 5465TIP3   OH216337   4.329   2.582   5.778
 5465TIP3    H116338   4.386   2.504   5.778
 5465TIP3    H216339   4.289   2.582   5.691
 5466TIP3   OH216340   3.237   0.239   5.850
 5466TIP3    H116341   3.229   0.195   5.765
 5466TIP3    H216342   3.328   0.270   5.852
 5467TIP3   OH216343   1.631   3.858   1.684
 5467TIP3    H116344   1.656   3.947   1.708
 5467TIP3    H216345   1.577   3.827   1.757
 5468TIP3   OH216346   1.960   0.550   0.171
 5468TIP3    H116347   1.875   0.579   0.204
 5468TIP3    H216348   1.939   0.473   0.117
 5469TIP3   OH216349   1.861   1.375   1.736
 5469TIP3    H116350   1.768   1.383   1.717
 5469TIP3    H216351   1.865   1.359   1.831
 5470TIP3   OH216352   6.423   2.143   5.865
 5470TIP3    H116353   6.372   2.221   5.890
 5470TIP3    H216354   6.512   2.176   5.852
 5471TIP3   OH216355   1.457   4.293   1.171
 5471TIP3    H116356   1.514   4.369   1.183
 5471TIP3    H216357   1.491   4.249   1.093
 5472TIP3   OH216358   5.619   0.597   6.430
 5472TIP3    H116359   5.581   0.557   6.352
 5472TIP3    H216360   5.625   0.524   6.493
 5473TIP3   OH216361   6.272   7.431   4.479
 5473TIP3    H116362   6.227   7.393   4.555
 5473TIP3    H216363   6.211   7.496   4.445
 5474TIP3   OH216364   4.582   3.178   0.542
 5474TIP3    H116365   4.552   3.204   0.630
 5474TIP3    H216366   4.509   3.127   0.506
 5475TIP3   OH216367   6.714   5.270   6.283
 5475TIP3    H116368   6.698   5.288   6.190
 5475TIP3    H216369   6.731   5.176   6.287
 5476TIP3   OH216370   0.713   2.736   2.799
 5476TIP3    H116371   0.735   2.828   2.815
 5476TIP3    H216372   0.686   2.734   2.707
 5477TIP3   OH216373   3.948   7.450   5.306
 5477TIP3    H116374   4.043   7.460   5.315
 5477TIP3    H216375   3.934   7.447   5.212
 5478TIP3   OH216376   1.254   3.669   2.941
 5478TIP3    H116377   1.318   3.735   2.913
 5478TIP3    H216378   1.220   3.702   3.024
 5479TIP3   OH216379   3.238   4.534   1.523
 5479TIP3    H116380   3.318   4.586   1.529
 5479TIP3    H216381   3.260   4.451   1.566
 5480TIP3   OH216382   0.624   1.551   2.772
 5480TIP3    H116383   0.664   1.475   2.814
 5480TIP3    H216384   0.697   1.605   2.745
 5481TIP3   OH216385   6.189   4.900   2.023
 5481TIP3    H116386   6.269   4.874   2.068
 5481TIP3    H216387   6.120   4.845   2.061
 5482TIP3   OH216388   4.841   5.983   6.438
 5482TIP3    H116389   4.788   6.019   6.509
 5482TIP3    H216390   4.782   5.925   6.391
 5483TIP3   OH216391   7.965   4.074   5.413
 5483TIP3    H116392   7.990   4.010   5.347
 5483TIP3    H216393   7.926   4.146   5.364
 5484TIP3   OH216394   7.188   0.187   2.414
 5484TIP3    H116395   7.250   0.212   2.345
 5484TIP3    H216396   7.120   0.139   2.368
 5485TIP3   OH216397   1.345   4.889   6.680
 5485TIP3    H116398   1.420   4.882   6.739
 5485TIP3    H216399   1.269   4.894   6.737
 5486TIP3   OH216400   6.802   3.743   1.799
 5486TIP3    H116401   6.724   3.795   1.778
 5486TIP3    H216402   6.875   3.792   1.760
 5487TIP3   OH216403   2.262   2.628   2.226
 5487TIP3    H116404   2.170   2.634   2.252
 5487TIP3    H216405   2.268   2.678   2.145
 5488TIP3   OH216406   7.013   1.065   6.007
 5488TIP3    H116407   7.054   1.036   5.925
 5488TIP3    H216408   7.015   1.161   6.002
 5489TIP3   OH216409   1.156   3.429   5.407
 5489TIP3    H116410   1.133   3.518   5.435
 5489TIP3    H216411   1.138   3.428   5.313
 5490TIP3   OH216412   4.715   3.368   3.179
 5490TIP3    H116413   4.808   3.362   3.199
 5490TIP3    H216414   4.687   3.449   3.221
 5491TIP3   OH216415   7.284   1.242   3.801
 5491TIP3    H116416   7.259   1.152   3.783
 5491TIP3    H216417   7.207   1.294   3.776
 5492TIP3   OH216418   7.065   7.671   3.227
 5492TIP3    H116419   6.991   7.729   3.246
 5492TIP3    H216420   7.043   7.589   3.269
 5493TIP3   OH216421   1.316   2.541   3.352
 5493TIP3    H116422   1.279   2.552   3.265
 5493TIP3    H216423   1.256   2.482   3.397
 5494TIP3   OH216424   7.670   1.998   2.801
 5494TIP3    H116425   7.663   2.086   2.763
 5494TIP3    H216426   7.678   1.940   2.725
 5495TIP3   OH216427   6.761   3.958   3.749
 5495TIP3    H116428   6.848   3.951   3.709
 5495TIP3    H216429   6.713   3.882   3.716
 5496TIP3   OH216430   7.766   4.395   5.836
 5496TIP3    H116431   7.675   4.385   5.864
 5496TIP3    H216432   7.785   4.488   5.851
 5497TIP3   OH216433   3.843   2.223   4.775
 5497TIP3    H116434   3.923   2.182   4.806
 5497TIP3    H216435   3.785   2.224   4.852
 5498TIP3   OH216436   6.599   2.163   1.052
 5498TIP3    H116437   6.516   2.171   1.005
 5498TIP3    H216438   6.576   2.120   1.134
 5499TIP3   OH216439   3.080   6.989   0.536
 5499TIP3    H116440   3.087   6.913   0.594
 5499TIP3    H216441   3.142   6.970   0.465
 5500TIP3   OH216442   5.131   4.850   4.588
 5500TIP3    H116443   5.173   4.915   4.532
 5500TIP3    H216444   5.144   4.882   4.677
 5501TIP3   OH216445   7.928   2.419   0.971
 5501TIP3    H116446   7.846   2.394   0.928
 5501TIP3    H216447   7.925   2.376   1.056
 5502TIP3   OH216448   7.847   1.856   3.954
 5502TIP3    H116449   7.922   1.811   3.994
 5502TIP3    H216450   7.867   1.949   3.964
 5503TIP3   OH216451   4.248   2.506   4.513
 5503TIP3    H116452   4.179   2.489   4.576
 5503TIP3    H216453   4.208   2.490   4.427
 5504TIP3   OH216454   7.405   7.451   3.372
 5504TIP3    H116455   7.340   7.426   3.438
 5504TIP3    H216456   7.367   7.422   3.289
 5505TIP3   OH216457   4.992   7.583   0.656
 5505TIP3    H116458   5.063   7.593   0.719
 5505TIP3    H216459   4.938   7.662   0.667
 5506TIP3   OH216460   5.588   3.392   3.687
 5506TIP3    H116461   5.598   3.484   3.714
 5506TIP3    H216462   5.676   3.365   3.662
 5507TIP3   OH216463   3.660   6.543   3.237
 5507TIP3    H116464   3.664   6.630   3.278
 5507TIP3    H216465   3.751   6.515   3.231
 5508TIP3   OH216466   2.047   5.845   1.622
 5508TIP3    H116467   2.133   5.886   1.628
 5508TIP3    H216468   2.001   5.897   1.555
 5509TIP3   OH216469   6.349   2.511   4.610
 5509TIP3    H116470   6.276   2.510   4.672
 5509TIP3    H216471   6.424   2.540   4.664
 5510TIP3   OH216472   1.377   3.260   4.250
 5510TIP3    H116473   1.422   3.231   4.329
 5510TIP3    H216474   1.391   3.190   4.187
 5511TIP3   OH216475   7.867   2.562   5.022
 5511TIP3    H116476   7.934   2.505   4.984
 5511TIP3    H216477   7.907   2.597   5.101
 5512TIP3   OH216478   2.753   0.166   5.373
 5512TIP3    H116479   2.678   0.159   5.315
 5512TIP3    H216480   2.809   0.091   5.350
 5513TIP3   OH216481   6.023   7.641   0.529
 5513TIP3    H116482   6.085   7.594   0.473
 5513TIP3    H216483   6.066   7.725   0.547
 5514TIP3   OH216484   2.615   0.855   6.021
 5514TIP3    H116485   2.613   0.936   6.073
 5514TIP3    H216486   2.700   0.816   6.041
 5515TIP3   OH216487   6.740   6.832   6.367
 5515TIP3    H116488   6.659   6.783   6.380
 5515TIP3    H216489   6.805   6.786   6.420
 5516TIP3   OH216490   2.785   7.241   5.588
 5516TIP3    H116491   2.792   7.296   5.510
 5516TIP3    H216492   2.858   7.269   5.643
 5517TIP3   OH216493   1.716   5.977   3.014
 5517TIP3    H116494   1.768   6.045   2.971
 5517TIP3    H216495   1.625   5.999   2.992
 5518TIP3   OH216496   6.024   0.295   0.343
 5518TIP3    H116497   5.968   0.356   0.392
 5518TIP3    H216498   6.076   0.251   0.410
 5519TIP3   OH216499   6.930   2.549   4.755
 5519TIP3    H116500   6.915   2.524   4.846
 5519TIP3    H216501   6.916   2.468   4.706
 5520TIP3   OH216502   2.961   2.270   3.722
 5520TIP3    H116503   2.939   2.193   3.670
 5520TIP3    H216504   2.877   2.300   3.758
 5521TIP3   OH216505   4.213   6.311   3.600
 5521TIP3    H116506   4.136   6.300   3.545
 5521TIP3    H216507   4.284   6.273   3.549
 5522TIP3   OH216508   2.888   2.573   5.415
 5522TIP3    H116509   2.823   2.563   5.484
 5522TIP3    H216510   2.898   2.484   5.379
 5523TIP3   OH216511   4.901   5.024   1.640
 5523TIP3    H116512   4.948   5.040   1.558
 5523TIP3    H216513   4.942   4.946   1.677
 5524TIP3   OH216514   5.647   1.231   5.197
 5524TIP3    H116515   5.560   1.258   5.227
 5524TIP3    H216516   5.701   1.231   5.276
 5525TIP3   OH216517   6.152   5.583   1.821
 5525TIP3    H116518   6.081   5.647   1.810
 5525TIP3    H216519   6.114   5.500   1.792
 5526TIP3   OH216520   3.043   1.560   5.005
 5526TIP3    H116521   3.092   1.478   4.995
 5526TIP3    H216522   3.075   1.597   5.087
 5527TIP3   OH216523   1.638   3.900   6.367
 5527TIP3    H116524   1.573   3.893   6.297
 5527TIP3    H216525   1.691   3.976   6.343
 5528TIP3   OH216526   3.578   4.032   5.939
 5528TIP3    H116527   3.655   3.976   5.940
 5528TIP3    H216528   3.583   4.078   5.855
 5529TIP3   OH216529   4.403   5.435   5.690
 5529TIP3    H116530   4.374   5.351   5.653
 5529TIP3    H216531   4.437   5.484   5.615
 5530TIP3   OH216532   2.337   1.577   1.186
 5530TIP3    H116533   2.421   1.570   1.141
 5530TIP3    H216534   2.338   1.665   1.224
 5531TIP3   OH216535   7.135   2.006   0.441
 5531TIP3    H116536   7.211   1.964   0.401
 5531TIP3    H216537   7.168   2.089   0.476
 5532TIP3   OH216538   1.499   1.612   4.189
 5532TIP3    H116539   1.444   1.581   4.261
 5532TIP3    H216540   1.437   1.647   4.125
 5533TIP3   OH216541   3.663   2.150   1.911
 5533TIP3    H116542   3.636   2.063   1.880
 5533TIP3    H216543   3.591   2.178   1.969
 5534TIP3   OH216544   6.149   3.114   0.189
 5534TIP3    H116545   6.237   3.135   0.221
 5534TIP3    H216546   6.149   3.146   0.099
 5535TIP3   OH216547   6.489   5.141   1.870
 5535TIP3    H116548   6.457   5.222   1.831
 5535TIP3    H216549   6.428   5.073   1.840
 5536TIP3   OH216550   1.673   6.230   6.701
 5536TIP3    H116551   1.743   6.207   6.763
 5536TIP3    H216552   1.708   6.206   6.616
 5537TIP3   OH216553   6.366   4.538   3.717
 5537TIP3    H116554   6.300   4.597   3.753
 5537TIP3    H216555   6.444   4.554   3.771
 5538TIP3   OH216556   5.030   7.475   0.387
 5538TIP3    H116557   4.970   7.404   0.409
 5538TIP3    H216558   5.062   7.506   0.472
 5539TIP3   OH216559   7.790   5.175   4.656
 5539TIP3    H116560   7.747   5.096   4.689
 5539TIP3    H216561   7.872   5.144   4.619
 5540TIP3   OH216562   5.747   3.091   4.096
 5540TIP3    H116563   5.834   3.053   4.083
 5540TIP3    H216564   5.698   3.023   4.141
 5541TIP3   OH216565   4.094   5.437   6.277
 5541TIP3    H116566   4.148   5.514   6.259
 5541TIP3    H216567   4.053   5.456   6.361
 5542TIP3   OH216568   2.140   2.736   2.807
 5542TIP3    H116569   2.088   2.719   2.728
 5542TIP3    H216570   2.145   2.651   2.851
 5543TIP3   OH216571   1.396   5.593   6.738
 5543TIP3    H116572   1.489   5.574   6.733
 5543TIP3    H216573   1.354   5.507   6.735
 5544TIP3   OH216574   1.102   5.247   6.257
 5544TIP3    H116575   1.120   5.337   6.287
 5544TIP3    H216576   1.022   5.223   6.304
 5545TIP3   OH216577   3.626   6.803   5.518
 5545TIP3    H116578   3.649   6.720   5.559
 5545TIP3    H216579   3.710   6.842   5.492
 5546TIP3   OH216580   1.956   7.554   2.994
 5546TIP3    H116581   1.999   7.632   3.029
 5546TIP3    H216582   1.989   7.483   3.049
 5547TIP3   OH216583   2.202   4.634   4.862
 5547TIP3    H116584   2.182   4.542   4.847
 5547TIP3    H216585   2.175   4.650   4.953
 5548TIP3   OH216586   4.405   1.212   1.175
 5548TIP3    H116587   4.337   1.272   1.142
 5548TIP3    H216588   4.360   1.160   1.241
 5549TIP3   OH216589   6.170   7.344   0.925
 5549TIP3    H116590   6.232   7.316   0.858
 5549TIP3    H216591   6.216   7.414   0.972
 5550TIP3   OH216592   2.015   3.633   6.131
 5550TIP3    H116593   1.940   3.684   6.101
 5550TIP3    H216594   2.024   3.655   6.224
 5551TIP3   OH216595   0.918   0.918   0.272
 5551TIP3    H116596   1.009   0.948   0.273
 5551TIP3    H216597   0.916   0.849   0.338
 5552TIP3   OH216598   0.858   0.146   4.746
 5552TIP3    H116599   0.921   0.119   4.812
 5552TIP3    H216600   0.865   0.080   4.677
 5553TIP3   OH216601   8.083   6.135   3.357
 5553TIP3    H116602   8.125   6.049   3.348
 5553TIP3    H216603   8.029   6.127   3.436
 5554TIP3   OH216604   6.465   2.916  -0.040
 5554TIP3    H116605   6.411   2.859   0.015
 5554TIP3    H216606   6.461   3.001   0.004
 5555TIP3   OH216607   3.503   4.447   3.052
 5555TIP3    H116608   3.510   4.444   2.957
 5555TIP3    H216609   3.593   4.436   3.083
 5556TIP3   OH216610   1.109   7.024   6.170
 5556TIP3    H116611   1.067   6.951   6.215
 5556TIP3    H216612   1.171   7.059   6.233
 5557TIP3   OH216613   7.883   0.280   3.393
 5557TIP3    H116614   7.887   0.211   3.459
 5557TIP3    H216615   7.944   0.347   3.425
 5558TIP3   OH216616   0.637   6.028   3.624
 5558TIP3    H116617   0.604   5.956   3.570
 5558TIP3    H216618   0.685   6.084   3.563
 5559TIP3   OH216619   7.748   3.339   3.052
 5559TIP3    H116620   7.788   3.254   3.035
 5559TIP3    H216621   7.661   3.319   3.085
 5560TIP3   OH216622   0.613   0.524   4.046
 5560TIP3    H116623   0.668   0.478   4.109
 5560TIP3    H216624   0.527   0.527   4.088
 5561TIP3   OH216625   7.938   1.509   4.604
 5561TIP3    H116626   7.915   1.585   4.550
 5561TIP3    H216627   7.973   1.446   4.542
 5562TIP3   OH216628   2.207   5.419   2.836
 5562TIP3    H116629   2.274   5.354   2.817
 5562TIP3    H216630   2.206   5.476   2.760
 5563TIP3   OH216631   3.479   2.314   6.294
 5563TIP3    H116632   3.388   2.304   6.322
 5563TIP3    H216633   3.524   2.237   6.329
 5564TIP3   OH216634   4.020   3.297   3.136
 5564TIP3    H116635   4.090   3.344   3.091
 5564TIP3    H216636   3.982   3.361   3.196
 5565TIP3   OH216637   1.272   0.720   0.176
 5565TIP3    H116638   1.182   0.696   0.152
 5565TIP3    H216639   1.261   0.783   0.248
 5566TIP3   OH216640   0.378   3.112   4.340
 5566TIP3    H116641   0.390   3.204   4.318
 5566TIP3    H216642   0.369   3.111   4.435
 5567TIP3   OH216643   4.406   0.362   1.806
 5567TIP3    H116644   4.475   0.298   1.822
 5567TIP3    H216645   4.343   0.316   1.750
 5568TIP3   OH216646   2.800   1.700   2.064
 5568TIP3    H116647   2.783   1.792   2.044
 5568TIP3    H216648   2.883   1.700   2.111
 5569TIP3   OH216649   3.287   4.884   3.214
 5569TIP3    H116650   3.374   4.903   3.180
 5569TIP3    H216651   3.298   4.804   3.264
 5570TIP3   OH216652   7.833   6.100   5.974
 5570TIP3    H116653   7.909   6.149   6.005
 5570TIP3    H216654   7.810   6.042   6.047
 5571TIP3   OH216655   5.457   0.277   5.480
 5571TIP3    H116656   5.412   0.299   5.398
 5571TIP3    H216657   5.397   0.217   5.525
 5572TIP3   OH216658   8.102   2.074   4.467
 5572TIP3    H116659   8.142   2.162   4.470
 5572TIP3    H216660   8.038   2.079   4.397
 5573TIP3   OH216661   6.358   5.354   5.453
 5573TIP3    H116662   6.306   5.403   5.390
 5573TIP3    H216663   6.390   5.278   5.405
 5574TIP3   OH216664   3.003   7.227   3.291
 5574TIP3    H116665   3.010   7.161   3.222
 5574TIP3    H216666   3.007   7.177   3.372
 5575TIP3   OH216667   1.333   0.457   4.725
 5575TIP3    H116668   1.425   0.459   4.700
 5575TIP3    H216669   1.315   0.365   4.744
 5576TIP3   OH216670   6.325   6.394   1.419
 5576TIP3    H116671   6.264   6.466   1.435
 5576TIP3    H216672   6.280   6.337   1.356
 5577TIP3   OH216673   5.010   4.976   2.492
 5577TIP3    H116674   4.916   4.991   2.489
 5577TIP3    H216675   5.044   5.016   2.412
 5578TIP3   OH216676   5.368   3.016   1.430
 5578TIP3    H116677   5.353   3.107   1.406
 5578TIP3    H216678   5.445   3.018   1.487
 5579TIP3   OH216679   4.329   5.564   3.196
 5579TIP3    H116680   4.420   5.540   3.181
 5579TIP3    H216681   4.281   5.520   3.125
 5580TIP3   OH216682   1.159   1.164   2.645
 5580TIP3    H116683   1.254   1.152   2.646
 5580TIP3    H216684   1.125   1.085   2.604
 5581TIP3   OH216685   7.658   3.044   6.040
 5581TIP3    H116686   7.677   3.133   6.009
 5581TIP3    H216687   7.675   3.047   6.134
 5582TIP3   OH216688   7.515   3.693   1.831
 5582TIP3    H116689   7.543   3.779   1.800
 5582TIP3    H216690   7.583   3.665   1.892
 5583TIP3   OH216691   7.509   4.917   4.179
 5583TIP3    H116692   7.597   4.905   4.213
 5583TIP3    H216693   7.453   4.867   4.238
 5584TIP3   OH216694   3.462   1.632   4.525
 5584TIP3    H116695   3.486   1.724   4.537
 5584TIP3    H216696   3.480   1.591   4.609
 5585TIP3   OH216697   0.703   5.300   3.900
 5585TIP3    H116698   0.729   5.347   3.979
 5585TIP3    H216699   0.622   5.344   3.872
 5586TIP3   OH216700   4.039   7.627   5.924
 5586TIP3    H116701   4.065   7.708   5.881
 5586TIP3    H216702   4.023   7.566   5.852
 5587TIP3   OH216703   3.370   4.049   4.873
 5587TIP3    H116704   3.293   4.024   4.823
 5587TIP3    H216705   3.357   4.009   4.959
 5588TIP3   OH216706   4.157   1.742   3.018
 5588TIP3    H116707   4.096   1.751   3.091
 5588TIP3    H216708   4.102   1.746   2.940
 5589TIP3   OH216709   2.482   0.389   4.125
 5589TIP3    H116710   2.512   0.448   4.055
 5589TIP3    H216711   2.556   0.385   4.186
 5590TIP3   OH216712   5.432   2.303   2.609
 5590TIP3    H116713   5.385   2.253   2.542
 5590TIP3    H216714   5.457   2.238   2.674
 5591TIP3   OH216715   1.489   4.375   3.200
 5591TIP3    H116716   1.568   4.426   3.182
 5591TIP3    H216717   1.418   4.438   3.197
 5592TIP3   OH216718   5.192   3.698   2.900
 5592TIP3    H116719   5.186   3.621   2.844
 5592TIP3    H216720   5.283   3.726   2.894
 5593TIP3   OH216721   7.476   1.335   5.435
 5593TIP3    H116722   7.517   1.282   5.367
 5593TIP3    H216723   7.534   1.411   5.444
 5594TIP3   OH216724   0.072   0.241   2.345
 5594TIP3    H116725   0.060   0.327   2.385
 5594TIP3    H216726   0.036   0.180   2.409
 5595TIP3   OH216727   1.006   2.233   3.667
 5595TIP3    H116728   1.021   2.168   3.736
 5595TIP3    H216729   0.983   2.313   3.714
 5596TIP3   OH216730   6.588   6.628   4.842
 5596TIP3    H116731   6.666   6.575   4.828
 5596TIP3    H216732   6.557   6.651   4.755
 5597TIP3   OH216733   1.218   7.208   1.539
 5597TIP3    H116734   1.188   7.265   1.468
 5597TIP3    H216735   1.264   7.267   1.599
 5598TIP3   OH216736   2.678   5.346   4.281
 5598TIP3    H116737   2.762   5.387   4.258
 5598TIP3    H216738   2.683   5.258   4.244
 5599TIP3   OH216739   0.313   1.809   0.884
 5599TIP3    H116740   0.262   1.816   0.965
 5599TIP3    H216741   0.256   1.846   0.816
 5600TIP3   OH216742   3.276   1.993   5.375
 5600TIP3    H116743   3.291   1.898   5.367
 5600TIP3    H216744   3.303   2.013   5.465
 5601TIP3   OH216745   1.800   2.999   1.963
 5601TIP3    H116746   1.858   3.045   1.901
 5601TIP3    H216747   1.839   3.017   2.049
 5602TIP3   OH216748   7.750   4.968   4.320
 5602TIP3    H116749   7.802   5.009   4.389
 5602TIP3    H216750   7.812   4.952   4.249
 5603TIP3   OH216751   8.072   4.941   1.389
 5603TIP3    H116752   8.084   4.946   1.484
 5603TIP3    H216753   8.067   5.032   1.360
 5604TIP3   OH216754   4.164   6.625   1.667
 5604TIP3    H116755   4.213   6.621   1.585
 5604TIP3    H216756   4.083   6.672   1.644
 5605TIP3   OH216757   8.007   0.766   2.414
 5605TIP3    H116758   7.975   0.817   2.488
 5605TIP3    H216759   7.956   0.685   2.418
 5606TIP3   OH216760   7.865   0.484   4.964
 5606TIP3    H116761   7.836   0.447   5.048
 5606TIP3    H216762   7.960   0.474   4.964
 5607TIP3   OH216763   4.849   4.026   2.648
 5607TIP3    H116764   4.778   3.962   2.654
 5607TIP3    H216765   4.912   4.000   2.715
 5608TIP3   OH216766   8.228   5.751   6.528
 5608TIP3    H116767   8.307   5.758   6.583
 5608TIP3    H216768   8.155   5.756   6.590
 5609TIP3   OH216769   0.588   3.570   3.213
 5609TIP3    H116770   0.679   3.600   3.212
 5609TIP3    H216771   0.545   3.625   3.278
 5610TIP3   OH216772   2.216   5.299   5.298
 5610TIP3    H116773   2.179   5.277   5.383
 5610TIP3    H216774   2.178   5.236   5.238
 5611TIP3   OH216775   1.432   0.340   1.989
 5611TIP3    H116776   1.438   0.391   2.070
 5611TIP3    H216777   1.520   0.303   1.978
 5612TIP3   OH216778   7.847   6.071   1.392
 5612TIP3    H116779   7.859   5.984   1.428
 5612TIP3    H216780   7.905   6.074   1.316
 5613TIP3   OH216781   5.047   1.570   6.377
 5613TIP3    H116782   5.059   1.499   6.439
 5613TIP3    H216783   4.953   1.570   6.359
 5614TIP3   OH216784   3.098   7.682   5.144
 5614TIP3    H116785   3.178   7.659   5.097
 5614TIP3    H216786   3.111   7.650   5.233
 5615TIP3   OH216787   3.674   3.788   3.319
 5615TIP3    H116788   3.646   3.873   3.285
 5615TIP3    H216789   3.619   3.725   3.273
 5616TIP3   OH216790   0.423   2.946   5.093
 5616TIP3    H116791   0.340   2.994   5.098
 5616TIP3    H216792   0.459   2.969   5.007
 5617TIP3   OH216793   6.397   1.253   5.549
 5617TIP3    H116794   6.308   1.217   5.546
 5617TIP3    H216795   6.392   1.333   5.498
 5618TIP3   OH216796   4.499   5.929   6.287
 5618TIP3    H116797   4.579   5.876   6.284
 5618TIP3    H216798   4.471   5.934   6.196
 5619TIP3   OH216799   1.146   4.659   2.690
 5619TIP3    H116800   1.201   4.634   2.616
 5619TIP3    H216801   1.077   4.713   2.651
 5620TIP3   OH216802   4.491   1.316   1.581
 5620TIP3    H116803   4.568   1.268   1.550
 5620TIP3    H216804   4.522   1.406   1.592
 5621TIP3   OH216805   2.665   2.840   3.549
 5621TIP3    H116806   2.598   2.907   3.538
 5621TIP3    H216807   2.702   2.857   3.635
 5622TIP3   OH216808   5.629   1.420   2.478
 5622TIP3    H116809   5.656   1.371   2.400
 5622TIP3    H216810   5.697   1.486   2.489
 5623TIP3   OH216811   5.095   2.439   2.084
 5623TIP3    H116812   5.009   2.446   2.125
 5623TIP3    H216813   5.089   2.493   2.006
 5624TIP3   OH216814   6.202   4.794   4.200
 5624TIP3    H116815   6.204   4.777   4.294
 5624TIP3    H216816   6.257   4.725   4.162
 5625TIP3   OH216817   2.764   5.724   1.229
 5625TIP3    H116818   2.839   5.680   1.270
 5625TIP3    H216819   2.778   5.817   1.246
 5626TIP3   OH216820   6.120   7.634   5.048
 5626TIP3    H116821   6.173   7.649   4.970
 5626TIP3    H216822   6.046   7.581   5.017
 5627TIP3   OH216823   7.004   3.886   1.229
 5627TIP3    H116824   6.996   3.791   1.218
 5627TIP3    H216825   7.096   3.904   1.207
 5628TIP3   OH216826   0.424   0.864   2.481
 5628TIP3    H116827   0.434   0.952   2.518
 5628TIP3    H216828   0.447   0.875   2.388
 5629TIP3   OH216829   5.728   6.513   6.717
 5629TIP3    H116830   5.818   6.529   6.690
 5629TIP3    H216831   5.677   6.579   6.671
 5630TIP3   OH216832   0.948   3.925   3.753
 5630TIP3    H116833   1.038   3.892   3.754
 5630TIP3    H216834   0.957   4.020   3.758
 5631TIP3   OH216835   3.552   6.764   6.013
 5631TIP3    H116836   3.482   6.767   5.947
 5631TIP3    H216837   3.631   6.787   5.965
 5632TIP3   OH216838   3.484   0.544   5.237
 5632TIP3    H116839   3.424   0.557   5.310
 5632TIP3    H216840   3.568   0.578   5.269
 5633TIP3   OH216841   1.019   5.989   1.417
 5633TIP3    H116842   0.946   6.002   1.478
 5633TIP3    H216843   0.981   5.999   1.330
 5634TIP3   OH216844   5.145   2.843   1.540
 5634TIP3    H116845   5.119   2.930   1.509
 5634TIP3    H216846   5.238   2.836   1.519
 5635TIP3   OH216847   6.847   6.886   6.810
 5635TIP3    H116848   6.922   6.904   6.754
 5635TIP3    H216849   6.810   6.972   6.830
 5636TIP3   OH216850   4.489   7.696   5.907
 5636TIP3    H116851   4.422   7.762   5.890
 5636TIP3    H216852   4.519   7.669   5.820
 5637TIP3   OH216853   0.519   3.017   2.433
 5637TIP3    H116854   0.522   3.042   2.526
 5637TIP3    H216855   0.443   3.063   2.398
 5638TIP3   OH216856   2.683   0.867   1.169
 5638TIP3    H116857   2.718   0.797   1.223
 5638TIP3    H216858   2.626   0.824   1.106
 5639TIP3   OH216859   7.315   7.395   3.093
 5639TIP3    H116860   7.287   7.461   3.030
 5639TIP3    H216861   7.242   7.332   3.096
 5640TIP3   OH216862   7.023   5.451   1.566
 5640TIP3    H116863   6.954   5.423   1.626
 5640TIP3    H216864   6.994   5.419   1.480
 5641TIP3   OH216865   2.617   6.914   0.509
 5641TIP3    H116866   2.702   6.924   0.465
 5641TIP3    H216867   2.639   6.909   0.602
 5642TIP3   OH216868   3.923   0.005   4.480
 5642TIP3    H116869   3.950  -0.002   4.389
 5642TIP3    H216870   3.913   0.099   4.495
 5643TIP3   OH216871   5.506   1.021   0.463
 5643TIP3    H116872   5.426   1.052   0.420
 5643TIP3    H216873   5.479   1.001   0.552
 5644TIP3   OH216874   2.847   6.261   3.276
 5644TIP3    H116875   2.812   6.227   3.194
 5644TIP3    H216876   2.778   6.318   3.309
 5645TIP3   OH216877   6.799   6.250   0.704
 5645TIP3    H116878   6.721   6.259   0.759
 5645TIP3    H216879   6.765   6.258   0.615
 5646TIP3   OH216880   7.409   0.212   6.247
 5646TIP3    H116881   7.405   0.129   6.198
 5646TIP3    H216882   7.499   0.241   6.238
 5647TIP3   OH216883   4.951   7.121   4.126
 5647TIP3    H116884   4.999   7.200   4.100
 5647TIP3    H216885   5.019   7.056   4.141
 5648TIP3   OH216886   6.724   3.511   1.243
 5648TIP3    H116887   6.663   3.584   1.234
 5648TIP3    H216888   6.668   3.436   1.262
 5649TIP3   OH216889   4.128   5.464   3.936
 5649TIP3    H116890   4.172   5.548   3.922
 5649TIP3    H216891   4.189   5.413   3.989
 5650TIP3   OH216892   6.493   7.075   2.259
 5650TIP3    H116893   6.468   7.104   2.347
 5650TIP3    H216894   6.442   7.131   2.201
 5651TIP3   OH216895   2.866   1.198   3.106
 5651TIP3    H116896   2.898   1.199   3.016
 5651TIP3    H216897   2.806   1.123   3.109
 5652TIP3   OH216898   2.098   2.373   5.887
 5652TIP3    H116899   2.159   2.332   5.826
 5652TIP3    H216900   2.016   2.378   5.839
 5653TIP3   OH216901   3.676   1.025   4.218
 5653TIP3    H116902   3.699   1.116   4.236
 5653TIP3    H216903   3.693   0.978   4.300
 5654TIP3   OH216904   2.883   6.779   2.008
 5654TIP3    H116905   2.868   6.824   2.091
 5654TIP3    H216906   2.837   6.832   1.943
 5655TIP3   OH216907   6.199   7.736   5.360
 5655TIP3    H116908   6.230   7.769   5.276
 5655TIP3    H216909   6.274   7.692   5.399
 5656TIP3   OH216910   1.488   1.099   0.322
 5656TIP3    H116911   1.531   1.178   0.289
 5656TIP3    H216912   1.496   1.036   0.250
 5657TIP3   OH216913   0.998   4.887   2.285
 5657TIP3    H116914   0.919   4.895   2.232
 5657TIP3    H216915   1.066   4.860   2.224
 5658TIP3   OH216916   6.100   2.246   4.392
 5658TIP3    H116917   6.187   2.261   4.428
 5658TIP3    H216918   6.060   2.183   4.451
 5659TIP3   OH216919   4.430   3.911   0.092
 5659TIP3    H116920   4.389   3.887   0.009
 5659TIP3    H216921   4.362   3.960   0.139
 5660TIP3   OH216922   3.869   5.313   2.617
 5660TIP3    H116923   3.804   5.373   2.580
 5660TIP3    H216924   3.909   5.270   2.542
 5661TIP3   OH216925   3.801   2.622   2.227
 5661TIP3    H116926   3.773   2.579   2.308
 5661TIP3    H216927   3.767   2.566   2.157
 5662TIP3   OH216928   6.168   7.470   2.959
 5662TIP3    H116929   6.085   7.500   2.997
 5662TIP3    H216930   6.229   7.542   2.976
 5663TIP3   OH216931   7.692   3.254   6.405
 5663TIP3    H116932   7.638   3.333   6.408
 5663TIP3    H216933   7.663   3.202   6.479
 5664TIP3   OH216934   8.264   2.567   1.591
 5664TIP3    H116935   8.337   2.565   1.653
 5664TIP3    H216936   8.282   2.642   1.535
 5665TIP3   OH216937   3.290   7.712   3.178
 5665TIP3    H116938   3.259   7.655   3.248
 5665TIP3    H216939   3.269   7.665   3.097
 5666TIP3   OH216940   0.364   2.320   1.941
 5666TIP3    H116941   0.276   2.303   1.976
 5666TIP3    H216942   0.373   2.259   1.868
 5667TIP3   OH216943   5.629   2.110   5.931
 5667TIP3    H116944   5.580   2.042   5.886
 5667TIP3    H216945   5.687   2.062   5.991
 5668TIP3   OH216946   4.279   0.440   4.675
 5668TIP3    H116947   4.314   0.479   4.594
 5668TIP3    H216948   4.244   0.515   4.723
 5669TIP3   OH216949   6.224   5.181   2.032
 5669TIP3    H116950   6.195   5.200   1.942
 5669TIP3    H216951   6.230   5.086   2.035
 5670TIP3   OH216952   8.142   2.189   6.423
 5670TIP3    H116953   8.160   2.143   6.505
 5670TIP3    H216954   8.195   2.268   6.428
 5671TIP3   OH216955   2.444   4.296   6.696
 5671TIP3    H116956   2.490   4.290   6.779
 5671TIP3    H216957   2.354   4.269   6.715
 5672TIP3   OH216958   4.232   5.672   0.045
 5672TIP3    H116959   4.310   5.627   0.075
 5672TIP3    H216960   4.258   5.764   0.038
 5673TIP3   OH216961   0.697   1.290   3.637
 5673TIP3    H116962   0.681   1.333   3.722
 5673TIP3    H216963   0.749   1.353   3.588
 5674TIP3   OH216964   8.024   2.596   0.740
 5674TIP3    H116965   8.043   2.689   0.756
 5674TIP3    H216966   7.987   2.564   0.822
 5675TIP3   OH216967   5.195   3.686   0.405
 5675TIP3    H116968   5.173   3.677   0.498
 5675TIP3    H216969   5.274   3.633   0.393
 5676TIP3   OH216970   0.774   3.350   0.973
 5676TIP3    H116971   0.756   3.351   0.879
 5676TIP3    H216972   0.755   3.260   0.999
 5677TIP3   OH216973   1.421   2.663   4.859
 5677TIP3    H116974   1.326   2.660   4.860
 5677TIP3    H216975   1.443   2.755   4.871
 5678TIP3   OH216976   7.375   6.378   1.000
 5678TIP3    H116977   7.389   6.451   0.940
 5678TIP3    H216978   7.287   6.391   1.035
 5679TIP3   OH216979   7.101   3.313   2.670
 5679TIP3    H116980   7.107   3.372   2.595
 5679TIP3    H216981   7.185   3.323   2.715
 5680TIP3   OH216982   6.261   5.060   2.693
 5680TIP3    H116983   6.276   5.126   2.761
 5680TIP3    H216984   6.320   4.988   2.715
 5681TIP3   OH216985   3.263   1.935   6.445
 5681TIP3    H116986   3.325   1.933   6.518
 5681TIP3    H216987   3.217   1.851   6.450
 5682TIP3   OH216988   3.652   2.262   0.173
 5682TIP3    H116989   3.608   2.347   0.186
 5682TIP3    H216990   3.745   2.284   0.168
 5683TIP3   OH216991   3.102   1.465   2.753
 5683TIP3    H116992   3.190   1.497   2.775
 5683TIP3    H216993   3.052   1.544   2.735
 5684TIP3   OH216994   5.512   5.527   3.874
 5684TIP3    H116995   5.587   5.587   3.875
 5684TIP3    H216996   5.549   5.441   3.892
 5685TIP3   OH216997   0.058   0.705   3.387
 5685TIP3    H116998   0.086   0.624   3.430
 5685TIP3    H216999   0.040   0.679   3.297
 5686TIP3   OH217000   3.512   0.956   2.161
 5686TIP3    H117001   3.529   1.050   2.166
 5686TIP3    H217002   3.459   0.937   2.238
 5687TIP3   OH217003   1.424   7.662   4.464
 5687TIP3    H117004   1.358   7.731   4.456
 5687TIP3    H217005   1.449   7.664   4.556
 5688TIP3   OH217006   0.279   5.903   3.423
 5688TIP3    H117007   0.184   5.893   3.424
 5688TIP3    H217008   0.304   5.877   3.334
 5689TIP3   OH217009   5.584   7.695   5.812
 5689TIP3    H117010   5.650   7.684   5.745
 5689TIP3    H217011   5.527   7.765   5.779
 5690TIP3   OH217012   3.235   3.470   2.567
 5690TIP3    H117013   3.182   3.397   2.534
 5690TIP3    H217014   3.315   3.467   2.513
 5691TIP3   OH217015   6.451   2.237   2.778
 5691TIP3    H117016   6.499   2.214   2.698
 5691TIP3    H217017   6.515   2.284   2.831
 5692TIP3   OH217018   4.693   3.538   1.747
 5692TIP3    H117019   4.647   3.600   1.804
 5692TIP3    H217020   4.730   3.594   1.678
 5693TIP3   OH217021   6.748   2.124   0.726
 5693TIP3    H117022   6.812   2.067   0.770
 5693TIP3    H217023   6.767   2.211   0.760
 5694TIP3   OH217024   6.950   6.327   5.249
 5694TIP3    H117025   6.912   6.327   5.161
 5694TIP3    H217026   6.908   6.401   5.293
 5695TIP3   OH217027   4.587   6.619   4.204
 5695TIP3    H117028   4.616   6.575   4.124
 5695TIP3    H217029   4.623   6.707   4.197
 5696TIP3   OH217030   3.358   6.453   5.831
 5696TIP3    H117031   3.447   6.481   5.809
 5696TIP3    H217032   3.370   6.368   5.873
 5697TIP3   OH217033   4.451   6.013   0.872
 5697TIP3    H117034   4.441   5.996   0.966
 5697TIP3    H217035   4.396   6.089   0.855
 5698TIP3   OH217036   1.231   7.287   3.371
 5698TIP3    H117037   1.180   7.221   3.326
 5698TIP3    H217038   1.315   7.288   3.326
 5699TIP3   OH217039   3.594   6.714   2.634
 5699TIP3    H117040   3.543   6.785   2.674
 5699TIP3    H217041   3.545   6.634   2.655
 5700TIP3   OH217042   5.807   3.774   3.508
 5700TIP3    H117043   5.890   3.797   3.465
 5700TIP3    H217044   5.805   3.679   3.507
 5701TIP3   OH217045   6.838   6.239   6.236
 5701TIP3    H117046   6.896   6.258   6.163
 5701TIP3    H217047   6.866   6.300   6.305
 5702TIP3   OH217048   5.041   2.891   0.878
 5702TIP3    H117049   5.106   2.959   0.857
 5702TIP3    H217050   5.091   2.809   0.877
 5703TIP3   OH217051   3.826   0.559   1.945
 5703TIP3    H117052   3.759   0.610   1.991
 5703TIP3    H217053   3.817   0.585   1.853
 5704TIP3   OH217054   5.807   3.704   0.888
 5704TIP3    H117055   5.845   3.668   0.808
 5704TIP3    H217056   5.719   3.667   0.891
 5705TIP3   OH217057   6.677   6.030   0.997
 5705TIP3    H117058   6.587   5.998   0.991
 5705TIP3    H217059   6.708   5.998   1.081
 5706TIP3   OH217060   1.397   5.393   5.007
 5706TIP3    H117061   1.314   5.349   5.023
 5706TIP3    H217062   1.388   5.478   5.051
 5707TIP3   OH217063   7.632   4.062   2.247
 5707TIP3    H117064   7.627   4.107   2.163
 5707TIP3    H217065   7.709   4.098   2.290
 5708TIP3   OH217066   3.208   0.330   0.448
 5708TIP3    H117067   3.141   0.353   0.512
 5708TIP3    H217068   3.220   0.409   0.396
 5709TIP3   OH217069   4.600   3.903   3.839
 5709TIP3    H117070   4.582   3.962   3.912
 5709TIP3    H217071   4.516   3.859   3.823
 5710TIP3   OH217072   7.226   7.210   5.987
 5710TIP3    H117073   7.271   7.135   6.024
 5710TIP3    H217074   7.138   7.207   6.025
 5711TIP3   OH217075   2.124   1.726   0.119
 5711TIP3    H117076   2.084   1.813   0.131
 5711TIP3    H217077   2.180   1.736   0.042
 5712TIP3   OH217078   5.048   2.636   1.904
 5712TIP3    H117079   5.138   2.665   1.919
 5712TIP3    H217080   5.039   2.630   1.809
 5713TIP3   OH217081   0.094   1.678   3.485
 5713TIP3    H117082   0.088   1.619   3.410
 5713TIP3    H217083   0.186   1.701   3.492
 5714TIP3   OH217084   4.690   3.527   4.366
 5714TIP3    H117085   4.755   3.469   4.328
 5714TIP3    H217086   4.738   3.576   4.433
 5715TIP3   OH217087   5.162   0.674   3.632
 5715TIP3    H117088   5.215   0.676   3.712
 5715TIP3    H217089   5.108   0.753   3.638
 5716TIP3   OH217090   0.905   2.131   4.879
 5716TIP3    H117091   0.844   2.192   4.837
 5716TIP3    H217092   0.905   2.054   4.822
 5717TIP3   OH217093   2.881   7.441   4.571
 5717TIP3    H117094   2.910   7.350   4.570
 5717TIP3    H217095   2.825   7.450   4.494
 5718TIP3   OH217096   5.692   5.593   1.379
 5718TIP3    H117097   5.607   5.635   1.363
 5718TIP3    H217098   5.679   5.502   1.351
 5719TIP3   OH217099   0.553   5.979   4.079
 5719TIP3    H117100   0.644   6.008   4.086
 5719TIP3    H217101   0.512   6.008   4.160
 5720TIP3   OH217102   1.920   1.096   2.207
 5720TIP3    H117103   2.013   1.076   2.212
 5720TIP3    H217104   1.915   1.172   2.148
 5721TIP3   OH217105   4.623   1.449   0.910
 5721TIP3    H117106   4.551   1.403   0.868
 5721TIP3    H217107   4.623   1.416   1.000
 5722TIP3   OH217108   1.926   6.710   6.190
 5722TIP3    H117109   1.864   6.675   6.254
 5722TIP3    H217110   1.884   6.695   6.105
 5723TIP3   OH217111   4.086   0.523   2.004
 5723TIP3    H117112   4.096   0.436   2.044
 5723TIP3    H217113   3.993   0.529   1.984
 5724TIP3   OH217114   3.848   0.035   6.073
 5724TIP3    H117115   3.846  -0.042   6.016
 5724TIP3    H217116   3.941   0.055   6.084
 5725TIP3   OH217117   3.952   6.383   6.750
 5725TIP3    H117118   3.964   6.472   6.715
 5725TIP3    H217119   3.958   6.394   6.845
 5726TIP3   OH217120   6.618   2.753   6.564
 5726TIP3    H117121   6.702   2.799   6.569
 5726TIP3    H217122   6.607   2.734   6.471
 5727TIP3   OH217123   0.472   7.618   4.897
 5727TIP3    H117124   0.512   7.553   4.954
 5727TIP3    H217125   0.408   7.662   4.952
 5728TIP3   OH217126   2.041   1.521   0.247
 5728TIP3    H117127   1.948   1.535   0.226
 5728TIP3    H217128   2.082   1.606   0.233
 5729TIP3   OH217129   6.019   4.553   6.546
 5729TIP3    H117130   5.995   4.645   6.562
 5729TIP3    H217131   5.984   4.506   6.622
 5730TIP3   OH217132   4.882   2.967   0.358
 5730TIP3    H117133   4.926   2.927   0.433
 5730TIP3    H217134   4.948   3.026   0.321
 5731TIP3   OH217135   4.075   1.807   0.927
 5731TIP3    H117136   4.020   1.822   0.850
 5731TIP3    H217137   4.164   1.823   0.896
 5732TIP3   OH217138   7.437   2.291   0.988
 5732TIP3    H117139   7.437   2.374   0.940
 5732TIP3    H217140   7.345   2.272   1.003
 5733TIP3   OH217141   0.924   4.364   4.736
 5733TIP3    H117142   0.861   4.388   4.668
 5733TIP3    H217143   0.942   4.445   4.783
 5734TIP3   OH217144   7.679   2.423   5.716
 5734TIP3    H117145   7.640   2.344   5.753
 5734TIP3    H217146   7.665   2.491   5.782
 5735TIP3   OH217147   7.955   3.437   4.322
 5735TIP3    H117148   7.925   3.516   4.367
 5735TIP3    H217149   7.897   3.428   4.247
 5736TIP3   OH217150   5.803   2.237   3.098
 5736TIP3    H117151   5.871   2.261   3.036
 5736TIP3    H217152   5.747   2.177   3.049
 5737TIP3   OH217153   1.660   6.923   3.148
 5737TIP3    H117154   1.689   6.979   3.220
 5737TIP3    H217155   1.708   6.955   3.071
 5738TIP3   OH217156   4.171   1.629  -0.028
 5738TIP3    H117157   4.152   1.689   0.045
 5738TIP3    H217158   4.098   1.567  -0.027
 5739TIP3   OH217159   7.263   2.816   6.806
 5739TIP3    H117160   7.354   2.845   6.798
 5739TIP3    H217161   7.261   2.729   6.767
 5740TIP3   OH217162   2.628   1.595   3.432
 5740TIP3    H117163   2.695   1.648   3.476
 5740TIP3    H217164   2.624   1.514   3.482
 5741TIP3   OH217165   0.657   3.359   1.365
 5741TIP3    H117166   0.606   3.378   1.444
 5741TIP3    H217167   0.667   3.263   1.366
 5742TIP3   OH217168   8.103   7.401   4.029
 5742TIP3    H117169   8.082   7.491   4.002
 5742TIP3    H217170   8.121   7.355   3.947
 5743TIP3   OH217171   6.227   2.579   1.075
 5743TIP3    H117172   6.253   2.602   1.164
 5743TIP3    H217173   6.154   2.518   1.086
 5744TIP3   OH217174   0.922   2.534   1.064
 5744TIP3    H117175   0.860   2.560   0.996
 5744TIP3    H217176   0.886   2.454   1.101
 5745TIP3   OH217177   0.528   3.311   2.274
 5745TIP3    H117178   0.528   3.251   2.199
 5745TIP3    H217179   0.597   3.374   2.255
 5746TIP3   OH217180   6.787   7.422   0.461
 5746TIP3    H117181   6.752   7.369   0.389
 5746TIP3    H217182   6.804   7.360   0.531
 5747TIP3   OH217183   2.986   6.323   4.501
 5747TIP3    H117184   2.918   6.349   4.438
 5747TIP3    H217185   2.939   6.315   4.584
 5748TIP3   OH217186   4.225   0.837   2.595
 5748TIP3    H117187   4.183   0.751   2.602
 5748TIP3    H217188   4.202   0.868   2.508
 5749TIP3   OH217189   7.834   3.647   0.954
 5749TIP3    H117190   7.885   3.697   0.891
 5749TIP3    H217191   7.743   3.662   0.929
 5750TIP3   OH217192   6.536   2.198   4.102
 5750TIP3    H117193   6.479   2.140   4.052
 5750TIP3    H217194   6.521   2.285   4.066
 5751TIP3   OH217195   7.271   2.063   4.840
 5751TIP3    H117196   7.355   2.104   4.863
 5751TIP3    H217197   7.263   2.076   4.745
 5752TIP3   OH217198   1.130   2.222   6.140
 5752TIP3    H117199   1.125   2.141   6.089
 5752TIP3    H217200   1.180   2.282   6.084
 5753TIP3   OH217201   3.715   5.405   2.324
 5753TIP3    H117202   3.634   5.389   2.275
 5753TIP3    H217203   3.689   5.466   2.393
 5754TIP3   OH217204   1.512   0.609   1.090
 5754TIP3    H117205   1.508   0.582   1.181
 5754TIP3    H217206   1.503   0.528   1.040
 5755TIP3   OH217207   6.620   0.731   0.719
 5755TIP3    H117208   6.668   0.719   0.802
 5755TIP3    H217209   6.528   0.720   0.744
 5756TIP3   OH217210   2.394   1.479   3.768
 5756TIP3    H117211   2.361   1.502   3.855
 5756TIP3    H217212   2.316   1.477   3.712
 5757TIP3   OH217213   5.961   5.840   1.803
 5757TIP3    H117214   5.929   5.921   1.842
 5757TIP3    H217215   5.902   5.825   1.729
 5758TIP3   OH217216   4.005   6.202   2.444
 5758TIP3    H117217   4.089   6.184   2.401
 5758TIP3    H217218   3.942   6.146   2.399
 5759TIP3   OH217219   7.288   2.191   1.572
 5759TIP3    H117220   7.367   2.136   1.574
 5759TIP3    H217221   7.291   2.233   1.486
 5760TIP3   OH217222   6.298   0.477   0.147
 5760TIP3    H117223   6.372   0.474   0.087
 5760TIP3    H217224   6.293   0.389   0.184
 5761TIP3   OH217225   6.076   6.687   2.755
 5761TIP3    H117226   6.009   6.755   2.743
 5761TIP3    H217227   6.136   6.723   2.820
 5762TIP3   OH217228   3.829   2.134   2.267
 5762TIP3    H117229   3.863   2.189   2.337
 5762TIP3    H217230   3.855   2.178   2.186
 5763TIP3   OH217231   1.202   4.976   1.721
 5763TIP3    H117232   1.166   4.986   1.633
 5763TIP3    H217233   1.206   5.066   1.756
 5764TIP3   OH217234   3.866   3.527   2.734
 5764TIP3    H117235   3.882   3.448   2.786
 5764TIP3    H217236   3.780   3.512   2.694
 5765TIP3   OH217237   4.437   5.971   1.138
 5765TIP3    H117238   4.346   5.949   1.157
 5765TIP3    H217239   4.486   5.891   1.155
 5766TIP3   OH217240   8.220   1.805   2.357
 5766TIP3    H117241   8.167   1.880   2.333
 5766TIP3    H217242   8.178   1.769   2.435
 5767TIP3   OH217243   7.388   5.927   5.758
 5767TIP3    H117244   7.415   5.951   5.669
 5767TIP3    H217245   7.388   6.010   5.806
 5768TIP3   OH217246   4.007   6.172   0.073
 5768TIP3    H117247   4.045   6.245   0.024
 5768TIP3    H217248   3.965   6.118   0.006
 5769TIP3   OH217249   6.990   1.309   5.717
 5769TIP3    H117250   6.981   1.400   5.689
 5769TIP3    H217251   7.036   1.267   5.644
 5770TIP3   OH217252   8.201   0.988   5.454
 5770TIP3    H117253   8.160   0.901   5.453
 5770TIP3    H217254   8.205   1.014   5.362
 5771TIP3   OH217255   1.007   4.756   1.938
 5771TIP3    H117256   0.934   4.800   1.981
 5771TIP3    H217257   1.016   4.801   1.854
 5772TIP3   OH217258   2.143   3.010   5.337
 5772TIP3    H117259   2.177   3.094   5.307
 5772TIP3    H217260   2.105   2.970   5.258
 5773TIP3   OH217261   7.815   3.082   0.185
 5773TIP3    H117262   7.869   3.114   0.257
 5773TIP3    H217263   7.846   2.993   0.170
 5774TIP3   OH217264   2.369   7.728   1.948
 5774TIP3    H117265   2.445   7.774   1.912
 5774TIP3    H217266   2.366   7.754   2.040
 5775TIP3   OH217267   3.848   5.384   5.552
 5775TIP3    H117268   3.891   5.312   5.505
 5775TIP3    H217269   3.783   5.341   5.607
 5776TIP3   OH217270   7.118   5.559   3.563
 5776TIP3    H117271   7.143   5.556   3.471
 5776TIP3    H217272   7.029   5.595   3.563
 5777TIP3   OH217273   5.433   6.624   3.890
 5777TIP3    H117274   5.482   6.543   3.875
 5777TIP3    H217275   5.403   6.617   3.981
 5778TIP3   OH217276   6.611   3.159   4.808
 5778TIP3    H117277   6.586   3.113   4.728
 5778TIP3    H217278   6.623   3.250   4.781
 5779TIP3   OH217279   5.643   0.421   4.600
 5779TIP3    H117280   5.628   0.327   4.611
 5779TIP3    H217281   5.737   0.432   4.614
 5780TIP3   OH217282   4.751   2.559   4.374
 5780TIP3    H117283   4.663   2.539   4.407
 5780TIP3    H217284   4.810   2.524   4.441
 5781TIP3   OH217285   4.755   1.242   0.743
 5781TIP3    H117286   4.754   1.315   0.805
 5781TIP3    H217287   4.671   1.248   0.698
 5782TIP3   OH217288   1.373   2.845   5.267
 5782TIP3    H117289   1.401   2.756   5.284
 5782TIP3    H217290   1.279   2.838   5.250
 5783TIP3   OH217291   1.538   3.138   4.734
 5783TIP3    H117292   1.453   3.118   4.772
 5783TIP3    H217293   1.582   3.192   4.800
 5784TIP3   OH217294   1.852   0.236   0.364
 5784TIP3    H117295   1.794   0.186   0.307
 5784TIP3    H217296   1.932   0.249   0.313
 5785TIP3   OH217297   2.656   2.166   1.374
 5785TIP3    H117298   2.719   2.108   1.331
 5785TIP3    H217299   2.706   2.210   1.442
 5786TIP3   OH217300   7.134   4.876   5.273
 5786TIP3    H117301   7.044   4.904   5.290
 5786TIP3    H217302   7.183   4.906   5.350
 5787TIP3   OH217303   4.365   0.888   5.728
 5787TIP3    H117304   4.283   0.855   5.692
 5787TIP3    H217305   4.367   0.856   5.818
 5788TIP3   OH217306   1.855   2.395   5.759
 5788TIP3    H117307   1.867   2.480   5.717
 5788TIP3    H217308   1.811   2.342   5.692
 5789TIP3   OH217309   4.632   7.399   3.334
 5789TIP3    H117310   4.588   7.479   3.364
 5789TIP3    H217311   4.660   7.356   3.415
 5790TIP3   OH217312   5.882   7.155   3.701
 5790TIP3    H117313   5.919   7.135   3.788
 5790TIP3    H217314   5.788   7.161   3.716
 5791TIP3   OH217315   1.135   5.318   5.050
 5791TIP3    H117316   1.043   5.293   5.046
 5791TIP3    H217317   1.139   5.384   5.119
 5792TIP3   OH217318   0.343   3.422   5.325
 5792TIP3    H117319   0.255   3.454   5.346
 5792TIP3    H217320   0.371   3.478   5.252
 5793TIP3   OH217321   6.736   7.366   6.694
 5793TIP3    H117322   6.741   7.390   6.601
 5793TIP3    H217323   6.700   7.443   6.737
 5794TIP3   OH217324   1.601   2.900   2.339
 5794TIP3    H117325   1.622   2.994   2.336
 5794TIP3    H217326   1.523   2.892   2.283
 5795TIP3   OH217327   4.431   3.894   0.371
 5795TIP3    H117328   4.445   3.881   0.278
 5795TIP3    H217329   4.336   3.884   0.383
 5796TIP3   OH217330   2.162   0.206   3.216
 5796TIP3    H117331   2.158   0.118   3.253
 5796TIP3    H217332   2.249   0.238   3.238
 5797TIP3   OH217333   7.286   1.404   6.534
 5797TIP3    H117334   7.242   1.458   6.599
 5797TIP3    H217335   7.218   1.384   6.469
 5798TIP3   OH217336   3.832   0.537   6.249
 5798TIP3    H117337   3.901   0.488   6.293
 5798TIP3    H217338   3.751   0.504   6.288
 5799TIP3   OH217339   6.459   4.947   5.597
 5799TIP3    H117340   6.408   4.895   5.660
 5799TIP3    H217341   6.424   4.921   5.512
 5800TIP3   OH217342   3.254   7.006   2.140
 5800TIP3    H117343   3.272   7.067   2.068
 5800TIP3    H217344   3.337   7.000   2.187
 5801TIP3   OH217345   1.602   0.048   1.878
 5801TIP3    H117346   1.648   0.120   1.836
 5801TIP3    H217347   1.669   0.006   1.933
 5802TIP3   OH217348   2.814   3.623   6.553
 5802TIP3    H117349   2.838   3.550   6.610
 5802TIP3    H217350   2.719   3.623   6.553
 5803TIP3   OH217351   7.025   6.895   6.028
 5803TIP3    H117352   7.096   6.865   5.971
 5803TIP3    H217353   7.037   6.846   6.109
 5804TIP3   OH217354   5.435   6.232   4.229
 5804TIP3    H117355   5.491   6.162   4.263
 5804TIP3    H217356   5.460   6.309   4.280
 5805TIP3   OH217357   8.156   0.502   2.877
 5805TIP3    H117358   8.151   0.486   2.783
 5805TIP3    H217359   8.077   0.460   2.912
 5806TIP3   OH217360   3.108   6.334   3.365
 5806TIP3    H117361   3.082   6.424   3.348
 5806TIP3    H217362   3.029   6.282   3.349
 5807TIP3   OH217363   3.712   7.028   0.860
 5807TIP3    H117364   3.704   7.016   0.766
 5807TIP3    H217365   3.637   6.981   0.897
 5808TIP3   OH217366   3.925   3.165   5.699
 5808TIP3    H117367   3.991   3.228   5.727
 5808TIP3    H217368   3.975   3.098   5.652
 5809TIP3   OH217369   5.489   5.468   5.989
 5809TIP3    H117370   5.521   5.519   5.914
 5809TIP3    H217371   5.394   5.479   5.986
 5810TIP3   OH217372   3.162   7.011   1.591
 5810TIP3    H117373   3.155   6.926   1.635
 5810TIP3    H217374   3.083   7.015   1.536
 5811TIP3   OH217375   5.693   3.264   5.184
 5811TIP3    H117376   5.725   3.313   5.108
 5811TIP3    H217377   5.772   3.229   5.225
 5812TIP3   OH217378   0.809   1.482   5.057
 5812TIP3    H117379   0.897   1.472   5.022
 5812TIP3    H217380   0.761   1.529   4.989
 5813TIP3   OH217381   2.281   2.463   0.797
 5813TIP3    H117382   2.281   2.503   0.884
 5813TIP3    H217383   2.258   2.535   0.738
 5814TIP3   OH217384   6.080   5.681   3.708
 5814TIP3    H117385   6.002   5.649   3.663
 5814TIP3    H217386   6.150   5.672   3.644
 5815TIP3   OH217387   6.641   4.248   0.810
 5815TIP3    H117388   6.626   4.320   0.872
 5815TIP3    H217389   6.567   4.253   0.750
 5816TIP3   OH217390   7.265   3.935   1.174
 5816TIP3    H117391   7.320   3.880   1.119
 5816TIP3    H217392   7.319   4.012   1.192
 5817TIP3   OH217393   7.231   5.186   4.395
 5817TIP3    H117394   7.257   5.277   4.381
 5817TIP3    H217395   7.178   5.163   4.318
 5818TIP3   OH217396   0.711   0.814   6.705
 5818TIP3    H117397   0.736   0.801   6.796
 5818TIP3    H217398   0.619   0.787   6.701
 5819TIP3   OH217399   1.506   5.267   4.186
 5819TIP3    H117400   1.596   5.258   4.156
 5819TIP3    H217401   1.456   5.285   4.107
 5820TIP3   OH217402   4.125   2.797   0.973
 5820TIP3    H117403   4.153   2.887   0.961
 5820TIP3    H217404   4.057   2.801   1.040
 5821TIP3   OH217405   5.690   1.855   5.109
 5821TIP3    H117406   5.745   1.867   5.031
 5821TIP3    H217407   5.618   1.917   5.096
 5822TIP3   OH217408   7.942   2.436   5.632
 5822TIP3    H117409   7.987   2.363   5.674
 5822TIP3    H217410   7.858   2.444   5.679
 5823TIP3   OH217411   1.667   7.173   2.073
 5823TIP3    H117412   1.638   7.083   2.057
 5823TIP3    H217413   1.736   7.165   2.139
 5824TIP3   OH217414   0.431   5.811   5.169
 5824TIP3    H117415   0.433   5.855   5.253
 5824TIP3    H217416   0.502   5.747   5.174
 5825TIP3   OH217417   4.685   2.576   1.221
 5825TIP3    H117418   4.709   2.539   1.306
 5825TIP3    H217419   4.590   2.583   1.224
 5826TIP3   OH217420   0.140   1.426   2.447
 5826TIP3    H117421   0.210   1.476   2.489
 5826TIP3    H217422   0.071   1.421   2.513
 5827TIP3   OH217423   6.274   3.007   2.181
 5827TIP3    H117424   6.368   3.008   2.163
 5827TIP3    H217425   6.260   2.930   2.235
 5828TIP3   OH217426   2.065   0.825   2.649
 5828TIP3    H117427   2.112   0.886   2.591
 5828TIP3    H217428   2.054   0.874   2.731
 5829TIP3   OH217429   3.261   3.966   3.955
 5829TIP3    H117430   3.269   3.959   4.051
 5829TIP3    H217431   3.351   3.954   3.923
 5830TIP3   OH217432   6.291   6.231   3.270
 5830TIP3    H117433   6.351   6.281   3.325
 5830TIP3    H217434   6.321   6.248   3.180
 5831TIP3   OH217435   5.092   2.457   0.423
 5831TIP3    H117436   5.068   2.439   0.332
 5831TIP3    H217437   5.168   2.515   0.416
 5832TIP3   OH217438   0.329   4.102   5.133
 5832TIP3    H117439   0.415   4.144   5.143
 5832TIP3    H217440   0.281   4.158   5.073
 5833TIP3   OH217441   5.432   5.391   4.179
 5833TIP3    H117442   5.469   5.323   4.124
 5833TIP3    H217443   5.341   5.366   4.192
 5834TIP3   OH217444   6.511   4.163   6.657
 5834TIP3    H117445   6.438   4.177   6.718
 5834TIP3    H217446   6.520   4.247   6.612
 5835TIP3   OH217447   6.273   5.746   3.483
 5835TIP3    H117448   6.326   5.790   3.416
 5835TIP3    H217449   6.189   5.730   3.440
 5836TIP3   OH217450   7.106   5.907   2.906
 5836TIP3    H117451   7.105   5.949   2.991
 5836TIP3    H217452   7.017   5.919   2.872
 5837TIP3   OH217453   2.845   0.352   2.877
 5837TIP3    H117454   2.846   0.284   2.810
 5837TIP3    H217455   2.819   0.431   2.831
 5838TIP3   OH217456   3.846   1.174   3.629
 5838TIP3    H117457   3.809   1.229   3.698
 5838TIP3    H217458   3.815   1.215   3.548
 5839TIP3   OH217459   3.938   5.680   1.086
 5839TIP3    H117460   3.845   5.701   1.078
 5839TIP3    H217461   3.953   5.671   1.180
 5840TIP3   OH217462   7.070   6.464   5.537
 5840TIP3    H117463   6.977   6.443   5.529
 5840TIP3    H217464   7.071   6.549   5.582
 5841TIP3   OH217465   7.616   2.175   4.485
 5841TIP3    H117466   7.588   2.177   4.394
 5841TIP3    H217467   7.557   2.235   4.530
 5842TIP3   OH217468   1.492   0.196   6.632
 5842TIP3    H117469   1.582   0.193   6.664
 5842TIP3    H217470   1.501   0.228   6.542
 5843TIP3   OH217471   1.938   5.646   1.050
 5843TIP3    H117472   1.950   5.565   1.099
 5843TIP3    H217473   1.862   5.688   1.090
 5844TIP3   OH217474   0.497   5.187   0.801
 5844TIP3    H117475   0.581   5.230   0.783
 5844TIP3    H217476   0.517   5.124   0.870
 5845TIP3   OH217477   1.480   6.069   2.598
 5845TIP3    H117478   1.476   5.995   2.538
 5845TIP3    H217479   1.406   6.057   2.657
 5846TIP3   OH217480   0.548   6.021   6.025
 5846TIP3    H117481   0.563   6.104   5.980
 5846TIP3    H217482   0.624   5.967   6.004
 5847TIP3   OH217483   5.228   1.684   1.462
 5847TIP3    H117484   5.249   1.688   1.555
 5847TIP3    H217485   5.294   1.627   1.424
 5848TIP3   OH217486   0.550   6.123   3.176
 5848TIP3    H117487   0.459   6.091   3.170
 5848TIP3    H217488   0.542   6.218   3.165
 5849TIP3   OH217489   2.449   4.379   2.006
 5849TIP3    H117490   2.545   4.387   2.001
 5849TIP3    H217491   2.431   4.291   1.972
 5850TIP3   OH217492   6.626   0.502   0.153
 5850TIP3    H117493   6.699   0.564   0.145
 5850TIP3    H217494   6.593   0.493   0.064
 5851TIP3   OH217495   6.670   4.848   0.347
 5851TIP3    H117496   6.711   4.873   0.264
 5851TIP3    H217497   6.732   4.787   0.387
 5852TIP3   OH217498   2.507   4.948   3.275
 5852TIP3    H117499   2.462   4.915   3.352
 5852TIP3    H217500   2.509   4.873   3.215
 5853TIP3   OH217501   7.226   7.200   2.498
 5853TIP3    H117502   7.256   7.175   2.411
 5853TIP3    H217503   7.281   7.274   2.522
 5854TIP3   OH217504   0.065   5.419   5.700
 5854TIP3    H117505   0.160   5.429   5.714
 5854TIP3    H217506   0.048   5.327   5.721
 5855TIP3   OH217507   4.435   0.753   2.938
 5855TIP3    H117508   4.484   0.682   2.898
 5855TIP3    H217509   4.374   0.781   2.871
 5856TIP3   OH217510   5.431   1.532   0.934
 5856TIP3    H117511   5.477   1.573   0.861
 5856TIP3    H217512   5.364   1.596   0.959
 5857TIP3   OH217513   2.117   4.753   1.002
 5857TIP3    H117514   2.086   4.762   1.092
 5857TIP3    H217515   2.210   4.777   1.006
 5858TIP3   OH217516   0.878   1.402   3.370
 5858TIP3    H117517   0.875   1.347   3.292
 5858TIP3    H217518   0.829   1.480   3.347
 5859TIP3   OH217519   6.226   6.380   6.409
 5859TIP3    H117520   6.263   6.438   6.476
 5859TIP3    H217521   6.154   6.335   6.453
 5860TIP3   OH217522   5.913   7.388   1.391
 5860TIP3    H117523   5.973   7.425   1.326
 5860TIP3    H217524   5.951   7.303   1.412
 5861TIP3   OH217525   5.821   6.490   3.778
 5861TIP3    H117526   5.808   6.476   3.684
 5861TIP3    H217527   5.916   6.495   3.789
 5862TIP3   OH217528   6.060   0.704   6.187
 5862TIP3    H117529   6.000   0.759   6.237
 5862TIP3    H217530   6.055   0.738   6.098
 5863TIP3   OH217531   4.236   5.501   3.459
 5863TIP3    H117532   4.276   5.512   3.372
 5863TIP3    H217533   4.310   5.488   3.518
 5864TIP3   OH217534   1.827   6.300   1.567
 5864TIP3    H117535   1.747   6.327   1.612
 5864TIP3    H217536   1.812   6.208   1.544
 5865TIP3   OH217537   8.118   1.500   6.067
 5865TIP3    H117538   8.202   1.460   6.044
 5865TIP3    H217539   8.093   1.457   6.149
 5866TIP3   OH217540   7.222   4.343   4.610
 5866TIP3    H117541   7.167   4.382   4.543
 5866TIP3    H217542   7.311   4.372   4.589
 5867TIP3   OH217543   6.362   6.105   1.884
 5867TIP3    H117544   6.331   6.061   1.964
 5867TIP3    H217545   6.284   6.146   1.848
 5868TIP3   OH217546   3.819   3.368   6.646
 5868TIP3    H117547   3.909   3.347   6.672
 5868TIP3    H217548   3.804   3.315   6.568
 5869TIP3   OH217549   2.169   4.387   0.449
 5869TIP3    H117550   2.123   4.303   0.444
 5869TIP3    H217551   2.112   4.442   0.503
 5870TIP3   OH217552   3.132   4.465   5.252
 5870TIP3    H117553   3.131   4.438   5.344
 5870TIP3    H217554   3.225   4.468   5.229
 5871TIP3   OH217555   4.316   3.728   3.102
 5871TIP3    H117556   4.335   3.647   3.150
 5871TIP3    H217557   4.244   3.704   3.043
 5872TIP3   OH217558   7.324   2.760   1.683
 5872TIP3    H117559   7.262   2.806   1.740
 5872TIP3    H217560   7.410   2.774   1.724
 5873TIP3   OH217561   4.706   5.909   2.486
 5873TIP3    H117562   4.764   5.982   2.464
 5873TIP3    H217563   4.619   5.948   2.493
 5874TIP3   OH217564   2.819   7.639   3.349
 5874TIP3    H117565   2.806   7.591   3.430
 5874TIP3    H217566   2.877   7.712   3.374
 5875TIP3   OH217567   3.503   3.169   1.000
 5875TIP3    H117568   3.572   3.108   1.028
 5875TIP3    H217569   3.501   3.235   1.069
 5876TIP3   OH217570   1.386   3.708   5.550
 5876TIP3    H117571   1.451   3.778   5.537
 5876TIP3    H217572   1.337   3.736   5.628
 5877TIP3   OH217573   6.185   1.637   6.021
 5877TIP3    H117574   6.134   1.607   5.945
 5877TIP3    H217575   6.158   1.578   6.092
 5878TIP3   OH217576   1.161   2.547   5.269
 5878TIP3    H117577   1.093   2.607   5.298
 5878TIP3    H217578   1.117   2.462   5.261
 5879TIP3   OH217579   0.186   5.782   6.634
 5879TIP3    H117580   0.182   5.873   6.662
 5879TIP3    H217581   0.228   5.737   6.708
 5880TIP3   OH217582   6.704   4.151   0.431
 5880TIP3    H117583   6.660   4.075   0.470
 5880TIP3    H217584   6.741   4.118   0.349
 5881TIP3   OH217585   5.096   7.487   4.975
 5881TIP3    H117586   5.178   7.439   4.989
 5881TIP3    H217587   5.107   7.568   5.023
 5882TIP3   OH217588   1.379   4.569   0.969
 5882TIP3    H117589   1.332   4.550   1.050
 5882TIP3    H217590   1.362   4.493   0.913
 5883TIP3   OH217591   0.813   2.874   6.019
 5883TIP3    H117592   0.807   2.872   5.923
 5883TIP3    H217593   0.861   2.954   6.038
 5884TIP3   OH217594   3.543   4.017   3.868
 5884TIP3    H117595   3.631   3.994   3.836
 5884TIP3    H217596   3.555   4.030   3.962
 5885TIP3   OH217597   4.939   3.013   2.043
 5885TIP3    H117598   4.881   2.947   2.080
 5885TIP3    H217599   4.978   3.056   2.119
 5886TIP3   OH217600   4.781   6.605   1.824
 5886TIP3    H117601   4.689   6.631   1.824
 5886TIP3    H217602   4.821   6.659   1.893
 5887TIP3   OH217603   0.170   0.743   2.553
 5887TIP3    H117604   0.266   0.742   2.548
 5887TIP3    H217605   0.148   0.831   2.583
 5888TIP3   OH217606   0.542   5.419   1.984
 5888TIP3    H117607   0.552   5.512   2.006
 5888TIP3    H217608   0.448   5.408   1.968
 5889TIP3   OH217609   3.981   7.371   1.906
 5889TIP3    H117610   4.028   7.435   1.959
 5889TIP3    H217611   4.005   7.286   1.944
 5890TIP3   OH217612   3.652   3.959   6.604
 5890TIP3    H117613   3.668   3.918   6.520
 5890TIP3    H217614   3.559   3.944   6.621
 5891TIP3   OH217615   0.630   4.638   2.170
 5891TIP3    H117616   0.675   4.577   2.112
 5891TIP3    H217617   0.571   4.584   2.222
 5892TIP3   OH217618   5.376   2.406   0.817
 5892TIP3    H117619   5.288   2.368   0.826
 5892TIP3    H217620   5.369   2.491   0.860
 5893TIP3   OH217621   7.017   1.476   6.666
 5893TIP3    H117622   7.059   1.406   6.716
 5893TIP3    H217623   7.025   1.554   6.721
 5894TIP3   OH217624   7.154   5.487   6.613
 5894TIP3    H117625   7.089   5.529   6.670
 5894TIP3    H217626   7.216   5.447   6.674
 5895TIP3   OH217627   2.000   0.134   6.012
 5895TIP3    H117628   2.051   0.054   6.021
 5895TIP3    H217629   1.983   0.162   6.102
 5896TIP3   OH217630   3.782   2.435   1.420
 5896TIP3    H117631   3.837   2.511   1.435
 5896TIP3    H217632   3.782   2.388   1.504
 5897TIP3   OH217633   0.149   4.708   6.537
 5897TIP3    H117634   0.193   4.718   6.621
 5897TIP3    H217635   0.064   4.752   6.548
 5898TIP3   OH217636   0.688   2.640   6.120
 5898TIP3    H117637   0.719   2.731   6.121
 5898TIP3    H217638   0.764   2.589   6.092
 5899TIP3   OH217639   7.437   3.752   1.031
 5899TIP3    H117640   7.427   3.685   0.964
 5899TIP3    H217641   7.417   3.707   1.114
 5900TIP3   OH217642   2.009   4.715   4.415
 5900TIP3    H117643   1.979   4.642   4.468
 5900TIP3    H217644   1.969   4.793   4.454
 5901TIP3   OH217645   7.780   3.859   3.240
 5901TIP3    H117646   7.854   3.809   3.273
 5901TIP3    H217647   7.812   3.900   3.160
 5902TIP3   OH217648   4.863   5.318   0.797
 5902TIP3    H117649   4.811   5.338   0.719
 5902TIP3    H217650   4.901   5.402   0.823
 5903TIP3   OH217651   0.617   5.830   6.486
 5903TIP3    H117652   0.650   5.903   6.537
 5903TIP3    H217653   0.623   5.755   6.545
 5904TIP3   OH217654   1.214   1.403   5.244
 5904TIP3    H117655   1.180   1.472   5.187
 5904TIP3    H217656   1.295   1.440   5.280
 5905TIP3   OH217657   4.113   5.269   3.479
 5905TIP3    H117658   4.189   5.323   3.460
 5905TIP3    H217659   4.038   5.325   3.455
 5906TIP3   OH217660   6.505   4.111   3.838
 5906TIP3    H117661   6.563   4.091   3.911
 5906TIP3    H217662   6.564   4.124   3.763
 5907TIP3   OH217663   1.765   6.201   4.229
 5907TIP3    H117664   1.783   6.182   4.136
 5907TIP3    H217665   1.679   6.243   4.229
 5908TIP3   OH217666   4.224   2.847   4.501
 5908TIP3    H117667   4.272   2.918   4.461
 5908TIP3    H217668   4.291   2.790   4.538
 5909TIP3   OH217669   5.121   7.352   4.073
 5909TIP3    H117670   5.169   7.396   4.142
 5909TIP3    H217671   5.160   7.384   3.992
 5910TIP3   OH217672   2.418   3.676   2.687
 5910TIP3    H117673   2.413   3.600   2.628
 5910TIP3    H217674   2.331   3.715   2.683
 5911TIP3   OH217675   3.075   1.926   2.866
 5911TIP3    H117676   3.108   1.882   2.788
 5911TIP3    H217677   3.005   1.982   2.835
 5912TIP3   OH217678   6.834   0.198   4.522
 5912TIP3    H117679   6.765   0.192   4.588
 5912TIP3    H217680   6.914   0.208   4.573
 5913TIP3   OH217681   2.122   1.716   6.449
 5913TIP3    H117682   2.218   1.710   6.457
 5913TIP3    H217683   2.108   1.759   6.365
 5914TIP3   OH217684   5.394   2.640   1.044
 5914TIP3    H117685   5.377   2.696   1.120
 5914TIP3    H217686   5.482   2.606   1.059
 5915TIP3   OH217687   2.749   1.743   0.042
 5915TIP3    H117688   2.793   1.681   0.101
 5915TIP3    H217689   2.820   1.786  -0.005
 5916TIP3   OH217690   4.876   7.036   2.289
 5916TIP3    H117691   4.791   7.048   2.246
 5916TIP3    H217692   4.855   6.990   2.370
 5917TIP3   OH217693   3.163   0.994   4.862
 5917TIP3    H117694   3.165   0.969   4.954
 5917TIP3    H217695   3.235   0.945   4.822
 5918TIP3   OH217696   1.964   5.012   3.527
 5918TIP3    H117697   1.940   5.098   3.493
 5918TIP3    H217698   1.884   4.960   3.519
 5919TIP3   OH217699   3.425   4.762   5.460
 5919TIP3    H117700   3.401   4.811   5.381
 5919TIP3    H217701   3.516   4.787   5.477
 5920TIP3   OH217702   5.935   6.155   4.239
 5920TIP3    H117703   5.964   6.234   4.194
 5920TIP3    H217704   5.892   6.103   4.172
 5921TIP3   OH217705   7.017   1.124   0.971
 5921TIP3    H117706   6.949   1.113   0.905
 5921TIP3    H217707   7.099   1.120   0.922
 5922TIP3   OH217708   2.466   3.442   0.657
 5922TIP3    H117709   2.520   3.461   0.580
 5922TIP3    H217710   2.467   3.524   0.707
 5923TIP3   OH217711   1.731   6.895   5.681
 5923TIP3    H117712   1.735   6.815   5.733
 5923TIP3    H217713   1.675   6.954   5.731
 5924TIP3   OH217714   3.556   1.517   5.977
 5924TIP3    H117715   3.553   1.487   5.886
 5924TIP3    H217716   3.605   1.599   5.974
 5925TIP3   OH217717   7.064   7.694   5.126
 5925TIP3    H117718   6.997   7.690   5.057
 5925TIP3    H217719   7.026   7.644   5.199
 5926TIP3   OH217720   3.967   3.269   4.124
 5926TIP3    H117721   3.958   3.353   4.170
 5926TIP3    H217722   3.899   3.213   4.161
 5927TIP3   OH217723   5.887   0.774   2.378
 5927TIP3    H117724   5.793   0.767   2.395
 5927TIP3    H217725   5.928   0.743   2.458
 5928TIP3   OH217726   8.202   6.585   6.325
 5928TIP3    H117727   8.137   6.516   6.339
 5928TIP3    H217728   8.189   6.612   6.234
 5929TIP3   OH217729   6.939   1.030   4.220
 5929TIP3    H117730   6.884   1.107   4.204
 5929TIP3    H217731   6.891   0.979   4.284
 5930TIP3   OH217732   5.549   3.375   3.223
 5930TIP3    H117733   5.569   3.288   3.189
 5930TIP3    H217734   5.511   3.421   3.148
 5931TIP3   OH217735   7.585  -0.005   5.621
 5931TIP3    H117736   7.529   0.066   5.652
 5931TIP3    H217737   7.523  -0.076   5.600
 5932TIP3   OH217738   5.767   3.232   5.566
 5932TIP3    H117739   5.731   3.225   5.655
 5932TIP3    H217740   5.859   3.258   5.580
 5933TIP3   OH217741   4.844   3.903   0.577
 5933TIP3    H117742   4.786   3.827   0.586
 5933TIP3    H217743   4.905   3.878   0.507
 5934TIP3   OH217744   5.915   6.633   5.649
 5934TIP3    H117745   5.941   6.571   5.580
 5934TIP3    H217746   5.942   6.591   5.730
 5935TIP3   OH217747   0.363   5.873   1.964
 5935TIP3    H117748   0.357   5.799   2.025
 5935TIP3    H217749   0.322   5.946   2.011
 5936TIP3   OH217750   5.059   1.420   0.685
 5936TIP3    H117751   5.047   1.505   0.729
 5936TIP3    H217752   4.978   1.406   0.637
 5937TIP3   OH217753   1.316   5.834   5.659
 5937TIP3    H117754   1.373   5.808   5.731
 5937TIP3    H217755   1.255   5.897   5.698
 5938TIP3   OH217756   8.249   4.064   0.026
 5938TIP3    H117757   8.340   4.081   0.052
 5938TIP3    H217758   8.205   4.147   0.037
 5939TIP3   OH217759   6.899   4.530   2.952
 5939TIP3    H117760   6.835   4.509   2.884
 5939TIP3    H217761   6.848   4.571   3.021
 5940TIP3   OH217762   1.623   4.412   6.620
 5940TIP3    H117763   1.549   4.472   6.633
 5940TIP3    H217764   1.669   4.448   6.544
 5941TIP3   OH217765   3.370   6.007   0.589
 5941TIP3    H117766   3.343   5.993   0.680
 5941TIP3    H217767   3.367   5.920   0.550
 5942TIP3   OH217768   4.160   4.834   4.479
 5942TIP3    H117769   4.172   4.747   4.441
 5942TIP3    H217770   4.072   4.859   4.451
 5943TIP3   OH217771   1.534   1.322   4.634
 5943TIP3    H117772   1.469   1.283   4.693
 5943TIP3    H217773   1.617   1.313   4.680
 5944TIP3   OH217774   7.418   2.489   3.463
 5944TIP3    H117775   7.416   2.394   3.467
 5944TIP3    H217776   7.482   2.514   3.531
 5945TIP3   OH217777   3.927   6.735   4.217
 5945TIP3    H117778   3.952   6.660   4.270
 5945TIP3    H217779   3.986   6.733   4.142
 5946TIP3   OH217780   6.632   7.722   1.956
 5946TIP3    H117781   6.679   7.647   1.919
 5946TIP3    H217782   6.699   7.789   1.966
 5947TIP3   OH217783   4.792   2.829   4.335
 5947TIP3    H117784   4.766   2.738   4.352
 5947TIP3    H217785   4.754   2.848   4.249
 5948TIP3   OH217786   6.889   3.363   5.786
 5948TIP3    H117787   6.916   3.452   5.765
 5948TIP3    H217788   6.932   3.344   5.869
 5949TIP3   OH217789   7.783   3.620   5.792
 5949TIP3    H117790   7.711   3.663   5.745
 5949TIP3    H217791   7.815   3.687   5.852
 5950TIP3   OH217792   5.637   3.033   6.452
 5950TIP3    H117793   5.703   2.963   6.450
 5950TIP3    H217794   5.685   3.110   6.480
 5951TIP3   OH217795   5.824   5.266   2.773
 5951TIP3    H117796   5.902   5.289   2.824
 5951TIP3    H217797   5.828   5.171   2.763
 5952TIP3   OH217798   7.548   4.247   5.579
 5952TIP3    H117799   7.587   4.159   5.582
 5952TIP3    H217800   7.515   4.256   5.490
 5953TIP3   OH217801   8.224   7.569   3.850
 5953TIP3    H117802   8.297   7.628   3.869
 5953TIP3    H217803   8.266   7.484   3.836
 5954TIP3   OH217804   7.349   3.814   5.077
 5954TIP3    H117805   7.364   3.908   5.077
 5954TIP3    H217806   7.253   3.805   5.071
 5955TIP3   OH217807   1.371   4.231   5.640
 5955TIP3    H117808   1.407   4.282   5.567
 5955TIP3    H217809   1.308   4.172   5.599
 5956TIP3   OH217810   4.906   3.410   4.741
 5956TIP3    H117811   4.965   3.483   4.722
 5956TIP3    H217812   4.926   3.346   4.672
 5957TIP3   OH217813   1.974   0.452   3.692
 5957TIP3    H117814   1.967   0.539   3.730
 5957TIP3    H217815   1.928   0.395   3.754
 5958TIP3   OH217816   6.264   3.300   3.234
 5958TIP3    H117817   6.342   3.261   3.197
 5958TIP3    H217818   6.286   3.316   3.326
 5959TIP3   OH217819   0.198   0.025   4.066
 5959TIP3    H117820   0.242   0.107   4.045
 5959TIP3    H217821   0.152   0.043   4.149
 5960TIP3   OH217822   4.180   4.926   1.055
 5960TIP3    H117823   4.100   4.874   1.069
 5960TIP3    H217824   4.228   4.877   0.989
 5961TIP3   OH217825   0.446   5.951   6.270
 5961TIP3    H117826   0.500   5.874   6.291
 5961TIP3    H217827   0.470   5.972   6.180
 5962TIP3   OH217828   6.564   7.507   4.476
 5962TIP3    H117829   6.618   7.578   4.442
 5962TIP3    H217830   6.481   7.514   4.428
 5963TIP3   OH217831   3.693   7.489   1.842
 5963TIP3    H117832   3.729   7.408   1.805
 5963TIP3    H217833   3.620   7.460   1.896
 5964TIP3   OH217834   2.112   5.764   2.574
 5964TIP3    H117835   2.077   5.748   2.487
 5964TIP3    H217836   2.155   5.682   2.599
 5965TIP3   OH217837   5.857   4.765   3.519
 5965TIP3    H117838   5.952   4.763   3.531
 5965TIP3    H217839   5.843   4.722   3.435
 5966TIP3   OH217840   1.623   5.335   5.442
 5966TIP3    H117841   1.667   5.417   5.421
 5966TIP3    H217842   1.662   5.307   5.525
 5967TIP3   OH217843   5.103   1.575  -0.045
 5967TIP3    H117844   5.086   1.529   0.038
 5967TIP3    H217845   5.166   1.643  -0.023
 5968TIP3   OH217846   0.039   4.234   3.897
 5968TIP3    H117847   0.028   4.162   3.835
 5968TIP3    H217848   0.112   4.285   3.862
 5969TIP3   OH217849   1.774   7.565   4.099
 5969TIP3    H117850   1.822   7.490   4.063
 5969TIP3    H217851   1.701   7.577   4.038
 5970TIP3   OH217852   6.370   3.411   2.226
 5970TIP3    H117853   6.451   3.365   2.202
 5970TIP3    H217854   6.301   3.345   2.214
 5971TIP3   OH217855   4.083   4.646   1.798
 5971TIP3    H117856   4.140   4.590   1.745
 5971TIP3    H217857   4.125   4.732   1.796
 5972TIP3   OH217858   4.652   0.789   3.990
 5972TIP3    H117859   4.743   0.776   3.964
 5972TIP3    H217860   4.613   0.701   3.984
 5973TIP3   OH217861   8.242   0.048   2.487
 5973TIP3    H117862   8.185  -0.029   2.483
 5973TIP3    H217863   8.327   0.014   2.512
 5974TIP3   OH217864   0.811   1.369   1.119
 5974TIP3    H117865   0.770   1.283   1.133
 5974TIP3    H217866   0.900   1.359   1.152
 5975TIP3   OH217867   0.675   5.569   6.397
 5975TIP3    H117868   0.672   5.647   6.453
 5975TIP3    H217869   0.737   5.592   6.327
 5976TIP3   OH217870   2.309   6.616   1.820
 5976TIP3    H117871   2.288   6.525   1.841
 5976TIP3    H217872   2.359   6.648   1.895
 5977TIP3   OH217873   8.082   4.921   4.737
 5977TIP3    H117874   8.056   4.983   4.805
 5977TIP3    H217875   8.001   4.876   4.714
 5978TIP3   OH217876   6.657   6.674   4.316
 5978TIP3    H117877   6.634   6.591   4.276
 5978TIP3    H217878   6.637   6.740   4.249
 5979TIP3   OH217879   5.212   2.029   5.569
 5979TIP3    H117880   5.184   1.991   5.486
 5979TIP3    H217881   5.136   2.021   5.626
 5980TIP3   OH217882   0.280   5.882   0.722
 5980TIP3    H117883   0.214   5.918   0.782
 5980TIP3    H217884   0.237   5.806   0.683
 5981TIP3   OH217885   2.751   5.900   3.821
 5981TIP3    H117886   2.804   5.967   3.779
 5981TIP3    H217887   2.798   5.818   3.805
 5982TIP3   OH217888   6.792   0.388   0.468
 5982TIP3    H117889   6.885   0.384   0.492
 5982TIP3    H217890   6.792   0.433   0.383
 5983TIP3   OH217891   0.287   4.279   1.153
 5983TIP3    H117892   0.306   4.325   1.071
 5983TIP3    H217893   0.362   4.299   1.210
 5984TIP3   OH217894   1.626   6.436   2.186
 5984TIP3    H117895   1.575   6.425   2.105
 5984TIP3    H217896   1.675   6.355   2.195
 5985TIP3   OH217897   3.638   5.145   5.535
 5985TIP3    H117898   3.668   5.172   5.448
 5985TIP3    H217899   3.627   5.050   5.528
 5986TIP3   OH217900   6.707   3.459   0.685
 5986TIP3    H117901   6.637   3.518   0.713
 5986TIP3    H217902   6.784   3.489   0.732
 5987TIP3   OH217903   3.319   2.542   1.886
 5987TIP3    H117904   3.369   2.535   1.805
 5987TIP3    H217905   3.310   2.636   1.901
 5988TIP3   OH217906   5.891   4.254   2.258
 5988TIP3    H117907   5.906   4.207   2.176
 5988TIP3    H217908   5.912   4.189   2.326
 5989TIP3   OH217909   2.098   6.706   4.833
 5989TIP3    H117910   2.074   6.654   4.756
 5989TIP3    H217911   2.139   6.785   4.798
 5990TIP3   OH217912   6.576   4.840   3.071
 5990TIP3    H117913   6.637   4.912   3.056
 5990TIP3    H217914   6.490   4.881   3.068
 5991TIP3   OH217915   5.424   6.908   2.273
 5991TIP3    H117916   5.339   6.951   2.263
 5991TIP3    H217917   5.442   6.872   2.186
 5992TIP3   OH217918   1.328   2.776   1.624
 5992TIP3    H117919   1.375   2.855   1.599
 5992TIP3    H217920   1.395   2.708   1.627
 5993TIP3   OH217921   2.569   6.488   4.558
 5993TIP3    H117922   2.492   6.533   4.592
 5993TIP3    H217923   2.643   6.529   4.602
 5994TIP3   OH217924   0.664   4.422   3.245
 5994TIP3    H117925   0.684   4.420   3.338
 5994TIP3    H217926   0.620   4.339   3.228
 5995TIP3   OH217927   6.631   7.546   6.114
 5995TIP3    H117928   6.547   7.546   6.068
 5995TIP3    H217929   6.679   7.472   6.076
 5996TIP3   OH217930   1.671   3.131   5.643
 5996TIP3    H117931   1.669   3.038   5.620
 5996TIP3    H217932   1.583   3.150   5.673
 5997TIP3   OH217933   7.126   5.917   1.709
 5997TIP3    H117934   7.123   5.916   1.804
 5997TIP3    H217935   7.149   5.827   1.685
 5998TIP3   OH217936   5.706   7.586   6.585
 5998TIP3    H117937   5.738   7.513   6.532
 5998TIP3    H217938   5.784   7.619   6.630
 5999TIP3   OH217939   8.284   6.509   0.882
 5999TIP3    H117940   8.196   6.545   0.868
 5999TIP3    H217941   8.286   6.486   0.975
 6000TIP3   OH217942   7.954   7.053   4.822
 6000TIP3    H117943   7.911   6.981   4.777
 6000TIP3    H217944   7.988   7.014   4.902
 6001TIP3   OH217945   5.092   4.772   3.103
 6001TIP3    H117946   5.013   4.824   3.094
 6001TIP3    H217947   5.106   4.766   3.198
 6002TIP3   OH217948   3.694   5.126   0.817
 6002TIP3    H117949   3.777   5.115   0.772
 6002TIP3    H217950   3.704   5.078   0.899
 6003TIP3   OH217951   6.179   4.752   4.959
 6003TIP3    H117952   6.130   4.791   5.031
 6003TIP3    H217953   6.270   4.774   4.978
 6004TIP3   OH217954   7.985   4.913   0.836
 6004TIP3    H117955   8.067   4.869   0.814
 6004TIP3    H217956   7.970   4.890   0.928
 6005TIP3   OH217957   6.969   5.492   0.182
 6005TIP3    H117958   6.965   5.476   0.087
 6005TIP3    H217959   6.910   5.566   0.196
 6006TIP3   OH217960   3.687   0.688   1.705
 6006TIP3    H117961   3.639   0.766   1.678
 6006TIP3    H217962   3.623   0.635   1.753
 6007TIP3   OH217963   6.019   0.782   5.936
 6007TIP3    H117964   6.109   0.811   5.918
 6007TIP3    H217965   5.994   0.732   5.858
 6008TIP3   OH217966   7.251   3.535   6.489
 6008TIP3    H117967   7.233   3.443   6.511
 6008TIP3    H217968   7.192   3.585   6.545
 6009TIP3   OH217969   0.901   0.358   3.592
 6009TIP3    H117970   0.806   0.366   3.598
 6009TIP3    H217971   0.915   0.283   3.534
 6010TIP3   OH217972   1.112   6.554   5.067
 6010TIP3    H117973   1.025   6.595   5.062
 6010TIP3    H217974   1.167   6.611   5.014
 6011TIP3   OH217975   7.159   5.759   5.773
 6011TIP3    H117976   7.148   5.716   5.688
 6011TIP3    H217977   7.244   5.803   5.767
 6012TIP3   OH217978   0.944   6.431   6.364
 6012TIP3    H117979   0.853   6.427   6.332
 6012TIP3    H217980   0.996   6.446   6.286
 6013TIP3   OH217981   7.965   4.790   1.099
 6013TIP3    H117982   8.044   4.747   1.132
 6013TIP3    H217983   7.952   4.864   1.159
 6014TIP3   OH217984   5.111   6.060   0.120
 6014TIP3    H117985   5.197   6.022   0.141
 6014TIP3    H217986   5.066   5.991   0.071
 6015TIP3   OH217987   2.023   0.408   4.256
 6015TIP3    H117988   2.000   0.315   4.247
 6015TIP3    H217989   2.119   0.408   4.265
 6016TIP3   OH217990   2.030   3.418   5.761
 6016TIP3    H117991   1.953   3.464   5.729
 6016TIP3    H217992   2.090   3.417   5.686
 6017TIP3   OH217993   7.317   5.827   3.085
 6017TIP3    H117994   7.274   5.850   3.003
 6017TIP3    H217995   7.407   5.861   3.075
 6018TIP3   OH217996   6.424   6.040   6.649
 6018TIP3    H117997   6.330   6.042   6.631
 6018TIP3    H217998   6.431   6.045   6.744
 6019TIP3   OH217999   1.924   7.423   0.981
 6019TIP3    H118000   1.899   7.354   1.041
 6019TIP3    H218001   1.859   7.492   0.994
 6020TIP3   OH218002   6.745   1.984   5.086
 6020TIP3    H118003   6.668   1.934   5.110
 6020TIP3    H218004   6.711   2.062   5.041
 6021TIP3   OH218005   6.967   4.090   3.321
 6021TIP3    H118006   6.908   4.014   3.316
 6021TIP3    H218007   7.045   4.056   3.365
 6022TIP3   OH218008   1.298   0.472   1.795
 6022TIP3    H118009   1.359   0.546   1.797
 6022TIP3    H218010   1.335   0.408   1.856
 6023TIP3   OH218011   0.515   7.522   2.381
 6023TIP3    H118012   0.511   7.479   2.296
 6023TIP3    H218013   0.582   7.474   2.430
 6024TIP3   OH218014   6.857   7.402   1.541
 6024TIP3    H118015   6.926   7.379   1.478
 6024TIP3    H218016   6.793   7.331   1.532
 6025TIP3   OH218017   0.851   3.938   4.352
 6025TIP3    H118018   0.777   3.988   4.384
 6025TIP3    H218019   0.895   3.996   4.290
 6026TIP3   OH218020   4.010   0.982   5.971
 6026TIP3    H118021   4.078   0.958   5.908
 6026TIP3    H218022   3.992   0.901   6.018
 6027TIP3   OH218023   0.127   6.681   1.227
 6027TIP3    H118024   0.044   6.635   1.215
 6027TIP3    H218025   0.110   6.769   1.193
 6028TIP3   OH218026   6.733   6.084   3.973
 6028TIP3    H118027   6.751   5.993   3.998
 6028TIP3    H218028   6.797   6.102   3.904
 6029TIP3   OH218029   0.149   5.145   4.143
 6029TIP3    H118030   0.232   5.138   4.096
 6029TIP3    H218031   0.124   5.237   4.133
 6030TIP3   OH218032   4.181   6.886   5.461
 6030TIP3    H118033   4.111   6.935   5.505
 6030TIP3    H218034   4.212   6.824   5.527
 6031TIP3   OH218035   6.858   5.706   3.540
 6031TIP3    H118036   6.817   5.717   3.454
 6031TIP3    H218037   6.814   5.769   3.596
 6032TIP3   OH218038   1.242   6.087   5.240
 6032TIP3    H118039   1.203   6.154   5.184
 6032TIP3    H218040   1.336   6.103   5.236
 6033TIP3   OH218041   3.871   1.863   6.734
 6033TIP3    H118042   3.828   1.878   6.650
 6033TIP3    H218043   3.953   1.912   6.728
 6034TIP3   OH218044   2.617   0.616   5.507
 6034TIP3    H118045   2.612   0.684   5.575
 6034TIP3    H218046   2.527   0.584   5.499
 6035TIP3   OH218047   1.106   5.403   3.823
 6035TIP3    H118048   1.022   5.446   3.809
 6035TIP3    H218049   1.160   5.432   3.749
 6036TIP3   OH218050   3.294   2.683   1.517
 6036TIP3    H118051   3.239   2.631   1.459
 6036TIP3    H218052   3.233   2.723   1.579
 6037TIP3   OH218053   2.718   5.570   6.248
 6037TIP3    H118054   2.728   5.591   6.155
 6037TIP3    H218055   2.735   5.653   6.293
 6038TIP3   OH218056   6.374   0.224   5.159
 6038TIP3    H118057   6.330   0.279   5.094
 6038TIP3    H218058   6.463   0.258   5.164
 6039TIP3   OH218059   2.038   7.584   2.534
 6039TIP3    H118060   2.026   7.679   2.533
 6039TIP3    H218061   2.029   7.558   2.442
 6040TIP3   OH218062   5.444   4.317   1.068
 6040TIP3    H118063   5.531   4.309   1.106
 6040TIP3    H218064   5.386   4.327   1.144
 6041TIP3   OH218065   0.819   6.523   6.593
 6041TIP3    H118066   0.879   6.480   6.532
 6041TIP3    H218067   0.795   6.605   6.550
 6042TIP3   OH218068   7.579   4.989   5.643
 6042TIP3    H118069   7.659   4.983   5.695
 6042TIP3    H218070   7.592   4.925   5.572
 6043TIP3   OH218071   2.775   3.327   6.341
 6043TIP3    H118072   2.871   3.335   6.346
 6043TIP3    H218073   2.756   3.324   6.248
 6044TIP3   OH218074   1.081   4.346   5.016
 6044TIP3    H118075   1.113   4.291   4.944
 6044TIP3    H218076   1.068   4.432   4.976
 6045TIP3   OH218077   6.525   5.948   4.464
 6045TIP3    H118078   6.609   5.993   4.463
 6045TIP3    H218079   6.461   6.019   4.453
 6046TIP3   OH218080   1.419   3.973   6.169
 6046TIP3    H118081   1.365   3.909   6.216
 6046TIP3    H218082   1.440   3.930   6.086
 6047TIP3   OH218083   0.156   2.915   1.746
 6047TIP3    H118084   0.076   2.946   1.703
 6047TIP3    H218085   0.181   2.987   1.804
 6048TIP3   OH218086   1.546   7.717   1.013
 6048TIP3    H118087   1.630   7.733   0.970
 6048TIP3    H218088   1.562   7.639   1.067
 6049TIP3   OH218089   4.306   2.331   3.241
 6049TIP3    H118090   4.291   2.331   3.147
 6049TIP3    H218091   4.236   2.386   3.277
 6050TIP3   OH218092   0.189   7.752   2.962
 6050TIP3    H118093   0.224   7.668   2.932
 6050TIP3    H218094   0.251   7.817   2.929
 6051TIP3   OH218095   3.124   5.204   2.274
 6051TIP3    H118096   3.042   5.187   2.322
 6051TIP3    H218097   3.112   5.290   2.236
 6052TIP3   OH218098   7.853   7.649   2.277
 6052TIP3    H118099   7.818   7.633   2.190
 6052TIP3    H218100   7.909   7.725   2.267
 6053TIP3   OH218101   5.931   3.511   1.729
 6053TIP3    H118102   5.970   3.551   1.652
 6053TIP3    H218103   5.848   3.475   1.698
 6054TIP3   OH218104   3.957   5.589   6.487
 6054TIP3    H118105   3.982   5.681   6.477
 6054TIP3    H218106   3.882   5.590   6.546
 6055TIP3   OH218107   2.480   2.893   4.612
 6055TIP3    H118108   2.539   2.933   4.547
 6055TIP3    H218109   2.454   2.966   4.668
 6056TIP3   OH218110   2.090   1.579   4.405
 6056TIP3    H118111   2.087   1.579   4.310
 6056TIP3    H218112   2.177   1.545   4.426
 6057TIP3   OH218113   2.842   5.899   1.611
 6057TIP3    H118114   2.808   5.837   1.675
 6057TIP3    H218115   2.782   5.974   1.616
 6058TIP3   OH218116   2.338   6.202   3.088
 6058TIP3    H118117   2.317   6.183   2.997
 6058TIP3    H218118   2.268   6.161   3.139
 6059TIP3   OH218119   0.801   5.351   5.327
 6059TIP3    H118120   0.819   5.386   5.239
 6059TIP3    H218121   0.733   5.285   5.313
 6060TIP3   OH218122   3.323   3.849   2.541
 6060TIP3    H118123   3.415   3.822   2.550
 6060TIP3    H218124   3.280   3.811   2.618
 6061TIP3   OH218125   8.192   5.555   4.253
 6061TIP3    H118126   8.166   5.646   4.236
 6061TIP3    H218127   8.264   5.539   4.192
 6062TIP3   OH218128   0.766   2.765   0.259
 6062TIP3    H118129   0.826   2.834   0.229
 6062TIP3    H218130   0.686   2.811   0.281
 6063TIP3   OH218131   6.242   7.621   1.013
 6063TIP3    H118132   6.203   7.691   0.960
 6063TIP3    H218133   6.314   7.663   1.059
 6064TIP3   OH218134   8.154   4.585   3.358
 6064TIP3    H118135   8.072   4.628   3.335
 6064TIP3    H218136   8.136   4.491   3.347
 6065TIP3   OH218137  -0.017   1.854   4.344
 6065TIP3    H118138  -0.087   1.919   4.353
 6065TIP3    H218139   0.051   1.898   4.294
 6066TIP3   OH218140   1.257   6.301   4.485
 6066TIP3    H118141   1.281   6.365   4.418
 6066TIP3    H218142   1.232   6.223   4.436
 6067TIP3   OH218143   0.266   2.061   3.558
 6067TIP3    H118144   0.253   2.145   3.603
 6067TIP3    H218145   0.178   2.030   3.539
 6068TIP3   OH218146   7.259   6.990   1.850
 6068TIP3    H118147   7.246   6.943   1.767
 6068TIP3    H218148   7.172   6.992   1.890
 6069TIP3   OH218149   5.061   3.345   0.408
 6069TIP3    H118150   4.970   3.357   0.435
 6069TIP3    H218151   5.111   3.397   0.471
 6070TIP3   OH218152   7.742   4.917   4.890
 6070TIP3    H118153   7.670   4.973   4.919
 6070TIP3    H218154   7.820   4.953   4.933
 6071TIP3   OH218155   4.997   3.222   5.727
 6071TIP3    H118156   4.974   3.236   5.819
 6071TIP3    H218157   5.047   3.141   5.727
 6072TIP3   OH218158   4.868   0.676   5.797
 6072TIP3    H118159   4.855   0.650   5.888
 6072TIP3    H218160   4.939   0.619   5.765
 6073TIP3   OH218161   6.485   5.149   2.511
 6073TIP3    H118162   6.423   5.088   2.551
 6073TIP3    H218163   6.569   5.103   2.516
 6074TIP3   OH218164   8.031   2.753   5.217
 6074TIP3    H118165   8.110   2.706   5.190
 6074TIP3    H218166   8.009   2.716   5.302
 6075TIP3   OH218167   3.119   0.119   3.787
 6075TIP3    H118168   3.153   0.169   3.713
 6075TIP3    H218169   3.099   0.185   3.854
 6076TIP3   OH218170   8.217   1.541   6.574
 6076TIP3    H118171   8.272   1.464   6.563
 6076TIP3    H218172   8.274   1.607   6.613
 6077TIP3   OH218173   2.106   0.186   0.240
 6077TIP3    H118174   2.189   0.217   0.277
 6077TIP3    H218175   2.114   0.202   0.146
 6078TIP3   OH218176   7.633   2.819   2.919
 6078TIP3    H118177   7.659   2.761   2.990
 6078TIP3    H218178   7.630   2.762   2.842
 6079TIP3   OH218179   6.794   0.468   0.876
 6079TIP3    H118180   6.737   0.440   0.805
 6079TIP3    H218181   6.748   0.541   0.917
 6080TIP3   OH218182   3.989   5.048   3.373
 6080TIP3    H118183   3.933   5.091   3.308
 6080TIP3    H218184   4.046   5.118   3.404
 6081TIP3   OH218185   6.804   6.487   5.505
 6081TIP3    H118186   6.781   6.576   5.527
 6081TIP3    H218187   6.757   6.469   5.423
 6082TIP3   OH218188   6.273   0.962   4.721
 6082TIP3    H118189   6.211   0.958   4.794
 6082TIP3    H218190   6.273   0.873   4.685
 6083TIP3   OH218191   0.476   0.246   6.079
 6083TIP3    H118192   0.484   0.219   5.988
 6083TIP3    H218193   0.551   0.207   6.122
 6084TIP3   OH218194   1.665   1.909   0.574
 6084TIP3    H118195   1.577   1.941   0.592
 6084TIP3    H218196   1.680   1.843   0.642
 6085TIP3   OH218197   6.112   0.201   4.066
 6085TIP3    H118198   6.057   0.137   4.021
 6085TIP3    H218199   6.152   0.151   4.138
 6086TIP3   OH218200   5.015   2.184   1.257
 6086TIP3    H118201   4.930   2.154   1.289
 6086TIP3    H218202   4.999   2.212   1.167
 6087TIP3   OH218203   3.875   3.917   4.872
 6087TIP3    H118204   3.900   4.001   4.910
 6087TIP3    H218205   3.811   3.939   4.804
 6088TIP3   OH218206   3.326   7.798   1.295
 6088TIP3    H118207   3.254   7.736   1.304
 6088TIP3    H218208   3.330   7.843   1.379
 6089TIP3   OH218209   2.835   4.352   3.665
 6089TIP3    H118210   2.775   4.416   3.702
 6089TIP3    H218211   2.911   4.354   3.723
 6090TIP3   OH218212   1.689   3.924   5.590
 6090TIP3    H118213   1.644   3.988   5.646
 6090TIP3    H218214   1.640   3.926   5.508
 6091TIP3   OH218215   2.296   1.280   4.559
 6091TIP3    H118216   2.309   1.310   4.469
 6091TIP3    H218217   2.343   1.344   4.613
 6092TIP3   OH218218   8.223   7.589   6.552
 6092TIP3    H118219   8.194   7.675   6.521
 6092TIP3    H218220   8.313   7.581   6.520
 6093TIP3   OH218221   6.438   5.463   4.110
 6093TIP3    H118222   6.441   5.533   4.045
 6093TIP3    H218223   6.407   5.506   4.190
 6094TIP3   OH218224   4.797   2.039   3.126
 6094TIP3    H118225   4.704   2.059   3.141
 6094TIP3    H218226   4.825   1.995   3.205
 6095TIP3   OH218227   5.343   1.039   0.720
 6095TIP3    H118228   5.252   1.025   0.744
 6095TIP3    H218229   5.386   0.955   0.735
 6096TIP3   OH218230   0.644   0.363   6.599
 6096TIP3    H118231   0.631   0.415   6.678
 6096TIP3    H218232   0.571   0.387   6.542
 6097TIP3   OH218233   4.936   6.606   6.500
 6097TIP3    H118234   4.875   6.679   6.509
 6097TIP3    H218235   5.020   6.640   6.532
 6098TIP3   OH218236   4.218   1.328   0.648
 6098TIP3    H118237   4.173   1.247   0.674
 6098TIP3    H218238   4.185   1.393   0.710
 6099TIP3   OH218239   6.490   0.760   5.184
 6099TIP3    H118240   6.405   0.720   5.165
 6099TIP3    H218241   6.469   0.850   5.210
 6100TIP3   OH218242   7.832   4.135   0.475
 6100TIP3    H118243   7.920   4.151   0.442
 6100TIP3    H218244   7.844   4.075   0.548
 6101TIP3   OH218245   0.828   3.549   4.326
 6101TIP3    H118246   0.798   3.573   4.413
 6101TIP3    H218247   0.775   3.602   4.266
 6102TIP3   OH218248   6.328   2.006   6.232
 6102TIP3    H118249   6.332   2.066   6.306
 6102TIP3    H218250   6.361   1.923   6.268
 6103TIP3   OH218251   3.226   3.905   0.515
 6103TIP3    H118252   3.278   3.985   0.523
 6103TIP3    H218253   3.151   3.931   0.462
 6104TIP3   OH218254   7.904   2.755   2.817
 6104TIP3    H118255   7.843   2.796   2.877
 6104TIP3    H218256   7.971   2.821   2.801
 6105TIP3   OH218257   4.511   7.589   0.864
 6105TIP3    H118258   4.500   7.590   0.768
 6105TIP3    H218259   4.523   7.496   0.885
 6106TIP3   OH218260   6.220   3.636   0.179
 6106TIP3    H118261   6.292   3.686   0.139
 6106TIP3    H218262   6.208   3.676   0.265
 6107TIP3   OH218263   7.853   0.070   0.635
 6107TIP3    H118264   7.882   0.157   0.660
 6107TIP3    H218265   7.847   0.072   0.539
 6108TIP3   OH218266   6.535   3.458   4.814
 6108TIP3    H118267   6.526   3.536   4.760
 6108TIP3    H218268   6.459   3.404   4.791
 6109TIP3   OH218269   1.448   4.772   3.125
 6109TIP3    H118270   1.492   4.775   3.040
 6109TIP3    H218271   1.518   4.783   3.189
 6110TIP3   OH218272   5.159   0.798   3.199
 6110TIP3    H118273   5.244   0.801   3.155
 6110TIP3    H218274   5.157   0.876   3.254
 6111TIP3   OH218275   5.939   7.612   5.383
 6111TIP3    H118276   6.009   7.677   5.374
 6111TIP3    H218277   5.985   7.529   5.396
 6112TIP3   OH218278   1.011   5.822   4.355
 6112TIP3    H118279   1.095   5.819   4.402
 6112TIP3    H218280   1.035   5.813   4.263
 6113TIP3   OH218281   3.437   7.234   2.327
 6113TIP3    H118282   3.468   7.148   2.300
 6113TIP3    H218283   3.498   7.261   2.395
 6114TIP3   OH218284   2.005   5.871   4.149
 6114TIP3    H118285   2.095   5.838   4.138
 6114TIP3    H218286   2.002   5.901   4.240
 6115TIP3   OH218287   1.109   7.761   4.771
 6115TIP3    H118288   1.138   7.751   4.681
 6115TIP3    H218289   1.014   7.761   4.766
 6116TIP3   OH218290   0.288   3.382   4.702
 6116TIP3    H118291   0.317   3.291   4.695
 6116TIP3    H218292   0.201   3.382   4.660
 6117TIP3   OH218293   0.130   6.363   3.177
 6117TIP3    H118294   0.163   6.410   3.101
 6117TIP3    H218295   0.067   6.300   3.141
 6118TIP3   OH218296   7.760   4.121   1.489
 6118TIP3    H118297   7.808   4.156   1.414
 6118TIP3    H218298   7.816   4.052   1.524
 6119TIP3   OH218299   2.320   7.514   6.215
 6119TIP3    H118300   2.264   7.482   6.144
 6119TIP3    H218301   2.289   7.602   6.232
 6120TIP3   OH218302   7.089   0.960   5.764
 6120TIP3    H118303   7.175   0.931   5.733
 6120TIP3    H218304   7.027   0.899   5.724
 6121TIP3   OH218305   5.875   0.383   3.795
 6121TIP3    H118306   5.864   0.357   3.886
 6121TIP3    H218307   5.820   0.322   3.746
 6122TIP3   OH218308   7.367   1.041   2.745
 6122TIP3    H118309   7.395   0.962   2.790
 6122TIP3    H218310   7.392   1.027   2.653
 6123TIP3   OH218311   5.788   0.759   0.178
 6123TIP3    H118312   5.871   0.718   0.151
 6123TIP3    H218313   5.806   0.853   0.176
 6124TIP3   OH218314   3.400   2.903   5.551
 6124TIP3    H118315   3.332   2.844   5.520
 6124TIP3    H218316   3.358   2.954   5.621
 6125TIP3   OH218317   6.084   0.307   2.793
 6125TIP3    H118318   6.001   0.350   2.770
 6125TIP3    H218319   6.099   0.333   2.884
 6126TIP3   OH218320   4.625   6.183   6.603
 6126TIP3    H118321   4.652   6.116   6.666
 6126TIP3    H218322   4.706   6.229   6.582
 6127TIP3   OH218323   3.714   4.816   0.695
 6127TIP3    H118324   3.659   4.800   0.772
 6127TIP3    H218325   3.802   4.791   0.722
 6128TIP3   OH218326   5.497   5.676   5.768
 6128TIP3    H118327   5.417   5.726   5.782
 6128TIP3    H218328   5.522   5.695   5.677
 6129TIP3   OH218329   6.479   0.654   4.163
 6129TIP3    H118330   6.438   0.568   4.164
 6129TIP3    H218331   6.571   0.637   4.183
 6130TIP3   OH218332   2.150   7.567   1.270
 6130TIP3    H118333   2.111   7.493   1.223
 6130TIP3    H218334   2.226   7.531   1.315
 6131TIP3   OH218335   5.066   7.230   5.477
 6131TIP3    H118336   5.104   7.248   5.391
 6131TIP3    H218337   5.042   7.138   5.474
 6132TIP3   OH218338   2.691   3.351   1.085
 6132TIP3    H118339   2.720   3.427   1.035
 6132TIP3    H218340   2.628   3.307   1.028
 6133TIP3   OH218341   3.636   0.804   0.900
 6133TIP3    H118342   3.611   0.744   0.971
 6133TIP3    H218343   3.572   0.875   0.905
 6134TIP3   OH218344   7.239   7.454   0.334
 6134TIP3    H118345   7.166   7.488   0.387
 6134TIP3    H218346   7.315   7.459   0.392
 6135TIP3   OH218347   5.511   2.747   5.382
 6135TIP3    H118348   5.488   2.806   5.310
 6135TIP3    H218349   5.427   2.715   5.415
 6136TIP3   OH218350   7.526   4.436   1.195
 6136TIP3    H118351   7.519   4.347   1.160
 6136TIP3    H218352   7.478   4.433   1.278
 6137TIP3   OH218353   0.495   7.294   2.198
 6137TIP3    H118354   0.465   7.329   2.114
 6137TIP3    H218355   0.557   7.225   2.175
 6138TIP3   OH218356   2.308   2.580   1.053
 6138TIP3    H118357   2.243   2.546   1.115
 6138TIP3    H218358   2.286   2.673   1.044
 6139TIP3   OH218359   6.932   7.500   6.318
 6139TIP3    H118360   6.971   7.522   6.233
 6139TIP3    H218361   7.007   7.475   6.373
 6140TIP3   OH218362   7.927   0.064   4.056
 6140TIP3    H118363   7.896   0.124   4.124
 6140TIP3    H218364   7.857  -0.001   4.049
 6141TIP3   OH218365   3.462   5.727   1.557
 6141TIP3    H118366   3.428   5.663   1.494
 6141TIP3    H218367   3.436   5.812   1.522
 6142TIP3   OH218368   3.149   5.221   5.552
 6142TIP3    H118369   3.208   5.188   5.484
 6142TIP3    H218370   3.096   5.145   5.578
 6143TIP3   OH218371   4.063   1.810   6.511
 6143TIP3    H118372   4.096   1.889   6.555
 6143TIP3    H218373   4.074   1.740   6.575
 6144TIP3   OH218374   5.176   6.575   6.014
 6144TIP3    H118375   5.123   6.547   6.089
 6144TIP3    H218376   5.125   6.551   5.938
 6145TIP3   OH218377   8.326   4.457   5.377
 6145TIP3    H118378   8.272   4.402   5.319
 6145TIP3    H218379   8.363   4.524   5.319
 6146TIP3   OH218380   6.950   6.331   3.452
 6146TIP3    H118381   6.948   6.244   3.414
 6146TIP3    H218382   7.039   6.362   3.437
 6147TIP3   OH218383   3.952   2.980   1.655
 6147TIP3    H118384   3.891   3.053   1.661
 6147TIP3    H218385   4.038   3.020   1.666
 6148TIP3   OH218386   1.023   0.128   6.456
 6148TIP3    H118387   1.111   0.093   6.446
 6148TIP3    H218388   0.975   0.097   6.379
 6149TIP3   OH218389   6.855   2.575   1.439
 6149TIP3    H118390   6.796   2.629   1.491
 6149TIP3    H218391   6.928   2.556   1.498
 6150TIP3   OH218392   3.376   6.049   1.917
 6150TIP3    H118393   3.388   6.065   1.824
 6150TIP3    H218394   3.457   6.082   1.958
 6151TIP3   OH218395   3.977   7.227   0.373
 6151TIP3    H118396   3.987   7.149   0.429
 6151TIP3    H218397   3.886   7.254   0.387
 6152TIP3   OH218398   3.130   7.491   5.935
 6152TIP3    H118399   3.208   7.447   5.969
 6152TIP3    H218400   3.155   7.582   5.925
 6153TIP3   OH218401   5.051   4.402   2.145
 6153TIP3    H118402   5.037   4.325   2.201
 6153TIP3    H218403   5.026   4.476   2.200
 6154TIP3   OH218404   6.537   2.378   4.969
 6154TIP3    H118405   6.530   2.293   4.927
 6154TIP3    H218406   6.594   2.429   4.911
 6155TIP3   OH218407   2.324   0.962   5.648
 6155TIP3    H118408   2.238   0.998   5.624
 6155TIP3    H218409   2.383   1.037   5.644
 6156TIP3   OH218410   7.931   3.328   5.359
 6156TIP3    H118411   7.887   3.402   5.399
 6156TIP3    H218412   7.932   3.261   5.427
 6157TIP3   OH218413   2.079   2.722   5.895
 6157TIP3    H118414   2.039   2.669   5.964
 6157TIP3    H218415   2.171   2.694   5.894
 6158TIP3   OH218416   2.184   1.505   3.298
 6158TIP3    H118417   2.096   1.542   3.310
 6158TIP3    H218418   2.235   1.576   3.258
 6159TIP3   OH218419   0.248   3.217   2.887
 6159TIP3    H118420   0.330   3.264   2.871
 6159TIP3    H218421   0.216   3.193   2.800
 6160TIP3   OH218422   2.607   2.203   6.315
 6160TIP3    H118423   2.535   2.264   6.295
 6160TIP3    H218424   2.622   2.216   6.409
 6161TIP3   OH218425   7.552   0.816   0.199
 6161TIP3    H118426   7.545   0.787   0.108
 6161TIP3    H218427   7.502   0.751   0.248
 6162TIP3   OH218428   8.032   5.234   3.919
 6162TIP3    H118429   8.109   5.260   3.868
 6162TIP3    H218430   8.038   5.139   3.926
 6163TIP3   OH218431   1.071   3.184   1.301
 6163TIP3    H118432   1.023   3.126   1.242
 6163TIP3    H218433   1.079   3.267   1.252
 6164TIP3   OH218434   6.733   0.858   3.198
 6164TIP3    H118435   6.641   0.835   3.186
 6164TIP3    H218436   6.749   0.926   3.132
 6165TIP3   OH218437   4.466   0.580   3.901
 6165TIP3    H118438   4.378   0.610   3.879
 6165TIP3    H218439   4.483   0.509   3.838
 6166TIP3   OH218440   1.481   4.597   6.134
 6166TIP3    H118441   1.393   4.567   6.158
 6166TIP3    H218442   1.475   4.614   6.040
 6167TIP3   OH218443   2.281   0.033   5.973
 6167TIP3    H118444   2.307  -0.005   6.057
 6167TIP3    H218445   2.350   0.096   5.953
 6168TIP3   OH218446   7.622   3.684   4.647
 6168TIP3    H118447   7.693   3.747   4.653
 6168TIP3    H218448   7.581   3.701   4.562
 6169TIP3   OH218449   4.747   1.160   3.339
 6169TIP3    H118450   4.763   1.097   3.409
 6169TIP3    H218451   4.680   1.219   3.374
 6170TIP3   OH218452   0.730   0.832   4.268
 6170TIP3    H118453   0.699   0.842   4.178
 6170TIP3    H218454   0.727   0.920   4.304
 6171TIP3   OH218455   6.236   3.856   5.864
 6171TIP3    H118456   6.215   3.782   5.921
 6171TIP3    H218457   6.152   3.878   5.822
 6172TIP3   OH218458   4.226   2.678   1.568
 6172TIP3    H118459   4.302   2.654   1.514
 6172TIP3    H218460   4.250   2.653   1.657
 6173TIP3   OH218461   7.854   1.481   3.598
 6173TIP3    H118462   7.920   1.526   3.650
 6173TIP3    H218463   7.881   1.389   3.599
 6174TIP3   OH218464   3.073   7.042   3.499
 6174TIP3    H118465   3.028   6.980   3.556
 6174TIP3    H218466   3.157   7.001   3.481
 6175TIP3   OH218467   2.755   0.689   5.250
 6175TIP3    H118468   2.740   0.678   5.344
 6175TIP3    H218469   2.669   0.675   5.210
 6176TIP3   OH218470   5.639   2.894   4.249
 6176TIP3    H118471   5.649   2.799   4.249
 6176TIP3    H218472   5.546   2.909   4.268
 6177TIP3   OH218473   6.128   7.474   1.242
 6177TIP3    H118474   6.151   7.521   1.161
 6177TIP3    H218475   6.204   7.487   1.299
 6178TIP3   OH218476   2.350   2.568   5.805
 6178TIP3    H118477   2.319   2.477   5.804
 6178TIP3    H218478   2.304   2.610   5.733
 6179TIP3   OH218479   6.544   2.950   1.174
 6179TIP3    H118480   6.604   2.876   1.183
 6179TIP3    H218481   6.584   3.004   1.106
 6180TIP3   OH218482   5.633   2.418   2.073
 6180TIP3    H118483   5.558   2.364   2.096
 6180TIP3    H218484   5.664   2.383   1.990
 6181TIP3   OH218485   1.201   0.287   0.063
 6181TIP3    H118486   1.181   0.295  -0.030
 6181TIP3    H218487   1.115   0.284   0.105
 6182TIP3   OH218488   7.001   2.969   2.266
 6182TIP3    H118489   7.040   3.054   2.289
 6182TIP3    H218490   7.070   2.906   2.281
 6183TIP3   OH218491   3.975   2.564   1.572
 6183TIP3    H118492   3.938   2.621   1.640
 6183TIP3    H218493   4.058   2.605   1.550
 6184TIP3   OH218494   1.080   1.756   3.724
 6184TIP3    H118495   0.991   1.791   3.723
 6184TIP3    H218496   1.106   1.752   3.632
 6185TIP3   OH218497   7.079   3.271   3.802
 6185TIP3    H118498   7.129   3.313   3.732
 6185TIP3    H218499   7.130   3.194   3.827
 6186TIP3   OH218500   2.645   4.846   2.905
 6186TIP3    H118501   2.665   4.877   2.817
 6186TIP3    H218502   2.700   4.899   2.962
 6187TIP3   OH218503   5.411   1.390   4.655
 6187TIP3    H118504   5.467   1.444   4.711
 6187TIP3    H218505   5.354   1.453   4.610
 6188TIP3   OH218506   0.281   1.870   0.423
 6188TIP3    H118507   0.353   1.839   0.477
 6188TIP3    H218508   0.265   1.798   0.361
 6189TIP3   OH218509   2.217   4.799   5.849
 6189TIP3    H118510   2.296   4.850   5.868
 6189TIP3    H218511   2.178   4.782   5.935
 6190TIP3   OH218512   6.206   2.707   3.731
 6190TIP3    H118513   6.157   2.638   3.686
 6190TIP3    H218514   6.182   2.787   3.684
 6191TIP3   OH218515   2.118   5.680   0.638
 6191TIP3    H118516   2.066   5.727   0.573
 6191TIP3    H218517   2.178   5.627   0.587
 6192TIP3   OH218518   7.005   7.653   1.728
 6192TIP3    H118519   7.017   7.724   1.791
 6192TIP3    H218520   7.092   7.613   1.721
 6193TIP3   OH218521   0.727   4.539   5.527
 6193TIP3    H118522   0.679   4.470   5.574
 6193TIP3    H218523   0.666   4.568   5.459
 6194TIP3   OH218524   7.872   7.203   0.981
 6194TIP3    H118525   7.812   7.136   1.013
 6194TIP3    H218526   7.827   7.243   0.907
 6195TIP3   OH218527   4.202   7.574   0.107
 6195TIP3    H118528   4.226   7.666   0.100
 6195TIP3    H218529   4.195   7.544   0.017
 6196TIP3   OH218530   7.222   0.904   6.108
 6196TIP3    H118531   7.269   0.962   6.047
 6196TIP3    H218532   7.132   0.905   6.077
 6197TIP3   OH218533   2.118   6.418   5.330
 6197TIP3    H118534   2.179   6.482   5.293
 6197TIP3    H218535   2.037   6.467   5.344
 6198TIP3   OH218536   5.546   3.025   3.729
 6198TIP3    H118537   5.573   2.960   3.664
 6198TIP3    H218538   5.566   3.109   3.687
 6199TIP3   OH218539   4.232   4.519   0.413
 6199TIP3    H118540   4.202   4.544   0.326
 6199TIP3    H218541   4.270   4.600   0.449
 6200TIP3   OH218542   0.722   4.086   1.496
 6200TIP3    H118543   0.680   4.082   1.411
 6200TIP3    H218544   0.781   4.011   1.498
 6201TIP3   OH218545   5.983   0.876   3.885
 6201TIP3    H118546   5.935   0.816   3.828
 6201TIP3    H218547   5.979   0.960   3.838
 6202TIP3   OH218548   2.247   5.238   0.569
 6202TIP3    H118549   2.160   5.271   0.549
 6202TIP3    H218550   2.301   5.265   0.495
 6203TIP3   OH218551   3.785   5.462   5.214
 6203TIP3    H118552   3.836   5.446   5.135
 6203TIP3    H218553   3.715   5.522   5.187
 6204TIP3   OH218554   0.731   6.753   6.470
 6204TIP3    H118555   0.702   6.702   6.394
 6204TIP3    H218556   0.815   6.790   6.442
 6205TIP3   OH218557   3.870   5.920   2.320
 6205TIP3    H118558   3.796   5.949   2.266
 6205TIP3    H218559   3.900   5.839   2.278
 6206TIP3   OH218560   0.470   4.762   6.031
 6206TIP3    H118561   0.550   4.712   6.022
 6206TIP3    H218562   0.474   4.799   6.119
 6207TIP3   OH218563   0.865   7.782   3.685
 6207TIP3    H118564   0.868   7.838   3.608
 6207TIP3    H218565   0.816   7.705   3.657
 6208TIP3   OH218566   6.343   7.221   5.040
 6208TIP3    H118567   6.307   7.301   5.078
 6208TIP3    H218568   6.278   7.153   5.061
 6209TIP3   OH218569   5.973   3.434   4.285
 6209TIP3    H118570   5.910   3.377   4.329
 6209TIP3    H218571   5.962   3.415   4.192
 6210TIP3   OH218572   1.212   1.828   4.315
 6210TIP3    H118573   1.130   1.787   4.288
 6210TIP3    H218574   1.251   1.862   4.235
 6211TIP3   OH218575   3.098   5.439   3.646
 6211TIP3    H118576   3.167   5.499   3.675
 6211TIP3    H218577   3.142   5.381   3.584
 6212TIP3   OH218578   7.903   2.821   0.099
 6212TIP3    H118579   7.945   2.771   0.029
 6212TIP3    H218580   7.839   2.760   0.137
 6213TIP3   OH218581   3.203   0.149   0.947
 6213TIP3    H118582   3.136   0.157   1.014
 6213TIP3    H218583   3.164   0.188   0.869
 6214TIP3   OH218584   6.770   2.885   4.356
 6214TIP3    H118585   6.841   2.857   4.298
 6214TIP3    H218586   6.787   2.839   4.438
 6215TIP3   OH218587   7.600   7.519   0.307
 6215TIP3    H118588   7.623   7.526   0.214
 6215TIP3    H218589   7.684   7.511   0.352
 6216TIP3   OH218590   4.701   7.597   4.174
 6216TIP3    H118591   4.648   7.555   4.106
 6216TIP3    H218592   4.736   7.525   4.225
 6217TIP3   OH218593   0.176   4.291   6.316
 6217TIP3    H118594   0.233   4.360   6.282
 6217TIP3    H218595   0.137   4.252   6.238
 6218TIP3   OH218596   4.830   6.732   0.207
 6218TIP3    H118597   4.813   6.638   0.204
 6218TIP3    H218598   4.760   6.768   0.261
 6219TIP3   OH218599   7.985   0.887   1.807
 6219TIP3    H118600   8.054   0.826   1.833
 6219TIP3    H218601   8.019   0.929   1.728
 6220TIP3   OH218602   4.778   3.696   1.537
 6220TIP3    H118603   4.766   3.765   1.603
 6220TIP3    H218604   4.769   3.742   1.454
 6221TIP3   OH218605   7.778   5.253   1.802
 6221TIP3    H118606   7.721   5.249   1.725
 6221TIP3    H218607   7.719   5.240   1.876
 6222TIP3   OH218608   4.678   7.646   5.194
 6222TIP3    H118609   4.751   7.702   5.169
 6222TIP3    H218610   4.642   7.615   5.111
 6223TIP3   OH218611   4.899   2.258   1.566
 6223TIP3    H118612   4.982   2.209   1.562
 6223TIP3    H218613   4.832   2.192   1.547
 6224TIP3   OH218614   3.252   6.864   0.724
 6224TIP3    H118615   3.236   6.850   0.818
 6224TIP3    H218616   3.332   6.916   0.720
 6225TIP3   OH218617   7.794   4.408   4.868
 6225TIP3    H118618   7.728   4.340   4.863
 6225TIP3    H218619   7.877   4.360   4.879
 6226TIP3   OH218620   1.776   1.624   0.226
 6226TIP3    H118621   1.706   1.656   0.282
 6226TIP3    H218622   1.734   1.607   0.142
 6227TIP3   OH218623   4.704   2.260   1.842
 6227TIP3    H118624   4.796   2.258   1.817
 6227TIP3    H218625   4.656   2.237   1.762
 6228TIP3   OH218626   7.719   0.298   0.003
 6228TIP3    H118627   7.708   0.211   0.042
 6228TIP3    H218628   7.630   0.325  -0.020
 6229TIP3   OH218629   5.749   2.569   2.651
 6229TIP3    H118630   5.768   2.525   2.734
 6229TIP3    H218631   5.663   2.610   2.664
 6230TIP3   OH218632   4.181   6.189   1.111
 6230TIP3    H118633   4.122   6.230   1.048
 6230TIP3    H218634   4.136   6.201   1.195
 6231TIP3   OH218635   2.025   4.816   1.857
 6231TIP3    H118636   2.108   4.804   1.812
 6231TIP3    H218637   2.043   4.884   1.922
 6232TIP3   OH218638   6.983   1.652   3.139
 6232TIP3    H118639   6.924   1.654   3.064
 6232TIP3    H218640   7.032   1.734   3.133
 6233TIP3   OH218641   1.906   0.652   6.717
 6233TIP3    H118642   1.825   0.622   6.675
 6233TIP3    H218643   1.947   0.708   6.652
 6234TIP3   OH218644   1.410   1.777   2.266
 6234TIP3    H118645   1.403   1.788   2.171
 6234TIP3    H218646   1.428   1.684   2.278
 6235TIP3   OH218647   1.299   4.753   5.635
 6235TIP3    H118648   1.365   4.779   5.570
 6235TIP3    H218649   1.251   4.681   5.593
 6236TIP3   OH218650   0.773   1.918   5.553
 6236TIP3    H118651   0.763   1.929   5.648
 6236TIP3    H218652   0.838   1.983   5.528
 6237TIP3   OH218653   6.709   2.729   1.248
 6237TIP3    H118654   6.756   2.683   1.318
 6237TIP3    H218655   6.653   2.662   1.209
 6238TIP3   OH218656   1.362   7.822   6.447
 6238TIP3    H118657   1.441   7.784   6.408
 6238TIP3    H218658   1.290   7.773   6.408
 6239TIP3   OH218659   5.883   0.114   2.203
 6239TIP3    H118660   5.818   0.043   2.199
 6239TIP3    H218661   5.949   0.082   2.263
 6240TIP3   OH218662   0.631   1.704   6.349
 6240TIP3    H118663   0.714   1.663   6.373
 6240TIP3    H218664   0.647   1.798   6.360
 6241TIP3   OH218665   2.568   0.841   5.707
 6241TIP3    H118666   2.579   0.873   5.796
 6241TIP3    H218667   2.476   0.856   5.687
 6242TIP3   OH218668   7.766   6.600   5.360
 6242TIP3    H118669   7.692   6.561   5.313
 6242TIP3    H218670   7.777   6.687   5.321
 6243TIP3   OH218671   5.736   4.292   1.124
 6243TIP3    H118672   5.711   4.204   1.150
 6243TIP3    H218673   5.832   4.290   1.121
 6244TIP3   OH218674   3.449   4.481   2.303
 6244TIP3    H118675   3.512   4.532   2.252
 6244TIP3    H218676   3.364   4.506   2.268
 6245TIP3   OH218677   7.005   3.889   2.320
 6245TIP3    H118678   6.965   3.812   2.281
 6245TIP3    H218679   7.087   3.901   2.271
 6246TIP3   OH218680   7.626   6.259   3.607
 6246TIP3    H118681   7.619   6.352   3.587
 6246TIP3    H218682   7.535   6.231   3.623
 6247TIP3   OH218683   6.504   0.306   4.225
 6247TIP3    H118684   6.497   0.331   4.133
 6247TIP3    H218685   6.427   0.346   4.267
 6248TIP3   OH218686   0.321   7.501   2.591
 6248TIP3    H118687   0.275   7.585   2.602
 6248TIP3    H218688   0.372   7.512   2.511
 6249TIP3   OH218689   7.870   3.406   6.270
 6249TIP3    H118690   7.792   3.357   6.295
 6249TIP3    H218691   7.869   3.484   6.325
 6250TIP3   OH218692   1.852   7.127   1.465
 6250TIP3    H118693   1.804   7.190   1.519
 6250TIP3    H218694   1.801   7.046   1.471
 6251TIP3   OH218695   3.259   7.073   4.013
 6251TIP3    H118696   3.187   7.136   4.006
 6251TIP3    H218697   3.337   7.122   3.987
 6252TIP3   OH218698   3.370   3.088   2.392
 6252TIP3    H118699   3.446   3.069   2.448
 6252TIP3    H218700   3.392   3.049   2.308
 6253TIP3   OH218701   6.752   0.831   6.654
 6253TIP3    H118702   6.689   0.829   6.582
 6253TIP3    H218703   6.804   0.910   6.638
 6254TIP3   OH218704   1.374   3.326   3.095
 6254TIP3    H118705   1.350   3.335   3.002
 6254TIP3    H218706   1.306   3.375   3.141
 6255TIP3   OH218707   2.041   0.908   0.382
 6255TIP3    H118708   1.987   0.886   0.458
 6255TIP3    H218709   2.079   0.993   0.403
 6256TIP3   OH218710   7.530   0.106   0.107
 6256TIP3    H118711   7.586   0.100   0.184
 6256TIP3    H218712   7.456   0.161   0.135
 6257TIP3   OH218713   2.758   3.174   3.076
 6257TIP3    H118714   2.798   3.130   3.001
 6257TIP3    H218715   2.727   3.257   3.041
 6258TIP3   OH218716   2.665   4.441   3.387
 6258TIP3    H118717   2.627   4.502   3.450
 6258TIP3    H218718   2.645   4.480   3.301
 6259TIP3   OH218719   6.762   0.404   3.207
 6259TIP3    H118720   6.695   0.416   3.140
 6259TIP3    H218721   6.723   0.440   3.287
 6260TIP3   OH218722   5.711   0.604   5.162
 6260TIP3    H118723   5.669   0.636   5.241
 6260TIP3    H218724   5.673   0.517   5.148
 6261TIP3   OH218725   3.007   4.110   6.090
 6261TIP3    H118726   2.967   4.088   6.006
 6261TIP3    H218727   3.002   4.029   6.140
 6262TIP3   OH218728   7.087   5.277   1.837
 6262TIP3    H118729   7.071   5.361   1.794
 6262TIP3    H218730   6.999   5.240   1.850
 6263TIP3   OH218731   3.080   0.488   1.566
 6263TIP3    H118732   3.105   0.449   1.649
 6263TIP3    H218733   3.008   0.433   1.535
 6264TIP3   OH218734   2.409   4.096   0.813
 6264TIP3    H118735   2.382   4.160   0.878
 6264TIP3    H218736   2.448   4.025   0.863
 6265TIP3   OH218737   1.603   4.149   6.651
 6265TIP3    H118738   1.598   4.152   6.555
 6265TIP3    H218739   1.622   4.239   6.677
 6266TIP3   OH218740   2.931   2.318   2.609
 6266TIP3    H118741   2.971   2.405   2.605
 6266TIP3    H218742   2.849   2.328   2.562
 6267TIP3   OH218743   5.456   5.620   3.615
 6267TIP3    H118744   5.468   5.630   3.709
 6267TIP3    H218745   5.363   5.602   3.604
 6268TIP3   OH218746   5.293   5.968   3.763
 6268TIP3    H118747   5.256   6.029   3.698
 6268TIP3    H218748   5.279   6.011   3.847
 6269TIP3   OH218749   6.883   0.055   0.164
 6269TIP3    H118750   6.939   0.031   0.091
 6269TIP3    H218751   6.928   0.128   0.206
 6270TIP3   OH218752   3.035   5.750   5.777
 6270TIP3    H118753   3.028   5.655   5.764
 6270TIP3    H218754   3.014   5.763   5.869
 6271TIP3   OH218755   4.055   3.977   6.489
 6271TIP3    H118756   4.041   3.897   6.540
 6271TIP3    H218757   3.967   4.009   6.470
 6272TIP3   OH218758   6.880   1.445   5.302
 6272TIP3    H118759   6.948   1.459   5.368
 6272TIP3    H218760   6.804   1.493   5.335
 6273TIP3   OH218761   6.541   2.619   4.310
 6273TIP3    H118762   6.455   2.634   4.349
 6273TIP3    H218763   6.559   2.698   4.260
 6274TIP3   OH218764   0.126   1.223   3.629
 6274TIP3    H118765   0.058   1.247   3.567
 6274TIP3    H218766   0.103   1.135   3.657
 6275TIP3   OH218767   2.994   7.354   6.271
 6275TIP3    H118768   2.947   7.406   6.206
 6275TIP3    H218769   2.950   7.375   6.354
 6276TIP3   OH218770   0.316   5.162   4.645
 6276TIP3    H118771   0.312   5.151   4.550
 6276TIP3    H218772   0.284   5.251   4.660
 6277TIP3   OH218773   7.808   4.056   3.027
 6277TIP3    H118774   7.757   4.136   3.014
 6277TIP3    H218775   7.813   4.016   2.940
 6278TIP3   OH218776   0.780   4.331   1.207
 6278TIP3    H118777   0.690   4.321   1.237
 6278TIP3    H218778   0.834   4.314   1.285
 6279TIP3   OH218779   3.888   3.508   4.234
 6279TIP3    H118780   3.853   3.591   4.201
 6279TIP3    H218781   3.983   3.523   4.242
 6280TIP3   OH218782   4.174   3.482   4.964
 6280TIP3    H118783   4.187   3.432   5.044
 6280TIP3    H218784   4.192   3.573   4.989
 6281TIP3   OH218785   0.877   5.440   5.070
 6281TIP3    H118786   0.845   5.445   4.979
 6281TIP3    H218787   0.922   5.522   5.084
 6282TIP3   OH218788   5.135   6.422   5.357
 6282TIP3    H118789   5.162   6.474   5.432
 6282TIP3    H218790   5.111   6.336   5.393
 6283TIP3   OH218791   0.518   1.700   0.329
 6283TIP3    H118792   0.526   1.662   0.417
 6283TIP3    H218793   0.607   1.720   0.302
 6284TIP3   OH218794   5.280   2.354   1.664
 6284TIP3    H118795   5.289   2.294   1.739
 6284TIP3    H218796   5.205   2.409   1.687
 6285TIP3   OH218797   4.014   0.353   6.386
 6285TIP3    H118798   4.008   0.305   6.469
 6285TIP3    H218799   4.072   0.300   6.332
 6286TIP3   OH218800   4.838   5.785   0.574
 6286TIP3    H118801   4.755   5.784   0.622
 6286TIP3    H218802   4.812   5.793   0.482
 6287TIP3   OH218803   0.326   2.025   3.085
 6287TIP3    H118804   0.364   2.098   3.133
 6287TIP3    H218805   0.262   1.986   3.146
 6288TIP3   OH218806   6.906   3.567   0.842
 6288TIP3    H118807   6.993   3.596   0.816
 6288TIP3    H218808   6.909   3.564   0.938
 6289TIP3   OH218809   4.007   3.671   1.195
 6289TIP3    H118810   3.932   3.730   1.199
 6289TIP3    H218811   4.082   3.727   1.219
 6290TIP3   OH218812   1.651   1.351   5.175
 6290TIP3    H118813   1.602   1.278   5.136
 6290TIP3    H218814   1.706   1.383   5.104
 6291TIP3   OH218815   3.176   0.906   3.025
 6291TIP3    H118816   3.161   0.954   3.106
 6291TIP3    H218817   3.102   0.846   3.019
 6292TIP3   OH218818   2.100   7.800   3.060
 6292TIP3    H118819   2.143   7.821   2.977
 6292TIP3    H218820   2.109   7.879   3.113
 6293TIP3   OH218821   2.137   1.968   1.595
 6293TIP3    H118822   2.105   2.059   1.592
 6293TIP3    H218823   2.086   1.927   1.665
 6294TIP3   OH218824   6.800   5.359   1.040
 6294TIP3    H118825   6.716   5.405   1.036
 6294TIP3    H218826   6.776   5.266   1.045
 6295TIP3   OH218827   1.969   2.322   4.656
 6295TIP3    H118828   2.025   2.278   4.592
 6295TIP3    H218829   2.019   2.321   4.737
 6296TIP3   OH218830   5.314   7.414   2.278
 6296TIP3    H118831   5.374   7.350   2.239
 6296TIP3    H218832   5.232   7.367   2.290
 6297TIP3   OH218833   1.448   6.281   5.399
 6297TIP3    H118834   1.486   6.195   5.418
 6297TIP3    H218835   1.364   6.281   5.445
 6298TIP3   OH218836   2.764   1.463   1.245
 6298TIP3    H118837   2.694   1.399   1.259
 6298TIP3    H218838   2.718   1.541   1.214
 6299TIP3   OH218839   1.565   4.094   5.782
 6299TIP3    H118840   1.576   4.173   5.836
 6299TIP3    H218841   1.495   4.116   5.721
 6300TIP3   OH218842   6.055   1.092   6.024
 6300TIP3    H118843   5.997   1.024   6.057
 6300TIP3    H218844   6.027   1.106   5.934
 6301TIP3   OH218845   0.113   2.064   4.179
 6301TIP3    H118846   0.191   2.052   4.233
 6301TIP3    H218847   0.147   2.084   4.091
 6302TIP3   OH218848   4.574   5.181   0.168
 6302TIP3    H118849   4.531   5.223   0.243
 6302TIP3    H218850   4.610   5.254   0.117
 6303TIP3   OH218851   1.656   6.732   0.531
 6303TIP3    H118852   1.707   6.812   0.539
 6303TIP3    H218853   1.638   6.723   0.438
 6304TIP3   OH218854   5.458   5.701   4.222
 6304TIP3    H118855   5.490   5.619   4.184
 6304TIP3    H218856   5.530   5.763   4.209
 6305TIP3   OH218857   1.485   5.802   5.880
 6305TIP3    H118858   1.520   5.889   5.897
 6305TIP3    H218859   1.562   5.745   5.875
 6306TIP3   OH218860   0.374   4.480   2.733
 6306TIP3    H118861   0.295   4.475   2.787
 6306TIP3    H218862   0.410   4.391   2.737
 6307TIP3   OH218863   5.286   1.348   2.764
 6307TIP3    H118864   5.270   1.399   2.684
 6307TIP3    H218865   5.270   1.257   2.737
 6308TIP3   OH218866   0.519   2.709   3.522
 6308TIP3    H118867   0.453   2.685   3.456
 6308TIP3    H218868   0.543   2.799   3.500
 6309TIP3   OH218869   5.092   0.819   2.346
 6309TIP3    H118870   5.026   0.877   2.308
 6309TIP3    H218871   5.137   0.781   2.270
 6310TIP3   OH218872   5.606   6.867   5.086
 6310TIP3    H118873   5.633   6.816   5.162
 6310TIP3    H218874   5.530   6.820   5.051
 6311TIP3   OH218875   4.542   6.248   2.307
 6311TIP3    H118876   4.491   6.180   2.263
 6311TIP3    H218877   4.498   6.330   2.286
 6312TIP3   OH218878   3.136   1.791   2.449
 6312TIP3    H118879   3.062   1.849   2.435
 6312TIP3    H218880   3.118   1.749   2.533
 6313TIP3   OH218881   2.292   4.588   5.540
 6313TIP3    H118882   2.382   4.615   5.555
 6313TIP3    H218883   2.263   4.640   5.465
 6314TIP3   OH218884   7.640   4.253   6.761
 6314TIP3    H118885   7.732   4.275   6.777
 6314TIP3    H218886   7.643   4.163   6.727
 6315TIP3   OH218887   2.126   2.900   6.176
 6315TIP3    H118888   2.098   2.917   6.087
 6315TIP3    H218889   2.130   2.986   6.218
 6316TIP3   OH218890   2.351   1.891   1.963
 6316TIP3    H118891   2.338   1.843   1.881
 6316TIP3    H218892   2.299   1.844   2.027
 6317TIP3   OH218893   4.343   6.427   5.468
 6317TIP3    H118894   4.252   6.399   5.458
 6317TIP3    H218895   4.383   6.360   5.523
 6318TIP3   OH218896   4.266   2.752   0.032
 6318TIP3    H118897   4.329   2.804   0.082
 6318TIP3    H218898   4.188   2.749   0.087
 6319TIP3   OH218899   5.903   2.179   4.150
 6319TIP3    H118900   5.979   2.209   4.101
 6319TIP3    H218901   5.927   2.193   4.242
 6320TIP3   OH218902   4.745   7.390   3.094
 6320TIP3    H118903   4.707   7.404   3.180
 6320TIP3    H218904   4.698   7.314   3.059
 6321TIP3   OH218905   7.766   5.202   3.643
 6321TIP3    H118906   7.728   5.289   3.633
 6321TIP3    H218907   7.702   5.143   3.603
 6322TIP3   OH218908   2.812   2.218   3.027
 6322TIP3    H118909   2.822   2.172   3.110
 6322TIP3    H218910   2.875   2.290   3.032
 6323TIP3   OH218911   3.501   7.542   2.923
 6323TIP3    H118912   3.580   7.497   2.893
 6323TIP3    H218913   3.430   7.480   2.904
 6324TIP3   OH218914   0.104   3.943   0.672
 6324TIP3    H118915   0.174   3.885   0.640
 6324TIP3    H218916   0.061   3.974   0.592
 6325TIP3   OH218917   0.032   5.882   1.324
 6325TIP3    H118918   0.092   5.943   1.282
 6325TIP3    H218919   0.069   5.868   1.412
 6326TIP3   OH218920   7.107   7.374   5.291
 6326TIP3    H118921   7.055   7.304   5.252
 6326TIP3    H218922   7.052   7.452   5.283
 6327TIP3   OH218923   7.359   5.369   3.247
 6327TIP3    H118924   7.426   5.403   3.306
 6327TIP3    H218925   7.364   5.426   3.170
 6328TIP3   OH218926   6.121   2.355   2.266
 6328TIP3    H118927   6.110   2.449   2.285
 6328TIP3    H218928   6.044   2.332   2.215
 6329TIP3   OH218929   2.572   0.410   3.568
 6329TIP3    H118930   2.594   0.355   3.492
 6329TIP3    H218931   2.489   0.373   3.600
 6330TIP3   OH218932   3.998   7.271   0.093
 6330TIP3    H118933   3.969   7.244   0.180
 6330TIP3    H218934   3.942   7.223   0.032
 6331TIP3   OH218935   6.151   3.305   4.585
 6331TIP3    H118936   6.145   3.396   4.554
 6331TIP3    H218937   6.064   3.285   4.618
 6332TIP3   OH218938   2.298   2.071   2.348
 6332TIP3    H118939   2.331   2.161   2.353
 6332TIP3    H218940   2.331   2.037   2.265
 6333TIP3   OH218941   0.276   1.071   3.336
 6333TIP3    H118942   0.192   1.029   3.351
 6333TIP3    H218943   0.275   1.094   3.243
 6334TIP3   OH218944   2.372   6.487   4.792
 6334TIP3    H118945   2.356   6.550   4.722
 6334TIP3    H218946   2.348   6.403   4.754
 6335TIP3   OH218947   2.891   4.435   0.968
 6335TIP3    H118948   2.900   4.382   0.889
 6335TIP3    H218949   2.903   4.525   0.938
 6336TIP3   OH218950   1.926   3.983   0.950
 6336TIP3    H118951   1.854   3.953   1.005
 6336TIP3    H218952   1.893   3.977   0.861
 6337TIP3   OH218953   6.998   0.379   2.527
 6337TIP3    H118954   7.072   0.322   2.508
 6337TIP3    H218955   7.018   0.417   2.613
 6338TIP3   OH218956   5.096   7.385   3.285
 6338TIP3    H118957   5.001   7.401   3.292
 6338TIP3    H218958   5.106   7.329   3.209
 6339TIP3   OH218959   5.931   1.117   3.432
 6339TIP3    H118960   5.855   1.172   3.409
 6339TIP3    H218961   6.002   1.151   3.379
 6340TIP3   OH218962   7.638   1.708   5.761
 6340TIP3    H118963   7.611   1.716   5.853
 6340TIP3    H218964   7.556   1.713   5.712
 6341TIP3   OH218965   5.961   2.311   5.103
 6341TIP3    H118966   5.906   2.375   5.059
 6341TIP3    H218967   6.037   2.360   5.132
 6342TIP3   OH218968   6.401   0.037   2.491
 6342TIP3    H118969   6.486   0.063   2.528
 6342TIP3    H218970   6.386  -0.051   2.526
 6343TIP3   OH218971   6.321   0.281   0.451
 6343TIP3    H118972   6.361   0.208   0.498
 6343TIP3    H218973   6.395   0.324   0.407
 6344TIP3   OH218974   2.069   6.548   4.545
 6344TIP3    H118975   2.101   6.483   4.483
 6344TIP3    H218976   2.011   6.605   4.493
 6345TIP3   OH218977   1.345   0.723   5.448
 6345TIP3    H118978   1.352   0.805   5.496
 6345TIP3    H218979   1.353   0.655   5.514
 6346TIP3   OH218980   0.560   2.234   3.174
 6346TIP3    H118981   0.612   2.304   3.213
 6346TIP3    H218982   0.591   2.154   3.216
 6347TIP3   OH218983   4.467   7.374   1.701
 6347TIP3    H118984   4.431   7.297   1.744
 6347TIP3    H218985   4.491   7.433   1.773
 6348TIP3   OH218986   4.199   1.213   6.409
 6348TIP3    H118987   4.170   1.183   6.496
 6348TIP3    H218988   4.197   1.134   6.355
 6349TIP3   OH218989   3.875   4.554   2.487
 6349TIP3    H118990   3.872   4.514   2.400
 6349TIP3    H218991   3.860   4.482   2.548
 6350TIP3   OH218992   2.976   4.207   5.651
 6350TIP3    H118993   2.957   4.117   5.626
 6350TIP3    H218994   2.923   4.222   5.729
 6351TIP3   OH218995   0.132   6.195   5.671
 6351TIP3    H118996   0.105   6.286   5.660
 6351TIP3    H218997   0.086   6.166   5.750
 6352TIP3   OH218998   7.116   0.804   3.606
 6352TIP3    H118999   7.042   0.746   3.624
 6352TIP3    H219000   7.081   0.868   3.543
 6353TIP3   OH219001   1.927   2.649   5.674
 6353TIP3    H119002   1.951   2.665   5.765
 6353TIP3    H219003   2.010   2.628   5.630
 6354TIP3   OH219004   3.279   5.309   0.744
 6354TIP3    H119005   3.335   5.342   0.674
 6354TIP3    H219006   3.341   5.270   0.807
 6355TIP3   OH219007   2.466   3.475   0.064
 6355TIP3    H119008   2.534   3.532   0.027
 6355TIP3    H219009   2.420   3.531   0.127
 6356TIP3   OH219010   0.410   3.636   6.630
 6356TIP3    H119011   0.407   3.685   6.712
 6356TIP3    H219012   0.357   3.688   6.569
 6357TIP3   OH219013   3.111   3.146   1.786
 6357TIP3    H119014   3.188   3.165   1.839
 6357TIP3    H219015   3.064   3.230   1.782
 6358TIP3   OH219016   4.036   6.090   1.546
 6358TIP3    H119017   4.035   6.099   1.451
 6358TIP3    H219018   3.944   6.078   1.571
 6359TIP3   OH219019   8.104   4.347   1.383
 6359TIP3    H119020   8.020   4.341   1.337
 6359TIP3    H219021   8.082   4.385   1.468
 6360TIP3   OH219022   0.716   1.013   2.891
 6360TIP3    H119023   0.713   0.918   2.905
 6360TIP3    H219024   0.808   1.036   2.902
 6361TIP3   OH219025   4.868   4.092   6.386
 6361TIP3    H119026   4.808   4.050   6.324
 6361TIP3    H219027   4.920   4.151   6.332
 6362TIP3   OH219028   3.522   4.135   3.484
 6362TIP3    H119029   3.595   4.194   3.506
 6362TIP3    H219030   3.551   4.091   3.404
 6363TIP3   OH219031   5.757   3.588   2.847
 6363TIP3    H119032   5.736   3.664   2.792
 6363TIP3    H219033   5.673   3.557   2.879
 6364TIP3   OH219034   4.896   3.148   2.751
 6364TIP3    H119035   4.864   3.180   2.666
 6364TIP3    H219036   4.821   3.154   2.809
 6365TIP3   OH219037   7.387   3.856   2.724
 6365TIP3    H119038   7.407   3.905   2.644
 6365TIP3    H219039   7.306   3.895   2.756
 6366TIP3   OH219040   7.001   6.607   1.218
 6366TIP3    H119041   6.979   6.680   1.160
 6366TIP3    H219042   7.076   6.638   1.269
 6367TIP3   OH219043   2.812   6.372   4.723
 6367TIP3    H119044   2.792   6.465   4.709
 6367TIP3    H219045   2.815   6.362   4.818
 6368TIP3   OH219046   7.384   6.584   0.823
 6368TIP3    H119047   7.335   6.643   0.878
 6368TIP3    H219048   7.476   6.602   0.844
 6369TIP3   OH219049   2.689   4.065   6.557
 6369TIP3    H119050   2.773   4.025   6.536
 6369TIP3    H219051   2.627   3.991   6.558
 6370TIP3   OH219052   0.233   7.758   6.679
 6370TIP3    H119053   0.238   7.812   6.600
 6370TIP3    H219054   0.236   7.668   6.647
 6371TIP3   OH219055   5.562   1.053   1.083
 6371TIP3    H119056   5.637   1.057   1.142
 6371TIP3    H219057   5.563   0.964   1.048
 6372TIP3   OH219058   3.122   0.913   2.248
 6372TIP3    H119059   3.177   0.838   2.268
 6372TIP3    H219060   3.082   0.891   2.164
 6373TIP3   OH219061   6.049   5.033   3.339
 6373TIP3    H119062   6.016   4.986   3.262
 6373TIP3    H219063   6.140   5.053   3.318
 6374TIP3   OH219064   6.723   3.618   4.245
 6374TIP3    H119065   6.679   3.652   4.167
 6374TIP3    H219066   6.812   3.652   4.239
 6375TIP3   OH219067   2.380   6.483   0.243
 6375TIP3    H119068   2.437   6.549   0.284
 6375TIP3    H219069   2.387   6.407   0.301
 6376TIP3   OH219070   4.203   7.741   5.467
 6376TIP3    H119071   4.212   7.647   5.452
 6376TIP3    H219072   4.266   7.781   5.407
 6377TIP3   OH219073   6.834   1.564   3.540
 6377TIP3    H119074   6.907   1.581   3.480
 6377TIP3    H219075   6.764   1.622   3.509
 6378TIP3   OH219076   7.150   0.827   1.696
 6378TIP3    H119077   7.207   0.901   1.718
 6378TIP3    H219078   7.066   0.849   1.736
 6379TIP3   OH219079   5.350   4.476   1.321
 6379TIP3    H119080   5.348   4.462   1.415
 6379TIP3    H219081   5.262   4.456   1.291
 6380TIP3   OH219082   5.831   1.075   2.079
 6380TIP3    H119083   5.923   1.057   2.058
 6380TIP3    H219084   5.824   1.170   2.078
 6381TIP3   OH219085   4.137   1.395   5.633
 6381TIP3    H119086   4.148   1.471   5.690
 6381TIP3    H219087   4.223   1.381   5.594
 6382TIP3   OH219088   7.736   5.153   5.495
 6382TIP3    H119089   7.697   5.119   5.575
 6382TIP3    H219090   7.830   5.149   5.510
 6383TIP3   OH219091   4.735   2.793   2.695
 6383TIP3    H119092   4.737   2.702   2.665
 6383TIP3    H219093   4.808   2.835   2.650
 6384TIP3   OH219094   1.562   6.861   0.984
 6384TIP3    H119095   1.527   6.812   1.058
 6384TIP3    H219096   1.491   6.861   0.920
 6385TIP3   OH219097   0.370   5.184   6.033
 6385TIP3    H119098   0.285   5.208   5.997
 6385TIP3    H219099   0.361   5.194   6.128
 6386TIP3   OH219100   6.010   0.617   2.149
 6386TIP3    H119101   5.996   0.688   2.212
 6386TIP3    H219102   5.952   0.547   2.179
 6387TIP3   OH219103   1.061   1.225   4.716
 6387TIP3    H119104   1.139   1.238   4.662
 6387TIP3    H219105   1.093   1.226   4.806
 6388TIP3   OH219106   3.624   3.200   0.686
 6388TIP3    H119107   3.609   3.285   0.646
 6388TIP3    H219108   3.536   3.170   0.712
 6389TIP3   OH219109   1.066   6.548   5.895
 6389TIP3    H119110   0.997   6.614   5.882
 6389TIP3    H219111   1.145   6.588   5.859
 6390TIP3   OH219112   8.012   4.077   0.875
 6390TIP3    H119113   8.028   4.145   0.810
 6390TIP3    H219114   7.961   4.011   0.829
 6391TIP3   OH219115   3.806   4.531   5.980
 6391TIP3    H119116   3.726   4.574   5.950
 6391TIP3    H219117   3.877   4.581   5.940
 6392TIP3   OH219118   6.908   1.224   4.915
 6392TIP3    H119119   6.812   1.226   4.918
 6392TIP3    H219120   6.929   1.166   4.843
 6393TIP3   OH219121   0.883   1.564   5.759
 6393TIP3    H119122   0.961   1.510   5.772
 6393TIP3    H219123   0.818   1.504   5.724
 6394TIP3   OH219124   7.451   5.130   2.208
 6394TIP3    H119125   7.361   5.118   2.179
 6394TIP3    H219126   7.495   5.048   2.185
 6395TIP3   OH219127   3.294   5.315   6.303
 6395TIP3    H119128   3.285   5.386   6.239
 6395TIP3    H219129   3.381   5.279   6.287
 6396TIP3   OH219130   7.998   5.349   2.358
 6396TIP3    H119131   8.020   5.381   2.270
 6396TIP3    H219132   7.911   5.385   2.376
 6397TIP3   OH219133   2.051   2.243   0.854
 6397TIP3    H119134   1.997   2.208   0.783
 6397TIP3    H219135   2.104   2.311   0.814
 6398TIP3   OH219136   3.037   1.160   1.906
 6398TIP3    H119137   3.089   1.241   1.908
 6398TIP3    H219138   2.997   1.158   1.819
 6399TIP3   OH219139   0.896   0.183   2.015
 6399TIP3    H119140   0.804   0.162   2.034
 6399TIP3    H219141   0.894   0.229   1.931
 6400TIP3   OH219142   4.982   6.040   2.620
 6400TIP3    H119143   4.929   6.017   2.696
 6400TIP3    H219144   5.031   6.117   2.647
 6401TIP3   OH219145   6.840   3.879   6.000
 6401TIP3    H119146   6.857   3.924   5.917
 6401TIP3    H219147   6.911   3.815   6.008
 6402TIP3   OH219148   5.393   2.650   5.608
 6402TIP3    H119149   5.418   2.559   5.617
 6402TIP3    H219150   5.454   2.698   5.665
 6403TIP3   OH219151   1.365   5.235   3.627
 6403TIP3    H119152   1.417   5.263   3.551
 6403TIP3    H219153   1.280   5.212   3.590
 6404TIP3   OH219154   0.064   0.636   5.830
 6404TIP3    H119155   0.090   0.684   5.751
 6404TIP3    H219156   0.128   0.661   5.896
 6405TIP3   OH219157   2.818   3.781   3.668
 6405TIP3    H119158   2.786   3.821   3.587
 6405TIP3    H219159   2.746   3.793   3.731
 6406TIP3   OH219160   2.509   6.504   6.361
 6406TIP3    H119161   2.542   6.529   6.448
 6406TIP3    H219162   2.588   6.493   6.308
 6407TIP3   OH219163   3.785   6.256   4.964
 6407TIP3    H119164   3.723   6.183   4.959
 6407TIP3    H219165   3.729   6.333   4.979
 6408TIP3   OH219166   0.912   5.952   2.203
 6408TIP3    H119167   0.981   5.903   2.159
 6408TIP3    H219168   0.837   5.946   2.144
 6409TIP3   OH219169   4.067   4.299   5.809
 6409TIP3    H119170   4.008   4.224   5.814
 6409TIP3    H219171   4.029   4.354   5.741
 6410TIP3   OH219172   5.293   0.152   0.804
 6410TIP3    H119173   5.369   0.206   0.782
 6410TIP3    H219174   5.292   0.083   0.737
 6411TIP3   OH219175   1.916   7.689   3.527
 6411TIP3    H119176   1.978   7.760   3.514
 6411TIP3    H219177   1.865   7.717   3.603
 6412TIP3   OH219178   4.304   3.138   5.666
 6412TIP3    H119179   4.257   3.076   5.611
 6412TIP3    H219180   4.396   3.127   5.642
 6413TIP3   OH219181   7.659   5.950   0.225
 6413TIP3    H119182   7.590   6.004   0.265
 6413TIP3    H219183   7.684   5.889   0.294
 6414TIP3   OH219184   3.433   6.968   2.428
 6414TIP3    H119185   3.415   6.880   2.394
 6414TIP3    H219186   3.363   6.982   2.492
 6415TIP3   OH219187   1.326   1.745   3.539
 6415TIP3    H119188   1.344   1.651   3.546
 6415TIP3    H219189   1.343   1.766   3.447
 6416TIP3   OH219190   4.028   1.091   2.436
 6416TIP3    H119191   4.081   1.017   2.407
 6416TIP3    H219192   4.078   1.168   2.411
 6417TIP3   OH219193   2.188   4.485   2.719
 6417TIP3    H119194   2.234   4.406   2.748
 6417TIP3    H219195   2.167   4.468   2.628
 6418TIP3   OH219196   4.494   7.015   1.061
 6418TIP3    H119197   4.522   6.934   1.016
 6418TIP3    H219198   4.561   7.029   1.128
 6419TIP3   OH219199   4.953   4.682   6.044
 6419TIP3    H119200   4.866   4.652   6.072
 6419TIP3    H219201   4.995   4.710   6.126
 6420TIP3   OH219202   6.878   2.609   1.949
 6420TIP3    H119203   6.893   2.643   2.037
 6420TIP3    H219204   6.859   2.516   1.961
 6421TIP3   OH219205   3.291   5.550   6.136
 6421TIP3    H119206   3.198   5.570   6.133
 6421TIP3    H219207   3.333   5.631   6.165
 6422TIP3   OH219208   7.841   3.370   4.816
 6422TIP3    H119209   7.832   3.361   4.911
 6422TIP3    H219210   7.891   3.293   4.789
 6423TIP3   OH219211   1.166   0.604   1.431
 6423TIP3    H119212   1.219   0.677   1.398
 6423TIP3    H219213   1.223   0.527   1.422
 6424TIP3   OH219214   5.265   1.842   2.250
 6424TIP3    H119215   5.262   1.847   2.346
 6424TIP3    H219216   5.227   1.757   2.229
 6425TIP3   OH219217   1.079   1.863   6.383
 6425TIP3    H119218   1.113   1.891   6.298
 6425TIP3    H219219   1.093   1.769   6.385
 6426TIP3   OH219220   7.232   0.956   3.812
 6426TIP3    H119221   7.187   0.887   3.763
 6426TIP3    H219222   7.165   0.991   3.871
 6427TIP3   OH219223   2.348   2.537   3.392
 6427TIP3    H119224   2.348   2.467   3.327
 6427TIP3    H219225   2.316   2.613   3.345
 6428TIP3   OH219226   4.536   6.296   3.762
 6428TIP3    H119227   4.500   6.382   3.784
 6428TIP3    H219228   4.533   6.293   3.666
 6429TIP3   OH219229   6.514   6.936   3.177
 6429TIP3    H119230   6.428   6.969   3.204
 6429TIP3    H219231   6.528   6.858   3.231
 6430TIP3   OH219232   6.833   3.862   3.430
 6430TIP3    H119233   6.840   3.767   3.438
 6430TIP3    H219234   6.889   3.896   3.499
 6431TIP3   OH219235   0.826   1.422   4.390
 6431TIP3    H119236   0.831   1.425   4.295
 6431TIP3    H219237   0.910   1.457   4.420
 6432TIP3   OH219238   0.642   6.453   1.572
 6432TIP3    H119239   0.705   6.457   1.500
 6432TIP3    H219240   0.557   6.454   1.528
 6433TIP3   OH219241   3.966   7.518   5.675
 6433TIP3    H119242   3.962   7.598   5.623
 6433TIP3    H219243   3.885   7.472   5.653
 6434TIP3   OH219244   0.456   7.426   6.033
 6434TIP3    H119245   0.527   7.375   6.072
 6434TIP3    H219246   0.380   7.368   6.038
 6435TIP3   OH219247   4.240   1.609   6.674
 6435TIP3    H119248   4.297   1.685   6.665
 6435TIP3    H219249   4.230   1.575   6.586
 6436TIP3   OH219250   3.642   2.027   4.142
 6436TIP3    H119251   3.603   2.016   4.055
 6436TIP3    H219252   3.728   2.065   4.126
 6437TIP3   OH219253   1.953   0.114   1.560
 6437TIP3    H119254   1.987   0.144   1.476
 6437TIP3    H219255   1.895   0.041   1.538
 6438TIP3   OH219256   4.694   2.972   2.333
 6438TIP3    H119257   4.692   2.877   2.344
 6438TIP3    H219258   4.676   2.986   2.240
 6439TIP3   OH219259   1.555   3.915   6.770
 6439TIP3    H119260   1.607   3.853   6.720
 6439TIP3    H219261   1.575   4.000   6.730
 6440TIP3   OH219262   6.904   1.061   3.498
 6440TIP3    H119263   6.962   1.033   3.427
 6440TIP3    H219264   6.834   1.109   3.454
 6441TIP3   OH219265   7.120   6.905   3.074
 6441TIP3    H119266   7.138   6.819   3.038
 6441TIP3    H219267   7.027   6.921   3.054
 6442TIP3   OH219268   7.146   1.352   1.049
 6442TIP3    H119269   7.117   1.263   1.064
 6442TIP3    H219270   7.079   1.390   0.992
 6443TIP3   OH219271   6.908   7.515   2.362
 6443TIP3    H119272   7.000   7.503   2.338
 6443TIP3    H219273   6.902   7.608   2.385
 6444TIP3   OH219274   3.875   7.604   3.894
 6444TIP3    H119275   3.902   7.521   3.852
 6444TIP3    H219276   3.779   7.603   3.889
 6445TIP3   OH219277   1.567   2.233   5.298
 6445TIP3    H119278   1.491   2.267   5.345
 6445TIP3    H219279   1.573   2.142   5.324
 6446TIP3   OH219280   7.193   5.075   2.899
 6446TIP3    H119281   7.175   5.162   2.935
 6446TIP3    H219282   7.207   5.020   2.976
 6447TIP3   OH219283   7.755   2.776   2.341
 6447TIP3    H119284   7.737   2.740   2.254
 6447TIP3    H219285   7.753   2.700   2.399
 6448TIP3   OH219286   6.678   4.928   6.465
 6448TIP3    H119287   6.608   4.950   6.527
 6448TIP3    H219288   6.633   4.880   6.395
 6449TIP3   OH219289   3.591   4.690   5.850
 6449TIP3    H119290   3.504   4.680   5.812
 6449TIP3    H219291   3.575   4.710   5.942
 6450TIP3   OH219292   7.406   4.172   1.239
 6450TIP3    H119293   7.339   4.222   1.192
 6450TIP3    H219294   7.399   4.204   1.330
 6451TIP3   OH219295   4.663   5.809   4.557
 6451TIP3    H119296   4.598   5.866   4.598
 6451TIP3    H219297   4.746   5.855   4.568
 6452TIP3   OH219298   4.334   5.769   4.814
 6452TIP3    H119299   4.242   5.747   4.827
 6452TIP3    H219300   4.361   5.810   4.896
 6453TIP3   OH219301   7.933   7.758   1.796
 6453TIP3    H119302   7.970   7.717   1.874
 6453TIP3    H219303   7.892   7.686   1.748
 6454TIP3   OH219304   5.094   6.442   4.795
 6454TIP3    H119305   5.111   6.443   4.889
 6454TIP3    H219306   5.172   6.482   4.757
 6455TIP3   OH219307   6.612   0.292   4.715
 6455TIP3    H119308   6.564   0.291   4.632
 6455TIP3    H219309   6.543   0.294   4.782
 6456TIP3   OH219310   2.587   5.466   5.592
 6456TIP3    H119311   2.560   5.376   5.612
 6456TIP3    H219312   2.674   5.456   5.551
 6457TIP3   OH219313   8.101   2.018   1.538
 6457TIP3    H119314   8.100   2.042   1.630
 6457TIP3    H219315   8.011   1.995   1.518
 6458TIP3   OH219316   2.932   1.665   5.715
 6458TIP3    H119317   2.875   1.642   5.641
 6458TIP3    H219318   2.896   1.617   5.789
 6459TIP3   OH219319   6.004   2.372   6.439
 6459TIP3    H119320   6.058   2.334   6.370
 6459TIP3    H219321   5.951   2.298   6.470
 6460TIP3   OH219322   1.855   6.364   1.280
 6460TIP3    H119323   1.840   6.347   1.373
 6460TIP3    H219324   1.860   6.459   1.274
 6461TIP3   OH219325   6.708   3.905   1.321
 6461TIP3    H119326   6.689   3.840   1.389
 6461TIP3    H219327   6.800   3.889   1.298
 6462TIP3   OH219328   5.932   4.206   3.182
 6462TIP3    H119329   5.864   4.269   3.160
 6462TIP3    H219330   5.887   4.138   3.232
 6463TIP3   OH219331   7.894   2.247   2.219
 6463TIP3    H119332   7.818   2.302   2.199
 6463TIP3    H219333   7.952   2.258   2.144
 6464TIP3   OH219334   4.727   1.226   2.668
 6464TIP3    H119335   4.794   1.287   2.699
 6464TIP3    H219336   4.651   1.281   2.649
 6465TIP3   OH219337   3.243   6.812   3.475
 6465TIP3    H119338   3.248   6.771   3.389
 6465TIP3    H219339   3.239   6.739   3.537
 6466TIP3   OH219340   0.748   2.869   5.294
 6466TIP3    H119341   0.842   2.853   5.294
 6466TIP3    H219342   0.727   2.890   5.203
 6467TIP3   OH219343   5.641   6.112   0.686
 6467TIP3    H119344   5.595   6.155   0.758
 6467TIP3    H219345   5.688   6.040   0.727
 6468TIP3   OH219346   7.459   5.437   5.776
 6468TIP3    H119347   7.448   5.486   5.858
 6468TIP3    H219348   7.417   5.493   5.710
 6469TIP3   OH219349   3.366   7.346   0.735
 6469TIP3    H119350   3.338   7.269   0.785
 6469TIP3    H219351   3.297   7.359   0.670
 6470TIP3   OH219352   7.262   7.001   2.677
 6470TIP3    H119353   7.248   7.069   2.612
 6470TIP3    H219354   7.281   7.049   2.758
 6471TIP3   OH219355   5.985   5.878   2.399
 6471TIP3    H119356   5.944   5.803   2.356
 6471TIP3    H219357   5.961   5.869   2.491
 6472TIP3   OH219358   8.089   0.729   3.622
 6472TIP3    H119359   8.001   0.738   3.657
 6472TIP3    H219360   8.090   0.786   3.545
 6473TIP3   OH219361   3.411   7.313   4.761
 6473TIP3    H119362   3.458   7.396   4.764
 6473TIP3    H219363   3.326   7.332   4.800
 6474TIP3   OH219364   6.906   4.704   0.547
 6474TIP3    H119365   6.996   4.672   0.543
 6474TIP3    H219366   6.910   4.777   0.609
 6475TIP3   OH219367   4.698   4.749   2.401
 6475TIP3    H119368   4.680   4.820   2.463
 6475TIP3    H219369   4.636   4.680   2.425
 6476TIP3   OH219370   6.588   6.653   3.961
 6476TIP3    H119371   6.512   6.686   3.913
 6476TIP3    H219372   6.566   6.562   3.980
 6477TIP3   OH219373   0.798   0.540   5.131
 6477TIP3    H119374   0.821   0.486   5.055
 6477TIP3    H219375   0.767   0.477   5.196
 6478TIP3   OH219376   3.148   7.384   1.050
 6478TIP3    H119377   3.219   7.325   1.022
 6478TIP3    H219378   3.183   7.427   1.128
 6479TIP3   OH219379   4.115   6.088   3.882
 6479TIP3    H119380   4.089   6.173   3.847
 6479TIP3    H219381   4.169   6.109   3.959
 6480TIP3   OH219382   7.702   2.353   0.839
 6480TIP3    H119383   7.744   2.333   0.755
 6480TIP3    H219384   7.608   2.348   0.821
 6481TIP3   OH219385   2.061   0.859   3.379
 6481TIP3    H119386   2.072   0.945   3.339
 6481TIP3    H219387   2.081   0.797   3.308
 6482TIP3   OH219388   1.785   2.774   3.002
 6482TIP3    H119389   1.708   2.751   2.949
 6482TIP3    H219390   1.782   2.869   3.008
 6483TIP3   OH219391   3.563   4.750   6.108
 6483TIP3    H119392   3.506   4.682   6.144
 6483TIP3    H219393   3.520   4.833   6.131
 6484TIP3   OH219394   5.054   7.657   6.280
 6484TIP3    H119395   5.009   7.738   6.299
 6484TIP3    H219396   5.147   7.679   6.285
 6485TIP3   OH219397   4.236   0.478   6.052
 6485TIP3    H119398   4.288   0.495   6.131
 6485TIP3    H219399   4.158   0.433   6.085
 6486TIP3   OH219400   1.399   1.074   2.911
 6486TIP3    H119401   1.398   1.168   2.931
 6486TIP3    H219402   1.479   1.041   2.952
 6487TIP3   OH219403   2.420   1.918   5.265
 6487TIP3    H119404   2.361   1.989   5.241
 6487TIP3    H219405   2.363   1.841   5.273
 6488TIP3   OH219406   0.689   1.869   0.658
 6488TIP3    H119407   0.757   1.936   0.650
 6488TIP3    H219408   0.701   1.813   0.581
 6489TIP3   OH219409   0.072   1.384   6.054
 6489TIP3    H119410   0.083   1.380   5.959
 6489TIP3    H219411   0.161   1.384   6.089
 6490TIP3   OH219412   4.443   5.186   4.631
 6490TIP3    H119413   4.455   5.234   4.549
 6490TIP3    H219414   4.436   5.095   4.604
 6491TIP3   OH219415   3.789   5.764   1.488
 6491TIP3    H119416   3.753   5.677   1.468
 6491TIP3    H219417   3.882   5.757   1.464
 6492TIP3   OH219418   7.088   5.817   4.856
 6492TIP3    H119419   7.136   5.825   4.938
 6492TIP3    H219420   7.106   5.728   4.826
 6493TIP3   OH219421   7.843   5.574   4.429
 6493TIP3    H119422   7.771   5.586   4.367
 6493TIP3    H219423   7.834   5.645   4.492
 6494TIP3   OH219424   1.379   5.083   5.645
 6494TIP3    H119425   1.423   5.020   5.588
 6494TIP3    H219426   1.380   5.042   5.731
 6495TIP3   OH219427   2.300   5.882   3.396
 6495TIP3    H119428   2.257   5.922   3.320
 6495TIP3    H219429   2.261   5.794   3.401
 6496TIP3   OH219430   6.032   3.577   4.515
 6496TIP3    H119431   5.990   3.538   4.438
 6496TIP3    H219432   5.967   3.571   4.584
 6497TIP3   OH219433   8.208   2.295   5.797
 6497TIP3    H119434   8.195   2.355   5.871
 6497TIP3    H219435   8.176   2.210   5.830
 6498TIP3   OH219436   8.151   0.988   0.879
 6498TIP3    H119437   8.119   0.901   0.855
 6498TIP3    H219438   8.111   1.047   0.816
 6499TIP3   OH219439   6.513   1.684  -0.028
 6499TIP3    H119440   6.524   1.589  -0.022
 6499TIP3    H219441   6.468   1.708   0.053
 6500TIP3   OH219442   4.408   7.240   6.360
 6500TIP3    H119443   4.448   7.296   6.428
 6500TIP3    H219444   4.323   7.282   6.342
 6501TIP3   OH219445   7.755   7.771   3.357
 6501TIP3    H119446   7.830   7.717   3.383
 6501TIP3    H219447   7.687   7.750   3.421
 6502TIP3   OH219448   1.537   1.259   1.612
 6502TIP3    H119449   1.623   1.290   1.585
 6502TIP3    H219450   1.494   1.337   1.649
 6503TIP3   OH219451   7.263   2.742   4.584
 6503TIP3    H119452   7.245   2.672   4.647
 6503TIP3    H219453   7.347   2.778   4.613
 6504TIP3   OH219454   4.867   2.619   5.592
 6504TIP3    H119455   4.864   2.676   5.515
 6504TIP3    H219456   4.955   2.631   5.627
 6505TIP3   OH219457   5.109   3.127   4.260
 6505TIP3    H119458   5.088   3.175   4.180
 6505TIP3    H219459   5.164   3.188   4.310
 6506TIP3   OH219460   4.884   6.561   0.909
 6506TIP3    H119461   4.888   6.467   0.921
 6506TIP3    H219462   4.954   6.596   0.964
 6507TIP3   OH219463   0.499   2.993   3.471
 6507TIP3    H119464   0.569   3.023   3.414
 6507TIP3    H219465   0.419   3.031   3.434
 6508TIP3   OH219466   6.883   5.968   5.107
 6508TIP3    H119467   6.918   6.003   5.025
 6508TIP3    H219468   6.954   5.982   5.170
 6509TIP3   OH219469   5.590   3.144   3.070
 6509TIP3    H119470   5.519   3.137   3.006
 6509TIP3    H219471   5.669   3.160   3.017
 6510TIP3   OH219472   5.055   6.765   4.092
 6510TIP3    H119473   5.143   6.801   4.086
 6510TIP3    H219474   5.048   6.704   4.019
 6511TIP3   OH219475   8.139   6.318   4.970
 6511TIP3    H119476   8.189   6.366   4.904
 6511TIP3    H219477   8.069   6.377   4.995
 6512TIP3   OH219478   3.263   0.686   4.917
 6512TIP3    H119479   3.170   0.665   4.932
 6512TIP3    H219480   3.306   0.600   4.910
 6513TIP3   OH219481   6.438   5.485   3.187
 6513TIP3    H119482   6.425   5.466   3.094
 6513TIP3    H219483   6.454   5.579   3.191
 6514TIP3   OH219484   4.628   2.231   4.511
 6514TIP3    H119485   4.641   2.142   4.544
 6514TIP3    H219486   4.708   2.250   4.461
 6515TIP3   OH219487   5.297   3.976   5.731
 6515TIP3    H119488   5.308   4.026   5.650
 6515TIP3    H219489   5.366   3.909   5.728
 6516TIP3   OH219490   5.649   4.551   1.118
 6516TIP3    H119491   5.687   4.576   1.034
 6516TIP3    H219492   5.678   4.461   1.132
 6517TIP3   OH219493   4.026   4.328   1.696
 6517TIP3    H119494   3.955   4.302   1.638
 6517TIP3    H219495   4.062   4.408   1.657
 6518TIP3   OH219496   4.555   3.551   3.762
 6518TIP3    H119497   4.523   3.602   3.687
 6518TIP3    H219498   4.476   3.522   3.807
 6519TIP3   OH219499   6.364   4.297   3.266
 6519TIP3    H119500   6.447   4.305   3.220
 6519TIP3    H219501   6.390   4.281   3.357
 6520TIP3   OH219502   8.128   4.412   2.911
 6520TIP3    H119503   8.047   4.373   2.947
 6520TIP3    H219504   8.098   4.486   2.860
 6521TIP3   OH219505   6.940   6.360   4.524
 6521TIP3    H119506   6.971   6.395   4.440
 6521TIP3    H219507   7.005   6.295   4.548
 6522TIP3   OH219508   0.502   6.811   6.040
 6522TIP3    H119509   0.568   6.860   6.090
 6522TIP3    H219510   0.456   6.759   6.106
 6523TIP3   OH219511   3.174   3.470   3.661
 6523TIP3    H119512   3.267   3.468   3.638
 6523TIP3    H219513   3.131   3.421   3.591
 6524TIP3   OH219514   4.138   3.339   5.802
 6524TIP3    H119515   4.215   3.288   5.775
 6524TIP3    H219516   4.169   3.393   5.875
 6525TIP3   OH219517   5.935   5.602   4.634
 6525TIP3    H119518   5.916   5.679   4.580
 6525TIP3    H219519   5.904   5.528   4.582
 6526TIP3   OH219520   0.750   1.060   5.328
 6526TIP3    H119521   0.740   1.152   5.302
 6526TIP3    H219522   0.836   1.036   5.296
 6527TIP3   OH219523   5.819   6.016   1.961
 6527TIP3    H119524   5.866   6.032   2.044
 6527TIP3    H219525   5.815   6.102   1.920
 6528TIP3   OH219526   4.252   0.647   0.554
 6528TIP3    H119527   4.284   0.561   0.525
 6528TIP3    H219528   4.300   0.710   0.501
 6529TIP3   OH219529   1.267   5.854   3.410
 6529TIP3    H119530   1.363   5.863   3.413
 6529TIP3    H219531   1.251   5.763   3.433
 6530TIP3   OH219532   7.239   3.149   1.824
 6530TIP3    H119533   7.324   3.106   1.833
 6530TIP3    H219534   7.221   3.183   1.912
 6531TIP3   OH219535   7.456   7.668   1.409
 6531TIP3    H119536   7.544   7.703   1.390
 6531TIP3    H219537   7.396   7.737   1.379
 6532TIP3   OH219538   1.491   7.323   4.322
 6532TIP3    H119539   1.408   7.308   4.367
 6532TIP3    H219540   1.468   7.374   4.244
 6533TIP3   OH219541   3.464   1.265   2.378
 6533TIP3    H119542   3.427   1.218   2.303
 6533TIP3    H219543   3.387   1.297   2.426
 6534TIP3   OH219544   2.241   2.940   6.607
 6534TIP3    H119545   2.336   2.948   6.622
 6534TIP3    H219546   2.201   2.986   6.680
 6535TIP3   OH219547   3.506   4.630   0.184
 6535TIP3    H119548   3.526   4.679   0.263
 6535TIP3    H219549   3.492   4.540   0.215
 6536TIP3   OH219550   1.645   0.436   2.678
 6536TIP3    H119551   1.715   0.495   2.707
 6536TIP3    H219552   1.613   0.476   2.597
 6537TIP3   OH219553   0.198   6.929   5.301
 6537TIP3    H119554   0.264   6.937   5.370
 6537TIP3    H219555   0.188   6.835   5.288
 6538TIP3   OH219556   1.065   1.521   6.113
 6538TIP3    H119557   1.036   1.430   6.111
 6538TIP3    H219558   1.145   1.519   6.166
 6539TIP3   OH219559   4.968   4.215   1.041
 6539TIP3    H119560   4.983   4.265   1.121
 6539TIP3    H219561   5.022   4.136   1.051
 6540TIP3   OH219562   6.716   1.151   6.731
 6540TIP3    H119563   6.736   1.118   6.819
 6540TIP3    H219564   6.699   1.245   6.745
 6541TIP3   OH219565   5.751   5.317   2.181
 6541TIP3    H119566   5.721   5.285   2.266
 6541TIP3    H219567   5.671   5.333   2.131
 6542TIP3   OH219568   6.736   7.702   6.438
 6542TIP3    H119569   6.767   7.724   6.526
 6542TIP3    H219570   6.816   7.701   6.385
 6543TIP3   OH219571   5.424   5.473   4.684
 6543TIP3    H119572   5.404   5.497   4.774
 6543TIP3    H219573   5.447   5.555   4.641
 6544TIP3   OH219574   6.793   5.749   6.111
 6544TIP3    H119575   6.856   5.797   6.056
 6544TIP3    H219576   6.820   5.657   6.104
 6545TIP3   OH219577   1.627   3.520   1.206
 6545TIP3    H119578   1.654   3.561   1.288
 6545TIP3    H219579   1.690   3.553   1.141
 6546TIP3   OH219580   3.799   4.200   5.233
 6546TIP3    H119581   3.801   4.117   5.280
 6546TIP3    H219582   3.709   4.206   5.200
 6547TIP3   OH219583   1.725   2.409   1.547
 6547TIP3    H119584   1.747   2.319   1.570
 6547TIP3    H219585   1.797   2.438   1.490
 6548TIP3   OH219586   4.289   6.233   0.393
 6548TIP3    H119587   4.198   6.210   0.410
 6548TIP3    H219588   4.286   6.322   0.359
 6549TIP3   OH219589   4.999   2.632   1.413
 6549TIP3    H119590   5.062   2.686   1.461
 6549TIP3    H219591   5.048   2.554   1.389
 6550TIP3   OH219592   5.107   4.757   6.552
 6550TIP3    H119593   5.016   4.730   6.565
 6550TIP3    H219594   5.104   4.853   6.551
 6551TIP3   OH219595   7.894   2.087   5.680
 6551TIP3    H119596   7.960   2.119   5.619
 6551TIP3    H219597   7.843   2.024   5.629
 6552TIP3   OH219598   6.373   2.951   0.566
 6552TIP3    H119599   6.458   2.906   0.563
 6552TIP3    H219600   6.345   2.954   0.475
 6553TIP3   OH219601   2.972   3.619   3.831
 6553TIP3    H119602   2.904   3.656   3.775
 6553TIP3    H219603   3.027   3.567   3.772
 6554TIP3   OH219604   4.038   6.394   0.240
 6554TIP3    H119605   4.121   6.399   0.193
 6554TIP3    H219606   3.991   6.321   0.199
 6555TIP3   OH219607   6.123   4.616   4.480
 6555TIP3    H119608   6.175   4.676   4.534
 6555TIP3    H219609   6.188   4.563   4.434
 6556TIP3   OH219610   5.258   6.325   3.000
 6556TIP3    H119611   5.223   6.259   2.940
 6556TIP3    H219612   5.181   6.362   3.043
 6557TIP3   OH219613   3.845   4.155   3.215
 6557TIP3    H119614   3.870   4.124   3.302
 6557TIP3    H219615   3.898   4.102   3.155
 6558TIP3   OH219616   8.126   4.560   4.848
 6558TIP3    H119617   8.151   4.531   4.935
 6558TIP3    H219618   8.124   4.479   4.795
 6559TIP3   OH219619   2.231   2.088   5.193
 6559TIP3    H119620   2.231   2.108   5.100
 6559TIP3    H219621   2.154   2.133   5.228
 6560TIP3   OH219622   0.168   1.957   5.845
 6560TIP3    H119623   0.233   1.912   5.791
 6560TIP3    H219624   0.218   1.992   5.919
 6561TIP3   OH219625   2.666   6.520   3.083
 6561TIP3    H119626   2.611   6.566   3.020
 6561TIP3    H219627   2.604   6.478   3.143
 6562TIP3   OH219628   0.872   1.385   4.131
 6562TIP3    H119629   0.959   1.399   4.095
 6562TIP3    H219630   0.812   1.417   4.064
 6563TIP3   OH219631   5.149   4.237   0.640
 6563TIP3    H119632   5.237   4.204   0.621
 6563TIP3    H219633   5.118   4.273   0.557
 6564TIP3   OH219634   8.217   6.017   6.433
 6564TIP3    H119635   8.130   5.992   6.401
 6564TIP3    H219636   8.262   5.935   6.447
 6565TIP3   OH219637   7.620   3.155   3.837
 6565TIP3    H119638   7.714   3.173   3.844
 6565TIP3    H219639   7.598   3.175   3.746
 6566TIP3   OH219640   8.074   6.193   2.115
 6566TIP3    H119641   7.985   6.157   2.122
 6566TIP3    H219642   8.091   6.195   2.021
 6567TIP3   OH219643   7.412   6.625   1.252
 6567TIP3    H119644   7.334   6.679   1.238
 6567TIP3    H219645   7.399   6.587   1.339
 6568TIP3   OH219646   0.935   6.554   1.881
 6568TIP3    H119647   0.915   6.603   1.961
 6568TIP3    H219648   0.877   6.593   1.815
 6569TIP3   OH219649   3.981   4.167   5.010
 6569TIP3    H119650   3.919   4.167   5.083
 6569TIP3    H219651   3.945   4.230   4.948
 6570TIP3   OH219652   6.597   7.516   5.677
 6570TIP3    H119653   6.686   7.483   5.693
 6570TIP3    H219654   6.550   7.499   5.758
 6571TIP3   OH219655   7.092   6.476   2.155
 6571TIP3    H119656   7.015   6.511   2.200
 6571TIP3    H219657   7.120   6.547   2.096
 6572TIP3   OH219658   7.934   2.284   2.746
 6572TIP3    H119659   7.933   2.198   2.704
 6572TIP3    H219660   7.914   2.266   2.838
 6573TIP3   OH219661   5.354   1.187   3.290
 6573TIP3    H119662   5.435   1.136   3.280
 6573TIP3    H219663   5.341   1.227   3.204
 6574TIP3   OH219664   0.509   0.858   5.232
 6574TIP3    H119665   0.573   0.926   5.254
 6574TIP3    H219666   0.501   0.806   5.312
 6575TIP3   OH219667   4.728   2.264   0.533
 6575TIP3    H119668   4.641   2.292   0.507
 6575TIP3    H219669   4.735   2.290   0.625
 6576TIP3   OH219670   5.337   6.385   0.703
 6576TIP3    H119671   5.254   6.379   0.750
 6576TIP3    H219672   5.403   6.365   0.769
 6577TIP3   OH219673   6.149   6.931   6.247
 6577TIP3    H119674   6.234   6.926   6.203
 6577TIP3    H219675   6.128   7.025   6.248
 6578TIP3   OH219676   5.737   0.248   2.540
 6578TIP3    H119677   5.715   0.163   2.501
 6578TIP3    H219678   5.715   0.312   2.473
 6579TIP3   OH219679   0.980   5.138   4.384
 6579TIP3    H119680   0.996   5.051   4.348
 6579TIP3    H219681   0.974   5.124   4.479
 6580TIP3   OH219682   5.249   5.097   6.278
 6580TIP3    H119683   5.202   5.059   6.204
 6580TIP3    H219684   5.231   5.191   6.272
 6581TIP3   OH219685   6.383   6.482   6.129
 6581TIP3    H119686   6.378   6.392   6.098
 6581TIP3    H219687   6.455   6.483   6.191
 6582TIP3   OH219688   0.319   3.393   1.241
 6582TIP3    H119689   0.409   3.419   1.261
 6582TIP3    H219690   0.274   3.395   1.325
 6583TIP3   OH219691   6.155   4.742   1.220
 6583TIP3    H119692   6.120   4.739   1.309
 6583TIP3    H219693   6.173   4.834   1.204
 6584TIP3   OH219694   2.881   6.622   1.147
 6584TIP3    H119695   2.803   6.653   1.194
 6584TIP3    H219696   2.935   6.582   1.216
 6585TIP3   OH219697   7.087   1.453   3.855
 6585TIP3    H119698   7.072   1.386   3.922
 6585TIP3    H219699   7.001   1.491   3.840
 6586TIP3   OH219700   3.298   0.291   1.224
 6586TIP3    H119701   3.342   0.233   1.286
 6586TIP3    H219702   3.240   0.234   1.174
 6587TIP3   OH219703   3.474   4.438   2.797
 6587TIP3    H119704   3.494   4.399   2.712
 6587TIP3    H219705   3.379   4.452   2.795
 6588TIP3   OH219706   0.779   0.325   5.307
 6588TIP3    H119707   0.812   0.264   5.241
 6588TIP3    H219708   0.855   0.347   5.360
 6589TIP3   OH219709   7.606   1.766   1.528
 6589TIP3    H119710   7.594   1.706   1.454
 6589TIP3    H219711   7.685   1.735   1.571
 6590TIP3   OH219712   7.766   7.381   2.571
 6590TIP3    H119713   7.696   7.317   2.584
 6590TIP3    H219714   7.824   7.369   2.647
 6591TIP3   OH219715   6.606   7.122   6.056
 6591TIP3    H119716   6.668   7.053   6.080
 6591TIP3    H219717   6.553   7.084   5.987
 6592TIP3   OH219718   3.191   3.060   4.641
 6592TIP3    H119719   3.209   3.058   4.547
 6592TIP3    H219720   3.160   2.971   4.662
 6593TIP3   OH219721   5.795   0.643   5.470
 6593TIP3    H119722   5.845   0.577   5.421
 6593TIP3    H219723   5.721   0.594   5.506
 6594TIP3   OH219724   5.203   1.891   3.546
 6594TIP3    H119725   5.155   1.815   3.580
 6594TIP3    H219726   5.272   1.853   3.492
 6595TIP3   OH219727   1.825   3.716   5.917
 6595TIP3    H119728   1.794   3.651   5.854
 6595TIP3    H219729   1.856   3.789   5.863
 6596TIP3   OH219730   0.921   1.490   0.900
 6596TIP3    H119731   1.015   1.504   0.911
 6596TIP3    H219732   0.889   1.468   0.987
 6597TIP3   OH219733   2.382   5.829   5.131
 6597TIP3    H119734   2.378   5.923   5.115
 6597TIP3    H219735   2.448   5.819   5.200
 6598TIP3   OH219736   1.397   6.838   5.433
 6598TIP3    H119737   1.429   6.899   5.500
 6598TIP3    H219738   1.475   6.815   5.382
 6599TIP3   OH219739   7.233   1.083   6.523
 6599TIP3    H119740   7.181   1.124   6.454
 6599TIP3    H219741   7.291   1.023   6.476
 6600TIP3   OH219742   2.051   0.590   5.777
 6600TIP3    H119743   2.044   0.503   5.816
 6600TIP3    H219744   2.024   0.577   5.686
 6601TIP3   OH219745   5.535   0.153   4.556
 6601TIP3    H119746   5.439   0.151   4.550
 6601TIP3    H219747   5.555   0.094   4.629
 6602TIP3   OH219748   0.511   5.732   0.529
 6602TIP3    H119749   0.522   5.777   0.612
 6602TIP3    H219750   0.502   5.802   0.465
 6603TIP3   OH219751   5.217   5.081   4.460
 6603TIP3    H119752   5.306   5.076   4.427
 6603TIP3    H219753   5.215   5.162   4.512
 6604TIP3   OH219754   1.290   5.834   6.647
 6604TIP3    H119755   1.345   5.757   6.634
 6604TIP3    H219756   1.213   5.818   6.592
 6605TIP3   OH219757   4.079   4.155   4.220
 6605TIP3    H119758   4.026   4.097   4.275
 6605TIP3    H219759   4.164   4.112   4.214
 6606TIP3   OH219760   2.835   3.063   2.816
 6606TIP3    H119761   2.817   3.003   2.743
 6606TIP3    H219762   2.834   3.150   2.776
 6607TIP3   OH219763   4.519   0.901   3.163
 6607TIP3    H119764   4.613   0.901   3.146
 6607TIP3    H219765   4.483   0.835   3.103
 6608TIP3   OH219766   5.056   3.067   3.126
 6608TIP3    H119767   4.979   3.022   3.162
 6608TIP3    H219768   5.033   3.160   3.129
 6609TIP3   OH219769   5.050   0.221   1.755
 6609TIP3    H119770   4.983   0.288   1.770
 6609TIP3    H219771   5.027   0.183   1.671
 6610TIP3   OH219772   3.756   1.385   1.360
 6610TIP3    H119773   3.688   1.448   1.335
 6610TIP3    H219774   3.836   1.420   1.320
 6611TIP3   OH219775   1.328   5.655   6.026
 6611TIP3    H119776   1.309   5.587   5.962
 6611TIP3    H219777   1.386   5.716   5.980
 6612TIP3   OH219778   3.009   6.003   0.165
 6612TIP3    H119779   3.104   6.013   0.155
 6612TIP3    H219780   2.999   5.916   0.203
 6613TIP3   OH219781   5.020   0.516   0.333
 6613TIP3    H119782   5.000   0.429   0.298
 6613TIP3    H219783   5.102   0.504   0.380
 6614TIP3   OH219784   2.902   7.389   2.577
 6614TIP3    H119785   2.852   7.311   2.602
 6614TIP3    H219786   2.983   7.355   2.539
 6615TIP3   OH219787   1.903   2.567   2.675
 6615TIP3    H119788   1.837   2.574   2.743
 6615TIP3    H219789   1.937   2.478   2.682
 6616TIP3   OH219790   7.518   0.353   4.052
 6616TIP3    H119791   7.532   0.396   3.968
 6616TIP3    H219792   7.568   0.405   4.115
 6617TIP3   OH219793   6.190   4.943   5.694
 6617TIP3    H119794   6.139   4.867   5.724
 6617TIP3    H219795   6.167   5.013   5.755
 6618TIP3   OH219796   7.094   6.676   0.648
 6618TIP3    H119797   7.049   6.690   0.731
 6618TIP3    H219798   7.059   6.594   0.614
 6619TIP3   OH219799   0.148   1.851   3.732
 6619TIP3    H119800   0.200   1.914   3.782
 6619TIP3    H219801   0.212   1.799   3.684
 6620TIP3   OH219802   7.442   4.321   6.197
 6620TIP3    H119803   7.409   4.411   6.200
 6620TIP3    H219804   7.534   4.330   6.171
 6621TIP3   OH219805   7.996   6.267   1.222
 6621TIP3    H119806   8.070   6.207   1.223
 6621TIP3    H219807   7.963   6.263   1.132
 6622TIP3   OH219808   3.153   3.233   2.449
 6622TIP3    H119809   3.224   3.170   2.435
 6622TIP3    H219810   3.074   3.184   2.427
 6623TIP3   OH219811   3.909   0.897   0.831
 6623TIP3    H119812   3.819   0.883   0.858
 6623TIP3    H219813   3.949   0.810   0.835
 6624TIP3   OH219814   6.566   5.484   1.008
 6624TIP3    H119815   6.479   5.450   0.987
 6624TIP3    H219816   6.588   5.542   0.936
 6625TIP3   OH219817   8.001   4.837   3.644
 6625TIP3    H119818   7.923   4.842   3.590
 6625TIP3    H219819   8.074   4.845   3.583
 6626TIP3   OH219820   7.338   6.427   6.112
 6626TIP3    H119821   7.287   6.347   6.118
 6626TIP3    H219822   7.366   6.445   6.202
 6627TIP3   OH219823   7.403   2.888   3.981
 6627TIP3    H119824   7.375   2.827   4.050
 6627TIP3    H219825   7.324   2.937   3.959
 6628TIP3   OH219826   6.846   2.225   4.024
 6628TIP3    H119827   6.924   2.173   4.043
 6628TIP3    H219828   6.792   2.168   3.969
 6629TIP3   OH219829   7.682   1.364   2.931
 6629TIP3    H119830   7.742   1.316   2.873
 6629TIP3    H219831   7.623   1.297   2.966
 6630TIP3   OH219832   5.832   1.654   1.862
 6630TIP3    H119833   5.833   1.717   1.789
 6630TIP3    H219834   5.790   1.577   1.825
 6631TIP3   OH219835   1.382   7.768   1.416
 6631TIP3    H119836   1.332   7.806   1.344
 6631TIP3    H219837   1.413   7.843   1.466
 6632TIP3   OH219838   7.714   6.527   2.219
 6632TIP3    H119839   7.636   6.551   2.168
 6632TIP3    H219840   7.749   6.450   2.175
 6633TIP3   OH219841   0.877   6.932   5.133
 6633TIP3    H119842   0.920   6.947   5.049
 6633TIP3    H219843   0.936   6.971   5.197
 6634TIP3   OH219844   2.030   0.063   6.511
 6634TIP3    H119845   2.092   0.028   6.447
 6634TIP3    H219846   2.036   0.004   6.586
 6635TIP3   OH219847   7.119   0.245   2.988
 6635TIP3    H119848   7.138   0.326   3.035
 6635TIP3    H219849   7.177   0.180   3.029
 6636TIP3   OH219850   3.202   7.019   2.578
 6636TIP3    H119851   3.138   7.037   2.647
 6636TIP3    H219852   3.152   7.023   2.497
 6637TIP3   OH219853   2.810   4.227   6.292
 6637TIP3    H119854   2.862   4.147   6.281
 6637TIP3    H219855   2.874   4.296   6.305
 6638TIP3   OH219856   5.428   0.267   3.250
 6638TIP3    H119857   5.451   0.341   3.193
 6638TIP3    H219858   5.510   0.217   3.257
 6639TIP3   OH219859   7.275   7.442   1.379
 6639TIP3    H119860   7.338   7.370   1.375
 6639TIP3    H219861   7.329   7.521   1.375
 6640TIP3   OH219862   2.610   2.680   1.061
 6640TIP3    H119863   2.576   2.646   0.978
 6640TIP3    H219864   2.532   2.690   1.116
 6641TIP3   OH219865   4.363   6.100   1.442
 6641TIP3    H119866   4.400   6.053   1.368
 6641TIP3    H219867   4.426   6.170   1.459
 6642TIP3   OH219868   7.969   6.392   3.699
 6642TIP3    H119869   7.893   6.344   3.665
 6642TIP3    H219870   7.965   6.477   3.654
 6643TIP3   OH219871   2.327   2.570   5.357
 6643TIP3    H119872   2.303   2.622   5.281
 6643TIP3    H219873   2.407   2.524   5.331
 6644TIP3   OH219874   1.197   0.953   0.332
 6644TIP3    H119875   1.204   1.031   0.277
 6644TIP3    H219876   1.216   0.985   0.420
 6645TIP3   OH219877   0.549   1.308   1.427
 6645TIP3    H119878   0.465   1.282   1.390
 6645TIP3    H219879   0.533   1.314   1.521
 6646TIP3   OH219880   3.083   1.793   4.654
 6646TIP3    H119881   3.162   1.757   4.695
 6646TIP3    H219882   3.109   1.813   4.565
 6647TIP3   OH219883   1.700   4.426   1.170
 6647TIP3    H119884   1.763   4.484   1.126
 6647TIP3    H219885   1.752   4.384   1.238
 6648TIP3   OH219886   0.414   1.427   2.976
 6648TIP3    H119887   0.429   1.334   2.992
 6648TIP3    H219888   0.337   1.429   2.918
 6649TIP3   OH219889   3.105   4.757   2.856
 6649TIP3    H119890   3.062   4.788   2.776
 6649TIP3    H219891   3.193   4.796   2.853
 6650TIP3   OH219892   1.862   4.784   4.084
 6650TIP3    H119893   1.838   4.860   4.136
 6650TIP3    H219894   1.778   4.746   4.057
 6651TIP3   OH219895   5.809   3.349   4.476
 6651TIP3    H119896   5.791   3.417   4.541
 6651TIP3    H219897   5.830   3.271   4.528
 6652TIP3   OH219898   1.180   2.082   3.368
 6652TIP3    H119899   1.124   2.155   3.394
 6652TIP3    H219900   1.120   2.010   3.350
 6653TIP3   OH219901   1.061   4.081   1.095
 6653TIP3    H119902   1.116   4.122   1.162
 6653TIP3    H219903   1.012   4.013   1.141
 6654TIP3   OH219904   4.924   3.647   3.613
 6654TIP3    H119905   4.918   3.729   3.663
 6654TIP3    H219906   4.856   3.655   3.546
 6655TIP3   OH219907   6.883   6.584   3.172
 6655TIP3    H119908   6.829   6.521   3.220
 6655TIP3    H219909   6.972   6.553   3.183
 6656TIP3   OH219910   8.081   7.169   0.792
 6656TIP3    H119911   8.062   7.162   0.885
 6656TIP3    H219912   8.032   7.246   0.763
 6657TIP3   OH219913   5.212   6.169   3.606
 6657TIP3    H119914   5.235   6.255   3.571
 6657TIP3    H219915   5.127   6.149   3.565
 6658TIP3   OH219916   2.909   3.359   1.962
 6658TIP3    H119917   2.974   3.397   2.021
 6658TIP3    H219918   2.907   3.419   1.887
 6659TIP3   OH219919   1.919   7.301   5.029
 6659TIP3    H119920   2.015   7.299   5.037
 6659TIP3    H219921   1.903   7.344   4.946
 6660TIP3   OH219922   7.548   1.242   0.800
 6660TIP3    H119923   7.532   1.180   0.729
 6660TIP3    H219924   7.476   1.305   0.794
 6661TIP3   OH219925   5.687   1.238   4.266
 6661TIP3    H119926   5.743   1.194   4.330
 6661TIP3    H219927   5.630   1.169   4.233
 6662TIP3   OH219928   6.441   4.784   5.321
 6662TIP3    H119929   6.515   4.741   5.365
 6662TIP3    H219930   6.481   4.834   5.249
 6663TIP3   OH219931   6.266   6.572   2.941
 6663TIP3    H119932   6.361   6.565   2.935
 6663TIP3    H219933   6.251   6.657   2.982
 6664TIP3   OH219934   1.684   7.630   5.226
 6664TIP3    H119935   1.746   7.623   5.153
 6664TIP3    H219936   1.704   7.714   5.267
 6665TIP3   OH219937   3.163   1.919   0.223
 6665TIP3    H119938   3.073   1.900   0.251
 6665TIP3    H219939   3.212   1.840   0.246
 6666TIP3   OH219940   3.709   1.830   6.307
 6666TIP3    H119941   3.695   1.747   6.353
 6666TIP3    H219942   3.802   1.830   6.286
 6667TIP3   OH219943   4.177   1.425   4.727
 6667TIP3    H119944   4.101   1.471   4.693
 6667TIP3    H219945   4.146   1.336   4.745
 6668TIP3   OH219946   4.986   3.533   6.485
 6668TIP3    H119947   4.980   3.499   6.396
 6668TIP3    H219948   5.029   3.618   6.477
 6669TIP3   OH219949   1.589   7.449   2.247
 6669TIP3    H119950   1.504   7.433   2.288
 6669TIP3    H219951   1.648   7.467   2.320
 6670TIP3   OH219952   0.102   3.490   0.931
 6670TIP3    H119953   0.080   3.415   0.986
 6670TIP3    H219954   0.140   3.553   0.992
 6671TIP3   OH219955   1.396   7.761   0.480
 6671TIP3    H119956   1.325   7.704   0.450
 6671TIP3    H219957   1.441   7.711   0.548
 6672TIP3   OH219958   1.696   2.059   4.689
 6672TIP3    H119959   1.676   1.984   4.746
 6672TIP3    H219960   1.692   2.134   4.748
 6673TIP3   OH219961   4.265   4.866   6.353
 6673TIP3    H119962   4.331   4.797   6.355
 6673TIP3    H219963   4.268   4.899   6.263
 6674TIP3   OH219964   2.088   1.952   4.768
 6674TIP3    H119965   2.145   1.876   4.785
 6674TIP3    H219966   2.145   2.028   4.780
 6675TIP3   OH219967   7.279   6.483   3.464
 6675TIP3    H119968   7.257   6.394   3.491
 6675TIP3    H219969   7.361   6.502   3.509
 6676TIP3   OH219970   5.770   1.473   0.726
 6676TIP3    H119971   5.829   1.512   0.790
 6676TIP3    H219972   5.683   1.479   0.766
 6677TIP3   OH219973   4.876   5.384   5.994
 6677TIP3    H119974   4.900   5.320   5.927
 6677TIP3    H219975   4.874   5.468   5.948
 6678TIP3   OH219976   7.698   1.174   1.805
 6678TIP3    H119977   7.693   1.167   1.709
 6678TIP3    H219978   7.608   1.192   1.832
 6679TIP3   OH219979   5.693   5.371   6.663
 6679TIP3    H119980   5.770   5.345   6.613
 6679TIP3    H219981   5.643   5.427   6.603
 6680TIP3   OH219982   7.545   3.110   1.817
 6680TIP3    H119983   7.570   3.110   1.724
 6680TIP3    H219984   7.624   3.141   1.862
 6681TIP3   OH219985   4.221   6.319   1.390
 6681TIP3    H119986   4.263   6.238   1.417
 6681TIP3    H219987   4.127   6.300   1.393
 6682TIP3   OH219988   6.907   4.174   6.498
 6682TIP3    H119989   6.920   4.171   6.593
 6682TIP3    H219990   6.957   4.100   6.464
 6683TIP3   OH219991   7.175   0.060   3.527
 6683TIP3    H119992   7.260   0.017   3.529
 6683TIP3    H219993   7.112  -0.013   3.527
 6684TIP3   OH219994   0.369   0.500   3.519
 6684TIP3    H119995   0.290   0.447   3.530
 6684TIP3    H219996   0.342   0.590   3.537
 6685TIP3   OH219997   2.803   3.667   1.388
 6685TIP3    H119998   2.755   3.743   1.421
 6685TIP3    H219999   2.893   3.698   1.377
 6686TIP3   OH220000   0.615   1.150   4.763
 6686TIP3    H120001   0.666   1.126   4.840
 6686TIP3    H220002   0.675   1.201   4.709
 6687TIP3   OH220003   1.337   1.057   3.880
 6687TIP3    H120004   1.372   1.018   3.800
 6687TIP3    H220005   1.398   1.129   3.900
 6688TIP3   OH220006   3.707   3.583   1.124
 6688TIP3    H120007   3.779   3.537   1.082
 6688TIP3    H220008   3.750   3.646   1.182
 6689TIP3   OH220009   6.477   3.042   1.433
 6689TIP3    H120010   6.528   2.983   1.488
 6689TIP3    H220011   6.488   3.006   1.344
 6690TIP3   OH220012   3.199   0.707   0.769
 6690TIP3    H120013   3.214   0.656   0.848
 6690TIP3    H220014   3.122   0.761   0.789
 6691TIP3   OH220015   2.128   5.213   5.544
 6691TIP3    H120016   2.033   5.220   5.534
 6691TIP3    H220017   2.146   5.246   5.632
 6692TIP3   OH220018   5.418   4.272   3.763
 6692TIP3    H120019   5.478   4.201   3.741
 6692TIP3    H220020   5.456   4.349   3.721
 6693TIP3   OH220021   1.205   3.806   6.295
 6693TIP3    H120022   1.183   3.713   6.298
 6693TIP3    H220023   1.135   3.848   6.345
 6694TIP3   OH220024   5.122   7.228   2.368
 6694TIP3    H120025   5.079   7.191   2.445
 6694TIP3    H220026   5.101   7.167   2.297
 6695TIP3   OH220027   6.674   0.978   0.086
 6695TIP3    H120028   6.593   0.946   0.046
 6695TIP3    H220029   6.676   0.938   0.172
 6696TIP3   OH220030   5.452   0.683   5.802
 6696TIP3    H120031   5.473   0.613   5.740
 6696TIP3    H220032   5.379   0.730   5.762
 6697TIP3   OH220033   1.769   0.775   5.212
 6697TIP3    H120034   1.677   0.793   5.232
 6697TIP3    H220035   1.774   0.680   5.206
 6698TIP3   OH220036   7.632   7.679   6.342
 6698TIP3    H120037   7.594   7.687   6.254
 6698TIP3    H220038   7.623   7.586   6.363
 6699TIP3   OH220039   7.870   4.986   3.100
 6699TIP3    H120040   7.951   4.968   3.053
 6699TIP3    H220041   7.805   5.006   3.032
 6700TIP3   OH220042   2.788   0.033   1.184
 6700TIP3    H120043   2.723   0.086   1.138
 6700TIP3    H220044   2.798  -0.045   1.131
 6701TIP3   OH220045   7.487   4.489   0.350
 6701TIP3    H120046   7.562   4.451   0.306
 6701TIP3    H220047   7.517   4.504   0.440
 6702TIP3   OH220048   7.398   5.427   6.313
 6702TIP3    H120049   7.325   5.477   6.349
 6702TIP3    H220050   7.476   5.465   6.353
 6703TIP3   OH220051   0.958   5.758   4.066
 6703TIP3    H120052   0.863   5.750   4.061
 6703TIP3    H220053   0.991   5.675   4.031
 6704TIP3   OH220054   0.267   3.285   5.649
 6704TIP3    H120055   0.215   3.338   5.588
 6704TIP3    H220056   0.356   3.320   5.640
 6705TIP3   OH220057   7.541   1.395   2.207
 6705TIP3    H120058   7.626   1.360   2.233
 6705TIP3    H220059   7.545   1.399   2.111
 6706TIP3   OH220060   5.114   2.571   6.141
 6706TIP3    H120061   5.042   2.598   6.198
 6706TIP3    H220062   5.113   2.635   6.070
 6707TIP3   OH220063   5.808   4.150   2.628
 6707TIP3    H120064   5.745   4.217   2.654
 6707TIP3    H220065   5.880   4.159   2.691
 6708TIP3   OH220066   3.045   1.851   3.283
 6708TIP3    H120067   3.051   1.768   3.331
 6708TIP3    H220068   3.088   1.914   3.340
 6709TIP3   OH220069   1.909   0.925   1.848
 6709TIP3    H120070   1.915   0.986   1.775
 6709TIP3    H220071   1.838   0.959   1.903
 6710TIP3   OH220072   2.431   5.013   1.446
 6710TIP3    H120073   2.502   5.059   1.400
 6710TIP3    H220074   2.439   5.043   1.537
 6711TIP3   OH220075   7.254   3.738   1.755
 6711TIP3    H120076   7.347   3.717   1.766
 6711TIP3    H220077   7.249   3.783   1.671
 6712TIP3   OH220078   0.759   1.305   5.710
 6712TIP3    H120079   0.700   1.232   5.690
 6712TIP3    H220080   0.812   1.316   5.631
 6713TIP3   OH220081   8.211   5.848   0.497
 6713TIP3    H120082   8.301   5.829   0.473
 6713TIP3    H220083   8.159   5.796   0.435
 6714TIP3   OH220084   3.587   7.211   5.946
 6714TIP3    H120085   3.530   7.288   5.943
 6714TIP3    H220086   3.534   7.141   5.909
 6715TIP3   OH220087   0.131   4.652   3.133
 6715TIP3    H120088   0.177   4.720   3.085
 6715TIP3    H220089   0.038   4.669   3.116
 6716TIP3   OH220090   2.139   6.687   2.179
 6716TIP3    H120091   2.063   6.630   2.192
 6716TIP3    H220092   2.105   6.762   2.131
 6717TIP3   OH220093   7.529   7.225   6.146
 6717TIP3    H120094   7.474   7.148   6.131
 6717TIP3    H220095   7.564   7.245   6.060
 6718TIP3   OH220096   6.727   4.541   4.977
 6718TIP3    H120097   6.662   4.484   4.935
 6718TIP3    H220098   6.734   4.617   4.919
 6719TIP3   OH220099   8.344   4.213   2.825
 6719TIP3    H120100   8.403   4.221   2.899
 6719TIP3    H220101   8.281   4.285   2.837
 6720TIP3   OH220102   4.755   1.265   1.539
 6720TIP3    H120103   4.784   1.334   1.479
 6720TIP3    H220104   4.771   1.183   1.491
 6721TIP3   OH220105   0.441   0.155   6.354
 6721TIP3    H120106   0.351   0.185   6.371
 6721TIP3    H220107   0.459   0.184   6.264
 6722TIP3   OH220108   3.475   4.070   2.899
 6722TIP3    H120109   3.476   3.980   2.933
 6722TIP3    H220110   3.567   4.093   2.889
 6723TIP3   OH220111   3.704   1.504   1.904
 6723TIP3    H120112   3.771   1.442   1.877
 6723TIP3    H220113   3.632   1.490   1.843
 6724TIP3   OH220114   4.191   0.268   0.050
 6724TIP3    H120115   4.278   0.286   0.085
 6724TIP3    H220116   4.134   0.333   0.091
 6725TIP3   OH220117   1.984   7.168   3.730
 6725TIP3    H120118   1.936   7.097   3.688
 6725TIP3    H220119   2.051   7.124   3.782
 6726TIP3   OH220120   2.433   5.001   6.307
 6726TIP3    H120121   2.514   5.049   6.325
 6726TIP3    H220122   2.457   4.909   6.317
 6727TIP3   OH220123   7.227   3.877   6.154
 6727TIP3    H120124   7.307   3.835   6.184
 6727TIP3    H220125   7.223   3.859   6.060
 6728TIP3   OH220126   1.745   0.515   3.338
 6728TIP3    H120127   1.667   0.531   3.392
 6728TIP3    H220128   1.772   0.426   3.360
 6729TIP3   OH220129   7.399   2.908   5.926
 6729TIP3    H120130   7.473   2.966   5.906
 6729TIP3    H220131   7.422   2.825   5.885
 6730TIP3   OH220132   0.104   0.963   1.006
 6730TIP3    H120133   0.122   0.895   0.942
 6730TIP3    H220134   0.014   0.990   0.989
 6731TIP3   OH220135   7.699   1.661   2.255
 6731TIP3    H120136   7.794   1.670   2.246
 6731TIP3    H220137   7.674   1.603   2.184
 6732TIP3   OH220138   0.731   0.695   3.392
 6732TIP3    H120139   0.778   0.664   3.469
 6732TIP3    H220140   0.643   0.658   3.401
 6733TIP3   OH220141   7.492   6.468   3.184
 6733TIP3    H120142   7.424   6.420   3.231
 6733TIP3    H220143   7.531   6.527   3.249
 6734TIP3   OH220144   1.309   1.781   2.595
 6734TIP3    H120145   1.218   1.792   2.567
 6734TIP3    H220146   1.358   1.843   2.542
 6735TIP3   OH220147   0.202   0.027   6.695
 6735TIP3    H120148   0.122   0.078   6.709
 6735TIP3    H220149   0.179  -0.032   6.623
 6736TIP3   OH220150   0.679   0.992  -0.012
 6736TIP3    H120151   0.672   0.901  -0.041
 6736TIP3    H220152   0.677   0.987   0.084
 6737TIP3   OH220153   4.496   7.382  -0.058
 6737TIP3    H120154   4.417   7.420  -0.021
 6737TIP3    H220155   4.533   7.329   0.012
 6738TIP3   OH220156   2.812   6.279   2.522
 6738TIP3    H120157   2.881   6.218   2.496
 6738TIP3    H220158   2.842   6.364   2.489
 6739TIP3   OH220159   5.019   5.857   2.830
 6739TIP3    H120160   5.069   5.777   2.811
 6739TIP3    H220161   4.950   5.827   2.890
 6740TIP3   OH220162   1.701   4.232   0.889
 6740TIP3    H120163   1.721   4.198   0.802
 6740TIP3    H220164   1.785   4.234   0.935
 6741TIP3   OH220165   5.997   5.486   3.988
 6741TIP3    H120166   6.092   5.473   3.981
 6741TIP3    H220167   5.965   5.471   3.899
 6742TIP3   OH220168   3.610   6.261   0.697
 6742TIP3    H120169   3.570   6.294   0.616
 6742TIP3    H220170   3.593   6.329   0.762
 6743TIP3   OH220171  -0.012   7.246   3.836
 6743TIP3    H120172   0.073   7.285   3.857
 6743TIP3    H220173  -0.006   7.227   3.742
 6744TIP3   OH220174   6.557   2.906   3.657
 6744TIP3    H120175   6.566   2.871   3.569
 6744TIP3    H220176   6.623   2.859   3.709
 6745TIP3   OH220177   2.521   4.747   5.504
 6745TIP3    H120178   2.497   4.833   5.469
 6745TIP3    H220179   2.567   4.767   5.586
 6746TIP3   OH220180   6.562   1.381   2.847
 6746TIP3    H120181   6.610   1.323   2.787
 6746TIP3    H220182   6.524   1.448   2.789
 6747TIP3   OH220183   7.969   2.939   3.378
 6747TIP3    H120184   7.906   2.967   3.444
 6747TIP3    H220185   7.916   2.917   3.301
 6748TIP3   OH220186   1.546   7.077   3.977
 6748TIP3    H120187   1.608   7.081   4.050
 6748TIP3    H220188   1.480   7.143   3.998
 6749TIP3   OH220189   6.201   1.870   1.627
 6749TIP3    H120190   6.236   1.790   1.666
 6749TIP3    H220191   6.267   1.896   1.563
 6750TIP3   OH220192   4.721   0.361   2.752
 6750TIP3    H120193   4.658   0.347   2.682
 6750TIP3    H220194   4.799   0.394   2.708
 6751TIP3   OH220195   1.840   5.012   1.687
 6751TIP3    H120196   1.909   5.057   1.637
 6751TIP3    H220197   1.863   5.027   1.778
 6752TIP3   OH220198   3.434   1.075   5.087
 6752TIP3    H120199   3.374   1.002   5.104
 6752TIP3    H220200   3.517   1.047   5.127
 6753TIP3   OH220201   0.821   6.750   0.293
 6753TIP3    H120202   0.732   6.727   0.318
 6753TIP3    H220203   0.873   6.671   0.307
 6754TIP3   OH220204   5.057   5.301   5.038
 6754TIP3    H120205   5.065   5.358   4.962
 6754TIP3    H220206   5.013   5.223   5.004
 6755TIP3   OH220207   4.820   4.086   2.990
 6755TIP3    H120208   4.896   4.141   2.972
 6755TIP3    H220209   4.754   4.115   2.927
 6756TIP3   OH220210   1.073   4.743   4.578
 6756TIP3    H120211   1.089   4.649   4.586
 6756TIP3    H220212   1.141   4.775   4.519
 6757TIP3   OH220213   7.668   1.797   4.650
 6757TIP3    H120214   7.619   1.773   4.571
 6757TIP3    H220215   7.687   1.890   4.638
 6758TIP3   OH220216   0.250   2.822   0.105
 6758TIP3    H120217   0.212   2.837   0.018
 6758TIP3    H220218   0.175   2.801   0.160
 6759TIP3   OH220219   0.399   5.323   2.498
 6759TIP3    H120220   0.368   5.404   2.539
 6759TIP3    H220221   0.492   5.339   2.481
 6760TIP3   OH220222   0.870   4.972   1.291
 6760TIP3    H120223   0.790   5.010   1.327
 6760TIP3    H220224   0.861   4.878   1.306
 6761TIP3   OH220225   1.798   6.991   0.586
 6761TIP3    H120226   1.809   7.082   0.558
 6761TIP3    H220227   1.851   6.984   0.665
 6762TIP3   OH220228   1.862   5.191   4.625
 6762TIP3    H120229   1.836   5.255   4.559
 6762TIP3    H220230   1.896   5.243   4.698
 6763TIP3   OH220231   4.739   7.712   0.645
 6763TIP3    H120232   4.681   7.636   0.641
 6763TIP3    H220233   4.699   7.769   0.710
 6764TIP3   OH220234   7.667   4.494   5.486
 6764TIP3    H120235   7.629   4.416   5.526
 6764TIP3    H220236   7.688   4.552   5.560
 6765TIP3   OH220237   1.073   3.709   2.688
 6765TIP3    H120238   0.979   3.694   2.675
 6765TIP3    H220239   1.086   3.695   2.782
 6766TIP3   OH220240   2.846   0.202   2.643
 6766TIP3    H120241   2.907   0.257   2.595
 6766TIP3    H220242   2.782   0.174   2.577
 6767TIP3   OH220243   6.583   7.705   5.225
 6767TIP3    H120244   6.614   7.792   5.248
 6767TIP3    H220245   6.550   7.669   5.307
 6768TIP3   OH220246   3.312   3.424   1.375
 6768TIP3    H120247   3.314   3.513   1.409
 6768TIP3    H220248   3.386   3.419   1.314
 6769TIP3   OH220249   3.669   1.739   6.556
 6769TIP3    H120250   3.754   1.701   6.578
 6769TIP3    H220251   3.689   1.824   6.519
 6770TIP3   OH220252   3.676   2.726   3.658
 6770TIP3    H120253   3.714   2.808   3.689
 6770TIP3    H220254   3.691   2.726   3.564
 6771TIP3   OH220255   5.503   5.697   2.730
 6771TIP3    H120256   5.456   5.780   2.742
 6771TIP3    H220257   5.463   5.658   2.653
 6772TIP3   OH220258   3.920   4.909   2.072
 6772TIP3    H120259   3.983   4.843   2.042
 6772TIP3    H220260   3.865   4.863   2.135
 6773TIP3   OH220261   4.401   3.033   2.436
 6773TIP3    H120262   4.480   3.013   2.385
 6773TIP3    H220263   4.364   2.948   2.457
 6774TIP3   OH220264   6.515   0.076   1.237
 6774TIP3    H120265   6.533   0.105   1.327
 6774TIP3    H220266   6.422   0.055   1.237
 6775TIP3   OH220267   4.711   0.264   3.032
 6775TIP3    H120268   4.734   0.272   2.939
 6775TIP3    H220269   4.758   0.336   3.074
 6776TIP3   OH220270   7.396   0.973   3.554
 6776TIP3    H120271   7.363   0.944   3.639
 6776TIP3    H220272   7.339   1.047   3.531
 6777TIP3   OH220273   0.434   5.515   4.094
 6777TIP3    H120274   0.427   5.547   4.004
 6777TIP3    H220275   0.527   5.494   4.103
 6778TIP3   OH220276   6.820   2.000   2.655
 6778TIP3    H120277   6.796   1.972   2.743
 6778TIP3    H220278   6.772   2.082   2.642
 6779TIP3   OH220279   4.386   7.104   5.048
 6779TIP3    H120280   4.432   7.177   5.090
 6779TIP3    H220281   4.321   7.077   5.112
 6780TIP3   OH220282   3.570   5.743   5.566
 6780TIP3    H120283   3.644   5.710   5.515
 6780TIP3    H220284   3.493   5.705   5.523
 6781TIP3   OH220285   1.665   0.111   4.052
 6781TIP3    H120286   1.681   0.062   4.133
 6781TIP3    H220287   1.622   0.191   4.081
 6782TIP3   OH220288   0.998   7.680   1.030
 6782TIP3    H120289   1.044   7.636   0.959
 6782TIP3    H220290   0.910   7.644   1.027
 6783TIP3   OH220291   6.624   5.329   2.153
 6783TIP3    H120292   6.618   5.234   2.140
 6783TIP3    H220293   6.542   5.352   2.197
 6784TIP3   OH220294   6.413   5.677   5.087
 6784TIP3    H120295   6.346   5.730   5.130
 6784TIP3    H220296   6.404   5.697   4.994
 6785TIP3   OH220297   3.115   4.582   0.673
 6785TIP3    H120298   3.056   4.637   0.724
 6785TIP3    H220299   3.067   4.500   0.661
 6786TIP3   OH220300   1.726   6.317   4.635
 6786TIP3    H120301   1.708   6.360   4.718
 6786TIP3    H220302   1.729   6.388   4.571
 6787TIP3   OH220303   3.126   6.818   3.944
 6787TIP3    H120304   3.045   6.799   3.990
 6787TIP3    H220305   3.159   6.898   3.986
 6788TIP3   OH220306   8.145   7.092   5.050
 6788TIP3    H120307   8.240   7.084   5.052
 6788TIP3    H220308   8.129   7.179   5.012
 6789TIP3   OH220309   5.897   0.610   1.767
 6789TIP3    H120310   5.968   0.657   1.724
 6789TIP3    H220311   5.847   0.679   1.811
 6790TIP3   OH220312   1.631   3.265   1.089
 6790TIP3    H120313   1.551   3.261   1.036
 6790TIP3    H220314   1.624   3.347   1.138
 6791TIP3   OH220315   7.268   2.408   2.267
 6791TIP3    H120316   7.226   2.419   2.352
 6791TIP3    H220317   7.196   2.399   2.205
 6792TIP3   OH220318   5.857   3.472   5.986
 6792TIP3    H120319   5.910   3.405   5.945
 6792TIP3    H220320   5.786   3.488   5.925
 6793TIP3   OH220321   7.728   5.845   4.415
 6793TIP3    H120322   7.660   5.906   4.385
 6793TIP3    H220323   7.757   5.880   4.499
 6794TIP3   OH220324   8.012   1.759   1.063
 6794TIP3    H120325   8.094   1.748   1.111
 6794TIP3    H220326   7.991   1.672   1.029
 6795TIP3   OH220327   6.748   2.311   4.262
 6795TIP3    H120328   6.665   2.271   4.234
 6795TIP3    H220329   6.805   2.300   4.186
 6796TIP3   OH220330   7.652   3.540   1.194
 6796TIP3    H120331   7.631   3.633   1.197
 6796TIP3    H220332   7.686   3.521   1.282
 6797TIP3   OH220333   0.390   2.424   5.157
 6797TIP3    H120334   0.460   2.398   5.217
 6797TIP3    H220335   0.334   2.482   5.209
 6798TIP3   OH220336   6.597   4.812   6.213
 6798TIP3    H120337   6.607   4.726   6.253
 6798TIP3    H220338   6.517   4.805   6.161
 6799TIP3   OH220339   0.743   7.234   0.621
 6799TIP3    H120340   0.758   7.293   0.547
 6799TIP3    H220341   0.673   7.176   0.592
 6800TIP3   OH220342   2.554   1.015   5.377
 6800TIP3    H120343   2.642   1.047   5.397
 6800TIP3    H220344   2.530   1.060   5.296
 6801TIP3   OH220345   8.257   5.439   6.634
 6801TIP3    H120346   8.346   5.429   6.603
 6801TIP3    H220347   8.227   5.522   6.596
 6802TIP3   OH220348   7.556   6.656   6.267
 6802TIP3    H120349   7.545   6.609   6.184
 6802TIP3    H220350   7.607   6.597   6.322
 6803TIP3   OH220351   2.496   3.513   6.824
 6803TIP3    H120352   2.486   3.517   6.920
 6803TIP3    H220353   2.455   3.430   6.800
 6804TIP3   OH220354   1.704   4.668   3.008
 6804TIP3    H120355   1.729   4.666   2.916
 6804TIP3    H220356   1.753   4.742   3.045
 6805TIP3   OH220357   4.102   7.759   2.603
 6805TIP3    H120358   4.102   7.847   2.641
 6805TIP3    H220359   4.194   7.736   2.597
 6806TIP3   OH220360   3.965   6.454   3.186
 6806TIP3    H120361   3.933   6.365   3.173
 6806TIP3    H220362   4.022   6.449   3.262
 6807TIP3   OH220363   8.097   0.378   0.170
 6807TIP3    H120364   8.124   0.397   0.260
 6807TIP3    H220365   8.142   0.297   0.148
 6808TIP3   OH220366   4.248   5.373   4.524
 6808TIP3    H120367   4.311   5.357   4.455
 6808TIP3    H220368   4.265   5.464   4.551
 6809TIP3   OH220369   7.455   1.489   4.380
 6809TIP3    H120370   7.543   1.474   4.345
 6809TIP3    H220371   7.417   1.401   4.388
 6810TIP3   OH220372   4.673   7.061   3.388
 6810TIP3    H120373   4.741   7.124   3.407
 6810TIP3    H220374   4.681   6.994   3.456
 6811TIP3   OH220375   1.861   0.693   4.236
 6811TIP3    H120376   1.905   0.763   4.283
 6811TIP3    H220377   1.833   0.632   4.304
 6812TIP3   OH220378   6.725   2.018   3.868
 6812TIP3    H120379   6.632   2.025   3.889
 6812TIP3    H220380   6.733   2.060   3.782
 6813TIP3   OH220381   5.398   1.931   0.461
 6813TIP3    H120382   5.421   1.950   0.370
 6813TIP3    H220383   5.463   1.980   0.512
 6814TIP3   OH220384   2.671   2.404   1.548
 6814TIP3    H120385   2.643   2.426   1.459
 6814TIP3    H220386   2.590   2.400   1.598
 6815TIP3   OH220387   1.820   4.895   0.510
 6815TIP3    H120388   1.895   4.908   0.569
 6815TIP3    H220389   1.834   4.808   0.473
 6816TIP3   OH220390   7.554   0.046   0.390
 6816TIP3    H120391   7.627  -0.007   0.357
 6816TIP3    H220392   7.540   0.015   0.479
 6817TIP3   OH220393   6.855   4.731   0.091
 6817TIP3    H120394   6.803   4.699   0.017
 6817TIP3    H220395   6.931   4.673   0.093
 6818TIP3   OH220396   2.344   1.014   1.355
 6818TIP3    H120397   2.425   1.065   1.363
 6818TIP3    H220398   2.373   0.929   1.321
 6819TIP3   OH220399   3.469   1.990   2.137
 6819TIP3    H120400   3.415   1.961   2.210
 6819TIP3    H220401   3.460   1.922   2.071
 6820TIP3   OH220402   4.011   0.111   5.792
 6820TIP3    H120403   4.069   0.166   5.739
 6820TIP3    H220404   3.927   0.157   5.791
 6821TIP3   OH220405   8.251   3.642   5.813
 6821TIP3    H120406   8.227   3.556   5.778
 6821TIP3    H220407   8.173   3.696   5.799
 6822TIP3   OH220408   3.436   5.997   4.477
 6822TIP3    H120409   3.376   5.925   4.493
 6822TIP3    H220410   3.401   6.070   4.528
 6823TIP3   OH220411   4.345   0.887   1.730
 6823TIP3    H120412   4.291   0.817   1.768
 6823TIP3    H220413   4.282   0.956   1.707
 6824TIP3   OH220414   7.638   1.148   5.905
 6824TIP3    H120415   7.696   1.104   5.842
 6824TIP3    H220416   7.605   1.224   5.859
 6825TIP3   OH220417   2.503   5.863   4.637
 6825TIP3    H120418   2.536   5.953   4.632
 6825TIP3    H220419   2.505   5.842   4.731
 6826TIP3   OH220420   5.352   7.691  -0.006
 6826TIP3    H120421   5.297   7.721  -0.077
 6826TIP3    H220422   5.318   7.605   0.017
 6827TIP3   OH220423   2.773   1.730   6.162
 6827TIP3    H120424   2.744   1.704   6.075
 6827TIP3    H220425   2.866   1.707   6.165
 6828TIP3   OH220426   7.099   1.915   3.756
 6828TIP3    H120427   7.037   1.844   3.775
 6828TIP3    H220428   7.184   1.879   3.779
 6829TIP3   OH220429   6.397   5.246   6.028
 6829TIP3    H120430   6.327   5.242   5.962
 6829TIP3    H220431   6.474   5.211   5.984
 6830TIP3   OH220432   0.608   4.616   2.821
 6830TIP3    H120433   0.523   4.598   2.780
 6830TIP3    H220434   0.596   4.702   2.861
 6831TIP3   OH220435   0.596   3.658   4.181
 6831TIP3    H120436   0.545   3.738   4.168
 6831TIP3    H220437   0.549   3.591   4.130
 6832TIP3   OH220438   2.554   5.289   6.143
 6832TIP3    H120439   2.593   5.294   6.056
 6832TIP3    H220440   2.625   5.258   6.199
 6833TIP3   OH220441   2.238   3.809   5.122
 6833TIP3    H120442   2.213   3.900   5.108
 6833TIP3    H220443   2.333   3.809   5.116
 6834TIP3   OH220444   1.069   1.249   5.559
 6834TIP3    H120445   1.005   1.302   5.511
 6834TIP3    H220446   1.065   1.283   5.648
 6835TIP3   OH220447   7.551   5.061   0.838
 6835TIP3    H120448   7.564   4.979   0.885
 6835TIP3    H220449   7.598   5.049   0.756
 6836TIP3   OH220450   7.425   2.382   0.548
 6836TIP3    H120451   7.516   2.380   0.520
 6836TIP3    H220452   7.375   2.383   0.467
 6837TIP3   OH220453   1.994   1.858   1.786
 6837TIP3    H120454   1.998   1.763   1.780
 6837TIP3    H220455   1.974   1.876   1.878
 6838TIP3   OH220456   4.216   5.702   3.898
 6838TIP3    H120457   4.141   5.757   3.874
 6838TIP3    H220458   4.293   5.754   3.874
 6839TIP3   OH220459   3.909   7.361   4.132
 6839TIP3    H120460   3.972   7.290   4.114
 6839TIP3    H220461   3.897   7.359   4.227
 6840TIP3   OH220462   5.260   1.939   0.862
 6840TIP3    H120463   5.241   1.858   0.909
 6840TIP3    H220464   5.268   2.006   0.930
 6841TIP3   OH220465   3.159   3.007   0.716
 6841TIP3    H120466   3.238   3.015   0.663
 6841TIP3    H220467   3.191   2.980   0.802
 6842TIP3   OH220468   6.358   2.409   1.840
 6842TIP3    H120469   6.286   2.347   1.848
 6842TIP3    H220470   6.340   2.477   1.906
 6843TIP3   OH220471   7.957   4.489   0.433
 6843TIP3    H120472   7.986   4.458   0.518
 6843TIP3    H220473   7.946   4.584   0.445
 6844TIP3   OH220474   3.798   5.153   2.008
 6844TIP3    H120475   3.837   5.065   2.001
 6844TIP3    H220476   3.870   5.208   2.038
 6845TIP3   OH220477   7.037   0.947   1.226
 6845TIP3    H120478   6.987   0.869   1.249
 6845TIP3    H220479   6.979   0.997   1.168
 6846TIP3   OH220480   4.742   6.388   2.916
 6846TIP3    H120481   4.795   6.415   2.841
 6846TIP3    H220482   4.804   6.384   2.989
 6847TIP3   OH220483   0.491   3.887   6.363
 6847TIP3    H120484   0.530   3.881   6.450
 6847TIP3    H220485   0.412   3.940   6.376
 6848TIP3   OH220486   8.283   7.663   4.375
 6848TIP3    H120487   8.259   7.723   4.445
 6848TIP3    H220488   8.318   7.586   4.419
 6849TIP3   OH220489   3.227   0.562   0.993
 6849TIP3    H120490   3.181   0.524   1.068
 6849TIP3    H220491   3.297   0.499   0.973
 6850TIP3   OH220492   3.234   3.361   5.351
 6850TIP3    H120493   3.233   3.294   5.283
 6850TIP3    H220494   3.187   3.435   5.312
 6851TIP3   OH220495   5.615   6.114   6.466
 6851TIP3    H120496   5.704   6.078   6.470
 6851TIP3    H220497   5.619   6.182   6.399
 6852TIP3   OH220498   2.636   1.926   1.558
 6852TIP3    H120499   2.613   1.989   1.490
 6852TIP3    H220500   2.554   1.904   1.600
 6853TIP3   OH220501   3.360   3.994   1.359
 6853TIP3    H120502   3.298   4.004   1.432
 6853TIP3    H220503   3.340   4.068   1.301
 6854TIP3   OH220504   0.317   5.074   2.458
 6854TIP3    H120505   0.270   5.062   2.541
 6854TIP3    H220506   0.358   5.160   2.466
 6855TIP3   OH220507   3.667   7.132   6.296
 6855TIP3    H120508   3.658   7.037   6.285
 6855TIP3    H220509   3.675   7.166   6.207
 6856TIP3   OH220510   3.056   5.918   3.133
 6856TIP3    H120511   3.083   5.964   3.212
 6856TIP3    H220512   2.989   5.856   3.162
 6857TIP3   OH220513   2.208   7.771   4.049
 6857TIP3    H120514   2.210   7.686   4.004
 6857TIP3    H220515   2.237   7.751   4.139
 6858TIP3   OH220516   2.636   6.888   1.625
 6858TIP3    H120517   2.632   6.878   1.720
 6858TIP3    H220518   2.646   6.982   1.611
 6859TIP3   OH220519   1.376   7.015   2.658
 6859TIP3    H120520   1.380   6.956   2.583
 6859TIP3    H220521   1.322   7.088   2.629
 6860TIP3   OH220522   6.311   5.637   0.673
 6860TIP3    H120523   6.388   5.613   0.725
 6860TIP3    H220524   6.340   5.632   0.582
 6861TIP3   OH220525   3.476   0.183   1.408
 6861TIP3    H120526   3.526   0.228   1.340
 6861TIP3    H220527   3.512   0.216   1.490
 6862TIP3   OH220528   1.895   3.644   0.814
 6862TIP3    H120529   1.961   3.646   0.744
 6862TIP3    H220530   1.874   3.552   0.825
 6863TIP3   OH220531   1.927   4.448   5.268
 6863TIP3    H120532   1.942   4.411   5.355
 6863TIP3    H220533   1.846   4.499   5.278
 6864TIP3   OH220534   5.368   4.133   6.207
 6864TIP3    H120535   5.407   4.048   6.187
 6864TIP3    H220536   5.353   4.174   6.122
 6865TIP3   OH220537   3.440   4.182   0.828
 6865TIP3    H120538   3.430   4.273   0.857
 6865TIP3    H220539   3.365   4.168   0.770
 6866TIP3   OH220540   6.065   5.296   5.207
 6866TIP3    H120541   6.038   5.260   5.123
 6866TIP3    H220542   6.159   5.314   5.196
 6867TIP3   OH220543   1.768   6.308   2.522
 6867TIP3    H120544   1.758   6.242   2.454
 6867TIP3    H220545   1.856   6.344   2.509
 6868TIP3   OH220546   8.155   3.921   1.969
 6868TIP3    H120547   8.091   3.851   1.977
 6868TIP3    H220548   8.103   3.999   1.947
 6869TIP3   OH220549   3.245   2.556   5.736
 6869TIP3    H120550   3.243   2.615   5.661
 6869TIP3    H220551   3.180   2.489   5.715
 6870TIP3   OH220552   6.765   6.048   4.541
 6870TIP3    H120553   6.791   5.988   4.611
 6870TIP3    H220554   6.840   6.051   4.482
 6871TIP3   OH220555   5.376   3.636   3.371
 6871TIP3    H120556   5.452   3.673   3.417
 6871TIP3    H220557   5.301   3.668   3.420
 6872TIP3   OH220558   0.529   6.674   4.877
 6872TIP3    H120559   0.524   6.763   4.842
 6872TIP3    H220560   0.558   6.685   4.967
 6873TIP3   OH220561   3.909   0.272   2.263
 6873TIP3    H120562   3.895   0.206   2.195
 6873TIP3    H220563   3.832   0.266   2.319
 6874TIP3   OH220564   0.442   2.703   2.195
 6874TIP3    H120565   0.525   2.737   2.163
 6874TIP3    H220566   0.464   2.661   2.279
 6875TIP3   OH220567   4.191   4.651   3.767
 6875TIP3    H120568   4.120   4.710   3.742
 6875TIP3    H220569   4.229   4.690   3.846
 6876TIP3   OH220570   5.841   1.428   3.831
 6876TIP3    H120571   5.868   1.460   3.917
 6876TIP3    H220572   5.776   1.492   3.801
 6877TIP3   OH220573   7.198   1.671   0.907
 6877TIP3    H120574   7.248   1.734   0.958
 6877TIP3    H220575   7.225   1.686   0.816
 6878TIP3   OH220576   3.476   6.980   0.222
 6878TIP3    H120577   3.435   7.022   0.147
 6878TIP3    H220578   3.520   6.903   0.185
 6879TIP3   OH220579   6.722   1.561   1.422
 6879TIP3    H120580   6.774   1.496   1.376
 6879TIP3    H220581   6.668   1.511   1.482
 6880TIP3   OH220582   3.780   3.473   5.468
 6880TIP3    H120583   3.690   3.441   5.468
 6880TIP3    H220584   3.810   3.463   5.558
 6881TIP3   OH220585   3.201   1.323   4.482
 6881TIP3    H120586   3.204   1.375   4.562
 6881TIP3    H220587   3.192   1.232   4.512
 6882TIP3   OH220588   4.761   2.918   2.930
 6882TIP3    H120589   4.751   3.012   2.917
 6882TIP3    H220590   4.745   2.880   2.844
 6883TIP3   OH220591   3.882   0.675   0.091
 6883TIP3    H120592   3.790   0.703   0.099
 6883TIP3    H220593   3.929   0.755   0.067
 6884TIP3   OH220594   6.471   6.672   4.586
 6884TIP3    H120595   6.463   6.631   4.499
 6884TIP3    H220596   6.506   6.759   4.568
 6885TIP3   OH220597   0.710   0.074   5.633
 6885TIP3    H120598   0.644   0.048   5.568
 6885TIP3    H220599   0.785   0.100   5.580
 6886TIP3   OH220600   5.356   0.617   3.442
 6886TIP3    H120601   5.416   0.576   3.504
 6886TIP3    H220602   5.275   0.632   3.492
 6887TIP3   OH220603   0.173   5.789   2.626
 6887TIP3    H120604   0.089   5.810   2.584
 6887TIP3    H220605   0.231   5.861   2.600
 6888TIP3   OH220606   6.588   2.087   0.515
 6888TIP3    H120607   6.522   2.155   0.505
 6888TIP3    H220608   6.649   2.122   0.579
 6889TIP3   OH220609   5.886   1.238   0.955
 6889TIP3    H120610   5.923   1.236   0.867
 6889TIP3    H220611   5.882   1.146   0.982
 6890TIP3   OH220612   1.368   5.248   5.402
 6890TIP3    H120613   1.347   5.217   5.490
 6890TIP3    H220614   1.463   5.261   5.402
 6891TIP3   OH220615   6.603   2.059   1.323
 6891TIP3    H120616   6.679   2.111   1.350
 6891TIP3    H220617   6.534   2.084   1.384
 6892TIP3   OH220618   2.214   1.736   2.707
 6892TIP3    H120619   2.202   1.785   2.626
 6892TIP3    H220620   2.309   1.728   2.717
 6893TIP3   OH220621   5.895   0.513   0.459
 6893TIP3    H120622   5.871   0.600   0.428
 6893TIP3    H220623   5.842   0.500   0.537
 6894TIP3   OH220624   6.823   1.180   6.444
 6894TIP3    H120625   6.789   1.199   6.532
 6894TIP3    H220626   6.750   1.200   6.385
 6895TIP3   OH220627   1.809   7.329   3.913
 6895TIP3    H120628   1.858   7.408   3.890
 6895TIP3    H220629   1.827   7.268   3.841
 6896TIP3   OH220630   5.463   3.063   1.045
 6896TIP3    H120631   5.482   3.156   1.035
 6896TIP3    H220632   5.377   3.060   1.087
 6897TIP3   OH220633   0.348   6.152   0.615
 6897TIP3    H120634   0.426   6.141   0.560
 6897TIP3    H220635   0.321   6.062   0.635
 6898TIP3   OH220636   2.447   3.388   6.292
 6898TIP3    H120637   2.488   3.372   6.207
 6898TIP3    H220638   2.409   3.304   6.317
 6899TIP3   OH220639   0.465   3.685   2.435
 6899TIP3    H120640   0.415   3.604   2.448
 6899TIP3    H220641   0.555   3.656   2.423
 6900TIP3   OH220642   8.051   6.388   2.697
 6900TIP3    H120643   8.105   6.399   2.776
 6900TIP3    H220644   8.074   6.462   2.641
 6901TIP3   OH220645   2.129   3.284   2.921
 6901TIP3    H120646   2.135   3.205   2.975
 6901TIP3    H220647   2.141   3.356   2.983
 6902TIP3   OH220648   6.849   2.941   2.768
 6902TIP3    H120649   6.898   2.966   2.846
 6902TIP3    H220650   6.872   3.009   2.703
 6903TIP3   OH220651   0.132   1.898   0.097
 6903TIP3    H120652   0.075   1.912   0.172
 6903TIP3    H220653   0.180   1.818   0.118
 6904TIP3   OH220654   7.034   5.111   4.160
 6904TIP3    H120655   7.018   5.180   4.097
 6904TIP3    H220656   7.116   5.071   4.132
 6905TIP3   OH220657   4.396   2.944   5.201
 6905TIP3    H120658   4.371   2.930   5.292
 6905TIP3    H220659   4.319   2.919   5.150
 6906TIP3   OH220660   2.283   4.520   1.646
 6906TIP3    H120661   2.265   4.517   1.552
 6906TIP3    H220662   2.196   4.524   1.687
 6907TIP3   OH220663   5.694   4.749   4.446
 6907TIP3    H120664   5.746   4.700   4.510
 6907TIP3    H220665   5.641   4.809   4.498
 6908TIP3   OH220666   6.527   3.910   0.539
 6908TIP3    H120667   6.618   3.885   0.554
 6908TIP3    H220668   6.498   3.855   0.466
 6909TIP3   OH220669   5.461   7.159   0.160
 6909TIP3    H120670   5.429   7.237   0.207
 6909TIP3    H220671   5.409   7.157   0.079
 6910TIP3   OH220672   1.421   3.437   6.666
 6910TIP3    H120673   1.473   3.361   6.692
 6910TIP3    H220674   1.341   3.430   6.718
 6911TIP3   OH220675   3.027   6.087   6.409
 6911TIP3    H120676   2.952   6.118   6.461
 6911TIP3    H220677   2.990   6.072   6.322
 6912TIP3   OH220678   5.849   5.269   6.453
 6912TIP3    H120679   5.842   5.248   6.360
 6912TIP3    H220680   5.942   5.287   6.467
 6913TIP3   OH220681   3.028   7.059   2.773
 6913TIP3    H120682   2.950   7.013   2.803
 6913TIP3    H220683   2.994   7.139   2.732
 6914TIP3   OH220684   4.456   2.332   3.599
 6914TIP3    H120685   4.499   2.316   3.515
 6914TIP3    H220686   4.366   2.300   3.586
 6915TIP3   OH220687   0.323   5.161   4.376
 6915TIP3    H120688   0.262   5.152   4.303
 6915TIP3    H220689   0.408   5.177   4.335
 6916TIP3   OH220690   0.178   5.334   3.394
 6916TIP3    H120691   0.122   5.335   3.317
 6916TIP3    H220692   0.207   5.425   3.405
 6917TIP3   OH220693   6.500   1.245   2.423
 6917TIP3    H120694   6.416   1.265   2.464
 6917TIP3    H220695   6.557   1.317   2.450
 6918TIP3   OH220696   7.142   6.614   2.458
 6918TIP3    H120697   7.065   6.589   2.407
 6918TIP3    H220698   7.184   6.531   2.480
 6919TIP3   OH220699   7.307   6.495   2.831
 6919TIP3    H120700   7.233   6.435   2.841
 6919TIP3    H220701   7.267   6.576   2.799
 6920TIP3   OH220702   4.657   7.333   0.959
 6920TIP3    H120703   4.633   7.302   0.872
 6920TIP3    H220704   4.747   7.365   0.949
 6921TIP3   OH220705   8.201   6.386   0.282
 6921TIP3    H120706   8.130   6.442   0.314
 6921TIP3    H220707   8.214   6.413   0.191
 6922TIP3   OH220708   5.751   4.515   6.290
 6922TIP3    H120709   5.696   4.559   6.355
 6922TIP3    H220710   5.715   4.427   6.284
 6923TIP3   OH220711   4.398   7.457   4.717
 6923TIP3    H120712   4.412   7.513   4.642
 6923TIP3    H220713   4.303   7.451   4.726
 6924TIP3   OH220714   4.953   2.437   5.905
 6924TIP3    H120715   4.886   2.505   5.899
 6924TIP3    H220716   5.008   2.464   5.978
 6925TIP3   OH220717   1.022   7.225   5.152
 6925TIP3    H120718   0.984   7.280   5.084
 6925TIP3    H220719   1.068   7.286   5.209
 6926TIP3   OH220720   5.129   0.972   3.982
 6926TIP3    H120721   5.207   0.963   3.927
 6926TIP3    H220722   5.160   1.019   4.059
 6927TIP3   OH220723   5.943   5.951   5.968
 6927TIP3    H120724   5.949   6.036   5.925
 6927TIP3    H220725   5.987   5.964   6.052
 6928TIP3   OH220726   2.640   7.558   6.407
 6928TIP3    H120727   2.713   7.608   6.372
 6928TIP3    H220728   2.608   7.506   6.332
 6929TIP3   OH220729   3.841   6.033   1.910
 6929TIP3    H120730   3.772   6.064   1.969
 6929TIP3    H220731   3.829   6.085   1.830
 6930TIP3   OH220732   1.251   2.140   1.303
 6930TIP3    H120733   1.321   2.124   1.365
 6930TIP3    H220734   1.294   2.141   1.217
 6931TIP3   OH220735   4.919   0.314   5.882
 6931TIP3    H120736   4.895   0.338   5.971
 6931TIP3    H220737   4.836   0.311   5.834
 6932TIP3   OH220738   4.772   6.454   0.210
 6932TIP3    H120739   4.807   6.481   0.295
 6932TIP3    H220740   4.837   6.392   0.176
 6933TIP3   OH220741   7.582   0.263   1.096
 6933TIP3    H120742   7.615   0.323   1.029
 6933TIP3    H220743   7.512   0.311   1.140
 6934TIP3   OH220744   5.466   5.976   3.062
 6934TIP3    H120745   5.493   6.067   3.078
 6934TIP3    H220746   5.492   5.929   3.141
 6935TIP3   OH220747   2.012   0.438   2.695
 6935TIP3    H120748   2.097   0.481   2.707
 6935TIP3    H220749   1.949   0.496   2.737
 6936TIP3   OH220750   8.238   2.012   2.082
 6936TIP3    H120751   8.186   2.031   2.160
 6936TIP3    H220752   8.175   1.977   2.018
 6937TIP3   OH220753   1.829   3.359   0.857
 6937TIP3    H120754   1.745   3.321   0.883
 6937TIP3    H220755   1.889   3.337   0.928
 6938TIP3   OH220756   0.639   3.422   6.391
 6938TIP3    H120757   0.649   3.453   6.481
 6938TIP3    H220758   0.580   3.485   6.350
 6939TIP3   OH220759   1.313   0.146   5.015
 6939TIP3    H120760   1.375   0.092   4.967
 6939TIP3    H220761   1.367   0.202   5.070
 6940TIP3   OH220762   4.412   6.371   3.260
 6940TIP3    H120763   4.399   6.281   3.291
 6940TIP3    H220764   4.324   6.407   3.255
 6941TIP3   OH220765   1.696   6.087   5.687
 6941TIP3    H120766   1.756   6.131   5.626
 6941TIP3    H220767   1.629   6.050   5.630
 6942TIP3   OH220768   5.655   5.661   0.708
 6942TIP3    H120769   5.566   5.681   0.738
 6942TIP3    H220770   5.648   5.658   0.613
 6943TIP3   OH220771   7.753   0.556   1.628
 6943TIP3    H120772   7.741   0.585   1.538
 6943TIP3    H220773   7.765   0.637   1.678
 6944TIP3   OH220774   4.598   2.429   5.889
 6944TIP3    H120775   4.665   2.360   5.889
 6944TIP3    H220776   4.647   2.510   5.904
 6945TIP3   OH220777   1.563   6.690   6.546
 6945TIP3    H120778   1.556   6.633   6.622
 6945TIP3    H220779   1.490   6.666   6.490
 6946TIP3   OH220780   4.356   4.741   4.872
 6946TIP3    H120781   4.366   4.834   4.894
 6946TIP3    H220782   4.279   4.737   4.815
 6947TIP3   OH220783   0.783   6.118   3.366
 6947TIP3    H120784   0.784   6.178   3.292
 6947TIP3    H220785   0.782   6.031   3.327
 6948TIP3   OH220786   8.106   0.670   4.020
 6948TIP3    H120787   8.180   0.683   4.079
 6948TIP3    H220788   8.078   0.759   3.998
 6949TIP3   OH220789   7.297   3.318   0.488
 6949TIP3    H120790   7.338   3.343   0.571
 6949TIP3    H220791   7.351   3.360   0.421
 6950TIP3   OH220792   2.892   5.401   1.378
 6950TIP3    H120793   2.950   5.328   1.400
 6950TIP3    H220794   2.851   5.375   1.295
 6951TIP3   OH220795   6.144   2.902   0.355
 6951TIP3    H120796   6.096   2.941   0.428
 6951TIP3    H220797   6.142   2.969   0.287
 6952TIP3   OH220798   4.717   2.827   1.104
 6952TIP3    H120799   4.699   2.736   1.128
 6952TIP3    H220800   4.797   2.849   1.152
 6953TIP3   OH220801   2.896   5.382   5.184
 6953TIP3    H120802   2.909   5.439   5.261
 6953TIP3    H220803   2.810   5.406   5.151
 6954TIP3   OH220804   5.288   3.085   3.332
 6954TIP3    H120805   5.305   3.141   3.407
 6954TIP3    H220806   5.257   3.144   3.264
 6955TIP3   OH220807   5.424   5.614   4.938
 6955TIP3    H120808   5.388   5.533   4.974
 6955TIP3    H220809   5.512   5.621   4.976
 6956TIP3   OH220810   1.321   6.653   3.356
 6956TIP3    H120811   1.239   6.701   3.345
 6956TIP3    H220812   1.388   6.721   3.364
 6957TIP3   OH220813   0.569   1.883   5.371
 6957TIP3    H120814   0.622   1.905   5.448
 6957TIP3    H220815   0.627   1.832   5.315
 6958TIP3   OH220816   6.852   2.757   2.411
 6958TIP3    H120817   6.892   2.834   2.370
 6958TIP3    H220818   6.759   2.764   2.386
 6959TIP3   OH220819   3.103   2.187   5.338
 6959TIP3    H120820   3.159   2.113   5.360
 6959TIP3    H220821   3.022   2.171   5.387
 6960TIP3   OH220822   0.708   6.684   4.203
 6960TIP3    H120823   0.655   6.758   4.232
 6960TIP3    H220824   0.681   6.612   4.259
 6961TIP3   OH220825   5.599   4.055   2.180
 6961TIP3    H120826   5.678   4.109   2.173
 6961TIP3    H220827   5.623   3.972   2.139
 6962TIP3   OH220828   5.019   0.741   4.136
 6962TIP3    H120829   5.097   0.787   4.168
 6962TIP3    H220830   4.999   0.783   4.053
 6963TIP3   OH220831   6.686   7.773   3.852
 6963TIP3    H120832   6.664   7.864   3.830
 6963TIP3    H220833   6.714   7.735   3.769
 6964TIP3   OH220834   1.411   1.612   5.218
 6964TIP3    H120835   1.497   1.621   5.178
 6964TIP3    H220836   1.357   1.678   5.174
 6965TIP3   OH220837   6.099   1.054   5.023
 6965TIP3    H120838   6.040   1.103   5.080
 6965TIP3    H220839   6.040   0.997   4.971
 6966TIP3   OH220840   1.512   1.706   0.357
 6966TIP3    H120841   1.470   1.636   0.308
 6966TIP3    H220842   1.449   1.727   0.427
 6967TIP3   OH220843   7.463   0.007   2.503
 6967TIP3    H120844   7.542   0.023   2.451
 6967TIP3    H220845   7.404   0.078   2.478
 6968TIP3   OH220846   3.715   5.454   5.802
 6968TIP3    H120847   3.752   5.509   5.871
 6968TIP3    H220848   3.759   5.370   5.812
 6969TIP3   OH220849   1.142   3.680   4.127
 6969TIP3    H120850   1.098   3.613   4.075
 6969TIP3    H220851   1.091   3.759   4.112
 6970TIP3   OH220852   0.897   6.870   1.572
 6970TIP3    H120853   0.929   6.955   1.602
 6970TIP3    H220854   0.824   6.891   1.514
 6971TIP3   OH220855   3.560   4.197   5.680
 6971TIP3    H120856   3.477   4.185   5.727
 6971TIP3    H220857   3.548   4.150   5.598
 6972TIP3   OH220858   3.642   0.738   5.923
 6972TIP3    H120859   3.631   0.646   5.949
 6972TIP3    H220860   3.696   0.734   5.844
 6973TIP3   OH220861   7.372   6.237   1.930
 6973TIP3    H120862   7.312   6.227   1.857
 6973TIP3    H220863   7.448   6.283   1.892
 6974TIP3   OH220864   2.928   6.584   6.489
 6974TIP3    H120865   3.016   6.550   6.469
 6974TIP3    H220866   2.913   6.559   6.580
 6975TIP3   OH220867   6.240   3.433   6.639
 6975TIP3    H120868   6.267   3.356   6.689
 6975TIP3    H220869   6.310   3.446   6.575
 6976TIP3   OH220870   1.089   6.228   2.899
 6976TIP3    H120871   1.017   6.261   2.846
 6976TIP3    H220872   1.071   6.261   2.988
 6977TIP3   OH220873   5.969   6.951   2.707
 6977TIP3    H120874   5.951   6.971   2.799
 6977TIP3    H220875   5.885   6.962   2.663
 6978TIP3   OH220876   2.982   0.744   0.976
 6978TIP3    H120877   2.897   0.749   0.931
 6978TIP3    H220878   2.980   0.658   1.020
 6979TIP3   OH220879   6.276   2.206   3.192
 6979TIP3    H120880   6.341   2.232   3.257
 6979TIP3    H220881   6.277   2.110   3.194
 6980TIP3   OH220882   0.266   2.121   1.684
 6980TIP3    H120883   0.272   2.043   1.629
 6980TIP3    H220884   0.300   2.192   1.629
 6981TIP3   OH220885   0.581   6.891   0.854
 6981TIP3    H120886   0.584   6.895   0.950
 6981TIP3    H220887   0.542   6.975   0.828
 6982TIP3   OH220888   5.368   4.174   4.689
 6982TIP3    H120889   5.342   4.218   4.608
 6982TIP3    H220890   5.414   4.095   4.659
 6983TIP3   OH220891   5.268   3.732   1.786
 6983TIP3    H120892   5.257   3.827   1.792
 6983TIP3    H220893   5.181   3.698   1.765
 6984TIP3   OH220894   4.669   5.973   0.296
 6984TIP3    H120895   4.680   6.007   0.207
 6984TIP3    H220896   4.577   5.987   0.317
 6985TIP3   OH220897   1.221   3.604   2.159
 6985TIP3    H120898   1.228   3.519   2.202
 6985TIP3    H220899   1.253   3.667   2.224
 6986TIP3   OH220900   7.501   0.023   1.181
 6986TIP3    H120901   7.537  -0.038   1.116
 6986TIP3    H220902   7.514   0.109   1.142
 6987TIP3   OH220903   6.210   6.048   0.870
 6987TIP3    H120904   6.193   6.076   0.780
 6987TIP3    H220905   6.139   6.088   0.921
 6988TIP3   OH220906   3.659   0.814   1.227
 6988TIP3    H120907   3.615   0.898   1.240
 6988TIP3    H220908   3.592   0.758   1.189
 6989TIP3   OH220909   6.274   7.014   3.263
 6989TIP3    H120910   6.271   7.107   3.239
 6989TIP3    H220911   6.188   6.980   3.239
 6990TIP3   OH220912   0.002   0.982   3.406
 6990TIP3    H120913  -0.092   0.986   3.426
 6990TIP3    H220914   0.021   0.888   3.401
 6991TIP3   OH220915   2.955   1.167   3.452
 6991TIP3    H120916   3.040   1.212   3.453
 6991TIP3    H220917   2.940   1.142   3.543
 6992TIP3   OH220918   2.940   7.692   4.916
 6992TIP3    H120919   2.932   7.596   4.908
 6992TIP3    H220920   2.996   7.705   4.992
 6993TIP3   OH220921   4.701   1.155   4.004
 6993TIP3    H120922   4.725   1.068   4.036
 6993TIP3    H220923   4.753   1.166   3.924
 6994TIP3   OH220924   5.393   0.870   4.146
 6994TIP3    H120925   5.367   0.782   4.174
 6994TIP3    H220926   5.312   0.920   4.145
 6995TIP3   OH220927   8.309   2.495   4.759
 6995TIP3    H120928   8.222   2.535   4.765
 6995TIP3    H220929   8.297   2.422   4.699
 6996TIP3   OH220930   7.280   5.055   0.827
 6996TIP3    H120931   7.375   5.054   0.822
 6996TIP3    H220932   7.251   5.046   0.736
 6997TIP3   OH220933   3.912   5.941   4.765
 6997TIP3    H120934   3.843   5.957   4.701
 6997TIP3    H220935   3.921   5.846   4.767
 6998TIP3   OH220936   1.789   1.735   3.903
 6998TIP3    H120937   1.876   1.696   3.911
 6998TIP3    H220938   1.738   1.671   3.853
 6999TIP3   OH220939   7.840   3.069   3.112
 6999TIP3    H120940   7.801   2.985   3.138
 6999TIP3    H220941   7.921   3.044   3.068
 7000TIP3   OH220942   3.237   4.153   5.277
 7000TIP3    H120943   3.281   4.079   5.235
 7000TIP3    H220944   3.219   4.214   5.205
 7001TIP3   OH220945   5.474   1.819   4.478
 7001TIP3    H120946   5.552   1.813   4.423
 7001TIP3    H220947   5.408   1.767   4.433
 7002TIP3   OH220948   0.380   7.391   3.293
 7002TIP3    H120949   0.474   7.389   3.310
 7002TIP3    H220950   0.356   7.299   3.280
 7003TIP3   OH220951   1.220   7.353   4.360
 7003TIP3    H120952   1.191   7.439   4.391
 7003TIP3    H220953   1.172   7.290   4.413
 7004TIP3   OH220954   6.988   3.557   1.622
 7004TIP3    H120955   6.973   3.489   1.556
 7004TIP3    H220956   6.930   3.533   1.695
 7005TIP3   OH220957   1.692   7.038   6.412
 7005TIP3    H120958   1.669   6.979   6.340
 7005TIP3    H220959   1.627   7.020   6.480
 7006TIP3   OH220960   3.025   3.429   5.673
 7006TIP3    H120961   3.054   3.497   5.734
 7006TIP3    H220962   3.106   3.390   5.640
 7007TIP3   OH220963   3.103   0.975   6.286
 7007TIP3    H120964   3.146   0.890   6.295
 7007TIP3    H220965   3.170   1.038   6.314
 7008TIP3   OH220966   3.434   4.723   1.519
 7008TIP3    H120967   3.405   4.811   1.496
 7008TIP3    H220968   3.491   4.697   1.446
 7009TIP3   OH220969   5.342   0.920   6.468
 7009TIP3    H120970   5.267   0.882   6.512
 7009TIP3    H220971   5.418   0.876   6.507
 7010TIP3   OH220972   2.359   2.706   2.507
 7010TIP3    H120973   2.285   2.700   2.446
 7010TIP3    H220974   2.341   2.639   2.573
 7011TIP3   OH220975   6.246   5.389   3.658
 7011TIP3    H120976   6.235   5.417   3.567
 7011TIP3    H220977   6.302   5.456   3.696
 7012TIP3   OH220978   3.365   5.077   5.697
 7012TIP3    H120979   3.421   5.155   5.700
 7012TIP3    H220980   3.375   5.045   5.607
 7013TIP3   OH220981   5.984   4.315   4.444
 7013TIP3    H120982   5.938   4.265   4.377
 7013TIP3    H220983   6.073   4.325   4.411
 7014TIP3   OH220984   0.094   7.131   4.683
 7014TIP3    H120985   0.050   7.138   4.598
 7014TIP3    H220986   0.061   7.206   4.733
 7015TIP3   OH220987   0.413   1.123   2.079
 7015TIP3    H120988   0.408   1.181   2.155
 7015TIP3    H220989   0.438   1.180   2.006
 7016TIP3   OH220990   3.620   1.386   3.610
 7016TIP3    H120991   3.605   1.360   3.701
 7016TIP3    H220992   3.671   1.466   3.616
 7017TIP3   OH220993   5.579   6.438   4.369
 7017TIP3    H120994   5.532   6.395   4.440
 7017TIP3    H220995   5.672   6.419   4.387
 7018TIP3   OH220996   0.559   4.376   6.734
 7018TIP3    H120997   0.633   4.384   6.794
 7018TIP3    H220998   0.573   4.293   6.689
 7019TIP3   OH220999   6.318   4.174   5.790
 7019TIP3    H121000   6.251   4.112   5.762
 7019TIP3    H221001   6.342   4.220   5.709
 7020TIP3   OH221002   3.110   0.289   6.163
 7020TIP3    H121003   3.165   0.221   6.203
 7020TIP3    H221004   3.052   0.317   6.235
 7021TIP3   OH221005   5.729   3.396   2.447
 7021TIP3    H121006   5.728   3.326   2.382
 7021TIP3    H221007   5.699   3.473   2.400
 7022TIP3   OH221008   3.330   6.986   6.333
 7022TIP3    H121009   3.293   6.986   6.421
 7022TIP3    H221010   3.418   6.950   6.345
 7023TIP3   OH221011   3.290   2.026   4.313
 7023TIP3    H121012   3.237   1.963   4.265
 7023TIP3    H221013   3.303   2.099   4.252
 7024TIP3   OH221014   7.554   4.601   6.359
 7024TIP3    H121015   7.616   4.544   6.405
 7024TIP3    H221016   7.609   4.660   6.308
 7025TIP3   OH221017   0.015   2.710   5.170
 7025TIP3    H121018   0.031   2.678   5.259
 7025TIP3    H221019   0.019   2.631   5.116
 7026TIP3   OH221020   8.245   2.911   3.406
 7026TIP3    H121021   8.165   2.920   3.355
 7026TIP3    H221022   8.285   2.831   3.373
 7027TIP3   OH221023   0.980   2.299   0.111
 7027TIP3    H121024   1.032   2.328   0.035
 7027TIP3    H221025   0.911   2.364   0.119
 7028TIP3   OH221026   1.402   0.872   0.598
 7028TIP3    H121027   1.332   0.938   0.597
 7028TIP3    H221028   1.441   0.880   0.685
 7029TIP3   OH221029   3.488   2.059   5.154
 7029TIP3    H121030   3.443   2.093   5.077
 7029TIP3    H221031   3.425   2.071   5.225
 7030TIP3   OH221032   7.787   3.784   1.358
 7030TIP3    H121033   7.868   3.818   1.395
 7030TIP3    H221034   7.742   3.861   1.323
 7031TIP3   OH221035   5.656   5.978   1.665
 7031TIP3    H121036   5.681   5.903   1.611
 7031TIP3    H221037   5.701   6.052   1.626
 7032TIP3   OH221038   1.602   7.746   3.060
 7032TIP3    H121039   1.523   7.775   3.014
 7032TIP3    H221040   1.674   7.774   3.003
 7033TIP3   OH221041   3.478   1.908   4.465
 7033TIP3    H121042   3.427   1.974   4.419
 7033TIP3    H221043   3.506   1.847   4.398
 7034TIP3   OH221044   5.193   2.695   0.710
 7034TIP3    H121045   5.222   2.721   0.622
 7034TIP3    H221046   5.263   2.725   0.768
 7035TIP3   OH221047   2.284   7.012   1.909
 7035TIP3    H121048   2.315   6.980   1.994
 7035TIP3    H221049   2.360   7.056   1.871
 7036TIP3   OH221050   3.530   0.452   5.584
 7036TIP3    H121051   3.617   0.421   5.562
 7036TIP3    H221052   3.531   0.545   5.561
 7037TIP3   OH221053   8.214   1.614   4.242
 7037TIP3    H121054   8.236   1.707   4.246
 7037TIP3    H221055   8.250   1.577   4.322
 7038TIP3   OH221056   7.011   7.862   4.819
 7038TIP3    H121057   7.104   7.875   4.804
 7038TIP3    H221058   7.002   7.767   4.832
 7039TIP3   OH221059   3.907   5.410   4.970
 7039TIP3    H121060   3.877   5.416   4.879
 7039TIP3    H221061   3.893   5.318   4.993
 7040TIP3   OH221062   7.478   6.912   4.635
 7040TIP3    H121063   7.548   6.947   4.579
 7040TIP3    H221064   7.448   6.987   4.686
 7041TIP3   OH221065   4.620   5.902   1.523
 7041TIP3    H121066   4.653   5.840   1.588
 7041TIP3    H221067   4.666   5.984   1.542
 7042TIP3   OH221068   5.984   5.323   3.737
 7042TIP3    H121069   6.076   5.304   3.721
 7042TIP3    H221070   5.961   5.387   3.670
 7043TIP3   OH221071   0.869   0.485   5.993
 7043TIP3    H121072   0.930   0.559   5.989
 7043TIP3    H221073   0.869   0.448   5.905
 7044TIP3   OH221074   1.065   0.115   4.940
 7044TIP3    H121075   1.135   0.150   4.996
 7044TIP3    H221076   1.096   0.027   4.916
 7045TIP3   OH221077   0.621   0.608   3.786
 7045TIP3    H121078   0.605   0.529   3.736
 7045TIP3    H221079   0.604   0.583   3.877
 7046TIP3   OH221080   1.409   1.135   2.116
 7046TIP3    H121081   1.473   1.103   2.179
 7046TIP3    H221082   1.324   1.111   2.154
 7047TIP3   OH221083   0.664   5.196   4.885
 7047TIP3    H121084   0.628   5.141   4.816
 7047TIP3    H221085   0.592   5.253   4.910
 7048TIP3   OH221086   2.829   7.386   5.362
 7048TIP3    H121087   2.888   7.315   5.337
 7048TIP3    H221088   2.753   7.374   5.306
 7049TIP3   OH221089   7.377   0.841   2.128
 7049TIP3    H121090   7.412   0.769   2.180
 7049TIP3    H221091   7.300   0.804   2.084
 7050TIP3   OH221092   6.307   5.425   0.986
 7050TIP3    H121093   6.247   5.435   0.912
 7050TIP3    H221094   6.252   5.392   1.058
 7051TIP3   OH221095   1.205   7.742   2.592
 7051TIP3    H121096   1.191   7.775   2.681
 7051TIP3    H221097   1.202   7.647   2.602
 7052TIP3   OH221098   4.315   5.395   1.411
 7052TIP3    H121099   4.273   5.426   1.491
 7052TIP3    H221100   4.407   5.385   1.436
 7053TIP3   OH221101   7.125   6.466   3.223
 7053TIP3    H121102   7.186   6.429   3.287
 7053TIP3    H221103   7.173   6.465   3.140
 7054TIP3   OH221104   8.254   7.612   2.392
 7054TIP3    H121105   8.193   7.552   2.349
 7054TIP3    H221106   8.272   7.571   2.476
 7055TIP3   OH221107   3.872   2.580   0.871
 7055TIP3    H121108   3.795   2.561   0.817
 7055TIP3    H221109   3.930   2.629   0.813
 7056TIP3   OH221110   7.637   2.628   1.452
 7056TIP3    H121111   7.560   2.681   1.432
 7056TIP3    H221112   7.601   2.542   1.476
 7057TIP3   OH221113   3.739   4.076   2.900
 7057TIP3    H121114   3.744   3.984   2.874
 7057TIP3    H221115   3.823   4.113   2.874
 7058TIP3   OH221116   6.310   6.029   2.139
 7058TIP3    H121117   6.297   6.123   2.152
 7058TIP3    H221118   6.381   6.006   2.199
 7059TIP3   OH221119   7.603   5.191   5.223
 7059TIP3    H121120   7.637   5.155   5.305
 7059TIP3    H221121   7.662   5.264   5.203
 7060TIP3   OH221122   3.831   2.848   6.133
 7060TIP3    H121123   3.776   2.894   6.068
 7060TIP3    H221124   3.898   2.804   6.080
 7061TIP3   OH221125   6.429   1.722   0.450
 7061TIP3    H121126   6.453   1.631   0.468
 7061TIP3    H221127   6.474   1.773   0.517
 7062TIP3   OH221128   2.810   4.510   2.598
 7062TIP3    H121129   2.755   4.538   2.525
 7062TIP3    H221130   2.772   4.553   2.674
 7063TIP3   OH221131   5.854   6.564   5.218
 7063TIP3    H121132   5.783   6.614   5.258
 7063TIP3    H221133   5.924   6.628   5.204
 7064TIP3   OH221134   7.164   0.343   6.241
 7064TIP3    H121135   7.123   0.293   6.312
 7064TIP3    H221136   7.256   0.316   6.242
 7065TIP3   OH221137   6.089   2.115   1.404
 7065TIP3    H121138   6.005   2.150   1.372
 7065TIP3    H221139   6.099   2.154   1.491
 7066TIP3   OH221140   0.504   3.426   5.694
 7066TIP3    H121141   0.540   3.486   5.760
 7066TIP3    H221142   0.514   3.472   5.611
 7067TIP3   OH221143   2.530   0.714   3.429
 7067TIP3    H121144   2.504   0.805   3.414
 7067TIP3    H221145   2.451   0.672   3.462
 7068TIP3   OH221146   4.981   5.383   3.876
 7068TIP3    H121147   5.075   5.401   3.873
 7068TIP3    H221148   4.963   5.330   3.798
 7069TIP3   OH221149   6.211   6.436   5.150
 7069TIP3    H121150   6.248   6.442   5.238
 7069TIP3    H221151   6.282   6.464   5.092
 7070TIP3   OH221152   3.049   6.308   0.727
 7070TIP3    H121153   3.027   6.242   0.792
 7070TIP3    H221154   3.050   6.260   0.643
 7071TIP3   OH221155   0.081   2.614   0.871
 7071TIP3    H121156   0.082   2.614   0.776
 7071TIP3    H221157   0.071   2.522   0.895
 7072TIP3   OH221158   5.192   3.617   4.667
 7072TIP3    H121159   5.182   3.621   4.572
 7072TIP3    H221160   5.220   3.527   4.685
 7073TIP3   OH221161   7.551   4.035   6.232
 7073TIP3    H121162   7.501   4.115   6.248
 7073TIP3    H221163   7.559   4.031   6.137
 7074TIP3   OH221164   6.018   6.564   4.323
 7074TIP3    H121165   6.109   6.594   4.316
 7074TIP3    H221166   6.010   6.534   4.413
 7075TIP3   OH221167   3.329   6.916   5.031
 7075TIP3    H121168   3.384   6.972   4.976
 7075TIP3    H221169   3.365   6.927   5.119
 7076TIP3   OH221170   3.506   5.317   3.240
 7076TIP3    H121171   3.449   5.393   3.223
 7076TIP3    H221172   3.570   5.349   3.303
 7077TIP3   OH221173   3.783   7.061   6.559
 7077TIP3    H121174   3.754   7.116   6.486
 7077TIP3    H221175   3.711   7.000   6.573
 7078TIP3   OH221176   7.711   5.329   5.775
 7078TIP3    H121177   7.769   5.391   5.731
 7078TIP3    H221178   7.624   5.368   5.769
 7079TIP3   OH221179   6.678   7.662   4.816
 7079TIP3    H121180   6.639   7.576   4.827
 7079TIP3    H221181   6.743   7.651   4.747
 7080TIP3   OH221182   2.204   4.322   3.819
 7080TIP3    H121183   2.122   4.324   3.770
 7080TIP3    H221184   2.260   4.385   3.774
 7081TIP3   OH221185   1.391   2.067   1.067
 7081TIP3    H121186   1.472   2.024   1.039
 7081TIP3    H221187   1.377   2.137   1.003
 7082TIP3   OH221188   0.091   5.042   6.253
 7082TIP3    H121189   0.037   5.010   6.325
 7082TIP3    H221190   0.075   4.981   6.181
 7083TIP3   OH221191   5.343   3.716   5.954
 7083TIP3    H121192   5.271   3.656   5.975
 7083TIP3    H221193   5.420   3.677   5.995
 7084TIP3   OH221194   3.521   3.792   1.482
 7084TIP3    H121195   3.454   3.726   1.465
 7084TIP3    H221196   3.475   3.876   1.472
 7085TIP3   OH221197   8.191   6.248   3.783
 7085TIP3    H121198   8.124   6.310   3.754
 7085TIP3    H221199   8.177   6.171   3.728
 7086TIP3   OH221200   6.311   6.879   3.491
 7086TIP3    H121201   6.402   6.907   3.480
 7086TIP3    H221202   6.260   6.943   3.442
 7087TIP3   OH221203   0.901   2.031   3.510
 7087TIP3    H121204   0.901   2.118   3.550
 7087TIP3    H221205   0.934   1.973   3.579
 7088TIP3   OH221206   6.680   2.686   5.127
 7088TIP3    H121207   6.761   2.636   5.121
 7088TIP3    H221208   6.653   2.678   5.218
 7089TIP3   OH221209   8.301   7.150   4.101
 7089TIP3    H121210   8.243   7.153   4.026
 7089TIP3    H221211   8.311   7.241   4.128
 7090TIP3   OH221212   1.887   6.058   5.183
 7090TIP3    H121213   1.859   5.974   5.220
 7090TIP3    H221214   1.964   6.082   5.234
 7091TIP3   OH221215   2.545   0.785   1.951
 7091TIP3    H121216   2.503   0.729   2.016
 7091TIP3    H221217   2.476   0.846   1.924
 7092TIP3   OH221218   0.496   0.017   5.902
 7092TIP3    H121219   0.488  -0.064   5.851
 7092TIP3    H221220   0.505   0.086   5.836
 7093TIP3   OH221221   1.821   0.054   2.340
 7093TIP3    H121222   1.859   0.107   2.410
 7093TIP3    H221223   1.865  -0.031   2.348
 7094TIP3   OH221224   0.835   7.517   6.170
 7094TIP3    H121225   0.771   7.446   6.169
 7094TIP3    H221226   0.913   7.478   6.210
 7095TIP3   OH221227   0.519   4.621   5.356
 7095TIP3    H121228   0.443   4.568   5.329
 7095TIP3    H221229   0.578   4.618   5.281
 7096TIP3   OH221230   0.225   7.001   3.054
 7096TIP3    H121231   0.255   7.024   3.142
 7096TIP3    H221232   0.145   6.950   3.069
 7097TIP3   OH221233   6.449   1.522   1.157
 7097TIP3    H121234   6.517   1.588   1.168
 7097TIP3    H221235   6.448   1.503   1.063
 7098TIP3   OH221236   3.714   1.226   3.866
 7098TIP3    H121237   3.724   1.316   3.897
 7098TIP3    H221238   3.767   1.174   3.926
 7099TIP3   OH221239   0.358   5.132   6.302
 7099TIP3    H121240   0.273   5.103   6.268
 7099TIP3    H221241   0.338   5.173   6.386
 7100TIP3   OH221242   0.251   0.935   0.391
 7100TIP3    H121243   0.190   0.898   0.454
 7100TIP3    H221244   0.281   1.017   0.430
 7101TIP3   OH221245   5.724   0.007   0.527
 7101TIP3    H121246   5.685  -0.046   0.596
 7101TIP3    H221247   5.713   0.097   0.556
 7102TIP3   OH221248   6.887   5.437   2.162
 7102TIP3    H121249   6.791   5.430   2.159
 7102TIP3    H221250   6.918   5.355   2.124
 7103TIP3   OH221251   4.383   1.363   5.525
 7103TIP3    H121252   4.405   1.272   5.504
 7103TIP3    H221253   4.463   1.412   5.507
 7104TIP3   OH221254   4.716   6.211   5.598
 7104TIP3    H121255   4.747   6.248   5.515
 7104TIP3    H221256   4.770   6.133   5.611
 7105TIP3   OH221257   6.862   1.090   1.775
 7105TIP3    H121258   6.923   1.128   1.712
 7105TIP3    H221259   6.842   1.162   1.835
 7106TIP3   OH221260   6.143   3.503   1.046
 7106TIP3    H121261   6.124   3.589   1.084
 7106TIP3    H221262   6.136   3.442   1.120
 7107TIP3   OH221263   2.063   5.852   3.694
 7107TIP3    H121264   1.971   5.846   3.719
 7107TIP3    H221265   2.062   5.852   3.598
 7108TIP3   OH221266   5.074   4.860   3.435
 7108TIP3    H121267   5.036   4.932   3.384
 7108TIP3    H221268   5.026   4.783   3.405
 7109TIP3   OH221269   0.857   7.391   5.536
 7109TIP3    H121270   0.931   7.331   5.532
 7109TIP3    H221271   0.887   7.463   5.592
 7110TIP3   OH221272   0.166   4.538   6.140
 7110TIP3    H121273   0.185   4.584   6.059
 7110TIP3    H221274   0.214   4.587   6.207
 7111TIP3   OH221275   6.896   2.839   6.670
 7111TIP3    H121276   6.940   2.907   6.620
 7111TIP3    H221277   6.966   2.784   6.704
 7112TIP3   OH221278   3.062   0.115   4.323
 7112TIP3    H121279   3.043   0.190   4.379
 7112TIP3    H221280   3.158   0.108   4.324
 7113TIP3   OH221281   5.735   3.871   3.222
 7113TIP3    H121282   5.743   3.951   3.275
 7113TIP3    H221283   5.825   3.851   3.195
 7114TIP3   OH221284   3.795   1.016   1.469
 7114TIP3    H121285   3.839   0.930   1.476
 7114TIP3    H221286   3.853   1.067   1.414
 7115TIP3   OH221287   0.646   2.104   2.464
 7115TIP3    H121288   0.699   2.028   2.491
 7115TIP3    H221289   0.566   2.066   2.427
 7116TIP3   OH221290   5.494   1.700   0.733
 7116TIP3    H121291   5.441   1.776   0.708
 7116TIP3    H221292   5.568   1.738   0.780
 7117TIP3   OH221293   3.506   2.918   3.005
 7117TIP3    H121294   3.536   3.005   2.978
 7117TIP3    H221295   3.415   2.914   2.978
 7118TIP3   OH221296   5.020   7.657   3.998
 7118TIP3    H121297   5.058   7.613   4.074
 7118TIP3    H221298   4.963   7.591   3.958
 7119TIP3   OH221299   1.794   5.776   2.667
 7119TIP3    H121300   1.856   5.709   2.638
 7119TIP3    H221301   1.846   5.856   2.670
 7120TIP3   OH221302   0.960   6.168   4.391
 7120TIP3    H121303   1.043   6.122   4.373
 7120TIP3    H221304   0.940   6.213   4.309
 7121TIP3   OH221305   3.985   4.803   0.791
 7121TIP3    H121306   4.069   4.758   0.784
 7121TIP3    H221307   3.963   4.799   0.884
 7122TIP3   OH221308   4.666   5.292   5.550
 7122TIP3    H121309   4.733   5.301   5.482
 7122TIP3    H221310   4.671   5.374   5.600
 7123TIP3   OH221311   6.232   2.205   1.196
 7123TIP3    H121312   6.192   2.163   1.272
 7123TIP3    H221313   6.157   2.229   1.141
 7124TIP3   OH221314   5.990   2.300   2.920
 7124TIP3    H121315   5.987   2.251   2.838
 7124TIP3    H221316   6.083   2.309   2.940
 7125TIP3   OH221317   3.791   3.458   0.857
 7125TIP3    H121318   3.707   3.487   0.822
 7125TIP3    H221319   3.846   3.537   0.855
 7126TIP3   OH221320   1.448   7.676   5.804
 7126TIP3    H121321   1.422   7.624   5.881
 7126TIP3    H221322   1.445   7.767   5.835
 7127TIP3   OH221323   4.028   2.403   4.638
 7127TIP3    H121324   3.969   2.329   4.651
 7127TIP3    H221325   4.073   2.413   4.722
 7128TIP3   OH221326   5.933   0.796   5.159
 7128TIP3    H121327   5.896   0.883   5.142
 7128TIP3    H221328   5.864   0.735   5.133
 7129TIP3   OH221329   5.992   1.872   1.249
 7129TIP3    H121330   6.037   1.952   1.277
 7129TIP3    H221331   6.059   1.805   1.252
 7130TIP3   OH221332   7.454   6.087   1.539
 7130TIP3    H121333   7.506   6.102   1.460
 7130TIP3    H221334   7.456   5.993   1.552
 7131TIP3   OH221335   3.063   4.031   2.905
 7131TIP3    H121336   3.155   4.020   2.932
 7131TIP3    H221337   3.018   3.955   2.943
 7132TIP3   OH221338   2.909   3.754   2.385
 7132TIP3    H121339   2.824   3.738   2.427
 7132TIP3    H221340   2.921   3.849   2.392
 7133TIP3   OH221341   7.203   4.160   3.863
 7133TIP3    H121342   7.194   4.242   3.911
 7133TIP3    H221343   7.287   4.167   3.818
 7134TIP3   OH221344   2.003   1.583   4.844
 7134TIP3    H121345   2.069   1.613   4.906
 7134TIP3    H221346   1.982   1.660   4.791
 7135TIP3   OH221347   4.701   3.902   1.711
 7135TIP3    H121348   4.732   3.971   1.769
 7135TIP3    H221349   4.606   3.905   1.718
 7136TIP3   OH221350   0.259   5.600   4.961
 7136TIP3    H121351   0.189   5.549   5.002
 7136TIP3    H221352   0.258   5.684   5.008
 7137TIP3   OH221353   0.631   4.765   4.509
 7137TIP3    H121354   0.612   4.858   4.500
 7137TIP3    H221355   0.589   4.725   4.433
 7138TIP3   OH221356   3.980   4.119   5.551
 7138TIP3    H121357   3.923   4.063   5.499
 7138TIP3    H221358   3.972   4.085   5.640
 7139TIP3   OH221359   1.692   4.350   5.686
 7139TIP3    H121360   1.639   4.417   5.642
 7139TIP3    H221361   1.755   4.323   5.619
 7140TIP3   OH221362   5.433   5.401   1.740
 7140TIP3    H121363   5.456   5.340   1.811
 7140TIP3    H221364   5.512   5.453   1.727
 7141TIP3   OH221365   1.419   2.083   0.634
 7141TIP3    H121366   1.363   2.153   0.602
 7141TIP3    H221367   1.504   2.125   0.646
 7142TIP3   OH221368   5.155   3.772   3.502
 7142TIP3    H121369   5.120   3.808   3.422
 7142TIP3    H221370   5.089   3.709   3.532
 7143TIP3   OH221371   1.221   1.958   4.544
 7143TIP3    H121372   1.298   2.011   4.525
 7143TIP3    H221373   1.206   1.906   4.465
 7144TIP3   OH221374   3.615   5.008   2.434
 7144TIP3    H121375   3.705   5.004   2.467
 7144TIP3    H221376   3.566   4.947   2.490
 7145TIP3   OH221377   6.316   6.284   3.899
 7145TIP3    H121378   6.243   6.242   3.854
 7145TIP3    H221379   6.369   6.211   3.932
 7146TIP3   OH221380   7.063   2.582   5.523
 7146TIP3    H121381   7.127   2.631   5.473
 7146TIP3    H221382   6.985   2.638   5.524
 7147TIP3   OH221383   2.949   3.246   4.308
 7147TIP3    H121384   3.033   3.289   4.323
 7147TIP3    H221385   2.886   3.318   4.304
 7148TIP3   OH221386   5.097   7.245   1.177
 7148TIP3    H121387   5.048   7.317   1.137
 7148TIP3    H221388   5.186   7.280   1.187
 7149TIP3   OH221389   5.366   5.818   2.489
 7149TIP3    H121390   5.356   5.913   2.501
 7149TIP3    H221391   5.350   5.804   2.396
 7150TIP3   OH221392   3.955   0.495   5.985
 7150TIP3    H121393   3.901   0.537   6.052
 7150TIP3    H221394   4.001   0.425   6.032
 7151TIP3   OH221395   6.628   0.351   1.161
 7151TIP3    H121396   6.569   0.404   1.107
 7151TIP3    H221397   6.588   0.264   1.160
 7152TIP3   OH221398   5.931   6.442   3.240
 7152TIP3    H121399   5.982   6.422   3.162
 7152TIP3    H221400   5.975   6.517   3.279
 7153TIP3   OH221401   6.077   6.148   5.226
 7153TIP3    H121402   6.081   6.090   5.150
 7153TIP3    H221403   6.154   6.204   5.217
 7154TIP3   OH221404   0.984   6.453   5.397
 7154TIP3    H121405   0.930   6.531   5.412
 7154TIP3    H221406   0.931   6.381   5.429
 7155TIP3   OH221407   1.963   4.184   3.378
 7155TIP3    H121408   2.032   4.119   3.371
 7155TIP3    H221409   1.944   4.210   3.288
 7156TIP3   OH221410   3.529   2.924   0.513
 7156TIP3    H121411   3.531   2.862   0.586
 7156TIP3    H221412   3.453   2.979   0.530
 7157TIP3   OH221413   2.007   5.986   2.300
 7157TIP3    H121414   1.972   6.043   2.368
 7157TIP3    H221415   2.060   6.044   2.245
 7158TIP3   OH221416   0.783   7.855   6.068
 7158TIP3    H121417   0.879   7.850   6.066
 7158TIP3    H221418   0.754   7.783   6.012
 7159TIP3   OH221419   6.232   4.703   3.869
 7159TIP3    H121420   6.139   4.701   3.890
 7159TIP3    H221421   6.255   4.796   3.871
 7160TIP3   OH221422   2.310   3.092   4.799
 7160TIP3    H121423   2.219   3.066   4.784
 7160TIP3    H221424   2.335   3.140   4.721
 7161TIP3   OH221425   3.159   7.660   3.457
 7161TIP3    H121426   3.152   7.571   3.423
 7161TIP3    H221427   3.072   7.679   3.494
 7162TIP3   OH221428   2.518   1.019   6.718
 7162TIP3    H121429   2.458   0.945   6.711
 7162TIP3    H221430   2.523   1.038   6.812
 7163TIP3   OH221431   4.602   5.322   6.371
 7163TIP3    H121432   4.687   5.323   6.415
 7163TIP3    H221433   4.555   5.396   6.409
 7164TIP3   OH221434   0.046   0.206   5.082
 7164TIP3    H121435  -0.021   0.140   5.099
 7164TIP3    H221436   0.068   0.241   5.168
 7165TIP3   OH221437   2.281   0.375   2.036
 7165TIP3    H121438   2.270   0.329   1.952
 7165TIP3    H221439   2.300   0.306   2.099
 7166TIP3   OH221440   3.339   2.691   0.691
 7166TIP3    H121441   3.400   2.738   0.749
 7166TIP3    H221442   3.296   2.627   0.748
 7167TIP3   OH221443   7.278   3.546   1.530
 7167TIP3    H121444   7.327   3.467   1.552
 7167TIP3    H221445   7.237   3.573   1.613
 7168TIP3   OH221446   0.461   3.613   6.273
 7168TIP3    H121447   0.473   3.707   6.285
 7168TIP3    H221448   0.366   3.600   6.278
 7169TIP3   OH221449   1.689   1.330   0.791
 7169TIP3    H121450   1.769   1.368   0.755
 7169TIP3    H221451   1.656   1.272   0.722
 7170TIP3   OH221452   1.129   6.494   6.168
 7170TIP3    H121453   1.098   6.530   6.085
 7170TIP3    H221454   1.207   6.444   6.144
 7171TIP3   OH221455   3.600   4.038   3.244
 7171TIP3    H121456   3.523   4.075   3.200
 7171TIP3    H221457   3.673   4.091   3.213
 7172TIP3   OH221458   7.252   0.287   3.957
 7172TIP3    H121459   7.205   0.369   3.974
 7172TIP3    H221460   7.339   0.300   3.996
 7173TIP3   OH221461   4.716   4.085   1.155
 7173TIP3    H121462   4.694   4.065   1.064
 7173TIP3    H221463   4.801   4.130   1.149
 7174TIP3   OH221464   4.319   1.983   3.040
 7174TIP3    H121465   4.375   1.989   2.963
 7174TIP3    H221466   4.271   1.902   3.029
 7175TIP3   OH221467   7.393   2.181   1.283
 7175TIP3    H121468   7.418   2.114   1.347
 7175TIP3    H221469   7.317   2.143   1.238
 7176TIP3   OH221470   5.205   4.017   6.393
 7176TIP3    H121471   5.254   4.051   6.319
 7176TIP3    H221472   5.242   4.062   6.469
 7177TIP3   OH221473   1.082   2.709   5.844
 7177TIP3    H121474   1.134   2.785   5.818
 7177TIP3    H221475   1.011   2.745   5.897
 7178TIP3   OH221476   6.960   2.253   6.782
 7178TIP3    H121477   7.004   2.303   6.713
 7178TIP3    H221478   6.900   2.196   6.735
 7179TIP3   OH221479   0.832   2.343   3.330
 7179TIP3    H121480   0.805   2.399   3.402
 7179TIP3    H221481   0.885   2.400   3.274
 7180TIP3   OH221482   3.403   4.625   0.660
 7180TIP3    H121483   3.437   4.629   0.570
 7180TIP3    H221484   3.310   4.608   0.649
 7181TIP3   OH221485   1.752   0.864   2.777
 7181TIP3    H121486   1.846   0.863   2.761
 7181TIP3    H221487   1.742   0.894   2.867
 7182TIP3   OH221488   6.525   0.675   6.465
 7182TIP3    H121489   6.430   0.671   6.458
 7182TIP3    H221490   6.548   0.763   6.436
 7183TIP3   OH221491   6.978   2.546   3.426
 7183TIP3    H121492   7.021   2.554   3.511
 7183TIP3    H221493   6.981   2.634   3.389
 7184TIP3   OH221494   4.887   3.113   1.628
 7184TIP3    H121495   4.966   3.154   1.662
 7184TIP3    H221496   4.857   3.056   1.699
 7185TIP3   OH221497   1.661   0.988   3.036
 7185TIP3    H121498   1.664   0.993   3.132
 7185TIP3    H221499   1.723   1.056   3.007
 7186TIP3   OH221500   5.651   1.714   3.955
 7186TIP3    H121501   5.603   1.796   3.940
 7186TIP3    H221502   5.590   1.659   4.005
 7187TIP3   OH221503   6.495   5.162   0.308
 7187TIP3    H121504   6.583   5.181   0.339
 7187TIP3    H221505   6.464   5.091   0.365
 7188TIP3   OH221506   5.456   3.878   1.987
 7188TIP3    H121507   5.408   3.817   2.044
 7188TIP3    H221508   5.388   3.916   1.930
 7189TIP3   OH221509   6.337   5.291   5.720
 7189TIP3    H121510   6.334   5.325   5.631
 7189TIP3    H221511   6.415   5.235   5.721
 7190TIP3   OH221512   3.079   0.120   2.811
 7190TIP3    H121513   3.017   0.184   2.777
 7190TIP3    H221514   3.165   0.159   2.793
 7191TIP3   OH221515   7.464   0.901   1.333
 7191TIP3    H121516   7.554   0.930   1.349
 7191TIP3    H221517   7.418   0.922   1.414
 7192TIP3   OH221518   2.161   2.183   4.487
 7192TIP3    H121519   2.136   2.132   4.410
 7192TIP3    H221520   2.185   2.269   4.451
 7193TIP3   OH221521   3.495   3.282   2.754
 7193TIP3    H121522   3.486   3.228   2.676
 7193TIP3    H221523   3.438   3.240   2.819
 7194TIP3   OH221524   0.746   5.894   5.855
 7194TIP3    H121525   0.836   5.895   5.888
 7194TIP3    H221526   0.755   5.891   5.760
 7195TIP3   OH221527   2.405   3.270   1.272
 7195TIP3    H121528   2.495   3.285   1.245
 7195TIP3    H221529   2.401   3.305   1.362
 7196TIP3   OH221530   5.585   5.126   0.085
 7196TIP3    H121531   5.547   5.178   0.014
 7196TIP3    H221532   5.518   5.127   0.154
 7197TIP3   OH221533   5.897   4.586   0.456
 7197TIP3    H121534   5.944   4.668   0.442
 7197TIP3    H221535   5.886   4.581   0.551
 7198TIP3   OH221536   1.906   3.294   2.427
 7198TIP3    H121537   1.959   3.303   2.505
 7198TIP3    H221538   1.881   3.201   2.425
 7199TIP3   OH221539   6.912   1.647   1.671
 7199TIP3    H121540   6.996   1.691   1.659
 7199TIP3    H221541   6.870   1.654   1.585
 7200TIP3   OH221542   3.564   5.504   2.102
 7200TIP3    H121543   3.543   5.595   2.118
 7200TIP3    H221544   3.612   5.504   2.019
 7201TIP3   OH221545   4.038   0.150   3.424
 7201TIP3    H121546   4.086   0.205   3.486
 7201TIP3    H221547   3.978   0.210   3.380
 7202TIP3   OH221548   6.219   0.567   1.931
 7202TIP3    H121549   6.286   0.536   1.992
 7202TIP3    H221550   6.149   0.601   1.987
 7203TIP3   OH221551   2.179   2.021   4.262
 7203TIP3    H121552   2.114   2.026   4.192
 7203TIP3    H221553   2.222   1.936   4.249
 7204TIP3   OH221554   4.992   6.583   2.218
 7204TIP3    H121555   5.032   6.613   2.300
 7204TIP3    H221556   4.963   6.494   2.236
 7205TIP3   OH221557   2.297   6.839   1.684
 7205TIP3    H121558   2.297   6.898   1.759
 7205TIP3    H221559   2.301   6.751   1.722
 7206TIP3   OH221560   1.643   3.110   5.998
 7206TIP3    H121561   1.679   3.111   6.086
 7206TIP3    H221562   1.659   3.021   5.966
 7207TIP3   OH221563   1.092   0.771   0.742
 7207TIP3    H121564   1.044   0.720   0.806
 7207TIP3    H221565   1.142   0.835   0.794
 7208TIP3   OH221566   7.562   5.753   6.699
 7208TIP3    H121567   7.531   5.830   6.746
 7208TIP3    H221568   7.652   5.775   6.673
 7209TIP3   OH221569   1.935   2.607   0.281
 7209TIP3    H121570   1.931   2.642   0.191
 7209TIP3    H221571   1.936   2.685   0.336
 7210TIP3   OH221572   4.508   0.900   3.769
 7210TIP3    H121573   4.556   0.860   3.841
 7210TIP3    H221574   4.546   0.988   3.760
 7211TIP3   OH221575   0.813   5.966   2.838
 7211TIP3    H121576   0.871   5.896   2.807
 7211TIP3    H221577   0.826   6.038   2.777
 7212TIP3   OH221578   0.434   0.002   3.191
 7212TIP3    H121579   0.366   0.028   3.128
 7212TIP3    H221580   0.510   0.056   3.167
 7213TIP3   OH221581   3.542   2.035   6.379
 7213TIP3    H121582   3.453   2.000   6.373
 7213TIP3    H221583   3.597   1.968   6.341
 7214TIP3   OH221584   6.276   3.846   4.811
 7214TIP3    H121585   6.181   3.857   4.812
 7214TIP3    H221586   6.311   3.935   4.799
 7215TIP3   OH221587   7.617   2.143   1.682
 7215TIP3    H121588   7.627   2.171   1.591
 7215TIP3    H221589   7.590   2.051   1.676
 7216TIP3   OH221590   1.091   7.115   2.819
 7216TIP3    H121591   1.148   7.167   2.876
 7216TIP3    H221592   1.114   7.144   2.730
 7217TIP3   OH221593   4.333   6.894   6.397
 7217TIP3    H121594   4.405   6.924   6.453
 7217TIP3    H221595   4.307   6.973   6.349
 7218TIP3   OH221596   3.699   0.121   6.517
 7218TIP3    H121597   3.653   0.203   6.536
 7218TIP3    H221598   3.647   0.080   6.448
 7219TIP3   OH221599   1.934   1.680   0.861
 7219TIP3    H121600   2.000   1.749   0.850
 7219TIP3    H221601   1.971   1.622   0.928
 7220TIP3   OH221602   2.616   5.427   5.101
 7220TIP3    H121603   2.539   5.444   5.156
 7220TIP3    H221604   2.581   5.391   5.020
 7221TIP3   OH221605   6.261   6.850   2.966
 7221TIP3    H121606   6.225   6.939   2.972
 7221TIP3    H221607   6.354   6.861   2.984
 7222TIP3   OH221608   0.979   1.257   5.051
 7222TIP3    H121609   1.020   1.188   5.103
 7222TIP3    H221610   1.052   1.305   5.012
 7223TIP3   OH221611   2.205   7.289   1.461
 7223TIP3    H121612   2.203   7.208   1.411
 7223TIP3    H221613   2.161   7.267   1.543
 7224TIP3   OH221614   1.551   6.354   4.163
 7224TIP3    H121615   1.562   6.435   4.114
 7224TIP3    H221616   1.476   6.371   4.220
 7225TIP3   OH221617   3.288   3.675   1.457
 7225TIP3    H121618   3.209   3.713   1.420
 7225TIP3    H221619   3.283   3.694   1.550
 7226TIP3   OH221620   7.580   4.252   4.521
 7226TIP3    H121621   7.588   4.339   4.483
 7226TIP3    H221622   7.645   4.199   4.475
 7227TIP3   OH221623   1.528   3.825   0.050
 7227TIP3    H121624   1.513   3.740   0.008
 7227TIP3    H221625   1.560   3.803   0.137
 7228TIP3   OH221626   5.478   7.189   5.731
 7228TIP3    H121627   5.555   7.245   5.745
 7228TIP3    H221628   5.507   7.124   5.667
 7229TIP3   OH221629   3.663   6.470   4.246
 7229TIP3    H121630   3.725   6.516   4.302
 7229TIP3    H221631   3.623   6.405   4.303
 7230TIP3   OH221632   3.641   3.192   3.947
 7230TIP3    H121633   3.648   3.209   4.041
 7230TIP3    H221634   3.585   3.262   3.914
 7231TIP3   OH221635   7.347   2.403   2.675
 7231TIP3    H121636   7.339   2.441   2.762
 7231TIP3    H221637   7.381   2.315   2.691
 7232TIP3   OH221638   7.325   6.415   2.342
 7232TIP3    H121639   7.272   6.460   2.276
 7232TIP3    H221640   7.379   6.485   2.381
 7233TIP3   OH221641   1.765   4.791   2.047
 7233TIP3    H121642   1.804   4.812   1.962
 7233TIP3    H221643   1.743   4.876   2.084
 7234TIP3   OH221644   4.677   4.359   6.296
 7234TIP3    H121645   4.602   4.360   6.356
 7234TIP3    H221646   4.674   4.272   6.255
 7235TIP3   OH221647   3.415   3.118   4.188
 7235TIP3    H121648   3.490   3.059   4.201
 7235TIP3    H221649   3.436   3.166   4.108
 7236TIP3   OH221650   5.262   4.572   2.440
 7236TIP3    H121651   5.216   4.627   2.504
 7236TIP3    H221652   5.232   4.483   2.460
 7237TIP3   OH221653   3.288   7.100   4.300
 7237TIP3    H121654   3.294   7.061   4.213
 7237TIP3    H221655   3.281   7.026   4.360
 7238TIP3   OH221656   3.741   2.555   5.908
 7238TIP3    H121657   3.832   2.581   5.895
 7238TIP3    H221658   3.733   2.545   6.003
 7239TIP3   OH221659   0.789   3.206   0.273
 7239TIP3    H121660   0.862   3.266   0.260
 7239TIP3    H221661   0.820   3.122   0.240
 7240TIP3   OH221662   4.757   4.534   4.810
 7240TIP3    H121663   4.829   4.482   4.844
 7240TIP3    H221664   4.799   4.610   4.769
 7241TIP3   OH221665   2.101   1.425   2.270
 7241TIP3    H121666   2.164   1.367   2.312
 7241TIP3    H221667   2.147   1.508   2.260
 7242TIP3   OH221668   8.101   5.402   0.464
 7242TIP3    H121669   8.193   5.383   0.448
 7242TIP3    H221670   8.089   5.385   0.558
 7243TIP3   OH221671   1.037   0.382   4.360
 7243TIP3    H121672   1.098   0.455   4.348
 7243TIP3    H221673   0.962   0.404   4.305
 7244TIP3   OH221674   1.030   7.783   1.821
 7244TIP3    H121675   1.002   7.710   1.765
 7244TIP3    H221676   1.107   7.818   1.777
 7245TIP3   OH221677   3.905   6.641   4.945
 7245TIP3    H121678   3.879   6.724   4.906
 7245TIP3    H221679   3.902   6.578   4.873
 7246TIP3   OH221680  -0.003   1.129   3.986
 7246TIP3    H121681  -0.011   1.097   3.896
 7246TIP3    H221682   0.082   1.094   4.016
 7247TIP3   OH221683   0.251   2.971   6.116
 7247TIP3    H121684   0.240   2.897   6.056
 7247TIP3    H221685   0.323   3.021   6.079
 7248TIP3   OH221686   2.554   6.921   5.572
 7248TIP3    H121687   2.479   6.950   5.521
 7248TIP3    H221688   2.522   6.846   5.622
 7249TIP3   OH221689   5.206   5.347   4.557
 7249TIP3    H121690   5.150   5.305   4.622
 7249TIP3    H221691   5.251   5.417   4.604
 7250TIP3   OH221692   5.626   6.443   2.933
 7250TIP3    H121693   5.686   6.370   2.920
 7250TIP3    H221694   5.675   6.520   2.902
 7251TIP3   OH221695   7.578   0.560   3.347
 7251TIP3    H121696   7.609   0.651   3.350
 7251TIP3    H221697   7.492   0.563   3.389
 7252TIP3   OH221698   8.032   6.720   5.311
 7252TIP3    H121699   7.945   6.700   5.346
 7252TIP3    H221700   8.033   6.815   5.301
 7253TIP3   OH221701   0.694   5.706   1.991
 7253TIP3    H121702   0.657   5.726   1.905
 7253TIP3    H221703   0.705   5.791   2.033
 7254TIP3   OH221704   6.804   7.263   3.436
 7254TIP3    H121705   6.818   7.170   3.421
 7254TIP3    H221706   6.728   7.285   3.381
 7255TIP3   OH221707   5.109   0.904   6.088
 7255TIP3    H121708   5.140   0.813   6.095
 7255TIP3    H221709   5.060   0.918   6.169
 7256TIP3   OH221710   4.322   3.462   2.040
 7256TIP3    H121711   4.245   3.469   1.984
 7256TIP3    H221712   4.288   3.468   2.129
 7257TIP3   OH221713   5.612   7.485   6.239
 7257TIP3    H121714   5.661   7.426   6.296
 7257TIP3    H221715   5.628   7.451   6.150
 7258TIP3   OH221716   5.739   5.275   5.034
 7258TIP3    H121717   5.696   5.331   5.099
 7258TIP3    H221718   5.750   5.331   4.957
 7259TIP3   OH221719   2.266   1.527   4.015
 7259TIP3    H121720   2.351   1.564   4.039
 7259TIP3    H221721   2.217   1.524   4.098
 7260TIP3   OH221722   6.098   0.075   4.924
 7260TIP3    H121723   6.090  -0.020   4.937
 7260TIP3    H221724   6.097   0.112   5.013
 7261TIP3   OH221725   5.358   1.421   2.370
 7261TIP3    H121726   5.331   1.371   2.293
 7261TIP3    H221727   5.451   1.398   2.383
 7262TIP3   OH221728   4.434   4.454   2.774
 7262TIP3    H121729   4.363   4.450   2.838
 7262TIP3    H221730   4.407   4.520   2.711
 7263TIP3   OH221731   4.864   6.506   5.978
 7263TIP3    H121732   4.807   6.578   5.951
 7263TIP3    H221733   4.896   6.532   6.065
 7264TIP3   OH221734   3.029   4.828   3.117
 7264TIP3    H121735   3.107   4.873   3.150
 7264TIP3    H221736   3.051   4.805   3.027
 7265TIP3   OH221737   0.074   6.134   3.512
 7265TIP3    H121738  -0.016   6.163   3.524
 7265TIP3    H221739   0.067   6.055   3.459
 7266TIP3   OH221740   4.845   5.370   0.264
 7266TIP3    H121741   4.806   5.410   0.187
 7266TIP3    H221742   4.906   5.435   0.297
 7267TIP3   OH221743   7.832   3.056   2.708
 7267TIP3    H121744   7.817   3.049   2.614
 7267TIP3    H221745   7.923   3.030   2.719
 7268TIP3   OH221746   6.550   0.915   1.122
 7268TIP3    H121747   6.515   0.965   1.048
 7268TIP3    H221748   6.619   0.971   1.158
 7269TIP3   OH221749   3.543   6.368   3.611
 7269TIP3    H121750   3.511   6.458   3.618
 7269TIP3    H221751   3.473   6.315   3.650
 7270TIP3   OH221752   4.816   4.674   0.443
 7270TIP3    H121753   4.904   4.637   0.446
 7270TIP3    H221754   4.808   4.711   0.355
 7271TIP3   OH221755   1.981   0.273   1.992
 7271TIP3    H121756   2.022   0.205   2.047
 7271TIP3    H221757   1.999   0.355   2.039
 7272TIP3   OH221758   4.765   3.217   0.985
 7272TIP3    H121759   4.848   3.232   1.032
 7272TIP3    H221760   4.791   3.198   0.895
 7273TIP3   OH221761   7.050   5.161   0.907
 7273TIP3    H121762   7.137   5.126   0.887
 7273TIP3    H221763   6.996   5.084   0.923
 7274TIP3   OH221764   0.480   2.210   0.738
 7274TIP3    H121765   0.479   2.206   0.833
 7274TIP3    H221766   0.435   2.292   0.716
 7275TIP3   OH221767   5.151   1.383   1.610
 7275TIP3    H121768   5.127   1.295   1.639
 7275TIP3    H221769   5.194   1.370   1.525
 7276TIP3   OH221770   3.986   1.504   5.884
 7276TIP3    H121771   4.040   1.576   5.851
 7276TIP3    H221772   3.939   1.542   5.959
 7277TIP3   OH221773   5.682   3.135   0.181
 7277TIP3    H121774   5.660   3.188   0.257
 7277TIP3    H221775   5.611   3.150   0.119
 7278TIP3   OH221776   2.610   1.953   2.117
 7278TIP3    H121777   2.615   1.924   2.026
 7278TIP3    H221778   2.555   2.031   2.114
 7279TIP3   OH221779   4.477   3.261   0.799
 7279TIP3    H121780   4.389   3.224   0.800
 7279TIP3    H221781   4.464   3.355   0.806
 7280TIP3   OH221782   0.249   5.125   0.373
 7280TIP3    H121783   0.329   5.080   0.345
 7280TIP3    H221784   0.204   5.147   0.291
 7281TIP3   OH221785   7.139   6.283   6.365
 7281TIP3    H121786   7.136   6.377   6.347
 7281TIP3    H221787   7.124   6.241   6.280
 7282TIP3   OH221788   0.487   4.230   3.839
 7282TIP3    H121789   0.416   4.202   3.897
 7282TIP3    H221790   0.462   4.197   3.752
 7283TIP3   OH221791   0.656   0.394   1.623
 7283TIP3    H121792   0.619   0.421   1.539
 7283TIP3    H221793   0.626   0.304   1.636
 7284TIP3   OH221794   1.994   5.611   4.955
 7284TIP3    H121795   2.004   5.609   5.050
 7284TIP3    H221796   1.980   5.703   4.934
 7285TIP3   OH221797   5.092   3.885   2.113
 7285TIP3    H121798   5.064   3.872   2.204
 7285TIP3    H221799   5.065   3.804   2.069
 7286TIP3   OH221800   5.447   1.930   5.811
 7286TIP3    H121801   5.360   1.912   5.845
 7286TIP3    H221802   5.461   1.863   5.744
 7287TIP3   OH221803   2.449   2.684   1.518
 7287TIP3    H121804   2.463   2.619   1.448
 7287TIP3    H221805   2.448   2.768   1.473
 7288TIP3   OH221806   7.390   1.317   2.442
 7288TIP3    H121807   7.399   1.380   2.513
 7288TIP3    H221808   7.415   1.366   2.363
 7289TIP3   OH221809   7.518   4.803   0.959
 7289TIP3    H121810   7.467   4.758   0.892
 7289TIP3    H221811   7.601   4.756   0.962
 7290TIP3   OH221812   4.505   0.268   6.057
 7290TIP3    H121813   4.443   0.210   6.015
 7290TIP3    H221814   4.451   0.328   6.109
 7291TIP3   OH221815   2.273   0.354   0.394
 7291TIP3    H121816   2.250   0.325   0.482
 7291TIP3    H221817   2.329   0.431   0.408
 7292TIP3   OH221818   8.029   5.461   2.107
 7292TIP3    H121819   8.098   5.518   2.074
 7292TIP3    H221820   7.949   5.493   2.065
 7293TIP3   OH221821   4.790   2.810   3.866
 7293TIP3    H121822   4.728   2.875   3.833
 7293TIP3    H221823   4.843   2.787   3.790
 7294TIP3   OH221824   5.349   5.898   0.911
 7294TIP3    H121825   5.338   5.930   1.000
 7294TIP3    H221826   5.316   5.969   0.856
 7295TIP3   OH221827   2.618   6.672   5.934
 7295TIP3    H121828   2.564   6.684   5.855
 7295TIP3    H221829   2.680   6.744   5.931
 7296TIP3   OH221830   6.066   1.867   6.337
 7296TIP3    H121831   6.104   1.810   6.403
 7296TIP3    H221832   6.075   1.818   6.255
 7297TIP3   OH221833   4.113   3.246   0.420
 7297TIP3    H121834   4.087   3.295   0.342
 7297TIP3    H221835   4.031   3.229   0.467
 7298TIP3   OH221836   3.916   3.612   6.726
 7298TIP3    H121837   3.884   3.534   6.681
 7298TIP3    H221838   3.837   3.658   6.753
 7299TIP3   OH221839   6.599   6.725   3.373
 7299TIP3    H121840   6.669   6.662   3.353
 7299TIP3    H221841   6.613   6.749   3.465
 7300TIP3   OH221842   2.882   1.945   4.769
 7300TIP3    H121843   2.959   1.913   4.722
 7300TIP3    H221844   2.886   1.901   4.854
 7301TIP3   OH221845   1.062   1.537   4.509
 7301TIP3    H121846   1.140   1.578   4.471
 7301TIP3    H221847   1.092   1.452   4.539
 7302TIP3   OH221848   4.418   7.230   6.727
 7302TIP3    H121849   4.403   7.169   6.654
 7302TIP3    H221850   4.470   7.300   6.689
 7303TIP3   OH221851   5.851   5.177   6.208
 7303TIP3    H121852   5.878   5.089   6.180
 7303TIP3    H221853   5.757   5.179   6.190
 7304TIP3   OH221854   4.710   4.353   2.294
 7304TIP3    H121855   4.622   4.331   2.262
 7304TIP3    H221856   4.695   4.392   2.380
 7305TIP3   OH221857   4.091   7.131   2.033
 7305TIP3    H121858   4.167   7.147   2.089
 7305TIP3    H221859   4.034   7.074   2.085
 7306TIP3   OH221860   6.903   2.999   4.656
 7306TIP3    H121861   6.907   3.079   4.709
 7306TIP3    H221862   6.940   3.025   4.571
 7307TIP3   OH221863   4.732   5.304   2.593
 7307TIP3    H121864   4.736   5.395   2.563
 7307TIP3    H221865   4.819   5.288   2.631
 7308TIP3   OH221866   2.694   3.036   3.886
 7308TIP3    H121867   2.746   3.025   3.966
 7308TIP3    H221868   2.609   2.998   3.907
 7309TIP3   OH221869   4.681   4.603   5.354
 7309TIP3    H121870   4.709   4.539   5.420
 7309TIP3    H221871   4.758   4.658   5.340
 7310TIP3   OH221872   2.858   4.596   6.722
 7310TIP3    H121873   2.902   4.673   6.757
 7310TIP3    H221874   2.918   4.523   6.740
 7311TIP3   OH221875   3.783   2.461   2.451
 7311TIP3    H121876   3.704   2.492   2.495
 7311TIP3    H221877   3.846   2.448   2.522
 7312TIP3   OH221878   3.957   7.557   6.800
 7312TIP3    H121879   3.896   7.485   6.781
 7312TIP3    H221880   4.039   7.531   6.759
 7313TIP3   OH221881   7.090   0.990   2.454
 7313TIP3    H121882   7.108   0.970   2.546
 7313TIP3    H221883   7.008   0.944   2.436
 7314TIP3   OH221884   0.662   2.973   2.199
 7314TIP3    H121885   0.610   3.007   2.272
 7314TIP3    H221886   0.752   2.975   2.231
 7315TIP3   OH221887   7.269   4.652   5.018
 7315TIP3    H121888   7.357   4.627   4.991
 7315TIP3    H221889   7.222   4.568   5.027
 7316TIP3   OH221890   4.966   2.333   2.937
 7316TIP3    H121891   4.998   2.362   3.023
 7316TIP3    H221892   5.020   2.257   2.916
 7317TIP3   OH221893   3.212   5.552   0.855
 7317TIP3    H121894   3.192   5.534   0.947
 7317TIP3    H221895   3.207   5.467   0.812
 7318TIP3   OH221896   4.573   2.211   2.691
 7318TIP3    H121897   4.557   2.225   2.785
 7318TIP3    H221898   4.493   2.169   2.660
 7319TIP3   OH221899   2.191   6.983   5.018
 7319TIP3    H121900   2.204   6.952   4.929
 7319TIP3    H221901   2.139   6.914   5.060
 7320TIP3   OH221902   1.429   2.534   6.469
 7320TIP3    H121903   1.386   2.533   6.383
 7320TIP3    H221904   1.509   2.484   6.456
 7321TIP3   OH221905   7.189   5.449   3.829
 7321TIP3    H121906   7.156   5.500   3.755
 7321TIP3    H221907   7.271   5.491   3.852
 7322TIP3   OH221908   7.775   6.473   2.735
 7322TIP3    H121909   7.852   6.474   2.679
 7322TIP3    H221910   7.811   6.481   2.824
 7323TIP3   OH221911   0.708   2.451   5.104
 7323TIP3    H121912   0.785   2.490   5.064
 7323TIP3    H221913   0.638   2.514   5.087
 7324TIP3   OH221914   8.178   3.204   1.424
 7324TIP3    H121915   8.140   3.280   1.380
 7324TIP3    H221916   8.269   3.202   1.395
 7325TIP3   OH221917   1.583   6.903   6.185
 7325TIP3    H121918   1.602   6.879   6.094
 7325TIP3    H221919   1.506   6.851   6.208
 7326TIP3   OH221920   3.431   6.256   4.917
 7326TIP3    H121921   3.468   6.324   4.972
 7326TIP3    H221922   3.494   6.184   4.921
 7327TIP3   OH221923   2.572   6.679   0.367
 7327TIP3    H121924   2.584   6.760   0.418
 7327TIP3    H221925   2.658   6.661   0.331
 7328TIP3   OH221926   1.965   2.397   1.064
 7328TIP3    H121927   2.002   2.366   0.982
 7328TIP3    H221928   2.040   2.425   1.116
 7329TIP3   OH221929   1.818   7.602   6.394
 7329TIP3    H121930   1.903   7.643   6.413
 7329TIP3    H221931   1.840   7.518   6.353
 7330TIP3   OH221932   2.406   2.386   4.758
 7330TIP3    H121933   2.491   2.421   4.784
 7330TIP3    H221934   2.342   2.437   4.810
 7331TIP3   OH221935   2.464   2.212   0.780
 7331TIP3    H121936   2.410   2.290   0.790
 7331TIP3    H221937   2.493   2.213   0.689
 7332TIP3   OH221938   1.043   4.736   3.050
 7332TIP3    H121939   0.969   4.752   2.991
 7332TIP3    H221940   1.072   4.823   3.077
 7333TIP3   OH221941   6.086   2.523   1.659
 7333TIP3    H121942   6.043   2.535   1.744
 7333TIP3    H221943   6.075   2.607   1.615
 7334TIP3   OH221944   4.280   7.252   5.580
 7334TIP3    H121945   4.205   7.224   5.632
 7334TIP3    H221946   4.356   7.222   5.630
 7335TIP3   OH221947   3.021   4.557   4.340
 7335TIP3    H121948   3.079   4.599   4.404
 7335TIP3    H221949   3.073   4.554   4.260
 7336TIP3   OH221950   4.029   3.874   0.145
 7336TIP3    H121951   4.116   3.885   0.185
 7336TIP3    H221952   3.968   3.897   0.215
 7337TIP3   OH221953   2.531   3.668   2.182
 7337TIP3    H121954   2.507   3.748   2.135
 7337TIP3    H221955   2.518   3.690   2.275
 7338TIP3   OH221956   0.244   7.741   3.567
 7338TIP3    H121957   0.163   7.743   3.516
 7338TIP3    H221958   0.270   7.833   3.574
 7339TIP3   OH221959   7.599   6.828   1.242
 7339TIP3    H121960   7.653   6.794   1.313
 7339TIP3    H221961   7.529   6.764   1.232
 7340TIP3   OH221962   5.674   2.776   2.333
 7340TIP3    H121963   5.769   2.774   2.322
 7340TIP3    H221964   5.656   2.708   2.397
 7341TIP3   OH221965   4.720   5.083   2.434
 7341TIP3    H121966   4.686   5.034   2.509
 7341TIP3    H221967   4.731   5.172   2.466
 7342TIP3   OH221968   3.810   2.539   4.503
 7342TIP3    H121969   3.859   2.603   4.451
 7342TIP3    H221970   3.877   2.480   4.537
 7343TIP3   OH221971   1.895   4.515   3.769
 7343TIP3    H121972   1.973   4.477   3.728
 7343TIP3    H221973   1.848   4.440   3.805
 7344TIP3   OH221974   2.840   1.047   1.409
 7344TIP3    H121975   2.766   1.057   1.350
 7344TIP3    H221976   2.891   0.975   1.371
 7345TIP3   OH221977   3.394   1.005   5.452
 7345TIP3    H121978   3.413   1.099   5.463
 7345TIP3    H221979   3.470   0.961   5.491
 7346TIP3   OH221980   2.480   0.039   5.329
 7346TIP3    H121981   2.512   0.059   5.241
 7346TIP3    H221982   2.454   0.124   5.365
 7347TIP3   OH221983   3.399   4.952   4.669
 7347TIP3    H121984   3.310   4.973   4.696
 7347TIP3    H221985   3.409   4.994   4.584
 7348TIP3   OH221986   1.860   1.070   6.731
 7348TIP3    H121987   1.846   1.156   6.691
 7348TIP3    H221988   1.835   1.083   6.823
 7349TIP3   OH221989   5.308   0.587   4.204
 7349TIP3    H121990   5.233   0.542   4.164
 7349TIP3    H221991   5.312   0.551   4.293
 7350TIP3   OH221992   2.754   5.377   0.482
 7350TIP3    H121993   2.850   5.377   0.483
 7350TIP3    H221994   2.731   5.290   0.450
 7351TIP3   OH221995   7.997   3.930   4.400
 7351TIP3    H121996   8.057   4.004   4.390
 7351TIP3    H221997   8.042   3.871   4.461
 7352TIP3   OH221998   8.019   2.228   6.178
 7352TIP3    H121999   8.040   2.238   6.271
 7352TIP3    H222000   8.071   2.295   6.134
 7353TIP3   OH222001   0.716   4.964   2.654
 7353TIP3    H122002   0.704   5.057   2.634
 7353TIP3    H222003   0.688   4.919   2.574
 7354TIP3   OH222004   3.628   0.982   4.464
 7354TIP3    H122005   3.636   0.921   4.537
 7354TIP3    H222006   3.535   1.005   4.462
 7355TIP3   OH222007   3.174   2.225   2.679
 7355TIP3    H122008   3.154   2.223   2.773
 7355TIP3    H222009   3.088   2.233   2.637
 7356TIP3   OH222010   0.903   4.387   0.701
 7356TIP3    H122011   0.902   4.333   0.779
 7356TIP3    H222012   0.846   4.341   0.639
 7357TIP3   OH222013   8.266   1.319   3.375
 7357TIP3    H122014   8.343   1.374   3.360
 7357TIP3    H222015   8.265   1.260   3.300
 7358TIP3   OH222016   2.374   5.232   0.953
 7358TIP3    H122017   2.429   5.199   1.025
 7358TIP3    H222018   2.401   5.180   0.877
 7359TIP3   OH222019   0.785   6.403   2.592
 7359TIP3    H122020   0.858   6.457   2.622
 7359TIP3    H222021   0.741   6.457   2.526
 7360TIP3   OH222022   7.639   2.267   6.312
 7360TIP3    H122023   7.700   2.335   6.340
 7360TIP3    H222024   7.694   2.197   6.276
 7361TIP3   OH222025   6.065   6.703   6.621
 7361TIP3    H122026   5.997   6.690   6.554
 7361TIP3    H222027   6.016   6.712   6.703
 7362TIP3   OH222028   4.286   0.948   3.603
 7362TIP3    H122029   4.343   0.911   3.670
 7362TIP3    H222030   4.345   0.979   3.535
 7363TIP3   OH222031   3.875   0.360   3.311
 7363TIP3    H122032   3.952   0.416   3.315
 7363TIP3    H222033   3.803   0.420   3.287
 7364TIP3   OH222034   1.306   5.494   2.509
 7364TIP3    H122035   1.387   5.533   2.543
 7364TIP3    H222036   1.335   5.436   2.438
 7365TIP3   OH222037   0.289   6.467   5.587
 7365TIP3    H122038   0.297   6.511   5.672
 7365TIP3    H222039   0.198   6.479   5.563
 7366TIP3   OH222040   7.894   3.086   0.739
 7366TIP3    H122041   7.926   3.173   0.717
 7366TIP3    H222042   7.863   3.049   0.656
 7367TIP3   OH222043   6.286   2.619   6.802
 7367TIP3    H122044   6.241   2.672   6.737
 7367TIP3    H222045   6.374   2.608   6.766
 7368TIP3   OH222046   5.881   0.680   4.267
 7368TIP3    H122047   5.881   0.622   4.191
 7368TIP3    H222048   5.971   0.681   4.297
 7369TIP3   OH222049   0.039   1.979   5.167
 7369TIP3    H122050   0.115   1.970   5.224
 7369TIP3    H222051   0.067   2.038   5.098
 7370TIP3   OH222052   6.313   5.695   2.973
 7370TIP3    H122053   6.326   5.628   2.905
 7370TIP3    H222054   6.304   5.776   2.924
 7371TIP3   OH222055   3.508   5.982   6.101
 7371TIP3    H122056   3.600   5.962   6.118
 7371TIP3    H222057   3.494   6.069   6.139
 7372TIP3   OH222058   1.821   2.722   1.956
 7372TIP3    H122059   1.754   2.681   2.012
 7372TIP3    H222060   1.793   2.813   1.948
 7373TIP3   OH222061   2.988   4.641   5.651
 7373TIP3    H122062   2.925   4.572   5.628
 7373TIP3    H222063   3.073   4.605   5.625
 7374TIP3   OH222064   3.383   1.017   3.459
 7374TIP3    H122065   3.390   0.963   3.538
 7374TIP3    H222066   3.313   0.977   3.409
 7375TIP3   OH222067   0.801   5.282   0.120
 7375TIP3    H122068   0.767   5.198   0.088
 7375TIP3    H222069   0.868   5.257   0.185
 7376TIP3   OH222070   7.165   6.204   1.705
 7376TIP3    H122071   7.158   6.110   1.720
 7376TIP3    H222072   7.093   6.225   1.646
 7377TIP3   OH222073   5.271   2.662   6.578
 7377TIP3    H122074   5.353   2.677   6.532
 7377TIP3    H222075   5.232   2.750   6.586
 7378TIP3   OH222076   1.626   1.925   1.890
 7378TIP3    H122077   1.641   1.906   1.798
 7378TIP3    H222078   1.702   1.888   1.935
 7379TIP3   OH222079   1.828   2.121   1.234
 7379TIP3    H122080   1.912   2.096   1.194
 7379TIP3    H222081   1.789   2.038   1.259
 7380TIP3   OH222082   4.600   3.047   3.854
 7380TIP3    H122083   4.512   3.042   3.891
 7380TIP3    H222084   4.640   3.123   3.895
 7381TIP3   OH222085   0.210   2.289   3.736
 7381TIP3    H122086   0.195   2.373   3.780
 7381TIP3    H222087   0.252   2.234   3.802
 7382TIP3   OH222088   3.632   3.471   2.595
 7382TIP3    H122089   3.582   3.414   2.652
 7382TIP3    H222090   3.636   3.424   2.511
 7383TIP3   OH222091   7.562   1.492   4.796
 7383TIP3    H122092   7.602   1.526   4.716
 7383TIP3    H222093   7.626   1.431   4.831
 7384TIP3   OH222094   2.100   6.662   3.284
 7384TIP3    H122095   2.170   6.652   3.220
 7384TIP3    H222096   2.040   6.589   3.265
 7385TIP3   OH222097   6.981   5.401   1.245
 7385TIP3    H122098   6.913   5.386   1.179
 7385TIP3    H222099   6.975   5.494   1.265
 7386TIP3   OH222100   2.408   1.648   0.112
 7386TIP3    H122101   2.363   1.658   0.028
 7386TIP3    H222102   2.352   1.590   0.163
 7387TIP3   OH222103   4.402   4.306   0.967
 7387TIP3    H122104   4.442   4.252   0.899
 7387TIP3    H222105   4.439   4.393   0.953
 7388TIP3   OH222106   6.727   4.564   0.819
 7388TIP3    H122107   6.762   4.500   0.880
 7388TIP3    H222108   6.790   4.636   0.821
 7389TIP3   OH222109   6.944   1.775   2.286
 7389TIP3    H122110   6.868   1.766   2.344
 7389TIP3    H222111   6.959   1.869   2.280
 7390TIP3   OH222112   3.160   4.644   1.863
 7390TIP3    H122113   3.205   4.574   1.911
 7390TIP3    H222114   3.137   4.708   1.931
 7391TIP3   OH222115   4.352   2.222   4.356
 7391TIP3    H122116   4.350   2.248   4.448
 7391TIP3    H222117   4.415   2.151   4.352
 7392TIP3   OH222118   3.494   6.933   0.668
 7392TIP3    H122119   3.463   6.971   0.586
 7392TIP3    H222120   3.586   6.913   0.652
 7393TIP3   OH222121   3.369   3.468   2.286
 7393TIP3    H122122   3.295   3.419   2.249
 7393TIP3    H222123   3.380   3.542   2.226
 7394TIP3   OH222124   0.204   2.254   1.145
 7394TIP3    H122125   0.149   2.326   1.177
 7394TIP3    H222126   0.227   2.279   1.056
 7395TIP3   OH222127   6.570   2.764   4.052
 7395TIP3    H122128   6.562   2.852   4.015
 7395TIP3    H222129   6.481   2.728   4.045
 7396TIP3   OH222130   2.182   7.352   4.449
 7396TIP3    H122131   2.133   7.421   4.495
 7396TIP3    H222132   2.131   7.273   4.465
 7397TIP3   OH222133   5.602   1.512   4.218
 7397TIP3    H122134   5.649   1.429   4.226
 7397TIP3    H222135   5.512   1.492   4.242
 7398TIP3   OH222136   0.443   0.018   4.848
 7398TIP3    H122137   0.362   0.056   4.813
 7398TIP3    H222138   0.448  -0.069   4.807
 7399TIP3   OH222139   5.328   7.443   6.277
 7399TIP3    H122140   5.277   7.469   6.200
 7399TIP3    H222141   5.419   7.462   6.254
 7400TIP3   OH222142   0.018   5.139   5.484
 7400TIP3    H122143   0.059   5.055   5.502
 7400TIP3    H222144  -0.020   5.165   5.568
 7401TIP3   OH222145   6.661   4.562   6.310
 7401TIP3    H122146   6.628   4.472   6.302
 7401TIP3    H222147   6.723   4.571   6.237
 7402TIP3   OH222148   3.761   5.604   4.368
 7402TIP3    H122149   3.807   5.620   4.285
 7402TIP3    H222150   3.677   5.649   4.357
 7403TIP3   OH222151   1.818   7.204   5.767
 7403TIP3    H122152   1.794   7.293   5.740
 7403TIP3    H222153   1.746   7.176   5.823
 7404TIP3   OH222154   0.520   3.598   4.661
 7404TIP3    H122155   0.605   3.627   4.696
 7404TIP3    H222156   0.464   3.590   4.738
 7405TIP3   OH222157   7.571   6.695   3.846
 7405TIP3    H122158   7.605   6.784   3.858
 7405TIP3    H222159   7.480   6.707   3.821
 7406TIP3   OH222160   5.777   3.045   5.377
 7406TIP3    H122161   5.762   2.965   5.428
 7406TIP3    H222162   5.764   3.116   5.439
 7407TIP3   OH222163   3.630   5.394   0.173
 7407TIP3    H122164   3.675   5.456   0.116
 7407TIP3    H222165   3.549   5.439   0.198
 7408TIP3   OH222166   5.164   7.582   0.861
 7408TIP3    H122167   5.093   7.547   0.914
 7408TIP3    H222168   5.227   7.617   0.924
 7409TIP3   OH222169   5.200   5.454   6.008
 7409TIP3    H122170   5.180   5.509   5.933
 7409TIP3    H222171   5.207   5.365   5.972
 7410TIP3   OH222172   5.742   7.175   4.106
 7410TIP3    H122173   5.700   7.129   4.034
 7410TIP3    H222174   5.710   7.266   4.098
 7411TIP3   OH222175   3.501   5.989   5.183
 7411TIP3    H122176   3.447   6.040   5.123
 7411TIP3    H222177   3.446   5.973   5.259
 7412TIP3   OH222178   7.577   5.908   3.027
 7412TIP3    H122179   7.522   5.931   2.951
 7412TIP3    H222180   7.643   5.978   3.030
 7413TIP3   OH222181   2.443   4.367   2.805
 7413TIP3    H122182   2.459   4.280   2.843
 7413TIP3    H222183   2.529   4.409   2.805
 7414TIP3   OH222184   6.915   5.369   4.277
 7414TIP3    H122185   6.823   5.341   4.280
 7414TIP3    H222186   6.937   5.388   4.368
 7415TIP3   OH222187   2.773   6.539   3.934
 7415TIP3    H122188   2.760   6.452   3.895
 7415TIP3    H222189   2.685   6.577   3.940
 7416TIP3   OH222190   1.283   0.187   4.705
 7416TIP3    H122191   1.212   0.148   4.755
 7416TIP3    H222192   1.358   0.131   4.722
 7417TIP3   OH222193   6.081   1.691   4.956
 7417TIP3    H122194   6.015   1.723   4.895
 7417TIP3    H222195   6.163   1.696   4.907
 7418TIP3   OH222196   7.800   2.832   5.911
 7418TIP3    H122197   7.745   2.828   5.832
 7418TIP3    H222198   7.770   2.911   5.956
 7419TIP3   OH222199   3.575   5.045   3.317
 7419TIP3    H122200   3.602   5.056   3.408
 7419TIP3    H222201   3.549   5.133   3.289
 7420TIP3   OH222202   7.067   5.914   4.023
 7420TIP3    H122203   7.050   6.002   4.055
 7420TIP3    H222204   6.980   5.878   4.004
 7421TIP3   OH222205   4.283   5.121   2.915
 7421TIP3    H122206   4.346   5.077   2.857
 7421TIP3    H222207   4.202   5.124   2.864
 7422TIP3   OH222208   2.534   6.843   4.839
 7422TIP3    H122209   2.453   6.883   4.805
 7422TIP3    H222210   2.583   6.916   4.876
 7423TIP3   OH222211   8.064   4.143   0.326
 7423TIP3    H122212   8.018   4.091   0.260
 7423TIP3    H222213   8.080   4.227   0.283
 7424TIP3   OH222214   0.256   7.012   4.135
 7424TIP3    H122215   0.173   7.047   4.103
 7424TIP3    H222216   0.239   6.989   4.226
 7425TIP3   OH222217   5.523   7.528   3.726
 7425TIP3    H122218   5.543   7.549   3.634
 7425TIP3    H222219   5.588   7.576   3.776
 7426TIP3   OH222220   7.412   1.111   4.978
 7426TIP3    H122221   7.331   1.132   5.024
 7426TIP3    H222222   7.383   1.074   4.895
 7427TIP3   OH222223   2.552   3.903   0.515
 7427TIP3    H122224   2.464   3.929   0.541
 7427TIP3    H222225   2.601   3.985   0.508
 7428TIP3   OH222226   4.904   6.098   0.379
 7428TIP3    H122227   4.832   6.047   0.341
 7428TIP3    H222228   4.922   6.167   0.315
 7429TIP3   OH222229   2.701   0.073   5.834
 7429TIP3    H122230   2.668  -0.010   5.868
 7429TIP3    H222231   2.786   0.085   5.877
 7430TIP3   OH222232   6.927   4.266   5.517
 7430TIP3    H122233   6.972   4.339   5.560
 7430TIP3    H222234   6.974   4.255   5.434
 7431TIP3   OH222235   2.811   6.938   2.878
 7431TIP3    H122236   2.835   6.929   2.970
 7431TIP3    H222237   2.761   7.020   2.874
 7432TIP3   OH222238   6.084   1.090   3.662
 7432TIP3    H122239   6.010   1.144   3.688
 7432TIP3    H222240   6.069   1.072   3.569
 7433TIP3   OH222241   7.679   3.979   0.264
 7433TIP3    H122242   7.707   4.061   0.304
 7433TIP3    H222243   7.583   3.984   0.267
 7434TIP3   OH222244   4.662  -0.028   4.488
 7434TIP3    H122245   4.651   0.064   4.514
 7434TIP3    H222246   4.649  -0.027   4.393
 7435TIP3   OH222247   6.809   1.447   6.202
 7435TIP3    H122248   6.724   1.410   6.225
 7435TIP3    H222249   6.795   1.488   6.116
 7436TIP3   OH222250   4.378   1.571   3.576
 7436TIP3    H122251   4.343   1.539   3.659
 7436TIP3    H222252   4.383   1.666   3.588
 7437TIP3   OH222253   4.522   5.077   5.504
 7437TIP3    H122254   4.430   5.099   5.491
 7437TIP3    H222255   4.563   5.160   5.530
 7438TIP3   OH222256   4.434   4.585   4.476
 7438TIP3    H122257   4.514   4.627   4.445
 7438TIP3    H222258   4.454   4.558   4.566
 7439TIP3   OH222259   0.302   5.243   5.241
 7439TIP3    H122260   0.344   5.329   5.236
 7439TIP3    H222261   0.349   5.197   5.310
 7440TIP3   OH222262   8.013   5.645   5.471
 7440TIP3    H122263   8.052   5.577   5.417
 7440TIP3    H222264   7.963   5.699   5.410
 7441TIP3   OH222265   0.328   4.070   1.528
 7441TIP3    H122266   0.349   4.145   1.585
 7441TIP3    H222267   0.346   4.102   1.440
 7442TIP3   OH222268   1.049   1.804   2.555
 7442TIP3    H122269   0.988   1.829   2.485
 7442TIP3    H222270   0.993   1.797   2.633
 7443TIP3   OH222271   4.964   1.881   4.509
 7443TIP3    H122272   5.047   1.901   4.552
 7443TIP3    H222273   4.953   1.949   4.443
 7444TIP3   OH222274   7.130   4.717   2.358
 7444TIP3    H122275   7.155   4.746   2.446
 7444TIP3    H222276   7.187   4.767   2.299
 7445TIP3   OH222277   4.401   4.576   5.084
 7445TIP3    H122278   4.373   4.629   5.009
 7445TIP3    H222279   4.373   4.487   5.061
 7446TIP3   OH222280   7.766   2.675   4.516
 7446TIP3    H122281   7.780   2.615   4.442
 7446TIP3    H222282   7.755   2.618   4.591
 7447TIP3   OH222283   7.774   6.361   2.433
 7447TIP3    H122284   7.751   6.447   2.398
 7447TIP3    H222285   7.736   6.299   2.371
 7448TIP3   OH222286   5.188   6.077   3.207
 7448TIP3    H122287   5.130   6.137   3.161
 7448TIP3    H222288   5.239   6.035   3.137
 7449TIP3   OH222289   2.051   6.888   1.541
 7449TIP3    H122290   2.144   6.883   1.563
 7449TIP3    H222291   2.020   6.966   1.586
 7450TIP3   OH222292   6.528   6.799   6.615
 7450TIP3    H122293   6.475   6.832   6.688
 7450TIP3    H222294   6.478   6.822   6.537
 7451TIP3   OH222295   6.551   7.208   3.230
 7451TIP3    H122296   6.556   7.121   3.189
 7451TIP3    H222297   6.511   7.264   3.163
 7452TIP3   OH222298   3.844   3.878   0.338
 7452TIP3    H122299   3.839   3.802   0.396
 7452TIP3    H222300   3.753   3.891   0.309
 7453TIP3   OH222301   2.078   3.707   3.524
 7453TIP3    H122302   2.012   3.671   3.584
 7453TIP3    H222303   2.035   3.782   3.484
 7454TIP3   OH222304   0.433   3.863   2.681
 7454TIP3    H122305   0.462   3.802   2.614
 7454TIP3    H222306   0.338   3.866   2.673
 7455TIP3   OH222307   1.312   5.891   1.789
 7455TIP3    H122308   1.231   5.852   1.757
 7455TIP3    H222309   1.329   5.964   1.730
 7456TIP3   OH222310   7.857   7.666   0.601
 7456TIP3    H122311   7.766   7.694   0.603
 7456TIP3    H222312   7.900   7.718   0.670
 7457TIP3   OH222313   7.975   7.268   0.036
 7457TIP3    H122314   7.998   7.254  -0.056
 7457TIP3    H222315   7.885   7.300   0.034
 7458TIP3   OH222316   6.731   3.660   4.889
 7458TIP3    H122317   6.774   3.585   4.929
 7458TIP3    H222318   6.693   3.626   4.808
 7459TIP3   OH222319   4.798   0.720   2.666
 7459TIP3    H122320   4.741   0.746   2.739
 7459TIP3    H222321   4.860   0.793   2.657
 7460TIP3   OH222322   0.229   2.750   1.182
 7460TIP3    H122323   0.147   2.781   1.144
 7460TIP3    H222324   0.235   2.793   1.267
 7461TIP3   OH222325   0.207   3.167   5.330
 7461TIP3    H122326   0.134   3.198   5.275
 7461TIP3    H222327   0.277   3.230   5.315
 7462TIP3   OH222328   2.097   7.054   2.850
 7462TIP3    H122329   2.068   7.063   2.940
 7462TIP3    H222330   2.159   7.126   2.837
 7463TIP3   OH222331   6.809   6.446   2.032
 7463TIP3    H122332   6.733   6.422   2.085
 7463TIP3    H222333   6.777   6.441   1.941
 7464TIP3   OH222334   8.214   7.223   2.602
 7464TIP3    H122335   8.266   7.300   2.580
 7464TIP3    H222336   8.265   7.178   2.669
 7465TIP3   OH222337   0.398   1.325   0.666
 7465TIP3    H122338   0.398   1.416   0.697
 7465TIP3    H222339   0.448   1.277   0.732
 7466TIP3   OH222340   3.461   0.379   0.400
 7466TIP3    H122341   3.527   0.394   0.333
 7466TIP3    H222342   3.398   0.320   0.359
 7467TIP3   OH222343   2.093   5.284   2.146
 7467TIP3    H122344   2.114   5.375   2.123
 7467TIP3    H222345   1.999   5.277   2.130
 7468TIP3   OH222346   1.787   2.141   1.603
 7468TIP3    H122347   1.858   2.139   1.539
 7468TIP3    H222348   1.774   2.050   1.628
 7469TIP3   OH222349   6.598   6.441   6.275
 7469TIP3    H122350   6.669   6.460   6.337
 7469TIP3    H222351   6.586   6.347   6.280
 7470TIP3   OH222352   8.056   3.156   3.563
 7470TIP3    H122353   8.109   3.077   3.548
 7470TIP3    H222354   7.967   3.122   3.576
 7471TIP3   OH222355   4.988   3.907   1.011
 7471TIP3    H122356   4.939   3.833   0.976
 7471TIP3    H222357   5.041   3.869   1.082
 7472TIP3   OH222358   2.446   4.332   0.422
 7472TIP3    H122359   2.357   4.358   0.398
 7472TIP3    H222360   2.501   4.375   0.357
 7473TIP3   OH222361   2.697   7.721   2.248
 7473TIP3    H122362   2.792   7.717   2.236
 7473TIP3    H222363   2.684   7.799   2.302
 7474TIP3   OH222364   5.804   0.695   3.740
 7474TIP3    H122365   5.833   0.605   3.723
 7474TIP3    H222366   5.750   0.688   3.818
 7475TIP3   OH222367   1.099   3.351   4.827
 7475TIP3    H122368   1.187   3.326   4.797
 7475TIP3    H222369   1.046   3.273   4.812
 7476TIP3   OH222370   0.637   5.724   3.719
 7476TIP3    H122371   0.676   5.733   3.631
 7476TIP3    H222372   0.543   5.729   3.704
 7477TIP3   OH222373   6.402   5.522   2.584
 7477TIP3    H122374   6.324   5.528   2.640
 7477TIP3    H222375   6.467   5.478   2.639
 7478TIP3   OH222376   1.779   0.382   1.444
 7478TIP3    H122377   1.855   0.394   1.500
 7478TIP3    H222378   1.815   0.360   1.358
 7479TIP3   OH222379   2.905   5.600   6.005
 7479TIP3    H122380   2.971   5.667   6.021
 7479TIP3    H222381   2.954   5.519   5.996
 7480TIP3   OH222382   4.632   7.026   1.464
 7480TIP3    H122383   4.608   7.073   1.385
 7480TIP3    H222384   4.688   7.086   1.513
 7481TIP3   OH222385   3.595   4.176   0.444
 7481TIP3    H122386   3.627   4.148   0.358
 7481TIP3    H222387   3.670   4.162   0.503
 7482TIP3   OH222388   5.073   2.411   4.895
 7482TIP3    H122389   5.083   2.317   4.879
 7482TIP3    H222390   5.108   2.452   4.816
 7483TIP3   OH222391   2.854   6.877   0.379
 7483TIP3    H122392   2.853   6.803   0.317
 7483TIP3    H222393   2.929   6.930   0.350
 7484TIP3   OH222394   3.250   2.155   4.556
 7484TIP3    H122395   3.282   2.101   4.484
 7484TIP3    H222396   3.177   2.204   4.520
 7485TIP3   OH222397   5.995   2.673   6.533
 7485TIP3    H122398   5.968   2.581   6.531
 7485TIP3    H222399   6.091   2.669   6.538
 7486TIP3   OH222400   2.861   3.529   5.072
 7486TIP3    H122401   2.814   3.579   5.005
 7486TIP3    H222402   2.797   3.465   5.103
 7487TIP3   OH222403   2.748   4.820   6.298
 7487TIP3    H122404   2.822   4.853   6.349
 7487TIP3    H222405   2.724   4.738   6.341
 7488TIP3   OH222406   4.580   0.085   4.803
 7488TIP3    H122407   4.665   0.041   4.800
 7488TIP3    H222408   4.599   0.175   4.776
 7489TIP3   OH222409   4.609   3.353   2.504
 7489TIP3    H122410   4.520   3.354   2.538
 7489TIP3    H222411   4.601   3.381   2.413
 7490TIP3   OH222412   3.364   2.209   3.043
 7490TIP3    H122413   3.436   2.185   3.101
 7490TIP3    H222414   3.292   2.152   3.069
 7491TIP3   OH222415   7.036   2.414   0.619
 7491TIP3    H122416   6.943   2.433   0.635
 7491TIP3    H222417   7.035   2.350   0.549
 7492TIP3   OH222418   5.726   0.327   3.079
 7492TIP3    H122419   5.761   0.294   2.997
 7492TIP3    H222420   5.752   0.419   3.081
 7493TIP3   OH222421   0.526   4.076   2.187
 7493TIP3    H122422   0.432   4.060   2.197
 7493TIP3    H222423   0.568   4.000   2.228
 7494TIP3   OH222424   3.642   5.100   6.112
 7494TIP3    H122425   3.688   5.169   6.064
 7494TIP3    H222426   3.560   5.088   6.064
 7495TIP3   OH222427   3.181   4.823   4.395
 7495TIP3    H122428   3.200   4.915   4.376
 7495TIP3    H222429   3.162   4.784   4.310
 7496TIP3   OH222430   4.093   1.528   2.231
 7496TIP3    H122431   4.148   1.493   2.160
 7496TIP3    H222432   4.021   1.573   2.185
 7497TIP3   OH222433   3.860   2.742   1.760
 7497TIP3    H122434   3.908   2.821   1.734
 7497TIP3    H222435   3.846   2.753   1.854
 7498TIP3   OH222436   2.920   5.139   5.337
 7498TIP3    H122437   2.918   5.079   5.263
 7498TIP3    H222438   2.994   5.197   5.319
 7499TIP3   OH222439   0.068   6.164   6.207
 7499TIP3    H122440   0.155   6.148   6.170
 7499TIP3    H222441   0.069   6.119   6.291
 7500TIP3   OH222442   5.428   7.175   6.782
 7500TIP3    H122443   5.471   7.209   6.704
 7500TIP3    H222444   5.354   7.234   6.796
 7501TIP3   OH222445   1.328   3.757   6.547
 7501TIP3    H122446   1.419   3.728   6.536
 7501TIP3    H222447   1.333   3.852   6.541
 7502TIP3   OH222448   5.623   1.732   3.315
 7502TIP3    H122449   5.677   1.791   3.262
 7502TIP3    H222450   5.614   1.653   3.262
 7503TIP3   OH222451   7.263   4.036   3.374
 7503TIP3    H122452   7.256   4.090   3.296
 7503TIP3    H222453   7.220   3.954   3.350
 7504TIP3   OH222454   0.417   6.905   3.487
 7504TIP3    H122455   0.471   6.882   3.562
 7504TIP3    H222456   0.357   6.831   3.477
 7505TIP3   OH222457   6.708   4.677   4.291
 7505TIP3    H122458   6.757   4.719   4.362
 7505TIP3    H222459   6.728   4.731   4.214
 7506TIP3   OH222460   5.329   7.209   2.033
 7506TIP3    H122461   5.294   7.298   2.037
 7506TIP3    H222462   5.417   7.219   1.996
 7507TIP3   OH222463   1.656   6.665   1.307
 7507TIP3    H122464   1.734   6.717   1.286
 7507TIP3    H222465   1.594   6.687   1.237
 7508TIP3   OH222466   6.729   1.485   2.401
 7508TIP3    H122467   6.723   1.579   2.422
 7508TIP3    H222468   6.821   1.471   2.380
 7509TIP3   OH222469   2.527   7.679   0.247
 7509TIP3    H122470   2.502   7.667   0.338
 7509TIP3    H222471   2.448   7.656   0.197
 7510TIP3   OH222472   5.440   5.882   1.510
 7510TIP3    H122473   5.450   5.964   1.559
 7510TIP3    H222474   5.495   5.894   1.433
 7511TIP3   OH222475   1.656   4.276   2.547
 7511TIP3    H122476   1.587   4.211   2.556
 7511TIP3    H222477   1.621   4.341   2.486
 7512TIP3   OH222478   2.365   7.013   0.397
 7512TIP3    H122479   2.438   6.994   0.456
 7512TIP3    H222480   2.366   7.109   0.389
 7513TIP3   OH222481   6.388   7.737   4.560
 7513TIP3    H122482   6.440   7.659   4.577
 7513TIP3    H222483   6.379   7.740   4.465
 7514TIP3   OH222484   4.896   5.454   1.932
 7514TIP3    H122485   4.971   5.419   1.883
 7514TIP3    H222486   4.933   5.521   1.989
 7515TIP3   OH222487   2.252   2.894   2.088
 7515TIP3    H122488   2.317   2.904   2.019
 7515TIP3    H222489   2.168   2.908   2.043
 7516TIP3   OH222490   0.017   2.723   0.237
 7516TIP3    H122491  -0.047   2.740   0.306
 7516TIP3    H222492   0.051   2.635   0.256
 7517TIP3   OH222493   2.263   2.146   6.421
 7517TIP3    H122494   2.173   2.124   6.395
 7517TIP3    H222495   2.315   2.071   6.392
 7518TIP3   OH222496   6.916   4.104   4.743
 7518TIP3    H122497   6.839   4.152   4.773
 7518TIP3    H222498   6.937   4.143   4.658
 7519TIP3   OH222499   4.960   1.547   3.289
 7519TIP3    H122500   4.955   1.452   3.301
 7519TIP3    H222501   4.876   1.570   3.250
 7520TIP3   OH222502   0.127   4.448   3.300
 7520TIP3    H122503   0.036   4.419   3.290
 7520TIP3    H222504   0.135   4.522   3.240
 7521TIP3   OH222505   6.122   5.151   5.871
 7521TIP3    H122506   6.039   5.178   5.832
 7521TIP3    H222507   6.188   5.199   5.822
 7522TIP3   OH222508   4.695   7.428   5.807
 7522TIP3    H122509   4.713   7.389   5.721
 7522TIP3    H222510   4.781   7.445   5.844
 7523TIP3   OH222511   4.623   5.338   4.130
 7523TIP3    H122512   4.713   5.362   4.151
 7523TIP3    H222513   4.629   5.293   4.045
 7524TIP3   OH222514   0.846   0.938   5.860
 7524TIP3    H122515   0.788   0.939   5.784
 7524TIP3    H222516   0.863   1.030   5.878
 7525TIP3   OH222517   6.216   4.419   2.275
 7525TIP3    H122518   6.164   4.405   2.196
 7525TIP3    H222519   6.152   4.436   2.344
 7526TIP3   OH222520   1.039   5.451   2.563
 7526TIP3    H122521   1.001   5.532   2.529
 7526TIP3    H222522   1.133   5.467   2.564
 7527TIP3   OH222523   5.047   3.064   5.415
 7527TIP3    H122524   4.980   3.114   5.368
 7527TIP3    H222525   5.126   3.075   5.362
 7528TIP3   OH222526   7.733   1.761   6.084
 7528TIP3    H122527   7.672   1.779   6.155
 7528TIP3    H222528   7.723   1.668   6.065
 7529TIP3   OH222529   7.290   7.736   4.929
 7529TIP3    H122530   7.281   7.649   4.891
 7529TIP3    H222531   7.236   7.734   5.008
 7530TIP3   OH222532   2.004   7.005   0.228
 7530TIP3    H122533   2.033   6.984   0.139
 7530TIP3    H222534   2.083   7.036   0.273
 7531TIP3   OH222535   0.150   7.544   6.405
 7531TIP3    H122536   0.219   7.603   6.376
 7531TIP3    H222537   0.142   7.480   6.334
 7532TIP3   OH222538   6.827   4.695   4.543
 7532TIP3    H122539   6.810   4.749   4.621
 7532TIP3    H222540   6.778   4.614   4.559
 7533TIP3   OH222541   4.326   4.820   2.132
 7533TIP3    H122542   4.359   4.730   2.137
 7533TIP3    H222543   4.393   4.872   2.176
 7534TIP3   OH222544   4.649   2.806   0.317
 7534TIP3    H122545   4.630   2.771   0.405
 7534TIP3    H222546   4.731   2.854   0.327
 7535TIP3   OH222547   0.439   5.568   3.591
 7535TIP3    H122548   0.494   5.518   3.531
 7535TIP3    H222549   0.355   5.577   3.546
 7536TIP3   OH222550   1.992   7.409   1.942
 7536TIP3    H122551   2.074   7.404   1.990
 7536TIP3    H222552   1.940   7.474   1.989
 7537TIP3   OH222553   7.152   0.628   1.290
 7537TIP3    H122554   7.195   0.697   1.240
 7537TIP3    H222555   7.223   0.584   1.336
 7538TIP3   OH222556   6.136   4.532   4.806
 7538TIP3    H122557   6.154   4.622   4.833
 7538TIP3    H222558   6.159   4.479   4.882
 7539TIP3   OH222559   4.583   5.056   5.883
 7539TIP3    H122560   4.575   5.150   5.897
 7539TIP3    H222561   4.502   5.031   5.839
 7540TIP3   OH222562   6.263   2.044   0.434
 7540TIP3    H122563   6.300   2.128   0.461
 7540TIP3    H222564   6.237   2.002   0.516
 7541TIP3   OH222565   0.238   6.962   4.870
 7541TIP3    H122566   0.189   6.885   4.900
 7541TIP3    H222567   0.184   6.999   4.800
 7542TIP3   OH222568   6.279   1.765   2.768
 7542TIP3    H122569   6.262   1.715   2.848
 7542TIP3    H222570   6.194   1.769   2.723
 7543TIP3   OH222571   4.892   0.203   6.735
 7543TIP3    H122572   4.876   0.286   6.780
 7543TIP3    H222573   4.941   0.228   6.656
 7544TIP3   OH222574   2.376   5.760   5.921
 7544TIP3    H122575   2.365   5.767   5.826
 7544TIP3    H222576   2.443   5.691   5.931
 7545TIP3   OH222577   0.896   7.011   2.508
 7545TIP3    H122578   0.922   6.948   2.575
 7545TIP3    H222579   0.942   7.092   2.532
 7546TIP3   OH222580   1.204   0.340   0.886
 7546TIP3    H122581   1.209   0.311   0.795
 7546TIP3    H222582   1.256   0.421   0.888
 7547TIP3   OH222583   4.105   7.194   5.793
 7547TIP3    H122584   4.123   7.136   5.866
 7547TIP3    H222585   4.036   7.252   5.824
 7548TIP3   OH222586   0.283   3.754   0.560
 7548TIP3    H122587   0.273   3.710   0.475
 7548TIP3    H222588   0.218   3.713   0.616
 7549TIP3   OH222589   3.128   3.664   4.764
 7549TIP3    H122590   3.178   3.605   4.708
 7549TIP3    H222591   3.047   3.615   4.782
 7550TIP3   OH222592   3.416   5.585   0.253
 7550TIP3    H122593   3.385   5.650   0.316
 7550TIP3    H222594   3.410   5.629   0.168
 7551TIP3   OH222595   6.158   1.681   5.252
 7551TIP3    H122596   6.130   1.706   5.164
 7551TIP3    H222597   6.077   1.659   5.298
 7552TIP3   OH222598   1.084   3.191   0.895
 7552TIP3    H122599   1.162   3.186   0.951
 7552TIP3    H222600   1.048   3.278   0.912
 7553TIP3   OH222601   0.141   1.466   4.097
 7553TIP3    H122602   0.058   1.514   4.103
 7553TIP3    H222603   0.117   1.382   4.059
 7554TIP3   OH222604   2.864   3.034   4.118
 7554TIP3    H122605   2.843   3.097   4.188
 7554TIP3    H222606   2.948   3.064   4.084
 7555TIP3   OH222607   1.830   2.978   3.914
 7555TIP3    H122608   1.835   2.918   3.988
 7555TIP3    H222609   1.874   2.932   3.842
 7556TIP3   OH222610   2.658   4.914   2.633
 7556TIP3    H122611   2.591   4.878   2.576
 7556TIP3    H222612   2.646   5.009   2.628
 7557TIP3   OH222613   4.527   7.436   2.077
 7557TIP3    H122614   4.615   7.431   2.115
 7557TIP3    H222615   4.493   7.347   2.085
 7558TIP3   OH222616   6.641   6.867   4.128
 7558TIP3    H122617   6.642   6.802   4.058
 7558TIP3    H222618   6.640   6.951   4.083
 7559TIP3   OH222619   0.420   2.042   6.580
 7559TIP3    H122620   0.420   1.993   6.498
 7559TIP3    H222621   0.468   2.123   6.559
 7560TIP3   OH222622   2.154   5.398   3.261
 7560TIP3    H122623   2.216   5.326   3.268
 7560TIP3    H222624   2.086   5.366   3.202
 7561TIP3   OH222625   4.538   6.358   1.964
 7561TIP3    H122626   4.501   6.372   1.876
 7561TIP3    H222627   4.465   6.378   2.024
 7562TIP3   OH222628   4.869   7.239   3.449
 7562TIP3    H122629   4.955   7.198   3.445
 7562TIP3    H222630   4.882   7.315   3.507
 7563TIP3   OH222631   6.903   0.764   3.937
 7563TIP3    H122632   6.974   0.705   3.964
 7563TIP3    H222633   6.896   0.750   3.842
 7564TIP3   OH222634   1.982   0.454   5.482
 7564TIP3    H122635   1.905   0.405   5.511
 7564TIP3    H222636   2.055   0.393   5.493
 7565TIP3   OH222637   0.404   1.266   4.136
 7565TIP3    H122638   0.346   1.283   4.063
 7565TIP3    H222639   0.455   1.189   4.110
 7566TIP3   OH222640   7.660   0.562   2.848
 7566TIP3    H122641   7.627   0.571   2.937
 7566TIP3    H222642   7.630   0.476   2.819
 7567TIP3   OH222643   6.288   4.736   0.565
 7567TIP3    H122644   6.310   4.647   0.592
 7567TIP3    H222645   6.280   4.785   0.646
 7568TIP3   OH222646   0.427   2.161   2.187
 7568TIP3    H122647   0.356   2.216   2.222
 7568TIP3    H222648   0.424   2.177   2.093
 7569TIP3   OH222649   3.954   5.271   1.014
 7569TIP3    H122650   4.036   5.244   0.973
 7569TIP3    H222651   3.903   5.191   1.021
 7570TIP3   OH222652   7.142   2.190   0.972
 7570TIP3    H122653   7.174   2.122   0.913
 7570TIP3    H222654   7.076   2.237   0.921
 7571TIP3   OH222655   1.150   0.377   5.135
 7571TIP3    H122656   1.117   0.455   5.180
 7571TIP3    H222657   1.221   0.409   5.080
 7572TIP3   OH222658   5.258   0.136   3.062
 7572TIP3    H122659   5.326   0.189   3.105
 7572TIP3    H222660   5.268   0.049   3.101
 7573TIP3   OH222661   3.550   1.057   0.249
 7573TIP3    H122662   3.628   1.085   0.201
 7573TIP3    H222663   3.481   1.053   0.183
 7574TIP3   OH222664   1.739   1.040   3.306
 7574TIP3    H122665   1.744   1.107   3.373
 7574TIP3    H222666   1.785   0.965   3.343
 7575TIP3   OH222667   3.780   6.436   6.032
 7575TIP3    H122668   3.863   6.430   6.080
 7575TIP3    H222669   3.800   6.493   5.957
 7576TIP3   OH222670   0.941   2.138   2.307
 7576TIP3    H122671   0.921   2.231   2.299
 7576TIP3    H222672   0.859   2.099   2.337
 7577TIP3   OH222673   1.759   4.155   3.552
 7577TIP3    H122674   1.812   4.172   3.474
 7577TIP3    H222675   1.722   4.240   3.576
 7578TIP3   OH222676   3.885   0.581   3.064
 7578TIP3    H122677   3.803   0.541   3.038
 7578TIP3    H222678   3.860   0.660   3.111
 7579TIP3   OH222679   6.431   5.332   6.312
 7579TIP3    H122680   6.512   5.286   6.332
 7579TIP3    H222681   6.427   5.334   6.216
 7580TIP3   OH222682   4.424   6.351   1.206
 7580TIP3    H122683   4.373   6.290   1.151
 7580TIP3    H222684   4.371   6.361   1.285
 7581TIP3   OH222685   5.233   0.100   4.588
 7581TIP3    H122686   5.248   0.009   4.615
 7581TIP3    H222687   5.140   0.105   4.567
 7582TIP3   OH222688   3.639   2.341   3.289
 7582TIP3    H122689   3.651   2.372   3.199
 7582TIP3    H222690   3.707   2.386   3.339
 7583TIP3   OH222691   7.554   5.689   1.865
 7583TIP3    H122692   7.570   5.748   1.938
 7583TIP3    H222693   7.593   5.732   1.790
 7584TIP3   OH222694   1.562   2.036   2.683
 7584TIP3    H122695   1.526   1.988   2.609
 7584TIP3    H222696   1.637   1.984   2.712
 7585TIP3   OH222697   3.099   7.428   0.628
 7585TIP3    H122698   3.087   7.362   0.560
 7585TIP3    H222699   3.015   7.431   0.674
 7586TIP3   OH222700   4.608   2.111   2.128
 7586TIP3    H122701   4.702   2.130   2.138
 7586TIP3    H222702   4.580   2.169   2.057
 7587TIP3   OH222703   6.177   5.564   4.516
 7587TIP3    H122704   6.097   5.575   4.567
 7587TIP3    H222705   6.246   5.555   4.582
 7588TIP3   OH222706   5.898   6.542   0.266
 7588TIP3    H122707   5.953   6.464   0.268
 7588TIP3    H222708   5.841   6.533   0.343
 7589TIP3   OH222709   2.311   6.069   6.503
 7589TIP3    H122710   2.252   6.139   6.531
 7589TIP3    H222711   2.394   6.113   6.486
 7590TIP3   OH222712   5.693   5.654   3.489
 7590TIP3    H122713   5.732   5.741   3.492
 7590TIP3    H222714   5.603   5.667   3.518
 7591TIP3   OH222715   8.039   3.943   3.602
 7591TIP3    H122716   7.955   3.963   3.559
 7591TIP3    H222717   8.105   3.956   3.534
 7592TIP3   OH222718   0.175   6.275   2.094
 7592TIP3    H122719   0.095   6.323   2.074
 7592TIP3    H222720   0.145   6.186   2.115
 7593TIP3   OH222721   3.893   0.691   1.183
 7593TIP3    H122722   3.945   0.735   1.116
 7593TIP3    H222723   3.818   0.748   1.197
 7594TIP3   OH222724   7.484   6.828   5.927
 7594TIP3    H122725   7.536   6.853   5.851
 7594TIP3    H222726   7.471   6.734   5.918
 7595TIP3   OH222727   1.350   1.685   2.837
 7595TIP3    H122728   1.337   1.732   2.755
 7595TIP3    H222729   1.267   1.694   2.884
 7596TIP3   OH222730   6.482   0.701   3.064
 7596TIP3    H122731   6.516   0.681   2.976
 7596TIP3    H222732   6.450   0.791   3.058
 7597TIP3   OH222733   5.307   3.557   5.123
 7597TIP3    H122734   5.222   3.578   5.084
 7597TIP3    H222735   5.367   3.622   5.086
 7598TIP3   OH222736   1.530   0.053   0.226
 7598TIP3    H122737   1.563  -0.011   0.289
 7598TIP3    H222738   1.605   0.077   0.172
 7599TIP3   OH222739   0.932   3.081   6.330
 7599TIP3    H122740   0.861   3.044   6.277
 7599TIP3    H222741   0.923   3.176   6.319
 7600TIP3   OH222742   3.352   0.068   2.708
 7600TIP3    H122743   3.402   0.141   2.671
 7600TIP3    H222744   3.331   0.013   2.632
 7601TIP3   OH222745   7.727   6.880   6.278
 7601TIP3    H122746   7.653   6.819   6.272
 7601TIP3    H222747   7.747   6.903   6.187
 7602TIP3   OH222748   2.898   0.963   2.408
 7602TIP3    H122749   2.894   0.996   2.497
 7602TIP3    H222750   2.991   0.946   2.393
 7603TIP3   OH222751   0.533   1.213   6.111
 7603TIP3    H122752   0.558   1.177   6.196
 7603TIP3    H222753   0.475   1.148   6.073
 7604TIP3   OH222754   4.321   0.763   5.950
 7604TIP3    H122755   4.259   0.690   5.965
 7604TIP3    H222756   4.403   0.732   5.990
 7605TIP3   OH222757   3.480   3.723   1.015
 7605TIP3    H122758   3.451   3.812   1.033
 7605TIP3    H222759   3.532   3.698   1.092
 7606TIP3   OH222760   0.446   1.394   0.356
 7606TIP3    H122761   0.421   1.393   0.448
 7606TIP3    H222762   0.404   1.317   0.318
 7607TIP3   OH222763   4.764   0.913   3.015
 7607TIP3    H122764   4.802   0.985   3.065
 7607TIP3    H222765   4.706   0.955   2.952
 7608TIP3   OH222766   6.505   0.736   1.444
 7608TIP3    H122767   6.462   0.796   1.382
 7608TIP3    H222768   6.507   0.785   1.526
 7609TIP3   OH222769   1.718   1.897   1.320
 7609TIP3    H122770   1.678   1.823   1.275
 7609TIP3    H222771   1.651   1.929   1.380
 7610TIP3   OH222772   3.463   4.612   4.246
 7610TIP3    H122773   3.397   4.550   4.217
 7610TIP3    H222774   3.474   4.594   4.339
 7611TIP3   OH222775   3.527   0.271   5.799
 7611TIP3    H122776   3.572   0.187   5.789
 7611TIP3    H222777   3.522   0.306   5.710
 7612TIP3   OH222778   3.090   4.443   1.147
 7612TIP3    H122779   3.028   4.434   1.076
 7612TIP3    H222780   3.049   4.504   1.208
 7613TIP3   OH222781   7.307   3.005   4.622
 7613TIP3    H122782   7.237   3.052   4.667
 7613TIP3    H222783   7.262   2.937   4.571
 7614TIP3   OH222784   2.759   2.708   1.428
 7614TIP3    H122785   2.716   2.779   1.475
 7614TIP3    H222786   2.723   2.628   1.467
 7615TIP3   OH222787   5.262   4.503   0.951
 7615TIP3    H122788   5.324   4.440   0.988
 7615TIP3    H222789   5.289   4.587   0.989
 7616TIP3   OH222790   7.308   7.550   5.606
 7616TIP3    H122791   7.327   7.586   5.693
 7616TIP3    H222792   7.224   7.590   5.582
 7617TIP3   OH222793   8.063   2.211   1.968
 7617TIP3    H122794   8.115   2.290   1.981
 7617TIP3    H222795   8.095   2.175   1.885
 7618TIP3   OH222796   3.939   3.232   0.982
 7618TIP3    H122797   3.876   3.287   0.936
 7618TIP3    H222798   3.979   3.289   1.047
 7619TIP3   OH222799   1.373   0.070   3.217
 7619TIP3    H122800   1.403   0.147   3.264
 7619TIP3    H222801   1.293   0.098   3.172
 7620TIP3   OH222802   6.578   7.292   1.326
 7620TIP3    H122803   6.587   7.279   1.421
 7620TIP3    H222804   6.518   7.223   1.298
 7621TIP3   OH222805   1.816   6.602   6.465
 7621TIP3    H122806   1.750   6.649   6.516
 7621TIP3    H222807   1.896   6.608   6.517
 7622TIP3   OH222808   5.868   0.377   2.213
 7622TIP3    H122809   5.901   0.369   2.303
 7622TIP3    H222810   5.881   0.290   2.175
 7623TIP3   OH222811   0.422   5.199   5.689
 7623TIP3    H122812   0.509   5.184   5.654
 7623TIP3    H222813   0.403   5.121   5.741
 7624TIP3   OH222814   6.908   7.169   0.257
 7624TIP3    H122815   6.968   7.171   0.331
 7624TIP3    H222816   6.917   7.080   0.221
 7625TIP3   OH222817   2.610   2.666   2.749
 7625TIP3    H122818   2.615   2.585   2.799
 7625TIP3    H222819   2.545   2.648   2.681
 7626TIP3   OH222820   3.728   4.667   5.235
 7626TIP3    H122821   3.775   4.600   5.186
 7626TIP3    H222822   3.674   4.619   5.297
 7627TIP3   OH222823   3.446   6.504   6.417
 7627TIP3    H122824   3.525   6.512   6.364
 7627TIP3    H222825   3.477   6.471   6.501
 7628TIP3   OH222826   3.047   5.300   0.561
 7628TIP3    H122827   3.002   5.217   0.576
 7628TIP3    H222828   3.113   5.304   0.631
 7629TIP3   OH222829   3.352   5.711   0.676
 7629TIP3    H122830   3.287   5.667   0.731
 7629TIP3    H222831   3.416   5.746   0.738
 7630TIP3   OH222832   1.431   4.126   3.422
 7630TIP3    H122833   1.368   4.068   3.379
 7630TIP3    H222834   1.385   4.210   3.430
 7631TIP3   OH222835   1.216   5.836   5.394
 7631TIP3    H122836   1.192   5.926   5.374
 7631TIP3    H222837   1.251   5.839   5.483
 7632TIP3   OH222838   3.095   1.290   4.889
 7632TIP3    H122839   3.098   1.195   4.886
 7632TIP3    H222840   3.162   1.318   4.826
 7633TIP3   OH222841   3.744   1.040   0.061
 7633TIP3    H122842   3.838   1.049   0.047
 7633TIP3    H222843   3.705   1.099  -0.004
 7634TIP3   OH222844   7.320   5.176   4.118
 7634TIP3    H122845   7.382   5.243   4.143
 7634TIP3    H222846   7.352   5.096   4.159
 7635TIP3   OH222847   4.860   7.439   6.322
 7635TIP3    H122848   4.942   7.477   6.291
 7635TIP3    H222849   4.795   7.469   6.258
 7636TIP3   OH222850   7.263   6.496   4.550
 7636TIP3    H122851   7.222   6.479   4.635
 7636TIP3    H222852   7.222   6.433   4.490
 7637TIP3   OH222853   7.848   5.805   0.382
 7637TIP3    H122854   7.859   5.852   0.464
 7637TIP3    H222855   7.930   5.756   0.371
 7638TIP3   OH222856   3.372   0.712   4.283
 7638TIP3    H122857   3.310   0.703   4.211
 7638TIP3    H222858   3.346   0.792   4.328
 7639TIP3   OH222859   4.100   2.928   2.675
 7639TIP3    H122860   4.110   3.023   2.683
 7639TIP3    H222861   4.125   2.894   2.760
 7640TIP3   OH222862   3.497   0.263   0.052
 7640TIP3    H122863   3.502   0.191   0.115
 7640TIP3    H222864   3.462   0.222  -0.027
 7641TIP3   OH222865   6.816   1.527   6.511
 7641TIP3    H122866   6.865   1.499   6.433
 7641TIP3    H222867   6.877   1.515   6.583
 7642TIP3   OH222868   5.715   4.906   4.075
 7642TIP3    H122869   5.677   4.900   3.987
 7642TIP3    H222870   5.752   4.994   4.079
 7643TIP3   OH222871   6.872   3.757   0.013
 7643TIP3    H122872   6.798   3.783  -0.042
 7643TIP3    H222873   6.947   3.803  -0.024
 7644TIP3   OH222874   0.551   2.670   5.076
 7644TIP3    H122875   0.538   2.757   5.115
 7644TIP3    H222876   0.462   2.639   5.059
 7645TIP3   OH222877   0.569   0.264   5.481
 7645TIP3    H122878   0.650   0.274   5.431
 7645TIP3    H222879   0.597   0.231   5.566
 7646TIP3   OH222880   3.138   6.850   5.673
 7646TIP3    H122881   3.101   6.910   5.738
 7646TIP3    H222882   3.063   6.799   5.642
 7647TIP3   OH222883   7.763   5.587   1.049
 7647TIP3    H122884   7.711   5.508   1.060
 7647TIP3    H222885   7.724   5.651   1.108
 7648TIP3   OH222886   5.787   4.934   1.244
 7648TIP3    H122887   5.807   4.881   1.167
 7648TIP3    H222888   5.692   4.943   1.243
 7649TIP3   OH222889   6.743   6.353   3.174
 7649TIP3    H122890   6.723   6.326   3.084
 7649TIP3    H222891   6.775   6.273   3.216
 7650TIP3   OH222892   0.850   6.124   0.176
 7650TIP3    H122893   0.770   6.090   0.136
 7650TIP3    H222894   0.920   6.095   0.118
 7651TIP3   OH222895   6.963   1.826   0.545
 7651TIP3    H122896   6.881   1.824   0.496
 7651TIP3    H222897   7.018   1.888   0.498
 7652TIP3   OH222898   2.413   2.146   6.061
 7652TIP3    H122899   2.422   2.086   6.134
 7652TIP3    H222900   2.488   2.127   6.004
 7653TIP3   OH222901   1.667   5.003   4.657
 7653TIP3    H122902   1.584   5.046   4.679
 7653TIP3    H222903   1.726   5.075   4.635
 7654TIP3   OH222904   7.346   4.441   3.486
 7654TIP3    H122905   7.350   4.416   3.578
 7654TIP3    H222906   7.403   4.517   3.478
 7655TIP3   OH222907   4.021   4.613   5.378
 7655TIP3    H122908   3.938   4.586   5.337
 7655TIP3    H222909   4.065   4.663   5.309
 7656TIP3   OH222910   0.913   2.549   0.397
 7656TIP3    H122911   0.889   2.614   0.462
 7656TIP3    H222912   0.876   2.581   0.315
 7657TIP3   OH222913   2.821   4.842   3.456
 7657TIP3    H122914   2.903   4.834   3.504
 7657TIP3    H222915   2.832   4.923   3.404
 7658TIP3   OH222916   2.380   3.664   3.035
 7658TIP3    H122917   2.353   3.740   2.985
 7658TIP3    H222918   2.398   3.697   3.122
 7659TIP3   OH222919   0.396   2.910   2.852
 7659TIP3    H122920   0.378   2.823   2.815
 7659TIP3    H222921   0.464   2.946   2.795
 7660TIP3   OH222922   5.156   2.080   2.935
 7660TIP3    H122923   5.178   2.098   3.027
 7660TIP3    H222924   5.213   2.007   2.911
 7661TIP3   OH222925   5.202   0.431   2.977
 7661TIP3    H122926   5.284   0.412   3.021
 7661TIP3    H222927   5.208   0.523   2.953
 7662TIP3   OH222928   2.869   0.328   4.786
 7662TIP3    H122929   2.963   0.343   4.783
 7662TIP3    H222930   2.842   0.323   4.694
 7663TIP3   OH222931   8.055   1.642   3.394
 7663TIP3    H122932   8.072   1.683   3.479
 7663TIP3    H222933   8.037   1.550   3.415
 7664TIP3   OH222934   6.839   5.962   2.781
 7664TIP3    H122935   6.863   5.889   2.724
 7664TIP3    H222936   6.760   5.933   2.825
 7665TIP3   OH222937   7.627   5.076   6.484
 7665TIP3    H122938   7.596   5.059   6.395
 7665TIP3    H222939   7.621   5.171   6.494
 7666TIP3   OH222940   6.885   2.041   1.101
 7666TIP3    H122941   6.900   2.006   1.013
 7666TIP3    H222942   6.792   2.066   1.100
 7667TIP3   OH222943   4.519   1.184   5.276
 7667TIP3    H122944   4.439   1.145   5.242
 7667TIP3    H222945   4.510   1.277   5.259
 7668TIP3   OH222946   5.813   1.485   3.444
 7668TIP3    H122947   5.761   1.414   3.407
 7668TIP3    H222948   5.751   1.535   3.498
 7669TIP3   OH222949   6.781   2.947   2.095
 7669TIP3    H122950   6.795   3.003   2.018
 7669TIP3    H222951   6.856   2.964   2.152
 7670TIP3   OH222952   7.315   4.305   6.475
 7670TIP3    H122953   7.292   4.393   6.505
 7670TIP3    H222954   7.340   4.318   6.383
 7671TIP3   OH222955   4.225   1.460   6.071
 7671TIP3    H122956   4.301   1.407   6.045
 7671TIP3    H222957   4.151   1.401   6.060
 7672TIP3   OH222958   4.809   6.554   3.306
 7672TIP3    H122959   4.855   6.525   3.228
 7672TIP3    H222960   4.767   6.475   3.340
 7673TIP3   OH222961   4.762   1.322   4.563
 7673TIP3    H122962   4.819   1.390   4.530
 7673TIP3    H222963   4.715   1.289   4.486
 7674TIP3   OH222964   2.862   6.692   2.428
 7674TIP3    H122965   2.941   6.688   2.375
 7674TIP3    H222966   2.818   6.608   2.413
 7675TIP3   OH222967   4.264   3.881   5.932
 7675TIP3    H122968   4.286   3.948   5.998
 7675TIP3    H222969   4.201   3.824   5.976
 7676TIP3   OH222970   6.424   6.409   2.462
 7676TIP3    H122971   6.493   6.383   2.523
 7676TIP3    H222972   6.347   6.421   2.517
 7677TIP3   OH222973   3.656   2.991   6.807
 7677TIP3    H122974   3.709   2.948   6.739
 7677TIP3    H222975   3.721   3.027   6.868
 7678TIP3   OH222976   1.633   0.155   2.573
 7678TIP3    H122977   1.639   0.241   2.615
 7678TIP3    H222978   1.549   0.157   2.526
 7679TIP3   OH222979   3.947   3.779   3.614
 7679TIP3    H122980   4.017   3.830   3.571
 7679TIP3    H222981   3.965   3.689   3.589
 7680TIP3   OH222982   0.001   2.432   0.288
 7680TIP3    H122983  -0.010   2.337   0.281
 7680TIP3    H222984   0.042   2.445   0.374
 7681TIP3   OH222985   0.105   2.505   1.146
 7681TIP3    H122986   0.015   2.528   1.126
 7681TIP3    H222987   0.155   2.584   1.127
 7682TIP3   OH222988   0.121   3.278   0.242
 7682TIP3    H122989   0.052   3.312   0.299
 7682TIP3    H222990   0.159   3.205   0.291
 7683TIP3   OH222991   6.584   5.934   2.984
 7683TIP3    H122992   6.587   5.840   2.997
 7683TIP3    H222993   6.496   5.951   2.949
 7684TIP3   OH222994   2.276   6.457   3.206
 7684TIP3    H122995   2.300   6.371   3.171
 7684TIP3    H222996   2.272   6.443   3.301
 7685TIP3   OH222997   5.338   3.909   3.760
 7685TIP3    H122998   5.302   3.823   3.735
 7685TIP3    H222999   5.285   3.972   3.711
 7686TIP3   OH223000   1.294   1.704   0.502
 7686TIP3    H123001   1.275   1.778   0.559
 7686TIP3    H223002   1.294   1.628   0.560
 7687TIP3   OH223003   7.979   1.058   1.519
 7687TIP3    H123004   7.965   1.140   1.473
 7687TIP3    H223005   8.026   1.002   1.457
 7688TIP3   OH223006   3.248   3.787   6.239
 7688TIP3    H123007   3.301   3.856   6.199
 7688TIP3    H223008   3.158   3.816   6.225
 7689TIP3   OH223009   2.397   2.364   6.589
 7689TIP3    H123010   2.397   2.429   6.519
 7689TIP3    H223011   2.345   2.291   6.554
 7690TIP3   OH223012   1.534   1.934   6.551
 7690TIP3    H123013   1.573   1.986   6.621
 7690TIP3    H223014   1.444   1.921   6.579
 7691TIP3   OH223015   4.868   3.949   5.673
 7691TIP3    H123016   4.819   3.970   5.753
 7691TIP3    H223017   4.811   3.889   5.625
 7692TIP3   OH223018   2.053   4.001   3.779
 7692TIP3    H123019   2.024   4.028   3.866
 7692TIP3    H223020   1.992   3.932   3.754
 7693TIP3   OH223021   5.546   4.232   1.967
 7693TIP3    H123022   5.536   4.179   2.047
 7693TIP3    H223023   5.538   4.323   1.998
 7694TIP3   OH223024   1.998   5.864   3.417
 7694TIP3    H123025   1.914   5.869   3.371
 7694TIP3    H223026   2.048   5.800   3.367
 7695TIP3   OH223027   1.569   7.733   3.942
 7695TIP3    H123028   1.623   7.812   3.935
 7695TIP3    H223029   1.539   7.733   4.033
 7696TIP3   OH223030   5.669   7.022   3.068
 7696TIP3    H123031   5.603   7.015   2.999
 7696TIP3    H223032   5.712   7.106   3.052
 7697TIP3   OH223033   1.977   3.201   1.349
 7697TIP3    H123034   2.015   3.227   1.432
 7697TIP3    H223035   1.883   3.195   1.367
 7698TIP3   OH223036   3.779   4.683   3.040
 7698TIP3    H123037   3.769   4.683   3.136
 7698TIP3    H223038   3.848   4.747   3.023
 7699TIP3   OH223039   2.469   4.782   2.457
 7699TIP3    H123040   2.377   4.797   2.436
 7699TIP3    H223041   2.477   4.687   2.468
 7700TIP3   OH223042   0.149   2.637   2.390
 7700TIP3    H123043   0.137   2.718   2.440
 7700TIP3    H223044   0.235   2.606   2.416
 7701TIP3   OH223045   3.844   7.389   6.176
 7701TIP3    H123046   3.930   7.425   6.151
 7701TIP3    H223047   3.825   7.325   6.107
 7702TIP3   OH223048   7.790   0.350   1.278
 7702TIP3    H123049   7.724   0.309   1.221
 7702TIP3    H223050   7.789   0.442   1.251
 7703TIP3   OH223051   0.742   3.875   2.221
 7703TIP3    H123052   0.823   3.920   2.242
 7703TIP3    H223053   0.758   3.836   2.135
 7704TIP3   OH223054   0.444   4.342   0.931
 7704TIP3    H123055   0.445   4.328   0.836
 7704TIP3    H223056   0.504   4.415   0.945
 7705TIP3   OH223057   2.226   4.427   1.376
 7705TIP3    H123058   2.228   4.474   1.293
 7705TIP3    H223059   2.318   4.408   1.395
 7706TIP3   OH223060   1.029   7.239   0.189
 7706TIP3    H123061   1.119   7.208   0.199
 7706TIP3    H223062   1.038   7.332   0.172
 7707TIP3   OH223063   0.103   1.324   0.948
 7707TIP3    H123064   0.023   1.371   0.924
 7707TIP3    H223065   0.169   1.392   0.959
 7708TIP3   OH223066   2.974   0.705   1.401
 7708TIP3    H123067   3.042   0.772   1.398
 7708TIP3    H223068   3.018   0.629   1.440
 7709TIP3   OH223069   4.832   0.417   6.491
 7709TIP3    H123070   4.891   0.342   6.497
 7709TIP3    H223071   4.796   0.426   6.580
 7710TIP3   OH223072   3.919   0.496   4.620
 7710TIP3    H123073   3.902   0.447   4.540
 7710TIP3    H223074   3.926   0.429   4.688
 7711TIP3   OH223075   7.909   0.263   2.699
 7711TIP3    H123076   7.896   0.168   2.691
 7711TIP3    H223077   7.906   0.279   2.793
 7712TIP3   OH223078   4.067   1.805   0.146
 7712TIP3    H123079   4.022   1.816   0.062
 7712TIP3    H223080   4.080   1.894   0.178
 7713TIP3   OH223081   4.341   4.756   0.507
 7713TIP3    H123082   4.286   4.764   0.585
 7713TIP3    H223083   4.429   4.780   0.537
 7714TIP3   OH223084   4.458   7.178   3.230
 7714TIP3    H123085   4.490   7.268   3.225
 7714TIP3    H223086   4.501   7.142   3.307
 7715TIP3   OH223087   0.178   1.016   2.553
 7715TIP3    H123088   0.110   1.052   2.496
 7715TIP3    H223089   0.251   1.078   2.546
 7716TIP3   OH223090   3.954   0.915   6.625
 7716TIP3    H123091   3.891   0.979   6.657
 7716TIP3    H223092   3.900   0.841   6.595
 7717TIP3   OH223093   0.976   3.577   5.911
 7717TIP3    H123094   0.963   3.626   5.992
 7717TIP3    H223095   1.012   3.493   5.940
 7718TIP3   OH223096   4.129   7.045   6.141
 7718TIP3    H123097   4.113   7.112   6.208
 7718TIP3    H223098   4.074   6.972   6.167
 7719TIP3   OH223099   3.324   1.068   2.628
 7719TIP3    H123100   3.273   1.143   2.599
 7719TIP3    H223101   3.360   1.095   2.713
 7720TIP3   OH223102   0.229   0.143   5.597
 7720TIP3    H123103   0.135   0.147   5.579
 7720TIP3    H223104   0.270   0.175   5.517
 7721TIP3   OH223105   1.371   5.602   2.181
 7721TIP3    H123106   1.439   5.620   2.247
 7721TIP3    H223107   1.395   5.657   2.107
 7722TIP3   OH223108   4.103   1.905   4.456
 7722TIP3    H123109   4.041   1.833   4.467
 7722TIP3    H223110   4.067   1.976   4.510
 7723TIP3   OH223111   5.326   2.968   4.172
 7723TIP3    H123112   5.252   3.028   4.178
 7723TIP3    H223113   5.384   3.008   4.107
 7724TIP3   OH223114   2.859   0.902   6.343
 7724TIP3    H123115   2.804   0.931   6.415
 7724TIP3    H223116   2.943   0.946   6.358
 7725TIP3   OH223117   1.424   4.219   6.287
 7725TIP3    H123118   1.495   4.263   6.240
 7725TIP3    H223119   1.392   4.154   6.226
 7726TIP3   OH223120   6.498   3.617   5.446
 7726TIP3    H123121   6.478   3.524   5.437
 7726TIP3    H223122   6.545   3.639   5.365
 7727TIP3   OH223123   4.698   2.069   6.317
 7727TIP3    H123124   4.685   1.987   6.270
 7727TIP3    H223125   4.756   2.047   6.389
 7728TIP3   OH223126   3.001   3.078   2.272
 7728TIP3    H123127   3.043   2.995   2.246
 7728TIP3    H223128   2.935   3.093   2.204
 7729TIP3   OH223129   0.190   1.486   3.310
 7729TIP3    H123130   0.263   1.430   3.338
 7729TIP3    H223131   0.230   1.549   3.251
 7730TIP3   OH223132   4.027   4.801   3.238
 7730TIP3    H123133   4.024   4.829   3.146
 7730TIP3    H223134   3.985   4.872   3.286
 7731TIP3   OH223135   6.060   2.443   4.215
 7731TIP3    H123136   6.101   2.514   4.264
 7731TIP3    H223137   6.056   2.370   4.277
 7732TIP3   OH223138   5.063   2.763   3.992
 7732TIP3    H123139   5.058   2.793   4.082
 7732TIP3    H223140   4.971   2.754   3.965
 7733TIP3   OH223141   1.235   6.941   1.405
 7733TIP3    H123142   1.237   7.019   1.460
 7733TIP3    H223143   1.216   6.974   1.318
 7734TIP3   OH223144   4.527   0.877   4.926
 7734TIP3    H123145   4.469   0.802   4.936
 7734TIP3    H223146   4.595   0.847   4.865
 7735TIP3   OH223147   0.005   4.321   6.032
 7735TIP3    H123148  -0.008   4.397   6.090
 7735TIP3    H223149   0.064   4.353   5.964
 7736TIP3   OH223150   7.075   7.184   1.049
 7736TIP3    H123151   7.122   7.261   1.017
 7736TIP3    H223152   6.984   7.213   1.056
 7737TIP3   OH223153   7.234   2.808   3.689
 7737TIP3    H123154   7.211   2.715   3.689
 7737TIP3    H223155   7.185   2.845   3.763
 7738TIP3   OH223156   0.857   5.232   3.045
 7738TIP3    H123157   0.791   5.285   3.089
 7738TIP3    H223158   0.882   5.283   2.968
 7739TIP3   OH223159   6.663   6.445   2.629
 7739TIP3    H123160   6.706   6.523   2.593
 7739TIP3    H223161   6.735   6.393   2.666
 7740TIP3   OH223162   2.851   4.174   0.330
 7740TIP3    H123163   2.902   4.241   0.377
 7740TIP3    H223164   2.778   4.155   0.388
 7741TIP3   OH223165   5.270   5.206   2.976
 7741TIP3    H123166   5.298   5.258   2.901
 7741TIP3    H223167   5.256   5.118   2.942
 7742TIP3   OH223168   5.266   1.099   0.038
 7742TIP3    H123169   5.188   1.133  -0.007
 7742TIP3    H223170   5.322   1.176   0.050
 7743TIP3   OH223171   5.019   5.052   5.332
 7743TIP3    H123172   4.932   5.073   5.299
 7743TIP3    H223173   5.003   4.995   5.407
 7744TIP3   OH223174   7.792   0.211   5.029
 7744TIP3    H123175   7.884   0.183   5.030
 7744TIP3    H223176   7.765   0.201   4.937
 7745TIP3   OH223177   4.072   3.412   2.262
 7745TIP3    H123178   4.038   3.432   2.175
 7745TIP3    H223179   4.115   3.326   2.252
 7746TIP3   OH223180   5.763   3.922   2.826
 7746TIP3    H123181   5.833   3.929   2.891
 7746TIP3    H223182   5.804   3.878   2.751
 7747TIP3   OH223183   6.075   3.154   2.788
 7747TIP3    H123184   6.105   3.245   2.788
 7747TIP3    H223185   6.109   3.119   2.706
 7748TIP3   OH223186   5.664   2.354   4.869
 7748TIP3    H123187   5.617   2.397   4.941
 7748TIP3    H223188   5.649   2.260   4.883
 7749TIP3   OH223189   7.343   0.333   0.558
 7749TIP3    H123190   7.280   0.275   0.602
 7749TIP3    H223191   7.379   0.387   0.629
 7750TIP3   OH223192   5.406   4.551   3.675
 7750TIP3    H123193   5.319   4.513   3.679
 7750TIP3    H223194   5.405   4.606   3.596
 7751TIP3   OH223195   0.134   3.718   0.051
 7751TIP3    H123196   0.211   3.728  -0.005
 7751TIP3    H223197   0.062   3.702  -0.011
 7752TIP3   OH223198   5.600   6.771   6.589
 7752TIP3    H123199   5.599   6.866   6.601
 7752TIP3    H223200   5.657   6.756   6.514
 7753TIP3   OH223201   2.029   5.528   5.524
 7753TIP3    H123202   1.973   5.460   5.561
 7753TIP3    H223203   2.007   5.607   5.573
 7754TIP3   OH223204   4.867   5.660   5.886
 7754TIP3    H123205   4.934   5.689   5.824
 7754TIP3    H223206   4.886   5.709   5.966
 7755TIP3   OH223207   2.393   3.469   3.747
 7755TIP3    H123208   2.316   3.526   3.743
 7755TIP3    H223209   2.358   3.383   3.768
 7756TIP3   OH223210   7.664   0.776   1.912
 7756TIP3    H123211   7.711   0.771   1.996
 7756TIP3    H223212   7.603   0.703   1.914
 7757TIP3   OH223213   2.212   3.367   4.656
 7757TIP3    H123214   2.184   3.279   4.629
 7757TIP3    H223215   2.252   3.404   4.578
 7758TIP3   OH223216   1.264   5.707   4.430
 7758TIP3    H123217   1.319   5.671   4.499
 7758TIP3    H223218   1.313   5.783   4.397
 7759TIP3   OH223219   1.639   6.732   5.946
 7759TIP3    H123220   1.656   6.674   5.871
 7759TIP3    H223221   1.544   6.734   5.954
 7760TIP3   OH223222   5.881   4.528   2.371
 7760TIP3    H123223   5.863   4.437   2.351
 7760TIP3    H223224   5.799   4.574   2.350
 7761TIP3   OH223225   4.103   6.202   5.880
 7761TIP3    H123226   4.020   6.185   5.835
 7761TIP3    H223227   4.151   6.120   5.872
 7762TIP3   OH223228   2.743   6.627   5.105
 7762TIP3    H123229   2.823   6.642   5.054
 7762TIP3    H223230   2.753   6.683   5.182
 7763TIP3   OH223231   2.064   0.350   5.894
 7763TIP3    H123232   2.015   0.276   5.930
 7763TIP3    H223233   2.128   0.371   5.962
 7764TIP3   OH223234   7.080   1.706   4.089
 7764TIP3    H123235   7.159   1.674   4.045
 7764TIP3    H223236   7.061   1.639   4.155
 7765TIP3   OH223237   1.082   3.339   1.878
 7765TIP3    H123238   1.064   3.303   1.965
 7765TIP3    H223239   1.170   3.309   1.857
 7766TIP3   OH223240   4.205   2.825   5.813
 7766TIP3    H123241   4.283   2.774   5.833
 7766TIP3    H223242   4.235   2.916   5.812
 7767TIP3   OH223243   3.364   0.171   6.216
 7767TIP3    H123244   3.401   0.260   6.217
 7767TIP3    H223245   3.411   0.127   6.144
 7768TIP3   OH223246   0.628   5.784   0.065
 7768TIP3    H123247   0.724   5.786   0.071
 7768TIP3    H223248   0.608   5.850  -0.002
 7769TIP3   OH223249   3.594   7.288   2.540
 7769TIP3    H123250   3.602   7.383   2.533
 7769TIP3    H223251   3.681   7.259   2.566
 7770TIP3   OH223252  -0.011   6.442   4.020
 7770TIP3    H123253   0.053   6.393   4.072
 7770TIP3    H223254   0.000   6.409   3.931
 7771TIP3   OH223255   4.120   7.069   5.221
 7771TIP3    H123256   4.117   7.007   5.293
 7771TIP3    H223257   4.035   7.059   5.178
 7772TIP3   OH223258   4.643   4.774   5.072
 7772TIP3    H123259   4.569   4.825   5.105
 7772TIP3    H223260   4.694   4.837   5.021
 7773TIP3   OH223261   0.243   5.432   1.932
 7773TIP3    H123262   0.176   5.406   1.995
 7773TIP3    H223263   0.215   5.519   1.902
 7774TIP3   OH223264   5.410   6.042   5.713
 7774TIP3    H123265   5.480   5.988   5.676
 7774TIP3    H223266   5.347   5.978   5.748
 7775TIP3   OH223267   6.253   7.370   3.930
 7775TIP3    H123268   6.240   7.437   3.864
 7775TIP3    H223269   6.166   7.354   3.966
 7776TIP3   OH223270   0.475   6.847   3.756
 7776TIP3    H123271   0.464   6.774   3.817
 7776TIP3    H223272   0.399   6.902   3.770
 7777TIP3   OH223273   2.945   4.716   1.271
 7777TIP3    H123274   2.856   4.746   1.250
 7777TIP3    H223275   2.931   4.645   1.334
 7778TIP3   OH223276   6.736   1.647   5.063
 7778TIP3    H123277   6.817   1.597   5.075
 7778TIP3    H223278   6.701   1.659   5.151
 7779TIP3   OH223279   4.285   5.160   2.066
 7779TIP3    H123280   4.313   5.086   2.121
 7779TIP3    H223281   4.345   5.158   1.992
 7780TIP3   OH223282   1.842   2.084   5.407
 7780TIP3    H123283   1.772   2.106   5.469
 7780TIP3    H223284   1.822   1.995   5.379
 7781TIP3   OH223285   3.900   7.239   0.939
 7781TIP3    H123286   3.818   7.203   0.905
 7781TIP3    H223287   3.939   7.167   0.988
 7782TIP3   OH223288   5.061   5.447   4.820
 7782TIP3    H123289   4.973   5.445   4.783
 7782TIP3    H223290   5.096   5.532   4.793
 7783TIP3   OH223291   1.172   3.214   3.942
 7783TIP3    H123292   1.241   3.148   3.940
 7783TIP3    H223293   1.099   3.171   3.985
 7784TIP3   OH223294   4.073   5.270   0.167
 7784TIP3    H123295   4.092   5.314   0.085
 7784TIP3    H223296   4.065   5.178   0.144
 7785TIP3   OH223297   2.790   2.300   3.427
 7785TIP3    H123298   2.733   2.232   3.462
 7785TIP3    H223299   2.835   2.337   3.503
 7786TIP3   OH223300   7.987   3.165   2.286
 7786TIP3    H123301   8.032   3.216   2.353
 7786TIP3    H223302   8.022   3.199   2.203
 7787TIP3   OH223303   3.437   2.314   2.011
 7787TIP3    H123304   3.389   2.385   1.968
 7787TIP3    H223305   3.380   2.238   2.004
 7788TIP3   OH223306   5.709   5.468   5.475
 7788TIP3    H123307   5.800   5.466   5.444
 7788TIP3    H223308   5.715   5.444   5.568
 7789TIP3   OH223309   3.970   4.183   2.807
 7789TIP3    H123310   3.980   4.177   2.712
 7789TIP3    H223311   3.965   4.276   2.825
 7790TIP3   OH223312   4.495   4.298   5.982
 7790TIP3    H123313   4.422   4.359   5.970
 7790TIP3    H223314   4.521   4.273   5.894
 7791TIP3   OH223315   3.244   3.184   1.261
 7791TIP3    H123316   3.322   3.131   1.273
 7791TIP3    H223317   3.270   3.272   1.288
 7792TIP3   OH223318   6.420   3.182   3.015
 7792TIP3    H123319   6.510   3.168   3.045
 7792TIP3    H223320   6.426   3.255   2.954
 7793TIP3   OH223321   2.013   7.070   1.777
 7793TIP3    H123322   2.049   7.145   1.730
 7793TIP3    H223323   2.083   7.043   1.836
 7794TIP3   OH223324   1.899   2.457   4.023
 7794TIP3    H123325   1.867   2.462   4.113
 7794TIP3    H223326   1.830   2.411   3.975
 7795TIP3   OH223327   4.749   6.381   6.219
 7795TIP3    H123328   4.782   6.395   6.130
 7795TIP3    H223329   4.671   6.328   6.208
 7796TIP3   OH223330   0.819   2.773   3.659
 7796TIP3    H123331   0.740   2.719   3.656
 7796TIP3    H223332   0.811   2.831   3.584
 7797TIP3   OH223333   7.605   7.186   5.858
 7797TIP3    H123334   7.540   7.251   5.832
 7797TIP3    H223335   7.673   7.192   5.791
 7798TIP3   OH223336   2.619   0.511   0.561
 7798TIP3    H123337   2.644   0.460   0.484
 7798TIP3    H223338   2.660   0.596   0.547
 7799TIP3   OH223339   1.372   1.924   2.017
 7799TIP3    H123340   1.460   1.951   1.991
 7799TIP3    H223341   1.339   1.874   1.942
 7800TIP3   OH223342   4.298   4.004   4.290
 7800TIP3    H123343   4.274   3.960   4.372
 7800TIP3    H223344   4.362   3.945   4.249
 7801TIP3   OH223345   4.215   7.697   3.555
 7801TIP3    H123346   4.262   7.659   3.630
 7801TIP3    H223347   4.161   7.766   3.594
 7802TIP3   OH223348   6.863   1.517   0.308
 7802TIP3    H123349   6.832   1.607   0.314
 7802TIP3    H223350   6.855   1.481   0.396
 7803TIP3   OH223351   7.500   5.140   3.068
 7803TIP3    H123352   7.520   5.215   3.123
 7803TIP3    H223353   7.419   5.163   3.024
 7804TIP3   OH223354   5.580   7.608   3.453
 7804TIP3    H123355   5.526   7.633   3.378
 7804TIP3    H223356   5.638   7.683   3.466
 7805TIP3   OH223357   5.252   5.217   5.878
 7805TIP3    H123358   5.336   5.190   5.842
 7805TIP3    H223359   5.197   5.139   5.871
 7806TIP3   OH223360   2.482   2.851   3.899
 7806TIP3    H123361   2.559   2.800   3.874
 7806TIP3    H223362   2.476   2.839   3.994
 7807TIP3   OH223363   7.854   1.925   1.544
 7807TIP3    H123364   7.881   1.835   1.566
 7807TIP3    H223365   7.782   1.913   1.482
 7808TIP3   OH223366   0.953   4.695   3.988
 7808TIP3    H123367   0.961   4.773   3.934
 7808TIP3    H223368   0.870   4.705   4.034
 7809TIP3   OH223369   6.474   2.937   0.244
 7809TIP3    H123370   6.394   2.890   0.222
 7809TIP3    H223371   6.545   2.876   0.225
 7810TIP3   OH223372   2.945   3.692   0.129
 7810TIP3    H123373   3.015   3.640   0.089
 7810TIP3    H223374   2.941   3.771   0.075
 7811TIP3   OH223375   6.571   0.551   1.915
 7811TIP3    H123376   6.586   0.498   1.994
 7811TIP3    H223377   6.614   0.502   1.845
 7812TIP3   OH223378   0.249   4.922   0.783
 7812TIP3    H123379   0.330   4.900   0.737
 7812TIP3    H223380   0.271   4.913   0.876
 7813TIP3   OH223381   5.696   5.460   1.651
 7813TIP3    H123382   5.698   5.501   1.565
 7813TIP3    H223383   5.643   5.381   1.639
 7814TIP3   OH223384   2.767   4.951   0.038
 7814TIP3    H123385   2.856   4.918   0.029
 7814TIP3    H223386   2.772   5.042   0.008
 7815TIP3   OH223387   1.960   7.434   1.476
 7815TIP3    H123388   2.037   7.390   1.512
 7815TIP3    H223389   1.938   7.502   1.540
 7816TIP3   OH223390   1.331   2.753   5.601
 7816TIP3    H123391   1.244   2.787   5.622
 7816TIP3    H223392   1.342   2.769   5.507
 7817TIP3   OH223393   1.822   5.482   5.215
 7817TIP3    H123394   1.777   5.564   5.236
 7817TIP3    H223395   1.914   5.499   5.237
 7818TIP3   OH223396   6.528   2.323   3.707
 7818TIP3    H123397   6.609   2.274   3.691
 7818TIP3    H223398   6.546   2.410   3.672
 7819TIP3   OH223399   8.113   6.899   4.006
 7819TIP3    H123400   8.188   6.937   3.961
 7819TIP3    H223401   8.145   6.818   4.044
 7820TIP3   OH223402   1.197   4.120   3.683
 7820TIP3    H123403   1.210   4.184   3.753
 7820TIP3    H223404   1.163   4.172   3.610
 7821TIP3   OH223405   7.384   2.173   0.114
 7821TIP3    H123406   7.402   2.079   0.106
 7821TIP3    H223407   7.459   2.207   0.163
 7822TIP3   OH223408   2.257   7.186   6.091
 7822TIP3    H123409   2.255   7.143   6.177
 7822TIP3    H223410   2.172   7.167   6.053
 7823TIP3   OH223411   4.501   4.931   5.219
 7823TIP3    H123412   4.527   4.966   5.304
 7823TIP3    H223413   4.417   4.889   5.235
 7824TIP3   OH223414   6.624   2.606   4.767
 7824TIP3    H123415   6.634   2.695   4.802
 7824TIP3    H223416   6.678   2.606   4.688
 7825TIP3   OH223417   0.876   6.264   3.601
 7825TIP3    H123418   0.788   6.281   3.636
 7825TIP3    H223419   0.862   6.241   3.510
 7826TIP3   OH223420   0.229   5.907   4.781
 7826TIP3    H123421   0.142   5.923   4.817
 7826TIP3    H223422   0.212   5.872   4.693
 7827TIP3   OH223423   7.722   4.673   2.661
 7827TIP3    H123424   7.677   4.745   2.706
 7827TIP3    H223425   7.652   4.613   2.636
 7828TIP3   OH223426   2.819   4.513   6.056
 7828TIP3    H123427   2.859   4.456   5.990
 7828TIP3    H223428   2.841   4.602   6.027
 7829TIP3   OH223429   3.417   0.133   3.499
 7829TIP3    H123430   3.378   0.088   3.424
 7829TIP3    H223431   3.503   0.161   3.468
 7830TIP3   OH223432   5.362   3.290   5.056
 7830TIP3    H123433   5.323   3.373   5.085
 7830TIP3    H223434   5.456   3.303   5.066
 7831TIP3   OH223435   3.508   2.093   0.830
 7831TIP3    H123436   3.538   2.074   0.919
 7831TIP3    H223437   3.483   2.008   0.794
 7832TIP3   OH223438   2.470   4.630   3.275
 7832TIP3    H123439   2.551   4.667   3.239
 7832TIP3    H223440   2.463   4.667   3.363
 7833TIP3   OH223441   3.926   2.339   0.134
 7833TIP3    H123442   3.924   2.431   0.162
 7833TIP3    H223443   3.925   2.343   0.038
 7834TIP3   OH223444   1.076   5.659   0.174
 7834TIP3    H123445   1.002   5.609   0.210
 7834TIP3    H223446   1.104   5.610   0.097
 7835TIP3   OH223447   0.059   3.032   5.894
 7835TIP3    H123448   0.115   3.030   5.971
 7835TIP3    H223449   0.000   2.958   5.905
 7836TIP3   OH223450   1.176   7.418   1.951
 7836TIP3    H123451   1.256   7.450   1.994
 7836TIP3    H223452   1.179   7.458   1.864
 7837TIP3   OH223453   3.666   3.513   3.226
 7837TIP3    H123454   3.628   3.434   3.265
 7837TIP3    H223455   3.652   3.502   3.132
 7838TIP3   OH223456   0.170   4.827   2.065
 7838TIP3    H123457   0.258   4.857   2.087
 7838TIP3    H223458   0.112   4.888   2.110
 7839TIP3   OH223459   7.138   5.641   1.758
 7839TIP3    H123460   7.103   5.573   1.699
 7839TIP3    H223461   7.078   5.640   1.832
 7840TIP3   OH223462   4.108   7.648   2.080
 7840TIP3    H123463   4.074   7.717   2.138
 7840TIP3    H223464   4.199   7.637   2.106
 7841TIP3   OH223465   2.779   4.416   3.997
 7841TIP3    H123466   2.805   4.382   4.083
 7841TIP3    H223467   2.862   4.436   3.953
 7842TIP3   OH223468   8.244   3.542   6.081
 7842TIP3    H123469   8.230   3.451   6.054
 7842TIP3    H223470   8.231   3.593   6.001
 7843TIP3   OH223471   0.598   3.227   6.764
 7843TIP3    H123472   0.575   3.209   6.673
 7843TIP3    H223473   0.620   3.320   6.766
 7844TIP3   OH223474   6.720   2.134   3.629
 7844TIP3    H123475   6.670   2.065   3.585
 7844TIP3    H223476   6.795   2.149   3.571
 7845TIP3   OH223477   5.147   0.048   0.543
 7845TIP3    H123478   5.168   0.141   0.539
 7845TIP3    H223479   5.221   0.008   0.590
 7846TIP3   OH223480   7.695   0.370   2.533
 7846TIP3    H123481   7.769   0.346   2.588
 7846TIP3    H223482   7.623   0.385   2.594
 7847TIP3   OH223483   4.321   6.411   2.118
 7847TIP3    H123484   4.232   6.379   2.131
 7847TIP3    H223485   4.312   6.506   2.117
 7848TIP3   OH223486   3.859   1.833   1.094
 7848TIP3    H123487   3.793   1.807   1.030
 7848TIP3    H223488   3.943   1.811   1.053
 7849TIP3   OH223489   4.808   7.397   5.000
 7849TIP3    H123490   4.799   7.371   4.908
 7849TIP3    H223491   4.890   7.446   5.003
 7850TIP3   OH223492   3.320   4.429   0.902
 7850TIP3    H123493   3.234   4.387   0.888
 7850TIP3    H223494   3.326   4.495   0.833
 7851TIP3   OH223495   4.475   0.097   5.228
 7851TIP3    H123496   4.395   0.127   5.270
 7851TIP3    H223497   4.515   0.176   5.193
 7852TIP3   OH223498   1.534   4.785   5.047
 7852TIP3    H123499   1.566   4.773   5.136
 7852TIP3    H223500   1.542   4.879   5.031
 7853TIP3   OH223501   0.343   6.428   5.133
 7853TIP3    H123502   0.284   6.365   5.091
 7853TIP3    H223503   0.401   6.374   5.187
 7854TIP3   OH223504   8.120   6.610   6.075
 7854TIP3    H123505   8.036   6.584   6.035
 7854TIP3    H223506   8.186   6.586   6.010
 7855TIP3   OH223507   1.266   5.311   4.056
 7855TIP3    H123508   1.233   5.363   3.983
 7855TIP3    H223509   1.244   5.362   4.134
 7856TIP3   OH223510   3.360   5.082   4.086
 7856TIP3    H123511   3.363   5.087   3.990
 7856TIP3    H223512   3.424   5.014   4.108
 7857TIP3   OH223513   2.430   3.642   1.695
 7857TIP3    H123514   2.416   3.552   1.724
 7857TIP3    H223515   2.388   3.647   1.609
 7858TIP3   OH223516   1.119   3.637   3.417
 7858TIP3    H123517   1.054   3.567   3.425
 7858TIP3    H223518   1.158   3.642   3.504
 7859TIP3   OH223519   3.861   6.652   2.510
 7859TIP3    H123520   3.811   6.646   2.428
 7859TIP3    H223521   3.800   6.693   2.571
 7860TIP3   OH223522   1.426   5.902   4.788
 7860TIP3    H123523   1.509   5.923   4.747
 7860TIP3    H223524   1.367   5.974   4.764
 7861TIP3   OH223525   4.043   4.071   2.530
 7861TIP3    H123526   4.084   4.156   2.517
 7861TIP3    H223527   4.086   4.014   2.466
 7862TIP3   OH223528   8.091   3.453   1.178
 7862TIP3    H123529   8.098   3.472   1.271
 7862TIP3    H223530   8.174   3.412   1.155
 7863TIP3   OH223531   6.109   6.699   5.184
 7863TIP3    H123532   6.143   6.618   5.146
 7863TIP3    H223533   6.145   6.702   5.273
 7864TIP3   OH223534   5.485   6.174   0.457
 7864TIP3    H123535   5.521   6.185   0.545
 7864TIP3    H223536   5.435   6.093   0.461
 7865TIP3   OH223537   6.078   5.871   1.397
 7865TIP3    H123538   6.015   5.943   1.387
 7865TIP3    H223539   6.148   5.892   1.335
 7866TIP3   OH223540   3.621   7.299   0.788
 7866TIP3    H123541   3.533   7.334   0.773
 7866TIP3    H223542   3.674   7.377   0.807
 7867TIP3   OH223543   1.590   2.681   2.814
 7867TIP3    H123544   1.523   2.749   2.814
 7867TIP3    H223545   1.547   2.604   2.777
 7868TIP3   OH223546   3.969   2.790   4.679
 7868TIP3    H123547   3.931   2.725   4.738
 7868TIP3    H223548   3.956   2.754   4.591
 7869TIP3   OH223549   6.848   0.164   3.602
 7869TIP3    H123550   6.880   0.160   3.692
 7869TIP3    H223551   6.764   0.117   3.605
 7870TIP3   OH223552   2.892   4.998   2.351
 7870TIP3    H123553   2.873   5.084   2.390
 7870TIP3    H223554   2.895   5.015   2.257
 7871TIP3   OH223555   2.831   0.367   5.732
 7871TIP3    H123556   2.783   0.427   5.789
 7871TIP3    H223557   2.910   0.345   5.781
 7872TIP3   OH223558   1.039   7.564   4.454
 7872TIP3    H123559   0.946   7.541   4.450
 7872TIP3    H223560   1.040   7.659   4.452
 7873TIP3   OH223561   6.335   2.674   3.955
 7873TIP3    H123562   6.275   2.687   3.881
 7873TIP3    H223563   6.353   2.580   3.955
 7874TIP3   OH223564   4.930   2.200   6.772
 7874TIP3    H123565   4.866   2.153   6.719
 7874TIP3    H223566   4.944   2.144   6.848
 7875TIP3   OH223567   6.861   2.943   0.170
 7875TIP3    H123568   6.797   2.999   0.127
 7875TIP3    H223569   6.926   3.005   0.206
 7876TIP3   OH223570   2.704   3.106   5.024
 7876TIP3    H123571   2.792   3.125   4.991
 7876TIP3    H223572   2.714   3.026   5.076
 7877TIP3   OH223573   5.712   4.408   3.145
 7877TIP3    H123574   5.660   4.347   3.199
 7877TIP3    H223575   5.657   4.425   3.069
 7878TIP3   OH223576   4.555   0.284   0.900
 7878TIP3    H123577   4.588   0.370   0.926
 7878TIP3    H223578   4.586   0.224   0.969
 7879TIP3   OH223579   5.889   4.964   4.846
 7879TIP3    H123580   5.898   4.874   4.813
 7879TIP3    H223581   5.898   5.019   4.769
 7880TIP3   OH223582   2.491   4.957   2.035
 7880TIP3    H123583   2.536   4.926   1.957
 7880TIP3    H223584   2.533   4.910   2.107
 7881TIP3   OH223585   0.755   5.344   0.512
 7881TIP3    H123586   0.751   5.337   0.608
 7881TIP3    H223587   0.690   5.411   0.491
 7882TIP3   OH223588   7.359   6.659   0.030
 7882TIP3    H123589   7.405   6.596  -0.026
 7882TIP3    H223590   7.423   6.728   0.046
 7883TIP3   OH223591   7.854   1.183   4.547
 7883TIP3    H123592   7.928   1.221   4.500
 7883TIP3    H223593   7.857   1.222   4.634
 7884TIP3   OH223594   4.652   5.851   4.969
 7884TIP3    H123595   4.563   5.864   5.000
 7884TIP3    H223596   4.702   5.923   5.009
 7885TIP3   OH223597   0.893   7.536   2.000
 7885TIP3    H123598   0.940   7.575   2.074
 7885TIP3    H223599   0.959   7.527   1.931
 7886TIP3   OH223600   3.615   6.775   3.373
 7886TIP3    H123601   3.649   6.813   3.292
 7886TIP3    H223602   3.663   6.820   3.443
 7887TIP3   OH223603   6.507   3.664   2.279
 7887TIP3    H123604   6.490   3.574   2.251
 7887TIP3    H223605   6.434   3.686   2.336
 7888TIP3   OH223606   0.325   4.598   4.619
 7888TIP3    H123607   0.248   4.627   4.570
 7888TIP3    H223608   0.331   4.505   4.600
 7889TIP3   OH223609   6.596   0.527   3.390
 7889TIP3    H123610   6.550   0.609   3.409
 7889TIP3    H223611   6.526   0.464   3.373
 7890TIP3   OH223612   7.380   2.524   5.740
 7890TIP3    H123613   7.450   2.533   5.805
 7890TIP3    H223614   7.399   2.591   5.674
 7891TIP3   OH223615   1.443   5.497   5.634
 7891TIP3    H123616   1.479   5.546   5.560
 7891TIP3    H223617   1.502   5.422   5.643
 7892TIP3   OH223618   4.400   6.160   3.444
 7892TIP3    H123619   4.407   6.128   3.533
 7892TIP3    H223620   4.417   6.083   3.389
 7893TIP3   OH223621   7.765   0.794   4.305
 7893TIP3    H123622   7.748   0.862   4.371
 7893TIP3    H223623   7.774   0.713   4.356
 7894TIP3   OH223624   8.278   5.938   0.136
 7894TIP3    H123625   8.227   6.004   0.183
 7894TIP3    H223626   8.337   5.989   0.080
 7895TIP3   OH223627   1.442   6.793   2.235
 7895TIP3    H123628   1.485   6.797   2.149
 7895TIP3    H223629   1.444   6.883   2.268
 7896TIP3   OH223630   1.250   0.769   3.218
 7896TIP3    H123631   1.312   0.698   3.231
 7896TIP3    H223632   1.200   0.772   3.300
 7897TIP3   OH223633   4.323   4.122   5.761
 7897TIP3    H123634   4.242   4.150   5.803
 7897TIP3    H223635   4.310   4.029   5.742
 7898TIP3   OH223636   0.274   2.547   3.033
 7898TIP3    H123637   0.319   2.468   3.003
 7898TIP3    H223638   0.286   2.610   2.962
 7899TIP3   OH223639   7.821   1.862   3.474
 7899TIP3    H123640   7.781   1.945   3.448
 7899TIP3    H223641   7.757   1.796   3.450
 7900TIP3   OH223642   2.175   2.930   3.871
 7900TIP3    H123643   2.269   2.914   3.882
 7900TIP3    H223644   2.144   2.856   3.819
 7901TIP3   OH223645   7.872   7.763   6.505
 7901TIP3    H123646   7.831   7.766   6.419
 7901TIP3    H223647   7.963   7.786   6.489
 7902TIP3   OH223648   7.312   1.798   0.356
 7902TIP3    H123649   7.385   1.816   0.295
 7902TIP3    H223650   7.300   1.703   0.351
 7903TIP3   OH223651   6.247   1.178   1.135
 7903TIP3    H123652   6.313   1.184   1.067
 7903TIP3    H223653   6.277   1.237   1.204
 7904TIP3   OH223654   4.022   3.656   1.540
 7904TIP3    H123655   3.933   3.691   1.546
 7904TIP3    H223656   4.020   3.597   1.464
 7905TIP3   OH223657   0.074   1.595   2.237
 7905TIP3    H123658   0.112   1.536   2.302
 7905TIP3    H223659   0.027   1.661   2.288
 7906TIP3   OH223660   3.163   1.921   5.017
 7906TIP3    H123661   3.078   1.959   5.040
 7906TIP3    H223662   3.169   1.842   5.071
 7907TIP3   OH223663   0.143   6.729   4.934
 7907TIP3    H123664   0.187   6.662   4.882
 7907TIP3    H223665   0.140   6.693   5.022
 7908TIP3   OH223666   0.822   7.212   4.255
 7908TIP3    H123667   0.779   7.286   4.212
 7908TIP3    H223668   0.894   7.189   4.197
 7909TIP3   OH223669   4.810   6.961   3.805
 7909TIP3    H123670   4.902   6.984   3.812
 7909TIP3    H223671   4.763   7.041   3.832
 7910TIP3   OH223672   1.697   0.515   6.552
 7910TIP3    H123673   1.757   0.513   6.478
 7910TIP3    H223674   1.699   0.426   6.587
 7911TIP3   OH223675   4.658   1.382   1.166
 7911TIP3    H123676   4.731   1.385   1.228
 7911TIP3    H223677   4.625   1.292   1.172
 7912TIP3   OH223678   5.454   5.978   6.244
 7912TIP3    H123679   5.401   5.905   6.275
 7912TIP3    H223680   5.484   6.022   6.323
 7913TIP3   OH223681   3.333   2.473   2.947
 7913TIP3    H123682   3.402   2.481   2.881
 7913TIP3    H223683   3.347   2.387   2.987
 7914TIP3   OH223684   3.169   0.009   6.019
 7914TIP3    H123685   3.178   0.091   5.970
 7914TIP3    H223686   3.241  -0.046   5.988
 7915TIP3   OH223687   0.461   5.424   6.304
 7915TIP3    H123688   0.451   5.472   6.222
 7915TIP3    H223689   0.542   5.459   6.342
 7916TIP3   OH223690   4.229   0.968   6.221
 7916TIP3    H123691   4.157   0.914   6.252
 7916TIP3    H223692   4.191   1.022   6.151
 7917TIP3   OH223693   1.517   3.499   4.452
 7917TIP3    H123694   1.511   3.543   4.368
 7917TIP3    H223695   1.481   3.412   4.437
 7918TIP3   OH223696   1.910   5.808   1.877
 7918TIP3    H123697   1.954   5.844   1.800
 7918TIP3    H223698   1.954   5.848   1.951
 7919TIP3   OH223699   6.814   5.355   2.896
 7919TIP3    H123700   6.807   5.259   2.892
 7919TIP3    H223701   6.791   5.377   2.986
 7920TIP3   OH223702   7.258   4.780   2.605
 7920TIP3    H123703   7.312   4.857   2.589
 7920TIP3    H223704   7.206   4.803   2.682
 7921TIP3   OH223705   7.153   6.722   3.372
 7921TIP3    H123706   7.194   6.644   3.409
 7921TIP3    H223707   7.115   6.693   3.289
 7922TIP3   OH223708   1.710   0.175   6.371
 7922TIP3    H123709   1.620   0.142   6.363
 7922TIP3    H223710   1.727   0.218   6.287
 7923TIP3   OH223711   1.182   7.767   1.191
 7923TIP3    H123712   1.222   7.828   1.129
 7923TIP3    H223713   1.097   7.745   1.152
 7924TIP3   OH223714   5.851   2.077   2.217
 7924TIP3    H123715   5.907   2.154   2.201
 7924TIP3    H223716   5.772   2.094   2.166
 7925TIP3   OH223717   1.037   2.370   4.443
 7925TIP3    H123718   1.131   2.364   4.456
 7925TIP3    H223719   1.018   2.464   4.441
 7926TIP3   OH223720   2.361   3.903   1.781
 7926TIP3    H123721   2.391   3.819   1.747
 7926TIP3    H223722   2.334   3.952   1.704
 7927TIP3   OH223723   3.500   4.713   4.782
 7927TIP3    H123724   3.559   4.758   4.842
 7927TIP3    H223725   3.472   4.781   4.720
 7928TIP3   OH223726   4.142   2.040   3.315
 7928TIP3    H123727   4.065   1.989   3.289
 7928TIP3    H223728   4.139   2.117   3.259
 7929TIP3   OH223729   5.598   4.195   1.537
 7929TIP3    H123730   5.518   4.246   1.528
 7929TIP3    H223731   5.616   4.160   1.450
 7930TIP3   OH223732   4.958   0.476   1.468
 7930TIP3    H123733   5.028   0.469   1.403
 7930TIP3    H223734   4.930   0.385   1.482
 7931TIP3   OH223735   1.441   7.776   5.542
 7931TIP3    H123736   1.533   7.802   5.542
 7931TIP3    H223737   1.431   7.720   5.619
 7932TIP3   OH223738   0.376   5.135   4.018
 7932TIP3    H123739   0.381   5.160   3.926
 7932TIP3    H223740   0.364   5.040   4.017
 7933TIP3   OH223741   2.708   6.307   3.767
 7933TIP3    H123742   2.751   6.231   3.727
 7933TIP3    H223743   2.617   6.279   3.778
 7934TIP3   OH223744   1.144   5.251   0.151
 7934TIP3    H123745   1.168   5.322   0.210
 7934TIP3    H223746   1.105   5.184   0.208
 7935TIP3   OH223747  -0.007   5.387   2.906
 7935TIP3    H123748   0.024   5.338   2.982
 7935TIP3    H223749  -0.077   5.443   2.940
 7936TIP3   OH223750   6.233   2.649   0.444
 7936TIP3    H123751   6.229   2.741   0.420
 7936TIP3    H223752   6.172   2.606   0.384
 7937TIP3   OH223753   4.088   1.116   0.789
 7937TIP3    H123754   4.007   1.072   0.817
 7937TIP3    H223755   4.137   1.049   0.742
 7938TIP3   OH223756   0.423   7.539   3.585
 7938TIP3    H123757   0.421   7.505   3.496
 7938TIP3    H223758   0.359   7.610   3.585
 7939TIP3   OH223759   3.525   4.879   4.181
 7939TIP3    H123760   3.558   4.856   4.094
 7939TIP3    H223761   3.456   4.815   4.198
 7940TIP3   OH223762   8.133   0.803   2.829
 7940TIP3    H123763   8.168   0.831   2.914
 7940TIP3    H223764   8.166   0.714   2.817
 7941TIP3   OH223765   8.274   6.433   2.851
 7941TIP3    H123766   8.256   6.513   2.900
 7941TIP3    H223767   8.338   6.459   2.785
 7942TIP3   OH223768   5.852   4.030   5.953
 7942TIP3    H123769   5.905   3.967   6.003
 7942TIP3    H223770   5.905   4.049   5.875
 7943TIP3   OH223771   2.834   1.438   5.186
 7943TIP3    H123772   2.790   1.406   5.265
 7943TIP3    H223773   2.771   1.497   5.145
 7944TIP3   OH223774   6.837   2.608   1.004
 7944TIP3    H123775   6.817   2.676   1.069
 7944TIP3    H223776   6.898   2.550   1.048
 7945TIP3   OH223777   6.031   0.314   1.518
 7945TIP3    H123778   6.077   0.374   1.577
 7945TIP3    H223779   6.029   0.231   1.566
 7946TIP3   OH223780   6.380   7.663   2.972
 7946TIP3    H123781   6.397   7.680   2.880
 7946TIP3    H223782   6.453   7.704   3.018
 7947TIP3   OH223783   2.252   6.834   6.471
 7947TIP3    H123784   2.192   6.866   6.403
 7947TIP3    H223785   2.203   6.842   6.552
 7948TIP3   OH223786   1.219   1.565   3.327
 7948TIP3    H123787   1.249   1.502   3.262
 7948TIP3    H223788   1.141   1.605   3.287
 7949TIP3   OH223789   8.228   0.933   5.870
 7949TIP3    H123790   8.231   0.873   5.945
 7949TIP3    H223791   8.211   1.019   5.909
 7950TIP3   OH223792   6.569   4.087   2.817
 7950TIP3    H123793   6.514   4.042   2.881
 7950TIP3    H223794   6.641   4.026   2.801
 7951TIP3   OH223795   1.794   3.012   3.196
 7951TIP3    H123796   1.718   3.064   3.172
 7951TIP3    H223797   1.869   3.065   3.169
 7952TIP3   OH223798   2.530   7.880   5.567
 7952TIP3    H123799   2.541   7.810   5.502
 7952TIP3    H223800   2.451   7.856   5.614
 7953TIP3   OH223801   3.876   7.183   5.980
 7953TIP3    H123802   3.899   7.098   5.943
 7953TIP3    H223803   3.784   7.195   5.958
 7954TIP3   OH223804   2.621   7.272   0.962
 7954TIP3    H123805   2.634   7.193   1.013
 7954TIP3    H223806   2.677   7.260   0.885
 7955TIP3   OH223807   8.221   4.285   6.440
 7955TIP3    H123808   8.228   4.318   6.530
 7955TIP3    H223809   8.309   4.298   6.404
 7956TIP3   OH223810   2.388   5.213   0.345
 7956TIP3    H123811   2.296   5.192   0.329
 7956TIP3    H223812   2.434   5.179   0.268
 7957TIP3   OH223813   6.522   3.142   4.273
 7957TIP3    H123814   6.472   3.122   4.193
 7957TIP3    H223815   6.543   3.235   4.266
 7958TIP3   OH223816   0.320   6.565   4.182
 7958TIP3    H123817   0.315   6.494   4.245
 7958TIP3    H223818   0.380   6.628   4.222
 7959TIP3   OH223819   5.126   0.539   2.074
 7959TIP3    H123820   5.165   0.523   1.987
 7959TIP3    H223821   5.180   0.489   2.134
 7960TIP3   OH223822   2.179   1.184   0.381
 7960TIP3    H123823   2.273   1.180   0.399
 7960TIP3    H223824   2.169   1.141   0.296
 7961TIP3   OH223825   5.089   5.965   1.114
 7961TIP3    H123826   5.017   6.019   1.147
 7961TIP3    H223827   5.050   5.911   1.045
 7962TIP3   OH223828   8.265   5.690   1.565
 7962TIP3    H123829   8.239   5.652   1.481
 7962TIP3    H223830   8.354   5.658   1.579
 7963TIP3   OH223831   5.462   7.668   3.186
 7963TIP3    H123832   5.373   7.642   3.161
 7963TIP3    H223833   5.452   7.757   3.219
 7964TIP3   OH223834   6.931   7.807   3.517
 7964TIP3    H123835   6.854   7.863   3.518
 7964TIP3    H223836   6.899   7.722   3.488
 7965TIP3   OH223837   0.684   4.490   6.308
 7965TIP3    H123838   0.747   4.561   6.297
 7965TIP3    H223839   0.708   4.426   6.241
 7966TIP3   OH223840   2.656   5.369   1.586
 7966TIP3    H123841   2.719   5.310   1.546
 7966TIP3    H223842   2.652   5.343   1.678
 7967TIP3   OH223843   4.762   1.063   1.336
 7967TIP3    H123844   4.679   1.029   1.370
 7967TIP3    H223845   4.770   1.025   1.249
 7968TIP3   OH223846   1.626   4.479   4.106
 7968TIP3    H123847   1.709   4.504   4.145
 7968TIP3    H223848   1.580   4.561   4.091
 7969TIP3   OH223849   4.381   7.573   4.367
 7969TIP3    H123850   4.475   7.591   4.375
 7969TIP3    H223851   4.338   7.657   4.383
 7970TIP3   OH223852   3.491   7.681   6.318
 7970TIP3    H123853   3.531   7.629   6.387
 7970TIP3    H223854   3.538   7.655   6.238
 7971TIP3   OH223855   6.639   7.671   4.104
 7971TIP3    H123856   6.629   7.702   4.014
 7971TIP3    H223857   6.575   7.600   4.112
 7972TIP3   OH223858   7.397   0.935   6.321
 7972TIP3    H123859   7.387   0.843   6.346
 7972TIP3    H223860   7.353   0.943   6.236
 7973TIP3   OH223861   0.946   6.561   0.569
 7973TIP3    H123862   0.922   6.468   0.575
 7973TIP3    H223863   0.896   6.603   0.638
 7974TIP3   OH223864   0.625   1.072   4.312
 7974TIP3    H123865   0.575   1.153   4.301
 7974TIP3    H223866   0.595   1.037   4.396
 7975TIP3   OH223867   6.064   4.042   5.754
 7975TIP3    H123868   6.063   4.137   5.769
 7975TIP3    H223869   6.024   4.031   5.668
 7976TIP3   OH223870   2.575   0.653   2.351
 7976TIP3    H123871   2.652   0.679   2.300
 7976TIP3    H223872   2.557   0.729   2.407
 7977TIP3   OH223873   6.087   4.210   5.132
 7977TIP3    H123874   6.146   4.263   5.078
 7977TIP3    H223875   6.137   4.130   5.149
 7978TIP3   OH223876   3.029   1.199   6.120
 7978TIP3    H123877   3.110   1.177   6.075
 7978TIP3    H223878   3.026   1.138   6.194
 7979TIP3   OH223879   3.105   1.772   5.909
 7979TIP3    H123880   3.175   1.708   5.920
 7979TIP3    H223881   3.060   1.747   5.829
 7980TIP3   OH223882   7.807   2.110   0.098
 7980TIP3    H123883   7.778   2.068   0.017
 7980TIP3    H223884   7.901   2.126   0.085
 7981TIP3   OH223885   6.606   4.033   0.965
 7981TIP3    H123886   6.643   3.949   0.938
 7981TIP3    H223887   6.645   4.097   0.905
 7982TIP3   OH223888   5.151   6.910   2.528
 7982TIP3    H123889   5.152   6.936   2.436
 7982TIP3    H223890   5.108   6.983   2.573
 7983TIP3   OH223891   5.159   7.263   3.054
 7983TIP3    H123892   5.095   7.329   3.027
 7983TIP3    H223893   5.228   7.268   2.988
 7984TIP3   OH223894   3.333   3.666   4.094
 7984TIP3    H123895   3.327   3.692   4.002
 7984TIP3    H223896   3.311   3.745   4.143
 7985TIP3   OH223897   1.267   0.908   0.893
 7985TIP3    H123898   1.291   0.989   0.849
 7985TIP3    H223899   1.331   0.899   0.964
 7986TIP3   OH223900   4.511   5.606   1.848
 7986TIP3    H123901   4.491   5.545   1.920
 7986TIP3    H223902   4.430   5.656   1.836
 7987TIP3   OH223903   5.333   5.870   2.858
 7987TIP3    H123904   5.368   5.917   2.933
 7987TIP3    H223905   5.256   5.824   2.891
 7988TIP3   OH223906   6.337   4.970   3.129
 7988TIP3    H123907   6.290   4.891   3.157
 7988TIP3    H223908   6.330   5.029   3.203
 7989TIP3   OH223909   2.201   4.743   0.101
 7989TIP3    H123910   2.225   4.659   0.138
 7989TIP3    H223911   2.127   4.773   0.154
 7990TIP3   OH223912   2.572   3.673   4.108
 7990TIP3    H123913   2.505   3.737   4.132
 7990TIP3    H223914   2.602   3.702   4.022
 7991TIP3   OH223915   6.699   5.024   1.155
 7991TIP3    H123916   6.612   5.065   1.156
 7991TIP3    H223917   6.754   5.085   1.205
 7992TIP3   OH223918   4.715   3.818   3.106
 7992TIP3    H123919   4.777   3.745   3.097
 7992TIP3    H223920   4.738   3.879   3.036
 7993TIP3   OH223921   2.682   0.499   0.060
 7993TIP3    H123922   2.615   0.466   0.119
 7993TIP3    H223923   2.647   0.582   0.028
 7994TIP3   OH223924   1.520   6.085   5.147
 7994TIP3    H123925   1.565   6.155   5.195
 7994TIP3    H223926   1.518   6.115   5.057
 7995TIP3   OH223927   5.140   0.727   0.734
 7995TIP3    H123928   5.045   0.713   0.741
 7995TIP3    H223929   5.164   0.688   0.650
 7996TIP3   OH223930   5.466   3.721   2.838
 7996TIP3    H123931   5.485   3.811   2.811
 7996TIP3    H223932   5.483   3.668   2.760
 7997TIP3   OH223933   2.582   7.469   2.078
 7997TIP3    H123934   2.643   7.463   2.152
 7997TIP3    H223935   2.593   7.386   2.031
 7998TIP3   OH223936   0.827   4.522   3.018
 7998TIP3    H123937   0.780   4.486   3.093
 7998TIP3    H223938   0.761   4.575   2.973
 7999TIP3   OH223939   6.668   1.927   5.563
 7999TIP3    H123940   6.764   1.930   5.570
 7999TIP3    H223941   6.646   2.007   5.515
 8000TIP3   OH223942   4.076   6.965   3.846
 8000TIP3    H123943   4.091   6.922   3.762
 8000TIP3    H223944   4.090   6.897   3.912
 8001TIP3   OH223945   0.710   0.753   2.626
 8001TIP3    H123946   0.770   0.807   2.679
 8001TIP3    H223947   0.650   0.715   2.690
 8002TIP3   OH223948   2.027   3.207   0.175
 8002TIP3    H123949   2.040   3.206   0.081
 8002TIP3    H223950   2.022   3.115   0.200
 8003TIP3   OH223951   4.002   4.797   4.095
 8003TIP3    H123952   3.933   4.739   4.127
 8003TIP3    H223953   3.994   4.875   4.149
 8004TIP3   OH223954   5.846   5.528   1.873
 8004TIP3    H123955   5.791   5.595   1.913
 8004TIP3    H223956   5.791   5.490   1.804
 8005TIP3   OH223957   4.895   5.881   4.696
 8005TIP3    H123958   4.878   5.964   4.740
 8005TIP3    H223959   4.849   5.816   4.749
 8006TIP3   OH223960   0.504   0.259   2.418
 8006TIP3    H123961   0.515   0.292   2.508
 8006TIP3    H223962   0.492   0.165   2.428
 8007TIP3   OH223963   0.948   6.418   4.492
 8007TIP3    H123964   0.927   6.450   4.580
 8007TIP3    H223965   1.018   6.354   4.506
 8008TIP3   OH223966   3.806   2.690   1.279
 8008TIP3    H123967   3.892   2.675   1.316
 8008TIP3    H223968   3.780   2.606   1.241
 8009TIP3   OH223969   1.955   2.261   6.525
 8009TIP3    H123970   1.939   2.192   6.461
 8009TIP3    H223971   1.963   2.341   6.473
 8010TIP3   OH223972   5.007   7.277   3.714
 8010TIP3    H123973   5.094   7.291   3.675
 8010TIP3    H223974   5.013   7.191   3.755
 8011TIP3   OH223975   5.719   4.834   0.477
 8011TIP3    H123976   5.812   4.816   0.464
 8011TIP3    H223977   5.676   4.749   0.465
 8012TIP3   OH223978   7.149   3.914   6.506
 8012TIP3    H123979   7.120   3.908   6.597
 8012TIP3    H223980   7.228   3.861   6.502
 8013TIP3   OH223981   7.145   4.966   0.141
 8013TIP3    H123982   7.129   5.045   0.089
 8013TIP3    H223983   7.231   4.936   0.111
 8014TIP3   OH223984   0.456   3.156   6.547
 8014TIP3    H123985   0.408   3.212   6.607
 8014TIP3    H223986   0.401   3.154   6.468
 8015TIP3   OH223987   7.567   0.999   4.205
 8015TIP3    H123988   7.529   1.050   4.133
 8015TIP3    H223989   7.636   0.948   4.164
 8016TIP3   OH223990   5.651   5.712   5.108
 8016TIP3    H123991   5.579   5.770   5.136
 8016TIP3    H223992   5.729   5.768   5.111
 8017TIP3   OH223993   0.774   1.008   0.818
 8017TIP3    H123994   0.780   0.987   0.725
 8017TIP3    H223995   0.770   1.104   0.821
 8018TIP3   OH223996   6.673   1.734   4.816
 8018TIP3    H123997   6.697   1.733   4.909
 8018TIP3    H223998   6.708   1.652   4.782
 8019TIP3   OH223999   6.853   1.210   4.518
 8019TIP3    H124000   6.826   1.139   4.576
 8019TIP3    H224001   6.775   1.230   4.467
 8020TIP3   OH224002   7.010   4.829   3.892
 8020TIP3    H124003   6.962   4.760   3.846
 8020TIP3    H224004   7.096   4.790   3.908
 8021TIP3   OH224005   0.832   5.100   1.656
 8021TIP3    H124006   0.738   5.113   1.669
 8021TIP3    H224007   0.848   5.011   1.686
 8022TIP3   OH224008   0.074   2.508   2.790
 8022TIP3    H124009   0.035   2.461   2.863
 8022TIP3    H224010   0.002   2.557   2.752
 8023TIP3   OH224011   2.266   7.294   2.050
 8023TIP3    H124012   2.281   7.280   2.143
 8023TIP3    H224013   2.280   7.208   2.010
 8024TIP3   OH224014   3.376   7.579   0.466
 8024TIP3    H124015   3.320   7.601   0.541
 8024TIP3    H224016   3.440   7.518   0.501
 8025TIP3   OH224017   4.056   3.338   4.442
 8025TIP3    H124018   4.093   3.421   4.471
 8025TIP3    H224019   4.129   3.293   4.399
 8026TIP3   OH224020   2.411   2.949   3.657
 8026TIP3    H124021   2.440   2.896   3.732
 8026TIP3    H224022   2.379   2.886   3.593
 8027TIP3   OH224023   1.699   4.188   5.270
 8027TIP3    H124024   1.734   4.100   5.285
 8027TIP3    H224025   1.754   4.223   5.199
 8028TIP3   OH224026   2.004   2.067   6.284
 8028TIP3    H124027   1.911   2.044   6.282
 8028TIP3    H224028   2.050   1.985   6.267
 8029TIP3   OH224029   2.497   4.734   3.812
 8029TIP3    H124030   2.447   4.810   3.782
 8029TIP3    H224031   2.576   4.771   3.852
 8030TIP3   OH224032   4.495   6.525   2.367
 8030TIP3    H124033   4.591   6.527   2.369
 8030TIP3    H224034   4.472   6.564   2.283
 8031TIP3   OH224035   6.460   7.454   4.115
 8031TIP3    H124036   6.468   7.375   4.168
 8031TIP3    H224037   6.377   7.444   4.069
 8032TIP3   OH224038   1.410   6.399   5.133
 8032TIP3    H124039   1.402   6.494   5.140
 8032TIP3    H224040   1.402   6.367   5.223
 8033TIP3   OH224041   5.597   0.539   0.223
 8033TIP3    H124042   5.634   0.627   0.228
 8033TIP3    H224043   5.671   0.482   0.203
 8034TIP3   OH224044   5.352   1.923   6.644
 8034TIP3    H124045   5.328   1.831   6.658
 8034TIP3    H224046   5.321   1.967   6.723
 8035TIP3   OH224047   5.254   1.509   0.501
 8035TIP3    H124048   5.328   1.450   0.512
 8035TIP3    H224049   5.187   1.475   0.560
 8036TIP3   OH224050   0.235   0.173   4.848
 8036TIP3    H124051   0.195   0.186   4.933
 8036TIP3    H224052   0.181   0.106   4.805
 8037TIP3   OH224053   3.229   1.408   6.283
 8037TIP3    H124054   3.297   1.475   6.274
 8037TIP3    H224055   3.261   1.334   6.232
 8038TIP3   OH224056   4.983   0.214   4.806
 8038TIP3    H124057   5.066   0.174   4.833
 8038TIP3    H224058   4.928   0.140   4.780
 8039TIP3   OH224059   3.257   4.983   1.489
 8039TIP3    H124060   3.337   5.009   1.444
 8039TIP3    H224061   3.283   4.977   1.581
 8040TIP3   OH224062   4.788   4.370   1.998
 8040TIP3    H124063   4.788   4.364   2.093
 8040TIP3    H224064   4.830   4.454   1.979
 8041TIP3   OH224065   5.709   5.770   2.334
 8041TIP3    H124066   5.705   5.766   2.238
 8041TIP3    H224067   5.744   5.685   2.360
 8042TIP3   OH224068   6.671   4.789   1.915
 8042TIP3    H124069   6.658   4.757   2.004
 8042TIP3    H224070   6.748   4.742   1.883
 8043TIP3   OH224071   2.602   4.341   5.457
 8043TIP3    H124072   2.522   4.393   5.454
 8043TIP3    H224073   2.614   4.311   5.367
 8044TIP3   OH224074   0.665   7.491   1.309
 8044TIP3    H124075   0.697   7.571   1.350
 8044TIP3    H224076   0.612   7.521   1.235
 8045TIP3   OH224077   4.534   4.199   2.865
 8045TIP3    H124078   4.546   4.125   2.805
 8045TIP3    H224079   4.526   4.275   2.809
 8046TIP3   OH224080   4.503   3.349   6.591
 8046TIP3    H124081   4.436   3.413   6.568
 8046TIP3    H224082   4.456   3.277   6.633
 8047TIP3   OH224083   5.787   7.367   6.415
 8047TIP3    H124084   5.802   7.282   6.456
 8047TIP3    H224085   5.866   7.383   6.363
 8048TIP3   OH224086   0.176   3.967   4.473
 8048TIP3    H124087   0.262   3.932   4.498
 8048TIP3    H224088   0.155   3.923   4.391
 8049TIP3   OH224089   4.595   1.523   5.447
 8049TIP3    H124090   4.587   1.619   5.446
 8049TIP3    H224091   4.676   1.506   5.399
 8050TIP3   OH224092   7.665   3.929   6.677
 8050TIP3    H124093   7.628   3.841   6.665
 8050TIP3    H224094   7.608   3.986   6.627
 8051TIP3   OH224095   4.118   1.118   4.652
 8051TIP3    H124096   4.059   1.163   4.591
 8051TIP3    H224097   4.199   1.170   4.650
 8052TIP3   OH224098   5.832   0.346   0.734
 8052TIP3    H124099   5.852   0.360   0.827
 8052TIP3    H224100   5.892   0.277   0.708
 8053TIP3   OH224101   7.765   4.255   5.263
 8053TIP3    H124102   7.675   4.241   5.291
 8053TIP3    H224103   7.790   4.339   5.302
 8054TIP3   OH224104   1.099   1.908   1.167
 8054TIP3    H124105   1.148   1.980   1.209
 8054TIP3    H224106   1.132   1.829   1.210
 8055TIP3   OH224107   1.644   0.160   3.589
 8055TIP3    H124108   1.712   0.114   3.638
 8055TIP3    H224109   1.594   0.091   3.547
 8056TIP3   OH224110   3.287   7.345   2.807
 8056TIP3    H124111   3.343   7.269   2.821
 8056TIP3    H224112   3.260   7.338   2.716
 8057TIP3   OH224113   0.815   6.213   5.269
 8057TIP3    H124114   0.780   6.137   5.224
 8057TIP3    H224115   0.882   6.247   5.210
 8058TIP3   OH224116   5.284   0.376   2.220
 8058TIP3    H124117   5.334   0.296   2.201
 8058TIP3    H224118   5.258   0.366   2.311
 8059TIP3   OH224119   4.780   4.122   1.846
 8059TIP3    H124120   4.808   4.193   1.903
 8059TIP3    H224121   4.855   4.104   1.790
 8060TIP3   OH224122   7.542   4.168   1.998
 8060TIP3    H124123   7.588   4.185   1.916
 8060TIP3    H224124   7.479   4.099   1.977
 8061TIP3   OH224125   2.609   7.647   5.400
 8061TIP3    H124126   2.644   7.608   5.481
 8061TIP3    H224127   2.589   7.572   5.344
 8062TIP3   OH224128   0.320   2.160   0.398
 8062TIP3    H124129   0.387   2.093   0.380
 8062TIP3    H224130   0.238   2.111   0.401
 8063TIP3   OH224131   8.092   6.166   4.033
 8063TIP3    H124132   8.105   6.162   3.938
 8063TIP3    H224133   8.127   6.252   4.058
 8064TIP3   OH224134   3.364   6.577   0.393
 8064TIP3    H124135   3.356   6.670   0.373
 8064TIP3    H224136   3.316   6.532   0.324
 8065TIP3   OH224137   6.808   3.081   4.997
 8065TIP3    H124138   6.751   3.150   4.965
 8065TIP3    H224139   6.896   3.118   4.991
 8066TIP3   OH224140   4.694   5.730   2.696
 8066TIP3    H124141   4.610   5.692   2.671
 8066TIP3    H224142   4.718   5.786   2.623
 8067TIP3   OH224143   4.441   2.662   1.111
 8067TIP3    H124144   4.383   2.726   1.071
 8067TIP3    H224145   4.383   2.602   1.158
 8068TIP3   OH224146   6.152   5.645   6.536
 8068TIP3    H124147   6.233   5.653   6.485
 8068TIP3    H224148   6.178   5.668   6.626
 8069TIP3   OH224149   1.470   0.620   3.241
 8069TIP3    H124150   1.513   0.561   3.179
 8069TIP3    H224151   1.508   0.598   3.326
 8070TIP3   OH224152   2.799   1.489   4.542
 8070TIP3    H124153   2.761   1.517   4.626
 8070TIP3    H224154   2.780   1.562   4.482
 8071TIP3   OH224155   4.729   6.891   2.471
 8071TIP3    H124156   4.640   6.860   2.458
 8071TIP3    H224157   4.739   6.897   2.566
 8072TIP3   OH224158   5.980   4.712   1.917
 8072TIP3    H124159   5.971   4.656   1.840
 8072TIP3    H224160   5.970   4.801   1.884
 8073TIP3   OH224161   1.856   0.289   3.862
 8073TIP3    H124162   1.850   0.352   3.934
 8073TIP3    H224163   1.830   0.205   3.900
 8074TIP3   OH224164   1.553   6.711   2.736
 8074TIP3    H124165   1.465   6.695   2.704
 8074TIP3    H224166   1.542   6.737   2.827
 8075TIP3   OH224167   0.265   2.279   0.104
 8075TIP3    H124168   0.195   2.247   0.161
 8075TIP3    H224169   0.309   2.200   0.074
 8076TIP3   OH224170   4.704   3.532   2.708
 8076TIP3    H124171   4.652   3.471   2.655
 8076TIP3    H224172   4.647   3.553   2.782
 8077TIP3   OH224173   3.505   3.677   5.432
 8077TIP3    H124174   3.493   3.584   5.451
 8077TIP3    H224175   3.419   3.708   5.406
 8078TIP3   OH224176   3.007   5.005   0.585
 8078TIP3    H124177   3.099   5.001   0.610
 8078TIP3    H224178   2.995   4.931   0.525
 8079TIP3   OH224179   3.163   1.439   0.380
 8079TIP3    H124180   3.122   1.447   0.294
 8079TIP3    H224181   3.257   1.441   0.362
 8080TIP3   OH224182   4.408   5.261   0.379
 8080TIP3    H124183   4.340   5.322   0.350
 8080TIP3    H224184   4.377   5.175   0.349
 8081TIP3   OH224185   7.061   3.935   5.371
 8081TIP3    H124186   7.054   3.908   5.279
 8081TIP3    H224187   6.983   3.988   5.387
 8082TIP3   OH224188   7.407   6.061   4.176
 8082TIP3    H124189   7.491   6.067   4.221
 8082TIP3    H224190   7.410   6.131   4.111
 8083TIP3   OH224191   1.515   6.232   0.674
 8083TIP3    H124192   1.517   6.327   0.663
 8083TIP3    H224193   1.564   6.199   0.598
 8084TIP3   OH224194   6.958   3.287   6.040
 8084TIP3    H124195   7.047   3.269   6.070
 8084TIP3    H224196   6.907   3.300   6.120
 8085TIP3   OH224197   8.214   7.568   5.232
 8085TIP3    H124198   8.124   7.546   5.258
 8085TIP3    H224199   8.207   7.593   5.140
 8086TIP3   OH224200   0.381   0.915   1.336
 8086TIP3    H124201   0.470   0.896   1.309
 8086TIP3    H224202   0.389   0.945   1.426
 8087TIP3   OH224203   2.788   5.070   5.775
 8087TIP3    H124204   2.813   5.006   5.843
 8087TIP3    H224205   2.853   5.058   5.706
 8088TIP3   OH224206   7.766   6.476   1.702
 8088TIP3    H124207   7.735   6.542   1.764
 8088TIP3    H224208   7.842   6.436   1.744
 8089TIP3   OH224209   2.933   2.264   6.417
 8089TIP3    H124210   2.956   2.179   6.378
 8089TIP3    H224211   2.846   2.251   6.454
 8090TIP3   OH224212   6.636   0.911   6.379
 8090TIP3    H124213   6.673   0.934   6.293
 8090TIP3    H224214   6.612   0.995   6.418
 8091TIP3   OH224215   7.043   6.903   0.178
 8091TIP3    H124216   7.109   6.945   0.233
 8091TIP3    H224217   7.038   6.813   0.211
 8092TIP3   OH224218   2.201   4.202   2.640
 8092TIP3    H124219   2.289   4.235   2.660
 8092TIP3    H224220   2.179   4.245   2.557
 8093TIP3   OH224221   6.184   1.335   0.883
 8093TIP3    H124222   6.137   1.283   0.818
 8093TIP3    H224223   6.116   1.368   0.942
 8094TIP3   OH224224   6.198   5.149   6.332
 8094TIP3    H124225   6.172   5.126   6.243
 8094TIP3    H224226   6.273   5.207   6.322
 8095TIP3   OH224227   0.936   5.650   5.776
 8095TIP3    H124228   0.956   5.701   5.855
 8095TIP3    H224229   0.918   5.716   5.709
 8096TIP3   OH224230   1.018   6.702   1.312
 8096TIP3    H124231   1.054   6.712   1.224
 8096TIP3    H224232   1.068   6.764   1.365
 8097TIP3   OH224233   2.103   0.499   5.065
 8097TIP3    H124234   2.121   0.584   5.024
 8097TIP3    H224235   2.173   0.442   5.034
 8098TIP3   OH224236   5.617   2.655   0.634
 8098TIP3    H124237   5.530   2.679   0.603
 8098TIP3    H224238   5.643   2.727   0.691
 8099TIP3   OH224239   7.579   1.419   0.044
 8099TIP3    H124240   7.574   1.329   0.075
 8099TIP3    H224241   7.531   1.419  -0.039
 8100TIP3   OH224242   1.036   2.907   3.756
 8100TIP3    H124243   0.967   2.844   3.735
 8100TIP3    H224244   1.014   2.984   3.704
 8101TIP3   OH224245   6.680   0.910   1.861
 8101TIP3    H124246   6.753   0.966   1.834
 8101TIP3    H224247   6.720   0.825   1.880
 8102TIP3   OH224248   1.622   1.914   4.302
 8102TIP3    H124249   1.594   1.930   4.212
 8102TIP3    H224250   1.715   1.939   4.302
 8103TIP3   OH224251   5.396   5.105   0.277
 8103TIP3    H124252   5.430   5.078   0.362
 8103TIP3    H224253   5.302   5.087   0.281
 8104TIP3   OH224254   6.974   5.293   5.464
 8104TIP3    H124255   6.888   5.307   5.427
 8104TIP3    H224256   7.025   5.252   5.394
 8105TIP3   OH224257   4.393   4.120   2.347
 8105TIP3    H124258   4.326   4.054   2.333
 8105TIP3    H224259   4.393   4.172   2.267
 8106TIP3   OH224260   6.510   7.517   3.852
 8106TIP3    H124261   6.488   7.454   3.920
 8106TIP3    H224262   6.549   7.465   3.782
 8107TIP3   OH224263   5.965   6.764   0.082
 8107TIP3    H124264   5.920   6.682   0.098
 8107TIP3    H224265   5.927   6.798   0.001
 8108TIP3   OH224266   1.744   3.574   2.311
 8108TIP3    H124267   1.753   3.517   2.387
 8108TIP3    H224268   1.717   3.516   2.240
 8109TIP3   OH224269   0.733   0.133   4.265
 8109TIP3    H124270   0.691   0.130   4.179
 8109TIP3    H224271   0.756   0.042   4.284
 8110TIP3   OH224272   4.588   1.462   1.845
 8110TIP3    H124273   4.555   1.373   1.846
 8110TIP3    H224274   4.514   1.516   1.873
 8111TIP3   OH224275   7.469   3.178   2.165
 8111TIP3    H124276   7.510   3.097   2.134
 8111TIP3    H224277   7.529   3.247   2.137
 8112TIP3   OH224278   7.504   1.775   4.422
 8112TIP3    H124279   7.481   1.685   4.399
 8112TIP3    H224280   7.420   1.822   4.424
 8113TIP3   OH224281   7.183   4.103   2.725
 8113TIP3    H124282   7.225   4.148   2.651
 8113TIP3    H224283   7.092   4.133   2.721
 8114TIP3   OH224284   6.469   5.738   3.179
 8114TIP3    H124285   6.444   5.825   3.210
 8114TIP3    H224286   6.412   5.723   3.104
 8115TIP3   OH224287   2.907   1.946   2.473
 8115TIP3    H124288   2.924   1.978   2.384
 8115TIP3    H224289   2.871   2.022   2.519
 8116TIP3   OH224290   5.695   6.734   5.337
 8116TIP3    H124291   5.612   6.692   5.361
 8116TIP3    H224292   5.724   6.778   5.417
 8117TIP3   OH224293   7.373   5.457   0.291
 8117TIP3    H124294   7.337   5.537   0.253
 8117TIP3    H224295   7.448   5.435   0.235
 8118TIP3   OH224296   6.101   0.453   3.048
 8118TIP3    H124297   6.168   0.492   3.105
 8118TIP3    H224298   6.094   0.362   3.078
 8119TIP3   OH224299   5.604   3.654   5.461
 8119TIP3    H124300   5.571   3.583   5.406
 8119TIP3    H224301   5.602   3.731   5.404
 8120TIP3   OH224302   3.316   2.545   6.021
 8120TIP3    H124303   3.314   2.545   5.925
 8120TIP3    H224304   3.278   2.461   6.047
 8121TIP3   OH224305   7.785   4.745   0.255
 8121TIP3    H124306   7.844   4.708   0.320
 8121TIP3    H224307   7.806   4.838   0.252
 8122TIP3   OH224308   0.951   1.841   2.059
 8122TIP3    H124309   0.901   1.821   1.979
 8122TIP3    H224310   0.980   1.931   2.046
 8123TIP3   OH224311   0.197   4.672   4.941
 8123TIP3    H124312   0.234   4.753   4.907
 8123TIP3    H224313   0.214   4.607   4.873
 8124TIP3   OH224314   4.096   6.088   5.319
 8124TIP3    H124315   4.191   6.080   5.313
 8124TIP3    H224316   4.062   6.010   5.275
 8125TIP3   OH224317   3.668   4.893   5.422
 8125TIP3    H124318   3.742   4.953   5.410
 8125TIP3    H224319   3.694   4.814   5.374
 8126TIP3   OH224320   2.647   2.352   2.585
 8126TIP3    H124321   2.688   2.402   2.656
 8126TIP3    H224322   2.584   2.296   2.629
 8127TIP3   OH224323   1.276   0.040   0.124
 8127TIP3    H124324   1.254   0.130   0.102
 8127TIP3    H224325   1.358   0.046   0.173
 8128TIP3   OH224326   1.197   1.714   5.774
 8128TIP3    H124327   1.162   1.674   5.695
 8128TIP3    H224328   1.122   1.724   5.832
 8129TIP3   OH224329   7.649   7.448   4.756
 8129TIP3    H124330   7.701   7.396   4.818
 8129TIP3    H224331   7.680   7.421   4.670
 8130TIP3   OH224332   3.784   7.324   6.722
 8130TIP3    H124333   3.769   7.336   6.628
 8130TIP3    H224334   3.706   7.278   6.752
 8131TIP3   OH224335   6.739   2.346   0.900
 8131TIP3    H124336   6.694   2.305   0.974
 8131TIP3    H224337   6.787   2.419   0.939
 8132TIP3   OH224338   1.953   3.112   1.747
 8132TIP3    H124339   1.892   3.109   1.673
 8132TIP3    H224340   1.971   3.205   1.760
 8133TIP3   OH224341   3.202   4.409   2.758
 8133TIP3    H124342   3.153   4.458   2.824
 8133TIP3    H224343   3.178   4.318   2.772
 8134TIP3   OH224344   5.937   4.743   0.090
 8134TIP3    H124345   5.891   4.811   0.141
 8134TIP3    H224346   5.902   4.661   0.123
 8135TIP3   OH224347   6.959   2.350   1.130
 8135TIP3    H124348   7.015   2.422   1.158
 8135TIP3    H224349   7.020   2.276   1.119
 8136TIP3   OH224350   5.565   0.367   5.130
 8136TIP3    H124351   5.625   0.293   5.130
 8136TIP3    H224352   5.487   0.335   5.083
 8137TIP3   OH224353   5.556   2.860   3.490
 8137TIP3    H124354   5.518   2.873   3.404
 8137TIP3    H224355   5.623   2.792   3.477
 8138TIP3   OH224356   3.171   3.929   4.759
 8138TIP3    H124357   3.164   3.833   4.761
 8138TIP3    H224358   3.127   3.954   4.677
 8139TIP3   OH224359   6.617   0.898   5.596
 8139TIP3    H124360   6.621   0.991   5.576
 8139TIP3    H224361   6.708   0.868   5.585
 8140TIP3   OH224362   8.047   5.257   3.349
 8140TIP3    H124363   8.034   5.352   3.351
 8140TIP3    H224364   7.969   5.222   3.393
 8141TIP3   OH224365   1.165   2.504   0.262
 8141TIP3    H124366   1.217   2.563   0.316
 8141TIP3    H224367   1.093   2.478   0.318
 8142TIP3   OH224368   2.745   0.432   4.503
 8142TIP3    H124369   2.714   0.516   4.470
 8142TIP3    H224370   2.744   0.374   4.427
 8143TIP3   OH224371   3.848   2.828   2.966
 8143TIP3    H124372   3.878   2.918   2.984
 8143TIP3    H224373   3.799   2.804   3.044
 8144TIP3   OH224374   5.190   6.479   4.308
 8144TIP3    H124375   5.172   6.386   4.301
 8144TIP3    H224376   5.104   6.521   4.299
 8145TIP3   OH224377   5.218   3.398   2.960
 8145TIP3    H124378   5.189   3.312   2.928
 8145TIP3    H224379   5.136   3.447   2.973
 8146TIP3   OH224380   3.066   7.545   6.601
 8146TIP3    H124381   3.057   7.456   6.637
 8146TIP3    H224382   3.122   7.533   6.524
 8147TIP3   OH224383   5.027   5.916   3.388
 8147TIP3    H124384   5.009   5.980   3.457
 8147TIP3    H224385   5.063   5.968   3.316
 8148TIP3   OH224386   8.260   6.131   2.301
 8148TIP3    H124387   8.322   6.060   2.284
 8148TIP3    H224388   8.192   6.121   2.235
 8149TIP3   OH224389   1.566   4.128   1.609
 8149TIP3    H124390   1.570   4.077   1.528
 8149TIP3    H224391   1.611   4.210   1.589
 8150TIP3   OH224392   4.447   2.295   5.556
 8150TIP3    H124393   4.481   2.212   5.588
 8150TIP3    H224394   4.525   2.349   5.540
 8151TIP3   OH224395   5.686   1.939   1.817
 8151TIP3    H124396   5.763   1.933   1.762
 8151TIP3    H224397   5.632   1.864   1.791
 8152TIP3   OH224398   6.762   0.267   6.353
 8152TIP3    H124399   6.853   0.240   6.368
 8152TIP3    H224400   6.736   0.309   6.435
 8153TIP3   OH224401   0.371   5.778   3.203
 8153TIP3    H124402   0.453   5.777   3.153
 8153TIP3    H224403   0.321   5.705   3.168
 8154TIP3   OH224404   4.412   2.912   0.193
 8154TIP3    H124405   4.505   2.894   0.183
 8154TIP3    H224406   4.400   2.930   0.286
 8155TIP3   OH224407   5.833   1.486   6.417
 8155TIP3    H124408   5.768   1.516   6.481
 8155TIP3    H224409   5.800   1.402   6.386
 8156TIP3   OH224410   2.970   5.816   2.361
 8156TIP3    H124411   2.976   5.887   2.424
 8156TIP3    H224412   3.018   5.744   2.401
 8157TIP3   OH224413   4.495   3.764   6.632
 8157TIP3    H124414   4.575   3.784   6.584
 8157TIP3    H224415   4.503   3.671   6.654
 8158TIP3   OH224416   3.107   1.985   0.854
 8158TIP3    H124417   3.050   1.920   0.814
 8158TIP3    H224418   3.139   2.037   0.780
 8159TIP3   OH224419   1.501   5.592   3.307
 8159TIP3    H124420   1.552   5.570   3.385
 8159TIP3    H224421   1.410   5.585   3.335
 8160TIP3   OH224422   3.119   5.256   2.581
 8160TIP3    H124423   3.177   5.197   2.629
 8160TIP3    H224424   3.178   5.308   2.526
 8161TIP3   OH224425   3.293   0.675   5.649
 8161TIP3    H124426   3.282   0.770   5.651
 8161TIP3    H224427   3.205   0.641   5.640
 8162TIP3   OH224428   4.821   0.364   1.813
 8162TIP3    H124429   4.766   0.430   1.855
 8162TIP3    H224430   4.780   0.352   1.727
 8163TIP3   OH224431   7.262   0.017   4.594
 8163TIP3    H124432   7.322   0.001   4.667
 8163TIP3    H224433   7.297  -0.035   4.522
 8164TIP3   OH224434   0.118   5.533   0.246
 8164TIP3    H124435   0.054   5.569   0.185
 8164TIP3    H224436   0.202   5.567   0.217
 8165TIP3   OH224437   6.925   7.327   2.935
 8165TIP3    H124438   6.959   7.240   2.917
 8165TIP3    H224439   6.952   7.379   2.859
 8166TIP3   OH224440   5.783   3.675   5.159
 8166TIP3    H124441   5.840   3.740   5.199
 8166TIP3    H224442   5.706   3.724   5.131
 8167TIP3   OH224443   4.816   7.154   6.629
 8167TIP3    H124444   4.905   7.186   6.614
 8167TIP3    H224445   4.782   7.136   6.542
 8168TIP3   OH224446   5.652   0.479   4.164
 8168TIP3    H124447   5.617   0.534   4.235
 8168TIP3    H224448   5.631   0.390   4.190
 8169TIP3   OH224449   1.531   5.191   6.090
 8169TIP3    H124450   1.453   5.138   6.075
 8169TIP3    H224451   1.499   5.268   6.137
 8170TIP3   OH224452   5.769   6.238   3.132
 8170TIP3    H124453   5.810   6.237   3.046
 8170TIP3    H224454   5.827   6.292   3.186
 8171TIP3   OH224455   0.545   1.713   1.524
 8171TIP3    H124456   0.599   1.644   1.487
 8171TIP3    H224457   0.493   1.669   1.592
 8172TIP3   OH224458   6.755   4.243   5.953
 8172TIP3    H124459   6.790   4.211   6.036
 8172TIP3    H224460   6.677   4.292   5.976
 8173TIP3   OH224461   3.334   7.211   3.158
 8173TIP3    H124462   3.250   7.178   3.126
 8173TIP3    H224463   3.358   7.151   3.229
 8174TIP3   OH224464   6.271   7.020   5.987
 8174TIP3    H124465   6.336   7.012   5.917
 8174TIP3    H224466   6.223   6.937   5.985
 8175TIP3   OH224467   7.102   4.543   6.266
 8175TIP3    H124468   7.038   4.476   6.288
 8175TIP3    H224469   7.050   4.623   6.253
 8176TIP3   OH224470   7.065   3.509   5.452
 8176TIP3    H124471   7.030   3.542   5.534
 8176TIP3    H224472   7.128   3.442   5.478
 8177TIP3   OH224473   0.474   7.175   5.790
 8177TIP3    H124474   0.512   7.119   5.723
 8177TIP3    H224475   0.539   7.243   5.805
 8178TIP3   OH224476   0.075   1.202   1.964
 8178TIP3    H124477   0.138   1.265   1.930
 8178TIP3    H224478   0.094   1.121   1.917
 8179TIP3   OH224479   5.644   4.544   5.162
 8179TIP3    H124480   5.633   4.471   5.102
 8179TIP3    H224481   5.592   4.521   5.239
 8180TIP3   OH224482   0.386   5.376   0.584
 8180TIP3    H124483   0.341   5.436   0.643
 8180TIP3    H224484   0.428   5.312   0.642
 8181TIP3   OH224485   4.381   4.531   1.898
 8181TIP3    H124486   4.394   4.479   1.977
 8181TIP3    H224487   4.359   4.468   1.830
 8182TIP3   OH224488   3.862   3.709   6.084
 8182TIP3    H124489   3.833   3.662   6.162
 8182TIP3    H224490   3.904   3.788   6.118
 8183TIP3   OH224491   3.616   1.442   0.165
 8183TIP3    H124492   3.676   1.379   0.205
 8183TIP3    H224493   3.616   1.420   0.072
 8184TIP3   OH224494   3.204   5.605   6.647
 8184TIP3    H124495   3.248   5.520   6.639
 8184TIP3    H224496   3.275   5.668   6.641
 8185TIP3   OH224497   3.458   1.363   5.749
 8185TIP3    H124498   3.400   1.313   5.693
 8185TIP3    H224499   3.542   1.363   5.702
 8186TIP3   OH224500   3.302   5.546   2.036
 8186TIP3    H124501   3.382   5.494   2.040
 8186TIP3    H224502   3.333   5.637   2.041
 8187TIP3   OH224503   0.340   6.236   6.141
 8187TIP3    H124504   0.412   6.181   6.110
 8187TIP3    H224505   0.380   6.299   6.200
 8188TIP3   OH224506   1.680   5.782   4.254
 8188TIP3    H124507   1.612   5.740   4.307
 8188TIP3    H224508   1.758   5.779   4.310
 8189TIP3   OH224509   8.280   4.064   0.453
 8189TIP3    H124510   8.198   4.106   0.426
 8189TIP3    H224511   8.297   3.999   0.386
 8190TIP3   OH224512   5.096   1.120   1.632
 8190TIP3    H124513   5.088   1.117   1.536
 8190TIP3    H224514   5.035   1.053   1.663
 8191TIP3   OH224515   1.346   6.348   6.498
 8191TIP3    H124516   1.339   6.440   6.524
 8191TIP3    H224517   1.266   6.307   6.530
 8192TIP3   OH224518   2.368   7.228   3.976
 8192TIP3    H124519   2.330   7.201   4.059
 8192TIP3    H224520   2.294   7.231   3.915
 8193TIP3   OH224521   8.258   3.400   3.538
 8193TIP3    H124522   8.270   3.316   3.494
 8193TIP3    H224523   8.293   3.387   3.626
 8194TIP3   OH224524   7.207   2.979   3.484
 8194TIP3    H124525   7.234   2.910   3.544
 8194TIP3    H224526   7.129   3.017   3.526
 8195TIP3   OH224527   3.129   2.749   0.517
 8195TIP3    H124528   3.111   2.829   0.565
 8195TIP3    H224529   3.207   2.712   0.559
 8196TIP3   OH224530   1.520   2.535   4.312
 8196TIP3    H124531   1.591   2.598   4.322
 8196TIP3    H224532   1.492   2.515   4.401
 8197TIP3   OH224533   2.997   2.027   6.283
 8197TIP3    H124534   3.071   1.966   6.282
 8197TIP3    H224535   2.946   2.004   6.205
 8198TIP3   OH224536   8.194   7.486   2.925
 8198TIP3    H124537   8.171   7.394   2.941
 8198TIP3    H224538   8.192   7.526   3.012
 8199TIP3   OH224539   4.177   3.155   3.977
 8199TIP3    H124540   4.090   3.193   3.995
 8199TIP3    H224541   4.192   3.172   3.884
 8200TIP3   OH224542   2.155   7.321   2.813
 8200TIP3    H124543   2.196   7.402   2.845
 8200TIP3    H224544   2.077   7.351   2.767
 8201TIP3   OH224545   2.099   6.518   0.311
 8201TIP3    H124546   2.058   6.601   0.338
 8201TIP3    H224547   2.193   6.537   0.313
 8202TIP3   OH224548   4.960   1.210   5.338
 8202TIP3    H124549   5.019   1.285   5.347
 8202TIP3    H224550   4.982   1.154   5.412
 8203TIP3   OH224551   7.391   4.646   4.698
 8203TIP3    H124552   7.450   4.706   4.653
 8203TIP3    H224553   7.441   4.617   4.774
 8204TIP3   OH224554   5.891   5.077   3.867
 8204TIP3    H124555   5.899   5.159   3.819
 8204TIP3    H224556   5.900   5.101   3.959
 8205TIP3   OH224557   2.315   3.192   3.776
 8205TIP3    H124558   2.331   3.113   3.724
 8205TIP3    H224559   2.329   3.164   3.867
 8206TIP3   OH224560   4.423   7.368   2.843
 8206TIP3    H124561   4.382   7.375   2.930
 8206TIP3    H224562   4.350   7.376   2.782
 8207TIP3   OH224563   7.857   1.795   5.085
 8207TIP3    H124564   7.857   1.799   4.989
 8207TIP3    H224565   7.921   1.727   5.106
 8208TIP3   OH224566   2.620   4.796   0.863
 8208TIP3    H124567   2.642   4.727   0.800
 8208TIP3    H224568   2.704   4.825   0.898
 8209TIP3   OH224569   2.277   6.948   5.767
 8209TIP3    H124570   2.193   6.993   5.755
 8209TIP3    H224571   2.258   6.878   5.828
 8210TIP3   OH224572   2.124   1.320   0.090
 8210TIP3    H124573   2.220   1.320   0.088
 8210TIP3    H224574   2.101   1.361   0.173
 8211TIP3   OH224575   3.371   6.452   3.980
 8211TIP3    H124576   3.280   6.445   4.009
 8211TIP3    H224577   3.408   6.365   3.995
 8212TIP3   OH224578   6.543   4.661   0.114
 8212TIP3    H124579   6.604   4.603   0.160
 8212TIP3    H224580   6.468   4.668   0.174
 8213TIP3   OH224581   5.491   4.551   5.847
 8213TIP3    H124582   5.467   4.633   5.804
 8213TIP3    H224583   5.413   4.496   5.841
 8214TIP3   OH224584   6.084   2.825   4.716
 8214TIP3    H124585   6.003   2.799   4.671
 8214TIP3    H224586   6.058   2.900   4.770
 8215TIP3   OH224587   0.349   6.004   2.497
 8215TIP3    H124588   0.314   6.091   2.515
 8215TIP3    H224589   0.444   6.014   2.506
 8216TIP3   OH224590   1.356   1.482   1.128
 8216TIP3    H124591   1.420   1.420   1.093
 8216TIP3    H224592   1.325   1.441   1.210
 8217TIP3   OH224593   5.676   0.137   3.306
 8217TIP3    H124594   5.738   0.180   3.249
 8217TIP3    H224595   5.669   0.195   3.382
 8218TIP3   OH224596   2.811   4.854   4.196
 8218TIP3    H124597   2.902   4.827   4.196
 8218TIP3    H224598   2.776   4.822   4.113
 8219TIP3   OH224599   7.097   1.190   1.929
 8219TIP3    H124600   7.050   1.161   2.008
 8219TIP3    H224601   7.069   1.281   1.917
 8220TIP3   OH224602   3.227   5.968   0.821
 8220TIP3    H124603   3.218   5.903   0.891
 8220TIP3    H224604   3.155   6.030   0.838
 8221TIP3   OH224605   6.279   1.639   3.864
 8221TIP3    H124606   6.234   1.623   3.947
 8221TIP3    H224607   6.336   1.714   3.881
 8222TIP3   OH224608   0.359   1.723   3.487
 8222TIP3    H124609   0.446   1.717   3.526
 8222TIP3    H224610   0.374   1.719   3.393
 8223TIP3   OH224611   1.309  -0.005   6.657
 8223TIP3    H124612   1.347   0.083   6.653
 8223TIP3    H224613   1.292  -0.019   6.750
 8224TIP3   OH224614   5.795   7.513   0.647
 8224TIP3    H124615   5.825   7.425   0.672
 8224TIP3    H224616   5.874   7.556   0.614
 8225TIP3   OH224617   1.735   2.687   4.435
 8225TIP3    H124618   1.747   2.629   4.510
 8225TIP3    H224619   1.744   2.775   4.470
 8226TIP3   OH224620   2.524   1.528   0.630
 8226TIP3    H124621   2.450   1.469   0.641
 8226TIP3    H224622   2.525   1.581   0.710
 8227TIP3   OH224623   0.346   4.713   2.376
 8227TIP3    H124624   0.260   4.722   2.417
 8227TIP3    H224625   0.374   4.625   2.398
 8228TIP3   OH224626   4.785   7.419   6.711
 8228TIP3    H124627   4.815   7.328   6.709
 8228TIP3    H224628   4.860   7.469   6.680
 8229TIP3   OH224629   3.422   1.600   6.222
 8229TIP3    H124630   3.411   1.694   6.210
 8229TIP3    H224631   3.437   1.566   6.134
 8230TIP3   OH224632   5.268   7.627   6.528
 8230TIP3    H124633   5.265   7.651   6.436
 8230TIP3    H224634   5.361   7.632   6.551
 8231TIP3   OH224635   1.905   0.242   2.521
 8231TIP3    H124636   1.834   0.206   2.573
 8231TIP3    H224637   1.931   0.322   2.568
 8232TIP3   OH224638   3.645   0.190   4.049
 8232TIP3    H124639   3.674   0.276   4.080
 8232TIP3    H224640   3.662   0.131   4.122
 8233TIP3   OH224641   6.666   0.804   0.333
 8233TIP3    H124642   6.582   0.758   0.328
 8233TIP3    H224643   6.727   0.740   0.369
 8234TIP3   OH224644   4.159   3.811   2.055
 8234TIP3    H124645   4.234   3.863   2.026
 8234TIP3    H224646   4.128   3.767   1.976
 8235TIP3   OH224647   7.638   0.490   6.111
 8235TIP3    H124648   7.561   0.477   6.055
 8235TIP3    H224649   7.681   0.404   6.113
 8236TIP3   OH224650   6.715   1.978   4.183
 8236TIP3    H124651   6.732   1.937   4.098
 8236TIP3    H224652   6.649   2.046   4.164
 8237TIP3   OH224653   6.096   5.265   1.790
 8237TIP3    H124654   6.085   5.300   1.702
 8237TIP3    H224655   6.007   5.251   1.822
 8238TIP3   OH224656   7.917   3.386   0.891
 8238TIP3    H124657   7.909   3.339   0.974
 8238TIP3    H224658   7.918   3.479   0.917
 8239TIP3   OH224659   4.496   5.328   4.383
 8239TIP3    H124660   4.516   5.302   4.293
 8239TIP3    H224661   4.547   5.408   4.397
 8240TIP3   OH224662   6.002   1.051   6.693
 8240TIP3    H124663   5.993   1.017   6.604
 8240TIP3    H224664   5.918   1.094   6.711
 8241TIP3   OH224665   1.491   2.414   0.543
 8241TIP3    H124666   1.509   2.428   0.636
 8241TIP3    H224667   1.546   2.340   0.518
 8242TIP3   OH224668   2.143   0.287   1.652
 8242TIP3    H124669   2.187   0.227   1.711
 8242TIP3    H224670   2.059   0.246   1.634
 8243TIP3   OH224671   4.601   5.494   1.041
 8243TIP3    H124672   4.680   5.482   1.094
 8243TIP3    H224673   4.531   5.452   1.091
 8244TIP3   OH224674   1.652   6.427   2.953
 8244TIP3    H124675   1.612   6.375   2.883
 8244TIP3    H224676   1.729   6.466   2.912
 8245TIP3   OH224677  -0.003   6.462   1.928
 8245TIP3    H124678  -0.001   6.516   1.849
 8245TIP3    H224679   0.014   6.524   1.999
 8246TIP3   OH224680   3.119   4.928   4.747
 8246TIP3    H124681   3.066   4.956   4.673
 8246TIP3    H224682   3.069   4.954   4.824
 8247TIP3   OH224683   0.001   3.711   1.364
 8247TIP3    H124684   0.081   3.757   1.388
 8247TIP3    H224685  -0.021   3.745   1.277
 8248TIP3   OH224686   6.490   4.345   1.608
 8248TIP3    H124687   6.412   4.379   1.651
 8248TIP3    H224688   6.562   4.367   1.667
 8249TIP3   OH224689   0.030   2.889   6.750
 8249TIP3    H124690   0.096   2.845   6.697
 8249TIP3    H224691  -0.049   2.888   6.696
 8250TIP3   OH224692   1.000   4.024   4.641
 8250TIP3    H124693   1.014   4.118   4.630
 8250TIP3    H224694   1.080   3.983   4.609
 8251TIP3   OH224695   3.422   2.536   4.959
 8251TIP3    H124696   3.396   2.624   4.934
 8251TIP3    H224697   3.420   2.486   4.876
 8252TIP3   OH224698   1.877   2.840   0.436
 8252TIP3    H124699   1.883   2.936   0.434
 8252TIP3    H224700   1.928   2.815   0.514
 8253TIP3   OH224701   0.988   6.123   6.404
 8253TIP3    H124702   1.061   6.108   6.464
 8253TIP3    H224703   0.960   6.213   6.423
 8254TIP3   OH224704   2.926   0.144   1.698
 8254TIP3    H124705   2.907   0.139   1.604
 8254TIP3    H224706   3.006   0.092   1.709
 8255TIP3   OH224707   2.465   5.727   4.894
 8255TIP3    H124708   2.440   5.767   4.977
 8255TIP3    H224709   2.419   5.644   4.892
 8256TIP3   OH224710   1.206   7.360   0.728
 8256TIP3    H124711   1.157   7.439   0.705
 8256TIP3    H224712   1.170   7.292   0.672
 8257TIP3   OH224713   4.912   2.451  -0.037
 8257TIP3    H124714   4.817   2.440  -0.036
 8257TIP3    H224715   4.926   2.540  -0.005
 8258TIP3   OH224716   1.049   3.398   6.530
 8258TIP3    H124717   1.040   3.327   6.594
 8258TIP3    H224718   1.048   3.478   6.583
 8259TIP3   OH224719   1.389   0.765   2.266
 8259TIP3    H124720   1.338   0.709   2.209
 8259TIP3    H224721   1.328   0.834   2.293
 8260TIP3   OH224722   1.758   4.344   1.585
 8260TIP3    H124723   1.825   4.368   1.521
 8260TIP3    H224724   1.745   4.424   1.636
 8261TIP3   OH224725   2.617   6.551   2.306
 8261TIP3    H124726   2.524   6.560   2.287
 8261TIP3    H224727   2.654   6.637   2.286
 8262TIP3   OH224728   6.438   5.929   0.944
 8262TIP3    H124729   6.367   5.989   0.924
 8262TIP3    H224730   6.395   5.848   0.970
 8263TIP3   OH224731   3.971   6.728   3.205
 8263TIP3    H124732   4.028   6.699   3.277
 8263TIP3    H224733   3.948   6.648   3.159
 8264TIP3   OH224734   8.050   2.677   4.796
 8264TIP3    H124735   7.979   2.652   4.855
 8264TIP3    H224736   8.007   2.718   4.721
 8265TIP3   OH224737   3.945   0.744   3.363
 8265TIP3    H124738   3.866   0.737   3.416
 8265TIP3    H224739   3.916   0.785   3.282
 8266TIP3   OH224740   0.039   0.657   1.413
 8266TIP3    H124741   0.067   0.703   1.333
 8266TIP3    H224742  -0.025   0.594   1.382
 8267TIP3   OH224743   6.900   2.388   2.268
 8267TIP3    H124744   6.959   2.463   2.267
 8267TIP3    H224745   6.954   2.316   2.301
 8268TIP3   OH224746   4.645   6.984   2.108
 8268TIP3    H124747   4.551   6.997   2.122
 8268TIP3    H224748   4.662   7.019   2.020
 8269TIP3   OH224749   5.568   3.739   6.663
 8269TIP3    H124750   5.540   3.825   6.631
 8269TIP3    H224751   5.663   3.744   6.665
 8270TIP3   OH224752   5.483   6.291   3.136
 8270TIP3    H124753   5.563   6.313   3.087
 8270TIP3    H224754   5.413   6.298   3.071
 8271TIP3   OH224755   3.282   0.403   6.686
 8271TIP3    H124756   3.315   0.489   6.661
 8271TIP3    H224757   3.221   0.421   6.757
 8272TIP3   OH224758   1.142   6.719   4.793
 8272TIP3    H124759   1.196   6.658   4.744
 8272TIP3    H224760   1.055   6.711   4.754
 8273TIP3   OH224761   0.747   1.648   3.246
 8273TIP3    H124762   0.724   1.733   3.283
 8273TIP3    H224763   0.681   1.588   3.282
 8274TIP3   OH224764   7.236   4.251   6.748
 8274TIP3    H124765   7.191   4.254   6.664
 8274TIP3    H224766   7.307   4.315   6.740
 8275TIP3   OH224767   1.783   2.283   5.110
 8275TIP3    H124768   1.706   2.314   5.061
 8275TIP3    H224769   1.747   2.245   5.190
 8276TIP3   OH224770   6.262   0.121   0.781
 8276TIP3    H124771   6.262   0.033   0.819
 8276TIP3    H224772   6.335   0.120   0.718
 8277TIP3   OH224773   1.398   1.490   3.612
 8277TIP3    H124774   1.342   1.430   3.660
 8277TIP3    H224775   1.418   1.444   3.530
 8278TIP3   OH224776   0.822   4.874   3.374
 8278TIP3    H124777   0.769   4.950   3.397
 8278TIP3    H224778   0.761   4.813   3.333
 8279TIP3   OH224779   5.910   6.055   6.461
 8279TIP3    H124780   6.003   6.057   6.485
 8279TIP3    H224781   5.891   5.962   6.451
 8280TIP3   OH224782   4.981   7.004   3.128
 8280TIP3    H124783   4.977   7.044   3.214
 8280TIP3    H224784   5.021   7.070   3.072
 8281TIP3   OH224785   5.705   1.780   0.915
 8281TIP3    H124786   5.690   1.859   0.967
 8281TIP3    H224787   5.792   1.751   0.941
 8282TIP3   OH224788   5.425   1.755   1.987
 8282TIP3    H124789   5.350   1.701   1.966
 8282TIP3    H224790   5.489   1.694   2.025
 8283TIP3   OH224791   5.804   5.427   4.478
 8283TIP3    H124792   5.865   5.417   4.405
 8283TIP3    H224793   5.724   5.385   4.449
 8284TIP3   OH224794   6.316   1.819   1.988
 8284TIP3    H124795   6.227   1.810   2.020
 8284TIP3    H224796   6.356   1.884   2.045
 8285TIP3   OH224797   6.125   3.921   6.368
 8285TIP3    H124798   6.158   3.833   6.381
 8285TIP3    H224799   6.202   3.978   6.380
 8286TIP3   OH224800   1.626   0.201   0.916
 8286TIP3    H124801   1.570   0.178   0.990
 8286TIP3    H224802   1.589   0.282   0.881
 8287TIP3   OH224803   2.435   4.333   5.808
 8287TIP3    H124804   2.424   4.318   5.902
 8287TIP3    H224805   2.435   4.429   5.799
 8288TIP3   OH224806   6.301   5.414   1.487
 8288TIP3    H124807   6.373   5.432   1.427
 8288TIP3    H224808   6.334   5.442   1.573
 8289TIP3   OH224809   2.627   5.942   3.088
 8289TIP3    H124810   2.539   5.917   3.116
 8289TIP3    H224811   2.685   5.901   3.152
 8290TIP3   OH224812   4.753   2.685   2.381
 8290TIP3    H124813   4.717   2.628   2.449
 8290TIP3    H224814   4.837   2.715   2.417
 8291TIP3   OH224815   8.170   7.197   6.628
 8291TIP3    H124816   8.161   7.117   6.681
 8291TIP3    H224817   8.147   7.169   6.540
 8292TIP3   OH224818   6.628   2.128   2.312
 8292TIP3    H124819   6.582   2.059   2.264
 8292TIP3    H224820   6.718   2.097   2.318
 8293TIP3   OH224821   5.268   3.285   1.399
 8293TIP3    H124822   5.331   3.310   1.466
 8293TIP3    H224823   5.274   3.353   1.332
 8294TIP3   OH224824   1.896   2.417   1.331
 8294TIP3    H124825   1.974   2.470   1.312
 8294TIP3    H224826   1.874   2.376   1.247
 8295TIP3   OH224827   8.183   3.588   2.422
 8295TIP3    H124828   8.184   3.618   2.513
 8295TIP3    H224829   8.184   3.669   2.370
 8296TIP3   OH224830   2.442   1.701   5.668
 8296TIP3    H124831   2.516   1.730   5.615
 8296TIP3    H224832   2.380   1.774   5.665
 8297TIP3   OH224833   2.777   2.490   2.036
 8297TIP3    H124834   2.840   2.557   2.009
 8297TIP3    H224835   2.696   2.538   2.053
 8298TIP3   OH224836   4.979   5.796   1.446
 8298TIP3    H124837   4.987   5.891   1.460
 8298TIP3    H224838   5.068   5.763   1.454
 8299TIP3   OH224839   5.829   1.970   6.057
 8299TIP3    H124840   5.909   2.019   6.041
 8299TIP3    H224841   5.827   1.903   5.989
 8300TIP3   OH224842   1.942   7.097   4.040
 8300TIP3    H124843   1.898   7.181   4.023
 8300TIP3    H224844   1.964   7.100   4.134
 8301TIP3   OH224845   4.164   3.754   5.503
 8301TIP3    H124846   4.194   3.844   5.488
 8301TIP3    H224847   4.148   3.750   5.597
 8302TIP3   OH224848   6.474   6.533   1.920
 8302TIP3    H124849   6.554   6.567   1.880
 8302TIP3    H224850   6.424   6.498   1.847
 8303TIP3   OH224851   0.996   3.416   0.247
 8303TIP3    H124852   1.037   3.391   0.164
 8303TIP3    H224853   0.934   3.485   0.223
 8304TIP3   OH224854   2.722   1.360   6.631
 8304TIP3    H124855   2.731   1.454   6.615
 8304TIP3    H224856   2.745   1.319   6.547
 8305TIP3   OH224857   7.285   0.173   3.280
 8305TIP3    H124858   7.228   0.165   3.357
 8305TIP3    H224859   7.266   0.095   3.228
 8306TIP3   OH224860   0.146   7.423   5.308
 8306TIP3    H124861   0.068   7.473   5.282
 8306TIP3    H224862   0.191   7.404   5.226
 8307TIP3   OH224863   0.386   4.429   3.422
 8307TIP3    H124864   0.361   4.349   3.466
 8307TIP3    H224865   0.315   4.446   3.359
 8308TIP3   OH224866   1.112   6.102   6.065
 8308TIP3    H124867   1.185   6.052   6.102
 8308TIP3    H224868   1.143   6.193   6.066
 8309TIP3   OH224869   6.117   3.316   1.273
 8309TIP3    H124870   6.094   3.232   1.233
 8309TIP3    H224871   6.047   3.332   1.337
 8310TIP3   OH224872   4.047   4.066   1.490
 8310TIP3    H124873   4.059   4.159   1.472
 8310TIP3    H224874   3.953   4.056   1.499
 8311TIP3   OH224875   5.527   6.674   0.880
 8311TIP3    H124876   5.565   6.683   0.968
 8311TIP3    H224877   5.433   6.666   0.896
 8312TIP3   OH224878   4.780   2.093   3.490
 8312TIP3    H124879   4.749   2.006   3.462
 8312TIP3    H224880   4.863   2.075   3.534
 8313TIP3   OH224881   1.313   6.301   6.116
 8313TIP3    H124882   1.354   6.323   6.032
 8313TIP3    H224883   1.384   6.265   6.168
 8314TIP3   OH224884   5.304   1.371   3.518
 8314TIP3    H124885   5.301   1.355   3.423
 8314TIP3    H224886   5.261   1.456   3.529
 8315TIP3   OH224887   2.065   1.687   3.888
 8315TIP3    H124888   2.126   1.613   3.888
 8315TIP3    H224889   2.095   1.742   3.815
 8316TIP3   OH224890   4.318   2.636   6.365
 8316TIP3    H124891   4.271   2.607   6.443
 8316TIP3    H224892   4.250   2.662   6.304
 8317TIP3   OH224893   1.996   3.425   1.692
 8317TIP3    H124894   2.031   3.507   1.726
 8317TIP3    H224895   1.904   3.426   1.718
 8318TIP3   OH224896   4.610   4.061   2.047
 8318TIP3    H124897   4.557   4.140   2.058
 8318TIP3    H224898   4.668   4.081   1.974
 8319TIP3   OH224899   1.891   1.049   6.162
 8319TIP3    H124900   1.876   0.992   6.087
 8319TIP3    H224901   1.807   1.092   6.178
 8320TIP3   OH224902   4.010   0.105   1.728
 8320TIP3    H124903   3.983   0.196   1.741
 8320TIP3    H224904   4.080   0.110   1.662
 8321TIP3   OH224905   7.182   1.510   4.502
 8321TIP3    H124906   7.258   1.537   4.451
 8321TIP3    H224907   7.219   1.461   4.575
 8322TIP3   OH224908   6.171   3.948   2.671
 8322TIP3    H124909   6.155   4.042   2.664
 8322TIP3    H224910   6.221   3.926   2.593
 8323TIP3   OH224911   0.679   1.262   2.282
 8323TIP3    H124912   0.714   1.204   2.214
 8323TIP3    H224913   0.754   1.279   2.339
 8324TIP3   OH224914   4.669   3.905   2.253
 8324TIP3    H124915   4.582   3.883   2.286
 8324TIP3    H224916   4.652   3.952   2.171
 8325TIP3   OH224917   7.860   4.279   1.252
 8325TIP3    H124918   7.840   4.352   1.193
 8325TIP3    H224919   7.834   4.201   1.202
 8326TIP3   OH224920   4.853   1.249   6.503
 8326TIP3    H124921   4.872   1.263   6.410
 8326TIP3    H224922   4.820   1.159   6.507
 8327TIP3   OH224923   3.174   1.312   3.474
 8327TIP3    H124924   3.179   1.311   3.570
 8327TIP3    H224925   3.255   1.269   3.446
 8328TIP3   OH224926   3.999   4.032   3.935
 8328TIP3    H124927   3.976   4.092   3.863
 8328TIP3    H224928   4.033   4.089   4.004
 8329TIP3   OH224929   5.873   3.085   3.531
 8329TIP3    H124930   5.838   3.066   3.444
 8329TIP3    H224931   5.917   3.170   3.520
 8330TIP3   OH224932   0.846   6.163   6.053
 8330TIP3    H124933   0.933   6.134   6.082
 8330TIP3    H224934   0.862   6.205   5.969
 8331TIP3   OH224935   3.846   6.595   0.212
 8331TIP3    H124936   3.908   6.531   0.248
 8331TIP3    H224937   3.764   6.547   0.206
 8332TIP3   OH224938   0.910   0.283   1.701
 8332TIP3    H124939   0.823   0.322   1.693
 8332TIP3    H224940   0.970   0.356   1.696
 8333TIP3   OH224941   8.194   7.746   5.540
 8333TIP3    H124942   8.141   7.775   5.465
 8333TIP3    H224943   8.139   7.680   5.583
 8334TIP3   OH224944   3.119   6.720   2.581
 8334TIP3    H124945   3.038   6.753   2.541
 8334TIP3    H224946   3.170   6.799   2.599
 8335TIP3   OH224947   7.104   3.566   4.374
 8335TIP3    H124948   7.195   3.591   4.361
 8335TIP3    H224949   7.055   3.626   4.318
 8336TIP3   OH224950   1.775   7.320   0.470
 8336TIP3    H124951   1.784   7.345   0.562
 8336TIP3    H224952   1.855   7.353   0.428
 8337TIP3   OH224953   4.103   7.531   5.056
 8337TIP3    H124954   4.094   7.602   5.119
 8337TIP3    H224955   4.142   7.571   4.979
 8338TIP3   OH224956   5.224   5.233   3.256
 8338TIP3    H124957   5.264   5.315   3.286
 8338TIP3    H224958   5.245   5.228   3.163
 8339TIP3   OH224959   2.949   0.108   6.435
 8339TIP3    H124960   3.005   0.054   6.379
 8339TIP3    H224961   2.966   0.198   6.406
 8340TIP3   OH224962   5.265   1.441   4.924
 8340TIP3    H124963   5.247   1.409   4.836
 8340TIP3    H224964   5.179   1.453   4.965
 8341TIP3   OH224965   1.969   2.554   2.189
 8341TIP3    H124966   1.894   2.500   2.165
 8341TIP3    H224967   1.932   2.640   2.208
 8342TIP3   OH224968   3.187   7.325   4.925
 8342TIP3    H124969   3.168   7.236   4.954
 8342TIP3    H224970   3.108   7.353   4.880
 8343TIP3   OH224971   7.638   6.714   2.663
 8343TIP3    H124972   7.705   6.651   2.689
 8343TIP3    H224973   7.594   6.738   2.745
 8344TIP3   OH224974   2.801   7.595   1.837
 8344TIP3    H124975   2.889   7.631   1.830
 8344TIP3    H224976   2.748   7.668   1.870
 8345TIP3   OH224977   3.806   7.343   1.203
 8345TIP3    H124978   3.839   7.347   1.113
 8345TIP3    H224979   3.846   7.420   1.246
 8346TIP3   OH224980   7.997   4.126   3.204
 8346TIP3    H124981   7.930   4.122   3.135
 8346TIP3    H224982   8.052   4.050   3.189
 8347TIP3   OH224983   2.636   5.947   1.851
 8347TIP3    H124984   2.592   5.933   1.767
 8347TIP3    H224985   2.596   5.883   1.910
 8348TIP3   OH224986   5.528   3.251   4.416
 8348TIP3    H124987   5.527   3.180   4.480
 8348TIP3    H224988   5.621   3.262   4.394
 8349TIP3   OH224989   7.392   2.943   4.319
 8349TIP3    H124990   7.459   2.970   4.257
 8349TIP3    H224991   7.441   2.920   4.399
 8350TIP3   OH224992   1.446   5.262   0.580
 8350TIP3    H124993   1.520   5.217   0.621
 8350TIP3    H224994   1.387   5.282   0.652
 8351TIP3   OH224995  -0.042   5.655   0.069
 8351TIP3    H124996  -0.006   5.744   0.075
 8351TIP3    H224997  -0.046   5.637  -0.024
 8352TIP3   OH224998   5.632   3.234   5.901
 8352TIP3    H124999   5.639   3.309   5.961
 8352TIP3    H225000   5.667   3.160   5.950
 8353TIP3   OH225001   6.896   6.697   3.496
 8353TIP3    H125002   6.979   6.700   3.448
 8353TIP3    H225003   6.921   6.711   3.587
 8354TIP3   OH225004   0.605   4.590   0.760
 8354TIP3    H125005   0.698   4.592   0.782
 8354TIP3    H225006   0.561   4.620   0.839
 8355TIP3   OH225007   4.882   4.741   5.609
 8355TIP3    H125008   4.843   4.825   5.584
 8355TIP3    H225009   4.816   4.676   5.585
 8356TIP3   OH225010   1.305   4.675   3.560
 8356TIP3    H125011   1.299   4.744   3.494
 8356TIP3    H225012   1.390   4.634   3.545
 8357TIP3   OH225013   2.066   3.210   6.213
 8357TIP3    H125014   2.045   3.279   6.149
 8357TIP3    H225015   1.984   3.162   6.224
 8358TIP3   OH225016   1.338   5.882   2.385
 8358TIP3    H125017   1.260   5.839   2.419
 8358TIP3    H225018   1.410   5.842   2.433
 8359TIP3   OH225019   6.598   3.759   6.030
 8359TIP3    H125020   6.636   3.677   6.000
 8359TIP3    H225021   6.672   3.810   6.063
 8360TIP3   OH225022   5.902   3.461   0.359
 8360TIP3    H125023   5.964   3.388   0.356
 8360TIP3    H225024   5.954   3.535   0.391
 8361TIP3   OH225025   5.185   6.220   4.543
 8361TIP3    H125026   5.128   6.172   4.603
 8361TIP3    H225027   5.158   6.192   4.456
 8362TIP3   OH225028   2.859   5.383   6.353
 8362TIP3    H125029   2.908   5.442   6.411
 8362TIP3    H225030   2.805   5.441   6.300
 8363TIP3   OH225031   5.783   1.743   5.890
 8363TIP3    H125032   5.743   1.691   5.821
 8363TIP3    H225033   5.747   1.707   5.972
 8364TIP3   OH225034   3.326   7.659   4.673
 8364TIP3    H125035   3.270   7.672   4.596
 8364TIP3    H225036   3.415   7.659   4.638
 8365TIP3   OH225037   6.205   4.086   4.480
 8365TIP3    H125038   6.263   4.111   4.407
 8365TIP3    H225039   6.227   4.148   4.549
 8366TIP3   OH225040   0.849   6.456   6.103
 8366TIP3    H125041   0.839   6.376   6.051
 8366TIP3    H225042   0.891   6.517   6.043
 8367TIP3   OH225043   5.327   5.668   3.091
 8367TIP3    H125044   5.330   5.704   3.180
 8367TIP3    H225045   5.379   5.729   3.039
 8368TIP3   OH225046   0.229   6.656   2.396
 8368TIP3    H125047   0.303   6.597   2.383
 8368TIP3    H225048   0.265   6.731   2.443
 8369TIP3   OH225049   1.518   6.228   6.296
 8369TIP3    H125050   1.599   6.271   6.322
 8369TIP3    H225051   1.454   6.254   6.362
 8370TIP3   OH225052   0.722   1.690   5.200
 8370TIP3    H125053   0.656   1.698   5.131
 8370TIP3    H225054   0.759   1.602   5.186
 8371TIP3   OH225055   3.970   1.082   6.244
 8371TIP3    H125056   3.894   1.119   6.290
 8371TIP3    H225057   3.939   0.997   6.213
 8372TIP3   OH225058   6.742   2.155   4.865
 8372TIP3    H125059   6.825   2.198   4.887
 8372TIP3    H225060   6.765   2.092   4.797
 8373TIP3   OH225061   2.038   7.764   6.728
 8373TIP3    H125062   2.050   7.759   6.633
 8373TIP3    H225063   2.059   7.855   6.750
 8374TIP3   OH225064   3.484   6.214   4.063
 8374TIP3    H125065   3.511   6.123   4.076
 8374TIP3    H225066   3.394   6.217   4.095
 8375TIP3   OH225067   5.897   2.324   2.093
 8375TIP3    H125068   5.823   2.374   2.127
 8375TIP3    H225069   5.895   2.341   1.999
 8376TIP3   OH225070   6.967   0.335   3.390
 8376TIP3    H125071   6.947   0.277   3.464
 8376TIP3    H225072   6.885   0.341   3.341
 8377TIP3   OH225073   1.642   7.211   3.676
 8377TIP3    H125074   1.663   7.117   3.681
 8377TIP3    H225075   1.637   7.238   3.768
 8378TIP3   OH225076   1.945   1.173   2.463
 8378TIP3    H125077   1.921   1.152   2.373
 8378TIP3    H225078   1.912   1.262   2.477
 8379TIP3   OH225079   3.715   6.678   1.810
 8379TIP3    H125080   3.763   6.650   1.888
 8379TIP3    H225081   3.709   6.599   1.756
 8380TIP3   OH225082   5.925   1.845   1.652
 8380TIP3    H125083   6.021   1.845   1.647
 8380TIP3    H225084   5.897   1.902   1.580
 8381TIP3   OH225085   1.448   7.159   6.067
 8381TIP3    H125086   1.444   7.093   5.998
 8381TIP3    H225087   1.405   7.117   6.142
 8382TIP3   OH225088   7.140   1.121   5.500
 8382TIP3    H125089   7.064   1.140   5.445
 8382TIP3    H225090   7.128   1.030   5.526
 8383TIP3   OH225091   2.169   0.620   2.797
 8383TIP3    H125092   2.223   0.678   2.849
 8383TIP3    H225093   2.131   0.677   2.729
 8384TIP3   OH225094   2.447   5.573   3.729
 8384TIP3    H125095   2.471   5.495   3.780
 8384TIP3    H225096   2.488   5.646   3.775
 8385TIP3   OH225097   2.391   1.887   1.642
 8385TIP3    H125098   2.313   1.941   1.633
 8385TIP3    H225099   2.357   1.802   1.672
 8386TIP3   OH225100   4.744   5.739   5.388
 8386TIP3    H125101   4.736   5.671   5.455
 8386TIP3    H225102   4.797   5.699   5.319
 8387TIP3   OH225103   3.393   1.251   3.112
 8387TIP3    H125104   3.406   1.250   3.206
 8387TIP3    H225105   3.318   1.309   3.098
 8388TIP3   OH225106   1.817   1.183   2.912
 8388TIP3    H125107   1.874   1.258   2.929
 8388TIP3    H225108   1.769   1.208   2.832
 8389TIP3   OH225109   2.133   4.411   4.252
 8389TIP3    H125110   2.162   4.380   4.166
 8389TIP3    H225111   2.038   4.423   4.242
 8390TIP3   OH225112   2.527   3.110   2.867
 8390TIP3    H125113   2.489   3.197   2.877
 8390TIP3    H225114   2.460   3.058   2.823
 8391TIP3   OH225115   6.498   7.471   4.740
 8391TIP3    H125116   6.495   7.380   4.769
 8391TIP3    H225117   6.551   7.469   4.660
 8392TIP3   OH225118   3.122   2.786   4.598
 8392TIP3    H125119   3.106   2.737   4.518
 8392TIP3    H225120   3.140   2.720   4.664
 8393TIP3   OH225121   0.015   2.097   3.869
 8393TIP3    H125122   0.033   2.132   3.782
 8393TIP3    H225123  -0.016   2.008   3.853
 8394TIP3   OH225124   0.754   2.298   1.820
 8394TIP3    H125125   0.781   2.383   1.856
 8394TIP3    H225126   0.728   2.317   1.730
 8395TIP3   OH225127  -0.045   6.953   6.730
 8395TIP3    H125128   0.039   6.940   6.685
 8395TIP3    H225129  -0.051   6.881   6.792
 8396TIP3   OH225130   6.314   1.302   4.512
 8396TIP3    H125131   6.364   1.224   4.489
 8396TIP3    H225132   6.277   1.333   4.430
 8397TIP3   OH225133   0.536   5.031   4.606
 8397TIP3    H125134   0.454   5.072   4.635
 8397TIP3    H225135   0.578   5.098   4.552
 8398TIP3   OH225136   3.650   0.545   3.229
 8398TIP3    H125137   3.582   0.482   3.253
 8398TIP3    H225138   3.633   0.620   3.287
 8399TIP3   OH225139   7.109   2.474   5.794
 8399TIP3    H125140   7.204   2.478   5.805
 8399TIP3    H225141   7.091   2.535   5.722
 8400TIP3   OH225142   1.322   5.246   1.808
 8400TIP3    H125143   1.391   5.239   1.742
 8400TIP3    H225144   1.358   5.305   1.874
 8401TIP3   OH225145   1.915   1.344   6.014
 8401TIP3    H125146   1.918   1.267   6.072
 8401TIP3    H225147   1.993   1.335   5.959
 8402TIP3   OH225148   0.054   3.840   6.170
 8402TIP3    H125149   0.085   3.929   6.152
 8402TIP3    H225150  -0.033   3.836   6.130
 8403TIP3   OH225151   1.173   5.122   0.489
 8403TIP3    H125152   1.115   5.048   0.508
 8403TIP3    H225153   1.254   5.102   0.535
 8404TIP3   OH225154   5.537   1.288   3.660
 8404TIP3    H125155   5.461   1.298   3.604
 8404TIP3    H225156   5.570   1.377   3.671
 8405TIP3   OH225157   3.408   4.466   5.213
 8405TIP3    H125158   3.482   4.465   5.274
 8405TIP3    H225159   3.438   4.521   5.140
 8406TIP3   OH225160   3.230   6.853   1.206
 8406TIP3    H125161   3.204   6.770   1.246
 8406TIP3    H225162   3.149   6.891   1.173
 8407TIP3   OH225163   6.453   5.194   1.152
 8407TIP3    H125164   6.433   5.241   1.072
 8407TIP3    H225165   6.374   5.145   1.172
 8408TIP3   OH225166   3.549   6.451   6.145
 8408TIP3    H125167   3.623   6.422   6.091
 8408TIP3    H225168   3.500   6.510   6.087
 8409TIP3   OH225169   1.776   5.179   1.177
 8409TIP3    H125170   1.790   5.085   1.187
 8409TIP3    H225171   1.798   5.197   1.085
 8410TIP3   OH225172   2.813   2.206   4.665
 8410TIP3    H125173   2.845   2.127   4.710
 8410TIP3    H225174   2.887   2.235   4.612
 8411TIP3   OH225175   3.006   6.565   5.006
 8411TIP3    H125176   3.048   6.568   4.920
 8411TIP3    H225177   3.039   6.484   5.045
 8412TIP3   OH225178   7.812   4.103   5.021
 8412TIP3    H125179   7.811   4.134   5.112
 8412TIP3    H225180   7.720   4.087   5.001
 8413TIP3   OH225181   7.903   1.943   0.382
 8413TIP3    H125182   7.967   2.014   0.384
 8413TIP3    H225183   7.900   1.914   0.291
 8414TIP3   OH225184   3.591   1.389   2.755
 8414TIP3    H125185   3.672   1.407   2.802
 8414TIP3    H225186   3.619   1.358   2.669
 8415TIP3   OH225187   2.768   3.147   2.111
 8415TIP3    H125188   2.684   3.170   2.072
 8415TIP3    H225189   2.829   3.212   2.075
 8416TIP3   OH225190   7.842   1.039   2.269
 8416TIP3    H125191   7.847   1.034   2.174
 8416TIP3    H225192   7.868   1.128   2.290
 8417TIP3   OH225193   1.692   3.321   3.573
 8417TIP3    H125194   1.610   3.367   3.555
 8417TIP3    H225195   1.688   3.243   3.518
 8418TIP3   OH225196   7.551   6.014   3.878
 8418TIP3    H125197   7.643   6.025   3.904
 8418TIP3    H225198   7.512   5.965   3.951
 8419TIP3   OH225199   4.819   7.418   4.380
 8419TIP3    H125200   4.889   7.464   4.335
 8419TIP3    H225201   4.860   7.337   4.412
 8420TIP3   OH225202   4.936   7.018   1.791
 8420TIP3    H125203   4.841   7.030   1.797
 8420TIP3    H225204   4.961   6.985   1.877
 8421TIP3   OH225205   4.711   7.176   3.967
 8421TIP3    H125206   4.670   7.259   3.993
 8421TIP3    H225207   4.783   7.165   4.028
 8422TIP3   OH225208   5.975   3.737   5.677
 8422TIP3    H125209   5.932   3.674   5.620
 8422TIP3    H225210   6.039   3.781   5.621
 8423TIP3   OH225211   4.799   0.929   1.092
 8423TIP3    H125212   4.887   0.909   1.125
 8423TIP3    H225213   4.760   0.844   1.074
 8424TIP3   OH225214   7.339   0.449   1.971
 8424TIP3    H125215   7.275   0.514   1.944
 8424TIP3    H225216   7.414   0.463   1.914
 8425TIP3   OH225217   2.774   7.226   4.847
 8425TIP3    H125218   2.779   7.153   4.909
 8425TIP3    H225219   2.742   7.187   4.766
 8426TIP3   OH225220   2.316   5.125   6.082
 8426TIP3    H125221   2.405   5.160   6.084
 8426TIP3    H225222   2.313   5.063   6.155
 8427TIP3   OH225223   3.217   5.333   1.272
 8427TIP3    H125224   3.169   5.279   1.335
 8427TIP3    H225225   3.290   5.278   1.245
 8428TIP3   OH225226   7.480   7.254   1.078
 8428TIP3    H125227   7.518   7.283   1.161
 8428TIP3    H225228   7.553   7.216   1.030
 8429TIP3   OH225229   4.735   0.603   1.398
 8429TIP3    H125230   4.827   0.579   1.409
 8429TIP3    H225231   4.686   0.531   1.438
 8430TIP3   OH225232   7.732   6.700   1.510
 8430TIP3    H125233   7.705   6.734   1.596
 8430TIP3    H225234   7.711   6.607   1.514
 8431TIP3   OH225235   6.406   0.388   4.583
 8431TIP3    H125236   6.341   0.359   4.647
 8431TIP3    H225237   6.365   0.369   4.498
 8432TIP3   OH225238   7.128   6.183   4.933
 8432TIP3    H125239   7.197   6.248   4.920
 8432TIP3    H225240   7.164   6.122   4.997
 8433TIP3   OH225241   7.698   5.985   6.193
 8433TIP3    H125242   7.711   5.902   6.146
 8433TIP3    H225243   7.603   5.995   6.197
 8434TIP3   OH225244   5.728   3.026   2.453
 8434TIP3    H125245   5.683   2.942   2.454
 8434TIP3    H225246   5.680   3.080   2.515
 8435TIP3   OH225247   1.717   5.625   4.016
 8435TIP3    H125248   1.794   5.658   3.970
 8435TIP3    H225249   1.722   5.667   4.102
 8436TIP3   OH225250   6.391   5.337   2.310
 8436TIP3    H125251   6.401   5.266   2.373
 8436TIP3    H225252   6.396   5.417   2.363
 8437TIP3   OH225253   3.894   5.933   3.961
 8437TIP3    H125254   3.944   5.867   4.009
 8437TIP3    H225255   3.957   6.004   3.945
 8438TIP3   OH225256   8.165   4.457   4.397
 8438TIP3    H125257   8.142   4.538   4.443
 8438TIP3    H225258   8.139   4.472   4.306
 8439TIP3   OH225259   0.658   6.817   5.822
 8439TIP3    H125260   0.584   6.812   5.882
 8439TIP3    H225261   0.632   6.882   5.756
 8440TIP3   OH225262   6.579   4.375   1.110
 8440TIP3    H125263   6.674   4.369   1.115
 8440TIP3    H225264   6.553   4.406   1.197
 8441TIP3   OH225265   5.576   0.041   4.065
 8441TIP3    H125266   5.511   0.089   4.117
 8441TIP3    H225267   5.568  -0.049   4.095
 8442TIP3   OH225268   0.659   4.551   4.061
 8442TIP3    H125269   0.645   4.645   4.063
 8442TIP3    H225270   0.581   4.514   4.104
 8443TIP3   OH225271   7.001   4.746   1.235
 8443TIP3    H125272   6.996   4.652   1.252
 8443TIP3    H225273   6.919   4.766   1.189
 8444TIP3   OH225274   4.818   2.504   2.174
 8444TIP3    H125275   4.813   2.578   2.234
 8444TIP3    H225276   4.732   2.502   2.131
 8445TIP3   OH225277   7.187   6.499   1.770
 8445TIP3    H125278   7.181   6.407   1.745
 8445TIP3    H225279   7.159   6.501   1.861
 8446TIP3   OH225280   7.034   3.058   2.584
 8446TIP3    H125281   7.042   2.963   2.575
 8446TIP3    H225282   7.107   3.082   2.641
 8447TIP3   OH225283   0.397   0.665   4.360
 8447TIP3    H125284   0.491   0.649   4.366
 8447TIP3    H225285   0.385   0.752   4.397
 8448TIP3   OH225286   1.908   6.367   5.825
 8448TIP3    H125287   1.977   6.300   5.823
 8448TIP3    H225288   1.855   6.344   5.901
 8449TIP3   OH225289   1.789   5.822   2.169
 8449TIP3    H125290   1.872   5.849   2.208
 8449TIP3    H225291   1.771   5.888   2.102
 8450TIP3   OH225292   0.984   1.721   4.724
 8450TIP3    H125293   0.911   1.724   4.786
 8450TIP3    H225294   0.967   1.644   4.670
 8451TIP3   OH225295   4.483   6.492   6.525
 8451TIP3    H125296   4.402   6.538   6.546
 8451TIP3    H225297   4.506   6.446   6.605
 8452TIP3   OH225298   5.678   2.570   6.566
 8452TIP3    H125299   5.750   2.533   6.618
 8452TIP3    H225300   5.686   2.526   6.481
 8453TIP3   OH225301   8.056   5.015   0.084
 8453TIP3    H125302   8.104   5.067   0.149
 8453TIP3    H225303   7.974   4.992   0.129
 8454TIP3   OH225304   3.847   4.795   0.066
 8454TIP3    H125305   3.834   4.781   0.160
 8454TIP3    H225306   3.792   4.870   0.045
 8455TIP3   OH225307   0.709   1.866   0.929
 8455TIP3    H125308   0.683   1.839   0.841
 8455TIP3    H225309   0.652   1.817   0.988
 8456TIP3   OH225310   0.713   3.642   2.352
 8456TIP3    H125311   0.759   3.596   2.281
 8456TIP3    H225312   0.718   3.735   2.326
 8457TIP3   OH225313   4.541   6.604   5.490
 8457TIP3    H125314   4.477   6.534   5.478
 8457TIP3    H225315   4.575   6.622   5.402
 8458TIP3   OH225316   1.844   3.828   3.734
 8458TIP3    H125317   1.797   3.745   3.731
 8458TIP3    H225318   1.775   3.894   3.727
 8459TIP3   OH225319   1.857   2.461   4.319
 8459TIP3    H125320   1.810   2.520   4.378
 8459TIP3    H225321   1.835   2.374   4.351
 8460TIP3   OH225322   6.801   0.725   4.478
 8460TIP3    H125323   6.821   0.651   4.419
 8460TIP3    H225324   6.743   0.687   4.544
 8461TIP3   OH225325   6.164   6.558   3.287
 8461TIP3    H125326   6.244   6.510   3.268
 8461TIP3    H225327   6.176   6.591   3.376
 8462TIP3   OH225328   5.245   4.932   2.921
 8462TIP3    H125329   5.197   4.875   2.981
 8462TIP3    H225330   5.336   4.907   2.933
 8463TIP3   OH225331   3.550   7.219   6.782
 8463TIP3    H125332   3.517   7.201   6.870
 8463TIP3    H225333   3.477   7.197   6.724
 8464TIP3   OH225334   1.306   4.966   0.218
 8464TIP3    H125335   1.221   4.950   0.259
 8464TIP3    H225336   1.329   4.882   0.177
 8465TIP3   OH225337   2.131   2.346   5.318
 8465TIP3    H125338   2.054   2.388   5.357
 8465TIP3    H225339   2.204   2.403   5.342
 8466TIP3   OH225340   5.334   6.081   1.140
 8466TIP3    H125341   5.244   6.049   1.139
 8466TIP3    H225342   5.353   6.098   1.232
 8467TIP3   OH225343   2.679   7.359   3.713
 8467TIP3    H125344   2.742   7.393   3.649
 8467TIP3    H225345   2.640   7.283   3.669
 8468TIP3   OH225346   0.931   5.187   3.803
 8468TIP3    H125347   0.850   5.237   3.813
 8468TIP3    H225348   1.000   5.252   3.816
 8469TIP3   OH225349   7.660   4.656   0.008
 8469TIP3    H125350   7.688   4.678   0.097
 8469TIP3    H225351   7.739   4.661  -0.045
 8470TIP3   OH225352   3.701   5.360   1.041
 8470TIP3    H125353   3.690   5.446   1.001
 8470TIP3    H225354   3.794   5.354   1.060
 8471TIP3   OH225355   0.078   5.345   1.695
 8471TIP3    H125356   0.161   5.386   1.717
 8471TIP3    H225357   0.039   5.322   1.779
 8472TIP3   OH225358   6.300   0.800   0.840
 8472TIP3    H125359   6.264   0.872   0.789
 8472TIP3    H225360   6.280   0.722   0.788
 8473TIP3   OH225361   6.544   2.605   1.057
 8473TIP3    H125362   6.466   2.634   1.009
 8473TIP3    H225363   6.611   2.597   0.989
 8474TIP3   OH225364   2.488   2.972   6.682
 8474TIP3    H125365   2.541   2.917   6.740
 8474TIP3    H225366   2.549   3.000   6.614
 8475TIP3   OH225367   3.603   6.649   2.330
 8475TIP3    H125368   3.570   6.692   2.408
 8475TIP3    H225369   3.582   6.556   2.344
 8476TIP3   OH225370   3.286   3.408   0.346
 8476TIP3    H125371   3.192   3.426   0.334
 8476TIP3    H225372   3.306   3.447   0.431
 8477TIP3   OH225373   7.867   0.196   5.366
 8477TIP3    H125374   7.834   0.240   5.288
 8477TIP3    H225375   7.846   0.104   5.352
 8478TIP3   OH225376   7.739   0.721   6.333
 8478TIP3    H125377   7.701   0.750   6.250
 8478TIP3    H225378   7.734   0.799   6.389
 8479TIP3   OH225379   4.056   2.097   0.173
 8479TIP3    H125380   4.137   2.130   0.135
 8479TIP3    H225381   4.000   2.175   0.182
 8480TIP3   OH225382   7.023   1.337   0.170
 8480TIP3    H125383   7.045   1.380   0.088
 8480TIP3    H225384   6.952   1.391   0.207
 8481TIP3   OH225385   0.226   6.872   4.594
 8481TIP3    H125386   0.238   6.786   4.633
 8481TIP3    H225387   0.307   6.919   4.614
 8482TIP3   OH225388   5.818   1.883   2.823
 8482TIP3    H125389   5.912   1.903   2.831
 8482TIP3    H225390   5.788   1.939   2.752
 8483TIP3   OH225391  -0.016   6.484   4.788
 8483TIP3    H125392   0.066   6.514   4.749
 8483TIP3    H225393  -0.058   6.563   4.821
 8484TIP3   OH225394   1.150   5.640   2.989
 8484TIP3    H125395   1.163   5.723   3.033
 8484TIP3    H225396   1.233   5.593   3.000
 8485TIP3   OH225397   1.801   4.053   2.827
 8485TIP3    H125398   1.766   4.030   2.913
 8485TIP3    H225399   1.788   4.147   2.820
 8486TIP3   OH225400   6.699   0.775   2.664
 8486TIP3    H125401   6.622   0.829   2.646
 8486TIP3    H225402   6.687   0.747   2.755
 8487TIP3   OH225403   1.121   3.920   5.784
 8487TIP3    H125404   1.126   3.826   5.803
 8487TIP3    H225405   1.048   3.951   5.839
 8488TIP3   OH225406   3.069   6.050   5.224
 8488TIP3    H125407   3.045   6.014   5.309
 8488TIP3    H225408   3.076   6.144   5.238
 8489TIP3   OH225409   7.191   2.479   1.687
 8489TIP3    H125410   7.221   2.568   1.672
 8489TIP3    H225411   7.167   2.446   1.600
 8490TIP3   OH225412   6.230   6.630   3.572
 8490TIP3    H125413   6.308   6.625   3.627
 8490TIP3    H225414   6.225   6.722   3.546
 8491TIP3   OH225415   3.655   7.744   0.395
 8491TIP3    H125416   3.632   7.658   0.430
 8491TIP3    H225417   3.724   7.726   0.330
 8492TIP3   OH225418   0.479   4.140   6.607
 8492TIP3    H125419   0.408   4.111   6.550
 8492TIP3    H225420   0.532   4.061   6.621
 8493TIP3   OH225421   7.335   1.036   4.708
 8493TIP3    H125422   7.252   1.080   4.688
 8493TIP3    H225423   7.362   0.995   4.626
 8494TIP3   OH225424   0.988   6.216   2.271
 8494TIP3    H125425   1.081   6.228   2.250
 8494TIP3    H225426   0.974   6.122   2.263
 8495TIP3   OH225427   1.021   4.655   5.495
 8495TIP3    H125428   0.933   4.619   5.488
 8495TIP3    H225429   1.078   4.581   5.470
 8496TIP3   OH225430   5.925   4.980   1.877
 8496TIP3    H125431   5.976   5.021   1.807
 8496TIP3    H225432   5.963   5.014   1.958
 8497TIP3   OH225433   4.164   0.140   4.206
 8497TIP3    H125434   4.109   0.218   4.199
 8497TIP3    H225435   4.238   0.157   4.148
 8498TIP3   OH225436   2.231   3.782   2.151
 8498TIP3    H125437   2.244   3.808   2.242
 8498TIP3    H225438   2.303   3.823   2.103
 8499TIP3   OH225439   3.459   7.622   1.678
 8499TIP3    H125440   3.504   7.565   1.616
 8499TIP3    H225441   3.523   7.636   1.748
 8500TIP3   OH225442   5.438   5.650   4.492
 8500TIP3    H125443   5.424   5.744   4.493
 8500TIP3    H225444   5.420   5.624   4.401
 8501TIP3   OH225445   5.113   2.664   5.699
 8501TIP3    H125446   5.203   2.631   5.702
 8501TIP3    H225447   5.123   2.760   5.693
 8502TIP3   OH225448   3.942   5.864   2.655
 8502TIP3    H125449   3.865   5.918   2.639
 8502TIP3    H225450   4.014   5.911   2.612
 8503TIP3   OH225451   0.072   4.936   4.591
 8503TIP3    H125452   0.002   4.973   4.645
 8503TIP3    H225453   0.037   4.854   4.558
 8504TIP3   OH225454   7.454   4.042   2.505
 8504TIP3    H125455   7.507   4.071   2.431
 8504TIP3    H225456   7.376   4.097   2.503
 8505TIP3   OH225457   6.346   6.665   0.389
 8505TIP3    H125458   6.252   6.649   0.401
 8505TIP3    H225459   6.356   6.676   0.295
 8506TIP3   OH225460   7.181   4.882   6.351
 8506TIP3    H125461   7.112   4.819   6.329
 8506TIP3    H225462   7.134   4.957   6.388
 8507TIP3   OH225463   1.319   1.433   1.400
 8507TIP3    H125464   1.225   1.442   1.415
 8507TIP3    H225465   1.357   1.427   1.487
 8508TIP3   OH225466   3.597   5.565   3.651
 8508TIP3    H125467   3.566   5.612   3.574
 8508TIP3    H225468   3.583   5.626   3.724
 8509TIP3   OH225469   1.374   1.446   2.717
 8509TIP3    H125470   1.285   1.435   2.683
 8509TIP3    H225471   1.370   1.525   2.770
 8510TIP3   OH225472   3.427   6.233   6.238
 8510TIP3    H125473   3.453   6.202   6.325
 8510TIP3    H225474   3.461   6.322   6.233
 8511TIP3   OH225475   5.416   1.012   5.422
 8511TIP3    H125476   5.434   0.978   5.335
 8511TIP3    H225477   5.433   1.106   5.416
 8512TIP3   OH225478   1.120   6.715   1.056
 8512TIP3    H125479   1.052   6.653   1.028
 8512TIP3    H225480   1.090   6.800   1.024
 8513TIP3   OH225481   0.192   6.223   4.985
 8513TIP3    H125482   0.121   6.286   4.976
 8513TIP3    H225483   0.148   6.140   5.005
 8514TIP3   OH225484   0.909   1.647   3.008
 8514TIP3    H125485   0.984   1.703   3.030
 8514TIP3    H225486   0.847   1.660   3.080
 8515TIP3   OH225487   7.708   4.687   1.285
 8515TIP3    H125488   7.704   4.593   1.265
 8515TIP3    H225489   7.721   4.729   1.200
 8516TIP3   OH225490   1.623   5.623   2.312
 8516TIP3    H125491   1.686   5.670   2.258
 8516TIP3    H225492   1.674   5.552   2.352
 8517TIP3   OH225493   7.678   4.656   5.689
 8517TIP3    H125494   7.730   4.689   5.762
 8517TIP3    H225495   7.590   4.644   5.726
 8518TIP3   OH225496   5.436   0.507   0.767
 8518TIP3    H125497   5.397   0.593   0.782
 8518TIP3    H225498   5.431   0.495   0.672
 8519TIP3   OH225499   1.785   3.392   3.896
 8519TIP3    H125500   1.727   3.320   3.872
 8519TIP3    H225501   1.748   3.469   3.852
 8520TIP3   OH225502   4.509   5.139   6.187
 8520TIP3    H125503   4.574   5.070   6.201
 8520TIP3    H225504   4.540   5.213   6.237
 8521TIP3   OH225505   0.854   0.288   0.739
 8521TIP3    H125506   0.854   0.210   0.795
 8521TIP3    H225507   0.936   0.281   0.689
 8522TIP3   OH225508   5.786   4.059   6.690
 8522TIP3    H125509   5.828   4.130   6.641
 8522TIP3    H225510   5.835   4.053   6.772
 8523TIP3   OH225511   8.202   7.386   0.631
 8523TIP3    H125512   8.112   7.401   0.661
 8523TIP3    H225513   8.224   7.464   0.581
 8524TIP3   OH225514   5.962   1.045   2.367
 8524TIP3    H125515   6.043   1.087   2.336
 8524TIP3    H225516   5.970   0.954   2.338
 8525TIP3   OH225517   6.139   4.141   2.406
 8525TIP3    H125518   6.192   4.075   2.362
 8525TIP3    H225519   6.198   4.215   2.419
 8526TIP3   OH225520   3.853   5.647   4.108
 8526TIP3    H125521   3.922   5.709   4.133
 8526TIP3    H225522   3.862   5.639   4.013
 8527TIP3   OH225523   4.600   2.888   4.999
 8527TIP3    H125524   4.556   2.916   4.919
 8527TIP3    H225525   4.532   2.893   5.067
 8528TIP3   OH225526   6.620   7.438   3.367
 8528TIP3    H125527   6.644   7.483   3.286
 8528TIP3    H225528   6.537   7.396   3.347
 8529TIP3   OH225529   7.971   1.522   0.873
 8529TIP3    H125530   7.911   1.561   0.808
 8529TIP3    H225531   8.053   1.511   0.825
 8530TIP3   OH225532   0.507   4.763   5.017
 8530TIP3    H125533   0.490   4.770   4.923
 8530TIP3    H225534   0.568   4.691   5.025
 8531TIP3   OH225535   2.272   2.480   2.697
 8531TIP3    H125536   2.337   2.410   2.690
 8531TIP3    H225537   2.261   2.493   2.791
 8532TIP3   OH225538   5.856   4.111   5.567
 8532TIP3    H125539   5.863   4.108   5.471
 8532TIP3    H225540   5.768   4.079   5.585
 8533TIP3   OH225541   7.323   2.802   3.042
 8533TIP3    H125542   7.300   2.825   2.952
 8533TIP3    H225543   7.309   2.882   3.092
 8534TIP3   OH225544   7.835   1.349   3.945
 8534TIP3    H125545   7.876   1.435   3.933
 8534TIP3    H225546   7.744   1.368   3.967
 8535TIP3   OH225547   1.061   0.318   3.308
 8535TIP3    H125548   0.967   0.306   3.296
 8535TIP3    H225549   1.074   0.413   3.307
 8536TIP3   OH225550   4.780   0.879   5.478
 8536TIP3    H125551   4.794   0.882   5.383
 8536TIP3    H225552   4.694   0.839   5.488
 8537TIP3   OH225553   2.614   4.682   3.571
 8537TIP3    H125554   2.565   4.699   3.652
 8537TIP3    H225555   2.673   4.757   3.563
 8538TIP3   OH225556   3.410   6.137   1.085
 8538TIP3    H125557   3.476   6.117   1.018
 8538TIP3    H225558   3.458   6.182   1.154
 8539TIP3   OH225559   5.221   2.317   3.873
 8539TIP3    H125560   5.140   2.315   3.925
 8539TIP3    H225561   5.222   2.404   3.833
 8540TIP3   OH225562   0.643   1.753   6.708
 8540TIP3    H125563   0.637   1.830   6.765
 8540TIP3    H225564   0.699   1.782   6.635
 8541TIP3   OH225565   4.210   6.395   0.008
 8541TIP3    H125566   4.160   6.372  -0.071
 8541TIP3    H225567   4.300   6.369  -0.013
 8542TIP3   OH225568   3.857   4.533   1.215
 8542TIP3    H125569   3.823   4.512   1.128
 8542TIP3    H225570   3.783   4.518   1.274
 8543TIP3   OH225571   7.151   3.507   6.192
 8543TIP3    H125572   7.222   3.477   6.136
 8543TIP3    H225573   7.194   3.555   6.262
 8544TIP3   OH225574   2.271   5.544   2.594
 8544TIP3    H125575   2.261   5.458   2.553
 8544TIP3    H225576   2.365   5.559   2.595
 8545TIP3   OH225577   3.007   4.203   4.848
 8545TIP3    H125578   3.007   4.247   4.764
 8545TIP3    H225579   3.094   4.219   4.884
 8546TIP3   OH225580   7.622   1.494   3.998
 8546TIP3    H125581   7.620   1.570   4.057
 8546TIP3    H225582   7.549   1.440   4.027
 8547TIP3   OH225583   2.099   6.197   6.062
 8547TIP3    H125584   2.058   6.162   5.983
 8547TIP3    H225585   2.180   6.148   6.071
 8548TIP3   OH225586   4.824   2.981   3.314
 8548TIP3    H125587   4.887   3.038   3.359
 8548TIP3    H225588   4.770   3.041   3.263
 8549TIP3   OH225589   2.319   6.024   0.975
 8549TIP3    H125590   2.286   6.063   0.895
 8549TIP3    H225591   2.246   5.973   1.010
 8550TIP3   OH225592   0.348   7.487   6.657
 8550TIP3    H125593   0.329   7.405   6.704
 8550TIP3    H225594   0.410   7.533   6.713
 8551TIP3   OH225595   0.962   5.519   3.131
 8551TIP3    H125596   1.043   5.550   3.089
 8551TIP3    H225597   0.993   5.468   3.206
 8552TIP3   OH225598   5.576   6.229   3.407
 8552TIP3    H125599   5.536   6.265   3.327
 8552TIP3    H225600   5.519   6.156   3.431
 8553TIP3   OH225601   1.006   6.659   3.960
 8553TIP3    H125602   1.017   6.636   4.052
 8553TIP3    H225603   0.912   6.654   3.945
 8554TIP3   OH225604   2.806   4.243   2.523
 8554TIP3    H125605   2.747   4.239   2.447
 8554TIP3    H225606   2.833   4.334   2.528
 8555TIP3   OH225607   2.173   5.265   4.019
 8555TIP3    H125608   2.208   5.176   4.009
 8555TIP3    H225609   2.163   5.297   3.929
 8556TIP3   OH225610   1.191   3.065   0.112
 8556TIP3    H125611   1.239   3.114   0.044
 8556TIP3    H225612   1.210   2.973   0.094
 8557TIP3   OH225613   4.162   4.478   0.700
 8557TIP3    H125614   4.162   4.389   0.735
 8557TIP3    H225615   4.221   4.474   0.625
 8558TIP3   OH225616   4.374   0.519   4.407
 8558TIP3    H125617   4.349   0.488   4.320
 8558TIP3    H225618   4.318   0.596   4.422
 8559TIP3   OH225619   6.737   3.729   1.532
 8559TIP3    H125620   6.811   3.747   1.590
 8559TIP3    H225621   6.696   3.651   1.569
 8560TIP3   OH225622   4.592   2.536   2.844
 8560TIP3    H125623   4.586   2.456   2.897
 8560TIP3    H225624   4.641   2.510   2.767
 8561TIP3   OH225625   7.957   3.089   5.483
 8561TIP3    H125626   8.050   3.087   5.457
 8561TIP3    H225627   7.912   3.045   5.411
 8562TIP3   OH225628   4.997   7.780   3.762
 8562TIP3    H125629   5.008   7.721   3.836
 8562TIP3    H225630   4.913   7.823   3.778
 8563TIP3   OH225631   6.961   3.711   4.158
 8563TIP3    H125632   6.966   3.689   4.065
 8563TIP3    H225633   6.941   3.805   4.160
 8564TIP3   OH225634   0.363   5.703   2.179
 8564TIP3    H125635   0.413   5.733   2.255
 8564TIP3    H225636   0.280   5.674   2.215
 8565TIP3   OH225637   5.518   4.856   6.678
 8565TIP3    H125638   5.477   4.900   6.604
 8565TIP3    H225639   5.595   4.909   6.698
 8566TIP3   OH225640   1.653   4.506   5.302
 8566TIP3    H125641   1.653   4.412   5.316
 8566TIP3    H225642   1.622   4.543   5.384
 8567TIP3   OH225643   1.300   7.478   0.975
 8567TIP3    H125644   1.259   7.478   0.888
 8567TIP3    H225645   1.361   7.552   0.972
 8568TIP3   OH225646   0.353   1.071   1.095
 8568TIP3    H125647   0.271   1.043   1.055
 8568TIP3    H225648   0.364   1.013   1.171
 8569TIP3   OH225649   1.083   1.204   6.621
 8569TIP3    H125650   1.141   1.128   6.628
 8569TIP3    H225651   1.040   1.210   6.706
 8570TIP3   OH225652   2.100   5.175   0.948
 8570TIP3    H125653   2.191   5.158   0.976
 8570TIP3    H225654   2.097   5.268   0.930
 8571TIP3   OH225655   6.253   1.662   3.192
 8571TIP3    H125656   6.282   1.584   3.239
 8571TIP3    H225657   6.176   1.634   3.144
 8572TIP3   OH225658   5.430   5.387   3.432
 8572TIP3    H125659   5.489   5.375   3.358
 8572TIP3    H225660   5.486   5.372   3.509
 8573TIP3   OH225661   3.051   3.613   5.909
 8573TIP3    H125662   3.135   3.625   5.865
 8573TIP3    H225663   3.069   3.546   5.976
 8574TIP3   OH225664   2.846   1.207   2.221
 8574TIP3    H125665   2.842   1.114   2.243
 8574TIP3    H225666   2.869   1.209   2.128
 8575TIP3   OH225667   4.614   5.685   2.315
 8575TIP3    H125668   4.645   5.595   2.305
 8575TIP3    H225669   4.672   5.724   2.380
 8576TIP3   OH225670   3.921   6.959   5.809
 8576TIP3    H125671   4.014   6.948   5.792
 8576TIP3    H225672   3.889   7.011   5.735
 8577TIP3   OH225673   0.713   3.106   5.557
 8577TIP3    H125674   0.703   3.124   5.650
 8577TIP3    H225675   0.658   3.170   5.513
 8578TIP3   OH225676   8.208   3.022   1.657
 8578TIP3    H125677   8.124   3.004   1.698
 8578TIP3    H225678   8.194   3.100   1.604
 8579TIP3   OH225679   4.735   5.562   4.930
 8579TIP3    H125680   4.701   5.518   4.852
 8579TIP3    H225681   4.684   5.644   4.934
 8580TIP3   OH225682   2.582   3.081   4.765
 8580TIP3    H125683   2.498   3.082   4.812
 8580TIP3    H225684   2.633   3.152   4.806
 8581TIP3   OH225685   6.892   4.946   0.982
 8581TIP3    H125686   6.858   4.872   0.932
 8581TIP3    H225687   6.827   4.962   1.050
 8582TIP3   OH225688   8.122   5.766   5.196
 8582TIP3    H125689   8.112   5.762   5.101
 8582TIP3    H225690   8.033   5.778   5.229
 8583TIP3   OH225691   3.428   1.461   0.661
 8583TIP3    H125692   3.341   1.451   0.700
 8583TIP3    H225693   3.469   1.375   0.672
 8584TIP3   OH225694   6.222   1.970   4.081
 8584TIP3    H125695   6.174   2.048   4.109
 8584TIP3    H225696   6.283   1.953   4.153
 8585TIP3   OH225697   0.942   6.891   5.692
 8585TIP3    H125698   0.951   6.900   5.787
 8585TIP3    H225699   1.029   6.911   5.658
 8586TIP3   OH225700   2.186   1.370   6.577
 8586TIP3    H125701   2.278   1.346   6.585
 8586TIP3    H225702   2.179   1.408   6.489
 8587TIP3   OH225703   3.635   0.967   5.267
 8587TIP3    H125704   3.697   0.983   5.338
 8587TIP3    H225705   3.560   0.924   5.309
 8588TIP3   OH225706   5.016   7.755   2.373
 8588TIP3    H125707   4.987   7.665   2.390
 8588TIP3    H225708   5.069   7.748   2.294
 8589TIP3   OH225709   6.841   0.921   6.161
 8589TIP3    H125710   6.852   0.830   6.134
 8589TIP3    H225711   6.894   0.971   6.099
 8590TIP3   OH225712   2.447   7.156   5.228
 8590TIP3    H125713   2.357   7.183   5.250
 8590TIP3    H225714   2.445   7.061   5.234
 8591TIP3   OH225715   7.697   0.828   2.408
 8591TIP3    H125716   7.737   0.821   2.494
 8591TIP3    H225717   7.743   0.900   2.365
 8592TIP3   OH225718   3.093   5.338   5.013
 8592TIP3    H125719   3.025   5.332   5.080
 8592TIP3    H225720   3.175   5.348   5.061
 8593TIP3   OH225721   5.864   6.207   3.905
 8593TIP3    H125722   5.916   6.257   3.968
 8593TIP3    H225723   5.877   6.252   3.822
 8594TIP3   OH225724   7.345   4.829   6.127
 8594TIP3    H125725   7.284   4.873   6.187
 8594TIP3    H225726   7.317   4.857   6.040
 8595TIP3   OH225727   7.211   4.912   3.357
 8595TIP3    H125728   7.177   5.000   3.344
 8595TIP3    H225729   7.263   4.894   3.278
 8596TIP3   OH225730   6.397   2.289   0.483
 8596TIP3    H125731   6.462   2.338   0.534
 8596TIP3    H225732   6.385   2.341   0.404
 8597TIP3   OH225733   4.043   6.420   2.633
 8597TIP3    H125734   4.050   6.361   2.558
 8597TIP3    H225735   3.968   6.476   2.612
 8598TIP3   OH225736   8.123   1.880   6.398
 8598TIP3    H125737   8.175   1.930   6.335
 8598TIP3    H225738   8.110   1.940   6.472
 8599TIP3   OH225739   6.854   0.368   6.651
 8599TIP3    H125740   6.833   0.445   6.598
 8599TIP3    H225741   6.907   0.313   6.594
 8600TIP3   OH225742   4.737   1.597   0.574
 8600TIP3    H125743   4.793   1.672   0.595
 8600TIP3    H225744   4.667   1.602   0.640
 8601TIP3   OH225745   8.079   6.415   4.307
 8601TIP3    H125746   8.066   6.320   4.313
 8601TIP3    H225747   7.999   6.448   4.267
 8602TIP3   OH225748   3.722   1.177   6.329
 8602TIP3    H125749   3.684   1.211   6.410
 8602TIP3    H225750   3.677   1.225   6.259
 8603TIP3   OH225751   6.981   0.202   3.861
 8603TIP3    H125752   7.048   0.134   3.857
 8603TIP3    H225753   7.028   0.282   3.838
 8604TIP3   OH225754   1.692   2.114   0.121
 8604TIP3    H125755   1.767   2.055   0.115
 8604TIP3    H225756   1.626   2.074   0.066
 8605TIP3   OH225757   0.611   4.084   4.458
 8605TIP3    H125758   0.601   4.077   4.553
 8605TIP3    H225759   0.530   4.127   4.429
 8606TIP3   OH225760   6.507   4.332   0.392
 8606TIP3    H125761   6.547   4.418   0.405
 8606TIP3    H225762   6.572   4.270   0.425
 8607TIP3   OH225763   1.531   3.813   0.584
 8607TIP3    H125764   1.556   3.747   0.649
 8607TIP3    H225765   1.479   3.877   0.633
 8608TIP3   OH225766   7.207   3.338   3.052
 8608TIP3    H125767   7.192   3.255   3.007
 8608TIP3    H225768   7.123   3.384   3.046
 8609TIP3   OH225769   6.035   1.258   3.188
 8609TIP3    H125770   6.078   1.286   3.107
 8609TIP3    H225771   6.107   1.227   3.243
 8610TIP3   OH225772   1.866   1.334   3.253
 8610TIP3    H125773   1.779   1.301   3.232
 8610TIP3    H225774   1.898   1.370   3.170
 8611TIP3   OH225775   4.262   4.117   6.092
 8611TIP3    H125776   4.269   4.097   6.185
 8611TIP3    H225777   4.350   4.145   6.066
 8612TIP3   OH225778   2.528   6.283   3.312
 8612TIP3    H125779   2.468   6.249   3.379
 8612TIP3    H225780   2.520   6.220   3.240
 8613TIP3   OH225781   7.540   4.640   3.673
 8613TIP3    H125782   7.486   4.718   3.686
 8613TIP3    H225783   7.536   4.594   3.756
 8614TIP3   OH225784   2.778   3.516   0.274
 8614TIP3    H125785   2.826   3.598   0.266
 8614TIP3    H225786   2.687   3.540   0.256
 8615TIP3   OH225787   3.067   1.719   6.506
 8615TIP3    H125788   3.019   1.646   6.466
 8615TIP3    H225789   3.118   1.679   6.576
 8616TIP3   OH225790   2.080   6.636   1.368
 8616TIP3    H125791   2.109   6.717   1.409
 8616TIP3    H225792   2.095   6.569   1.434
 8617TIP3   OH225793   8.139   5.757   6.067
 8617TIP3    H125794   8.208   5.718   6.013
 8617TIP3    H225795   8.058   5.739   6.019
 8618TIP3   OH225796   4.803   2.380   5.211
 8618TIP3    H125797   4.781   2.367   5.119
 8618TIP3    H225798   4.848   2.465   5.213
 8619TIP3   OH225799   5.430   4.397   6.307
 8619TIP3    H125800   5.373   4.324   6.333
 8619TIP3    H225801   5.466   4.370   6.223
 8620TIP3   OH225802   1.719   7.463   0.725
 8620TIP3    H125803   1.626   7.484   0.713
 8620TIP3    H225804   1.758   7.546   0.754
 8621TIP3   OH225805   5.315   0.616   6.464
 8621TIP3    H125806   5.362   0.535   6.482
 8621TIP3    H225807   5.373   0.667   6.408
 8622TIP3   OH225808   3.697   7.329   3.638
 8622TIP3    H125809   3.669   7.379   3.713
 8622TIP3    H225810   3.660   7.241   3.652
 8623TIP3   OH225811   4.628   2.281   3.372
 8623TIP3    H125812   4.685   2.353   3.342
 8623TIP3    H225813   4.688   2.221   3.416
 8624TIP3   OH225814   1.574   6.864   2.016
 8624TIP3    H125815   1.501   6.847   1.957
 8624TIP3    H225816   1.646   6.889   1.959
 8625TIP3   OH225817   5.663   1.091   6.383
 8625TIP3    H125818   5.584   1.124   6.340
 8625TIP3    H225819   5.631   1.050   6.464
 8626TIP3   OH225820   1.572   1.355   2.092
 8626TIP3    H125821   1.521   1.274   2.095
 8626TIP3    H225822   1.508   1.422   2.069
 8627TIP3   OH225823   5.926   0.493   6.408
 8627TIP3    H125824   5.961   0.558   6.468
 8627TIP3    H225825   6.000   0.437   6.386
 8628TIP3   OH225826   2.697   1.824   0.776
 8628TIP3    H125827   2.690   1.776   0.859
 8628TIP3    H225828   2.672   1.914   0.798
 8629TIP3   OH225829   2.203   3.399   0.778
 8629TIP3    H125830   2.237   3.454   0.849
 8629TIP3    H225831   2.275   3.395   0.715
 8630TIP3   OH225832   3.613   3.354   6.278
 8630TIP3    H125833   3.675   3.304   6.330
 8630TIP3    H225834   3.575   3.290   6.217
 8631TIP3   OH225835   3.782   5.505   3.017
 8631TIP3    H125836   3.786   5.579   2.956
 8631TIP3    H225837   3.869   5.500   3.056
 8632TIP3   OH225838   2.154   5.593   3.660
 8632TIP3    H125839   2.127   5.664   3.719
 8632TIP3    H225840   2.249   5.588   3.671
 8633TIP3   OH225841   2.969   1.280   5.734
 8633TIP3    H125842   2.913   1.206   5.757
 8633TIP3    H225843   2.911   1.339   5.686
 8634TIP3   OH225844   2.972   2.390   4.861
 8634TIP3    H125845   2.994   2.335   4.937
 8634TIP3    H225846   2.891   2.434   4.886
 8635TIP3   OH225847   5.482   2.362   0.571
 8635TIP3    H125848   5.425   2.398   0.639
 8635TIP3    H225849   5.551   2.428   0.561
 8636TIP3   OH225850   7.175   4.585   0.575
 8636TIP3    H125851   7.203   4.493   0.572
 8636TIP3    H225852   7.181   4.614   0.484
 8637TIP3   OH225853   5.550   0.195   1.884
 8637TIP3    H125854   5.613   0.212   1.814
 8637TIP3    H225855   5.465   0.209   1.844
 8638TIP3   OH225856   6.352   2.067   3.565
 8638TIP3    H125857   6.374   2.047   3.474
 8638TIP3    H225858   6.386   1.993   3.615
 8639TIP3   OH225859   0.525   2.843   4.004
 8639TIP3    H125860   0.460   2.853   4.074
 8639TIP3    H225861   0.510   2.754   3.970
 8640TIP3   OH225862   5.601   6.319   6.285
 8640TIP3    H125863   5.587   6.414   6.293
 8640TIP3    H225864   5.599   6.304   6.190
 8641TIP3   OH225865   6.132   5.203   2.341
 8641TIP3    H125866   6.167   5.120   2.373
 8641TIP3    H225867   6.116   5.255   2.420
 8642TIP3   OH225868   6.029   5.587   1.358
 8642TIP3    H125869   6.000   5.588   1.266
 8642TIP3    H225870   6.048   5.678   1.378
 8643TIP3   OH225871   4.265   7.081   1.566
 8643TIP3    H125872   4.309   7.010   1.518
 8643TIP3    H225873   4.255   7.151   1.501
 8644TIP3   OH225874   7.300   4.745   0.769
 8644TIP3    H125875   7.295   4.818   0.707
 8644TIP3    H225876   7.274   4.668   0.718
 8645TIP3   OH225877   5.933   1.294   4.457
 8645TIP3    H125878   5.968   1.288   4.546
 8645TIP3    H225879   5.934   1.388   4.437
 8646TIP3   OH225880   6.894   7.324   5.759
 8646TIP3    H125881   6.960   7.369   5.707
 8646TIP3    H225882   6.894   7.234   5.727
 8647TIP3   OH225883   0.548   6.656   2.590
 8647TIP3    H125884   0.505   6.581   2.631
 8647TIP3    H225885   0.525   6.730   2.647
 8648TIP3   OH225886   7.557   2.938   6.791
 8648TIP3    H125887   7.588   2.957   6.702
 8648TIP3    H225888   7.585   2.847   6.807
 8649TIP3   OH225889   7.815   3.470   3.439
 8649TIP3    H125890   7.839   3.390   3.393
 8649TIP3    H225891   7.876   3.475   3.512
 8650TIP3   OH225892   6.682   1.967   0.126
 8650TIP3    H125893   6.590   1.940   0.131
 8650TIP3    H225894   6.719   1.915   0.055
 8651TIP3   OH225895   3.956   1.206   2.697
 8651TIP3    H125896   4.009   1.194   2.776
 8651TIP3    H225897   4.020   1.220   2.627
 8652TIP3   OH225898   6.232   2.904   6.637
 8652TIP3    H125899   6.294   2.923   6.707
 8652TIP3    H225900   6.264   2.823   6.597
 8653TIP3   OH225901   5.635   0.205   3.704
 8653TIP3    H125902   5.545   0.209   3.736
 8653TIP3    H225903   5.637   0.268   3.632
 8654TIP3   OH225904   7.330   4.764   1.419
 8654TIP3    H125905   7.293   4.693   1.471
 8654TIP3    H225906   7.288   4.843   1.454
 8655TIP3   OH225907   4.345   7.801   2.765
 8655TIP3    H125908   4.298   7.884   2.763
 8655TIP3    H225909   4.348   7.778   2.858
 8656TIP3   OH225910   7.940   7.602   5.349
 8656TIP3    H125911   7.852   7.584   5.381
 8656TIP3    H225912   7.949   7.697   5.357
 8657TIP3   OH225913   0.172   5.685   1.836
 8657TIP3    H125914   0.223   5.754   1.879
 8657TIP3    H225915   0.131   5.728   1.761
 8658TIP3   OH225916   4.833   7.691   2.089
 8658TIP3    H125917   4.918   7.722   2.119
 8658TIP3    H225918   4.815   7.743   2.011
 8659TIP3   OH225919   7.341   2.974   5.575
 8659TIP3    H125920   7.426   3.011   5.551
 8659TIP3    H225921   7.278   3.025   5.524
 8660TIP3   OH225922   3.593   3.961   0.226
 8660TIP3    H125923   3.515   3.909   0.249
 8660TIP3    H225924   3.590   3.969   0.131
 8661TIP3   OH225925   7.766   4.015   2.767
 8661TIP3    H125926   7.689   3.980   2.723
 8661TIP3    H225927   7.837   4.004   2.703
 8662TIP3   OH225928   7.534   6.890   5.169
 8662TIP3    H125929   7.565   6.861   5.083
 8662TIP3    H225930   7.529   6.985   5.162
 8663TIP3   OH225931   5.543   7.437   0.550
 8663TIP3    H125932   5.614   7.466   0.607
 8663TIP3    H225933   5.519   7.515   0.500
 8664TIP3   OH225934   3.943   1.577   3.309
 8664TIP3    H125935   4.038   1.573   3.300
 8664TIP3    H225936   3.924   1.520   3.383
 8665TIP3   OH225937   2.546   2.737   5.732
 8665TIP3    H125938   2.553   2.720   5.639
 8665TIP3    H225939   2.479   2.676   5.763
 8666TIP3   OH225940   5.460   2.601   4.102
 8666TIP3    H125941   5.506   2.641   4.028
 8666TIP3    H225942   5.530   2.565   4.156
 8667TIP3   OH225943   4.107   0.792   5.658
 8667TIP3    H125944   4.106   0.711   5.709
 8667TIP3    H225945   4.097   0.763   5.568
 8668TIP3   OH225946   0.358   0.477   4.156
 8668TIP3    H125947   0.339   0.541   4.224
 8668TIP3    H225948   0.273   0.440   4.133
 8669TIP3   OH225949   4.422   6.584   1.061
 8669TIP3    H125950   4.428   6.498   1.103
 8669TIP3    H225951   4.508   6.597   1.022
 8670TIP3   OH225952   8.109   4.971   4.263
 8670TIP3    H125953   8.186   5.003   4.215
 8670TIP3    H225954   8.048   4.943   4.194
 8671TIP3   OH225955   4.295   6.783   1.885
 8671TIP3    H125956   4.237   6.733   1.827
 8671TIP3    H225957   4.383   6.759   1.856
 8672TIP3   OH225958   4.572   1.114   6.165
 8672TIP3    H125959   4.537   1.164   6.238
 8672TIP3    H225960   4.567   1.023   6.193
 8673TIP3   OH225961   0.485   3.053   1.651
 8673TIP3    H125962   0.572   3.060   1.613
 8673TIP3    H225963   0.500   3.023   1.741
 8674TIP3   OH225964   2.010   3.992   4.403
 8674TIP3    H125965   2.046   3.979   4.491
 8674TIP3    H225966   2.038   3.916   4.354
 8675TIP3   OH225967   0.397   0.529   5.442
 8675TIP3    H125968   0.463   0.460   5.448
 8675TIP3    H225969   0.438   0.605   5.484
 8676TIP3   OH225970   2.644   3.977   4.244
 8676TIP3    H125971   2.695   4.051   4.280
 8676TIP3    H225972   2.647   3.911   4.313
 8677TIP3   OH225973   3.709   0.284   5.074
 8677TIP3    H125974   3.773   0.224   5.037
 8677TIP3    H225975   3.689   0.344   5.002
 8678TIP3   OH225976   6.667   3.200   4.525
 8678TIP3    H125977   6.635   3.259   4.457
 8678TIP3    H225978   6.747   3.242   4.558
 8679TIP3   OH225979   6.663   6.819   0.959
 8679TIP3    H125980   6.591   6.834   0.898
 8679TIP3    H225981   6.649   6.730   0.991
 8680TIP3   OH225982   1.026   5.528   6.052
 8680TIP3    H125983   1.105   5.565   6.091
 8680TIP3    H225984   1.058   5.467   5.986
 8681TIP3   OH225985   4.835   2.855   1.458
 8681TIP3    H125986   4.855   2.915   1.386
 8681TIP3    H225987   4.886   2.776   1.439
 8682TIP3   OH225988   7.749   0.051   6.441
 8682TIP3    H125989   7.777   0.046   6.533
 8682TIP3    H225990   7.660   0.084   6.445
 8683TIP3   OH225991   4.347   7.156   1.823
 8683TIP3    H125992   4.320   7.137   1.734
 8683TIP3    H225993   4.274   7.128   1.877
 8684TIP3   OH225994   6.411   7.135   3.861
 8684TIP3    H125995   6.363   7.201   3.911
 8684TIP3    H225996   6.343   7.081   3.822
 8685TIP3   OH225997   6.709   4.277   2.518
 8685TIP3    H125998   6.743   4.220   2.450
 8685TIP3    H225999   6.623   4.239   2.540
 8686TIP3   OH226000   4.789   5.853   2.997
 8686TIP3    H126001   4.734   5.794   2.946
 8686TIP3    H226002   4.801   5.808   3.080
 8687TIP3   OH226003   2.327   2.864   0.288
 8687TIP3    H126004   2.394   2.805   0.322
 8687TIP3    H226005   2.298   2.913   0.365
 8688TIP3   OH226006   6.443   0.486   0.966
 8688TIP3    H126007   6.455   0.457   0.875
 8688TIP3    H226008   6.388   0.564   0.959
 8689TIP3   OH226009   5.077   4.442   6.196
 8689TIP3    H126010   5.026   4.429   6.276
 8689TIP3    H226011   5.052   4.369   6.140
 8690TIP3   OH226012   3.414   4.883   2.842
 8690TIP3    H126013   3.480   4.897   2.910
 8690TIP3    H226014   3.459   4.835   2.773
 8691TIP3   OH226015   1.599   6.834   4.398
 8691TIP3    H126016   1.669   6.891   4.429
 8691TIP3    H226017   1.519   6.882   4.418
 8692TIP3   OH226018   1.669   6.354   3.732
 8692TIP3    H126019   1.735   6.419   3.758
 8692TIP3    H226020   1.612   6.401   3.671
 8693TIP3   OH226021   2.451   1.291   6.641
 8693TIP3    H126022   2.542   1.320   6.635
 8693TIP3    H226023   2.457   1.200   6.672
 8694TIP3   OH226024   2.483   0.880   4.826
 8694TIP3    H126025   2.570   0.873   4.866
 8694TIP3    H226026   2.425   0.836   4.888
 8695TIP3   OH226027   0.362   5.356   1.631
 8695TIP3    H126028   0.358   5.379   1.723
 8695TIP3    H226029   0.329   5.266   1.627
 8696TIP3   OH226030   2.737   7.065   6.055
 8696TIP3    H126031   2.707   7.022   5.975
 8696TIP3    H226032   2.665   7.123   6.079
 8697TIP3   OH226033   5.348   5.177   3.700
 8697TIP3    H126034   5.335   5.085   3.677
 8697TIP3    H226035   5.443   5.188   3.702
 8698TIP3   OH226036   5.729   1.426   5.008
 8698TIP3    H126037   5.707   1.386   5.092
 8698TIP3    H226038   5.649   1.469   4.979
 8699TIP3   OH226039   7.215   1.980   0.797
 8699TIP3    H126040   7.279   1.960   0.728
 8699TIP3    H226041   7.256   1.947   0.877
 8700TIP3   OH226042   2.001   3.022   2.455
 8700TIP3    H126043   1.985   3.001   2.547
 8700TIP3    H226044   2.084   3.069   2.455
 8701TIP3   OH226045   6.084   6.550   4.906
 8701TIP3    H126046   6.077   6.489   4.979
 8701TIP3    H226047   6.171   6.534   4.869
 8702TIP3   OH226048   1.099   5.624   1.461
 8702TIP3    H126049   1.029   5.579   1.413
 8702TIP3    H226050   1.129   5.560   1.525
 8703TIP3   OH226051   0.734   4.017   0.851
 8703TIP3    H126052   0.702   4.045   0.765
 8703TIP3    H226053   0.754   3.924   0.840
 8704TIP3   OH226054   6.392   6.894   4.269
 8704TIP3    H126055   6.483   6.921   4.263
 8704TIP3    H226056   6.342   6.974   4.254
 8705TIP3   OH226057   5.816   0.329   0.996
 8705TIP3    H126058   5.787   0.238   0.987
 8705TIP3    H226059   5.880   0.326   1.068
 8706TIP3   OH226060   2.963   6.596   3.398
 8706TIP3    H126061   2.934   6.682   3.429
 8706TIP3    H226062   2.948   6.599   3.303
 8707TIP3   OH226063   6.870   6.230   0.037
 8707TIP3    H126064   6.786   6.275   0.027
 8707TIP3    H226065   6.847   6.137   0.041
 8708TIP3   OH226066   0.341   0.074   0.474
 8708TIP3    H126067   0.367   0.164   0.453
 8708TIP3    H226068   0.397   0.049   0.547
 8709TIP3   OH226069   2.638   4.792   2.240
 8709TIP3    H126070   2.723   4.819   2.275
 8709TIP3    H226071   2.588   4.764   2.316
 8710TIP3   OH226072   5.149   3.866   5.117
 8710TIP3    H126073   5.120   3.833   5.202
 8710TIP3    H226074   5.235   3.906   5.135
 8711TIP3   OH226075   1.716   5.305   3.353
 8711TIP3    H126076   1.720   5.313   3.449
 8711TIP3    H226077   1.714   5.395   3.322
 8712TIP3   OH226078   1.834   1.305   6.592
 8712TIP3    H126079   1.839   1.383   6.647
 8712TIP3    H226080   1.813   1.339   6.505
 8713TIP3   OH226081   2.402   5.337   4.159
 8713TIP3    H126082   2.318   5.306   4.125
 8713TIP3    H226083   2.433   5.265   4.215
 8714TIP3   OH226084   3.002   1.644   3.780
 8714TIP3    H126085   3.048   1.664   3.699
 8714TIP3    H226086   3.063   1.590   3.830
 8715TIP3   OH226087   5.275   1.490   6.073
 8715TIP3    H126088   5.313   1.543   6.143
 8715TIP3    H226089   5.215   1.431   6.118
 8716TIP3   OH226090   1.349   5.048   5.203
 8716TIP3    H126091   1.395   5.056   5.120
 8716TIP3    H226092   1.367   5.130   5.249
 8717TIP3   OH226093   5.123   6.999   1.011
 8717TIP3    H126094   5.121   7.062   1.083
 8717TIP3    H226095   5.213   6.969   1.008
 8718TIP3   OH226096   7.540   0.154   1.648
 8718TIP3    H126097   7.473   0.166   1.581
 8718TIP3    H226098   7.605   0.222   1.631
 8719TIP3   OH226099   3.782   2.689   4.257
 8719TIP3    H126100   3.720   2.761   4.264
 8719TIP3    H226101   3.842   2.716   4.187
 8720TIP3   OH226102   2.513   0.650   5.128
 8720TIP3    H126103   2.513   0.734   5.083
 8720TIP3    H226104   2.425   0.642   5.163
 8721TIP3   OH226105   7.734   6.572   3.041
 8721TIP3    H126106   7.694   6.631   2.978
 8721TIP3    H226107   7.660   6.536   3.091
 8722TIP3   OH226108   0.923   3.575   0.574
 8722TIP3    H126109   1.002   3.582   0.520
 8722TIP3    H226110   0.902   3.482   0.575
 8723TIP3   OH226111   4.619   1.700   2.769
 8723TIP3    H126112   4.629   1.665   2.680
 8723TIP3    H226113   4.709   1.707   2.802
 8724TIP3   OH226114   0.400   6.237   5.700
 8724TIP3    H126115   0.313   6.209   5.729
 8724TIP3    H226116   0.383   6.292   5.623
 8725TIP3   OH226117   3.436   1.618   5.122
 8725TIP3    H126118   3.530   1.633   5.114
 8725TIP3    H226119   3.427   1.523   5.120
 8726TIP3   OH226120   0.836   2.857   4.150
 8726TIP3    H126121   0.774   2.920   4.189
 8726TIP3    H226122   0.919   2.905   4.147
 8727TIP3   OH226123   6.162   5.549   3.144
 8727TIP3    H126124   6.220   5.606   3.093
 8727TIP3    H226125   6.101   5.610   3.187
 8728TIP3   OH226126   6.857   5.474   5.106
 8728TIP3    H126127   6.781   5.458   5.162
 8728TIP3    H226128   6.825   5.531   5.037
 8729TIP3   OH226129   3.321   7.056   1.368
 8729TIP3    H126130   3.283   6.997   1.303
 8729TIP3    H226131   3.276   7.034   1.450
 8730TIP3   OH226132   3.499   2.741   2.176
 8730TIP3    H126133   3.549   2.778   2.248
 8730TIP3    H226134   3.478   2.652   2.205
 8731TIP3   OH226135   3.122   3.484   4.241
 8731TIP3    H126136   3.085   3.532   4.315
 8731TIP3    H226137   3.184   3.546   4.202
 8732TIP3   OH226138   5.834   6.958   4.681
 8732TIP3    H126139   5.920   6.922   4.701
 8732TIP3    H226140   5.849   7.019   4.609
 8733TIP3   OH226141   7.734   2.673   0.251
 8733TIP3    H126142   7.727   2.624   0.333
 8733TIP3    H226143   7.651   2.657   0.206
 8734TIP3   OH226144   5.836   6.027   0.133
 8734TIP3    H126145   5.835   5.969   0.057
 8734TIP3    H226146   5.758   6.003   0.183
 8735TIP3   OH226147   3.847   0.013   3.191
 8735TIP3    H126148   3.937   0.047   3.190
 8735TIP3    H226149   3.857  -0.078   3.219
 8736TIP3   OH226150   0.443   6.383   0.826
 8736TIP3    H126151   0.396   6.382   0.743
 8736TIP3    H226152   0.481   6.471   0.831
 8737TIP3   OH226153   6.443   6.518   5.055
 8737TIP3    H126154   6.435   6.595   4.998
 8737TIP3    H226155   6.491   6.455   5.001
 8738TIP3   OH226156   6.231   2.134   1.860
 8738TIP3    H126157   6.161   2.145   1.924
 8738TIP3    H226158   6.245   2.040   1.857
 8739TIP3   OH226159   7.199   1.850   4.338
 8739TIP3    H126160   7.167   1.873   4.251
 8739TIP3    H226161   7.139   1.781   4.368
 8740TIP3   OH226162   7.957   2.897   4.543
 8740TIP3    H126163   7.944   2.958   4.470
 8740TIP3    H226164   7.898   2.824   4.525
 8741TIP3   OH226165   3.919   4.033   0.832
 8741TIP3    H126166   3.977   4.084   0.888
 8741TIP3    H226167   3.860   3.988   0.892
 8742TIP3   OH226168   0.379   7.509   2.070
 8742TIP3    H126169   0.288   7.537   2.077
 8742TIP3    H226170   0.429   7.580   2.112
 8743TIP3   OH226171   2.882   6.766   4.070
 8743TIP3    H126172   2.859   6.763   4.163
 8743TIP3    H226173   2.867   6.677   4.039
 8744TIP3   OH226174   2.638   5.524   0.684
 8744TIP3    H126175   2.702   5.461   0.652
 8744TIP3    H226176   2.666   5.608   0.647
 8745TIP3   OH226177   0.914   1.083   6.424
 8745TIP3    H126178   0.958   1.112   6.503
 8745TIP3    H226179   0.894   1.164   6.377
 8746TIP3   OH226180   2.493   1.616   4.126
 8746TIP3    H126181   2.475   1.675   4.200
 8746TIP3    H226182   2.572   1.569   4.153
 8747TIP3   OH226183   2.235   1.218   3.345
 8747TIP3    H126184   2.244   1.312   3.328
 8747TIP3    H226185   2.144   1.198   3.324
 8748TIP3   OH226186   2.574   3.750   0.313
 8748TIP3    H126187   2.494   3.697   0.308
 8748TIP3    H226188   2.569   3.793   0.398
 8749TIP3   OH226189   3.642   4.036   6.228
 8749TIP3    H126190   3.635   4.129   6.250
 8749TIP3    H226191   3.607   4.029   6.139
 8750TIP3   OH226192   4.046   2.716   0.728
 8750TIP3    H126193   4.116   2.744   0.787
 8750TIP3    H226194   4.069   2.626   0.705
 8751TIP3   OH226195   2.378   1.357   4.947
 8751TIP3    H126196   2.288   1.350   4.917
 8751TIP3    H226197   2.428   1.302   4.887
 8752TIP3   OH226198   4.388   2.506   0.037
 8752TIP3    H126199   4.341   2.476   0.115
 8752TIP3    H226200   4.340   2.582   0.006
 8753TIP3   OH226201   8.019   7.368   1.410
 8753TIP3    H126202   8.013   7.278   1.378
 8753TIP3    H226203   8.102   7.373   1.456
 8754TIP3   OH226204   2.823   0.468   0.348
 8754TIP3    H126205   2.821   0.399   0.283
 8754TIP3    H226206   2.751   0.527   0.323
 8755TIP3   OH226207   7.585   3.225   1.263
 8755TIP3    H126208   7.544   3.271   1.189
 8755TIP3    H226209   7.543   3.140   1.264
 8756TIP3   OH226210   2.909   0.837   2.675
 8756TIP3    H126211   2.840   0.895   2.705
 8756TIP3    H226212   2.881   0.750   2.702
 8757TIP3   OH226213   3.515   2.948   3.581
 8757TIP3    H126214   3.507   2.943   3.677
 8757TIP3    H226215   3.440   2.897   3.549
 8758TIP3   OH226216   2.059   3.744   4.889
 8758TIP3    H126217   2.075   3.789   4.806
 8758TIP3    H226218   1.993   3.797   4.933
 8759TIP3   OH226219   8.084   2.941   2.693
 8759TIP3    H126220   8.105   3.004   2.624
 8759TIP3    H226221   8.164   2.937   2.746
 8760TIP3   OH226222   1.809   0.790   3.440
 8760TIP3    H126223   1.900   0.820   3.442
 8760TIP3    H226224   1.815   0.700   3.408
 8761TIP3   OH226225   1.613   0.465   5.028
 8761TIP3    H126226   1.646   0.418   4.951
 8761TIP3    H226227   1.692   0.488   5.077
 8762TIP3   OH226228   7.887   1.080   5.457
 8762TIP3    H126229   7.955   1.094   5.523
 8762TIP3    H226230   7.831   1.011   5.493
 8763TIP3   OH226231   2.603   6.633   4.224
 8763TIP3    H126232   2.544   6.703   4.253
 8763TIP3    H226233   2.570   6.608   4.138
 8764TIP3   OH226234   8.220   6.702   3.724
 8764TIP3    H126235   8.149   6.638   3.724
 8764TIP3    H226236   8.295   6.653   3.690
 8765TIP3   OH226237   4.859   0.642   3.907
 8765TIP3    H126238   4.880   0.558   3.947
 8765TIP3    H226239   4.818   0.620   3.824
 8766TIP3   OH226240   1.784   0.238   6.610
 8766TIP3    H126241   1.756   0.216   6.521
 8766TIP3    H226242   1.872   0.275   6.599
 8767TIP3   OH226243   1.938   6.594   1.125
 8767TIP3    H126244   1.983   6.630   1.201
 8767TIP3    H226245   2.006   6.581   1.060
 8768TIP3   OH226246   7.261   7.368   4.470
 8768TIP3    H126247   7.240   7.274   4.479
 8768TIP3    H226248   7.306   7.374   4.386
 8769TIP3   OH226249   5.190   6.744   4.564
 8769TIP3    H126250   5.242   6.736   4.484
 8769TIP3    H226251   5.224   6.676   4.621
 8770TIP3   OH226252   7.320   6.283   4.030
 8770TIP3    H126253   7.412   6.310   4.038
 8770TIP3    H226254   7.272   6.364   4.015
 8771TIP3   OH226255   0.666   2.332   2.197
 8771TIP3    H126256   0.584   2.300   2.235
 8771TIP3    H226257   0.648   2.341   2.103
 8772TIP3   OH226258   6.705   4.985   1.695
 8772TIP3    H126259   6.703   4.938   1.778
 8772TIP3    H226260   6.632   5.047   1.701
 8773TIP3   OH226261   8.104  -0.045   4.760
 8773TIP3    H126262   8.087   0.030   4.816
 8773TIP3    H226263   8.129  -0.006   4.676
 8774TIP3   OH226264   3.597   6.691   5.152
 8774TIP3    H126265   3.587   6.784   5.171
 8774TIP3    H226266   3.576   6.682   5.059
 8775TIP3   OH226267   3.124   1.150   0.396
 8775TIP3    H126268   3.185   1.219   0.374
 8775TIP3    H226269   3.162   1.071   0.357
 8776TIP3   OH226270   7.596   2.319   2.977
 8776TIP3    H126271   7.590   2.262   2.900
 8776TIP3    H226272   7.644   2.396   2.947
 8777TIP3   OH226273   2.694   5.088   4.191
 8777TIP3    H126274   2.746   5.008   4.199
 8777TIP3    H226275   2.713   5.120   4.103
 8778TIP3   OH226276   1.422   6.729   1.181
 8778TIP3    H126277   1.391   6.650   1.137
 8778TIP3    H226278   1.349   6.755   1.238
 8779TIP3   OH226279   5.170   6.505   2.709
 8779TIP3    H126280   5.111   6.504   2.784
 8779TIP3    H226281   5.240   6.565   2.735
 8780TIP3   OH226282   6.080   5.709   2.107
 8780TIP3    H126283   6.087   5.766   2.030
 8780TIP3    H226284   6.015   5.643   2.084
 8781TIP3   OH226285   2.340   4.500   2.425
 8781TIP3    H126286   2.302   4.433   2.368
 8781TIP3    H226287   2.265   4.547   2.460
 8782TIP3   OH226288   3.897   6.680   5.279
 8782TIP3    H126289   3.847   6.656   5.200
 8782TIP3    H226290   3.872   6.770   5.297
 8783TIP3   OH226291   0.057   0.093   2.839
 8783TIP3    H126292   0.114   0.169   2.832
 8783TIP3    H226293   0.074   0.043   2.759
 8784TIP3   OH226294   7.283   6.505   3.808
 8784TIP3    H126295   7.367   6.460   3.792
 8784TIP3    H226296   7.283   6.578   3.746
 8785TIP3   OH226297   4.142   4.508   4.925
 8785TIP3    H126298   4.062   4.471   4.888
 8785TIP3    H226299   4.165   4.578   4.865
 8786TIP3   OH226300   6.273   2.630   6.514
 8786TIP3    H126301   6.266   2.660   6.423
 8786TIP3    H226302   6.331   2.554   6.510
 8787TIP3   OH226303   4.612   2.812   1.615
 8787TIP3    H126304   4.571   2.762   1.544
 8787TIP3    H226305   4.703   2.824   1.586
 8788TIP3   OH226306   4.421   7.048   4.758
 8788TIP3    H126307   4.382   7.054   4.845
 8788TIP3    H226308   4.353   7.077   4.698
 8789TIP3   OH226309   4.998   7.357   5.928
 8789TIP3    H126310   4.976   7.264   5.917
 8789TIP3    H226311   5.051   7.359   6.007
 8790TIP3   OH226312   3.391   2.124   5.628
 8790TIP3    H126313   3.417   2.061   5.694
 8790TIP3    H226314   3.474   2.161   5.596
 8791TIP3   OH226315   3.133   6.653   4.766
 8791TIP3    H126316   3.165   6.605   4.690
 8791TIP3    H226317   3.191   6.729   4.773
 8792TIP3   OH226318   7.870   3.777   2.575
 8792TIP3    H126319   7.835   3.754   2.489
 8792TIP3    H226320   7.792   3.788   2.630
 8793TIP3   OH226321   1.960   3.003   0.921
 8793TIP3    H126322   2.029   3.047   0.872
 8793TIP3    H226323   1.882   3.011   0.865
 8794TIP3   OH226324   1.299   7.368   1.239
 8794TIP3    H126325   1.215   7.394   1.276
 8794TIP3    H226326   1.301   7.411   1.153
 8795TIP3   OH226327   5.237   2.468   4.705
 8795TIP3    H126328   5.280   2.389   4.674
 8795TIP3    H226329   5.301   2.537   4.692
 8796TIP3   OH226330   3.593   3.285   5.898
 8796TIP3    H126331   3.579   3.268   5.805
 8796TIP3    H226332   3.645   3.366   5.901
 8797TIP3   OH226333   4.183   6.046   3.047
 8797TIP3    H126334   4.210   6.113   2.985
 8797TIP3    H226335   4.104   6.008   3.008
 8798TIP3   OH226336   0.796   2.082   3.251
 8798TIP3    H126337   0.821   2.168   3.284
 8798TIP3    H226338   0.793   2.027   3.329
 8799TIP3   OH226339   0.440   5.007   0.239
 8799TIP3    H126340   0.522   5.056   0.239
 8799TIP3    H226341   0.445   4.952   0.161
 8800TIP3   OH226342   3.478   2.795   1.680
 8800TIP3    H126343   3.434   2.764   1.602
 8800TIP3    H226344   3.407   2.819   1.740
 8801TIP3   OH226345   2.620   5.162   3.686
 8801TIP3    H126346   2.691   5.222   3.706
 8801TIP3    H226347   2.587   5.190   3.601
 8802TIP3   OH226348   3.479   7.456   0.223
 8802TIP3    H126349   3.439   7.542   0.237
 8802TIP3    H226350   3.546   7.449   0.290
 8803TIP3   OH226351   3.342   2.128   1.234
 8803TIP3    H126352   3.416   2.129   1.173
 8803TIP3    H226353   3.354   2.048   1.286
 8804TIP3   OH226354   7.835   4.394   0.028
 8804TIP3    H126355   7.838   4.474  -0.025
 8804TIP3    H226356   7.743   4.382   0.049
 8805TIP3   OH226357   5.008   3.309   4.033
 8805TIP3    H126358   5.022   3.258   3.953
 8805TIP3    H226359   5.004   3.400   4.003
 8806TIP3   OH226360   6.437   0.447   3.986
 8806TIP3    H126361   6.359   0.409   3.945
 8806TIP3    H226362   6.497   0.460   3.913
 8807TIP3   OH226363   5.855   1.036   2.626
 8807TIP3    H126364   5.950   1.040   2.636
 8807TIP3    H226365   5.840   1.040   2.532
 8808TIP3   OH226366   4.835   1.724   0.181
 8808TIP3    H126367   4.785   1.761   0.254
 8808TIP3    H226368   4.777   1.731   0.106
 8809TIP3   OH226369   1.929   1.927   5.107
 8809TIP3    H126370   1.983   1.864   5.156
 8809TIP3    H226371   1.887   1.980   5.175
 8810TIP3   OH226372   1.647   0.215   4.565
 8810TIP3    H126373   1.571   0.185   4.515
 8810TIP3    H226374   1.618   0.297   4.605
 8811TIP3   OH226375   2.101   6.208   1.168
 8811TIP3    H126376   2.076   6.133   1.114
 8811TIP3    H226377   2.018   6.248   1.193
 8812TIP3   OH226378   0.239   6.877   6.712
 8812TIP3    H126379   0.255   6.852   6.803
 8812TIP3    H226380   0.311   6.835   6.664
 8813TIP3   OH226381   2.523   3.223   2.583
 8813TIP3    H126382   2.592   3.238   2.648
 8813TIP3    H226383   2.571   3.196   2.504
 8814TIP3   OH226384   6.538   4.381   4.862
 8814TIP3    H126385   6.451   4.347   4.843
 8814TIP3    H226386   6.588   4.305   4.891
 8815TIP3   OH226387   7.010   5.442   4.530
 8815TIP3    H126388   7.084   5.413   4.477
 8815TIP3    H226389   7.032   5.417   4.619
 8816TIP3   OH226390   1.097   6.765   6.287
 8816TIP3    H126391   1.096   6.738   6.379
 8816TIP3    H226392   1.106   6.683   6.239
 8817TIP3   OH226393   4.877   6.424   4.229
 8817TIP3    H126394   4.847   6.355   4.288
 8817TIP3    H226395   4.839   6.401   4.144
 8818TIP3   OH226396   4.048   0.268   6.081
 8818TIP3    H126397   4.009   0.257   5.994
 8818TIP3    H226398   4.083   0.182   6.103
 8819TIP3   OH226399   6.106   1.150   5.667
 8819TIP3    H126400   6.035   1.206   5.638
 8819TIP3    H226401   6.134   1.103   5.588
 8820TIP3   OH226402   4.075   0.302   0.801
 8820TIP3    H126403   4.168   0.291   0.781
 8820TIP3    H226404   4.056   0.392   0.775
 8821TIP3   OH226405   6.430   7.230   6.536
 8821TIP3    H126406   6.513   7.215   6.582
 8821TIP3    H226407   6.450   7.216   6.444
 8822TIP3   OH226408   3.178   2.173   1.993
 8822TIP3    H126409   3.123   2.229   2.049
 8822TIP3    H226410   3.123   2.097   1.975
 8823TIP3   OH226411   6.679   2.013   1.851
 8823TIP3    H126412   6.653   2.100   1.881
 8823TIP3    H226413   6.631   1.953   1.908
 8824TIP3   OH226414   2.618   4.331   6.140
 8824TIP3    H126415   2.669   4.282   6.205
 8824TIP3    H226416   2.679   4.397   6.107
 8825TIP3   OH226417   0.700   5.999   5.148
 8825TIP3    H126418   0.609   5.983   5.121
 8825TIP3    H226419   0.740   5.912   5.153
 8826TIP3   OH226420   4.522   3.181   4.296
 8826TIP3    H126421   4.495   3.094   4.266
 8826TIP3    H226422   4.461   3.241   4.252
 8827TIP3   OH226423   5.559   2.073   4.586
 8827TIP3    H126424   5.546   2.057   4.492
 8827TIP3    H226425   5.652   2.095   4.594
 8828TIP3   OH226426   2.699   3.332   5.201
 8828TIP3    H126427   2.678   3.267   5.134
 8828TIP3    H226428   2.616   3.376   5.219
 8829TIP3   OH226429   6.566   5.690   2.199
 8829TIP3    H126430   6.660   5.709   2.208
 8829TIP3    H226431   6.523   5.760   2.249
 8830TIP3   OH226432   0.848   5.650   6.205
 8830TIP3    H126433   0.908   5.610   6.142
 8830TIP3    H226434   0.888   5.735   6.225
 8831TIP3   OH226435   7.012   1.953   5.091
 8831TIP3    H126436   7.032   2.003   5.170
 8831TIP3    H226437   6.918   1.962   5.079
 8832TIP3   OH226438   6.365   6.064   5.264
 8832TIP3    H126439   6.457   6.051   5.244
 8832TIP3    H226440   6.319   6.003   5.205
 8833TIP3   OH226441   5.894   4.679   4.882
 8833TIP3    H126442   5.903   4.586   4.861
 8833TIP3    H226443   5.978   4.703   4.921
 8834TIP3   OH226444   7.946   1.623   4.313
 8834TIP3    H126445   8.013   1.611   4.245
 8834TIP3    H226446   7.992   1.666   4.385
 8835TIP3   OH226447   8.103   2.408   3.344
 8835TIP3    H126448   8.166   2.363   3.400
 8835TIP3    H226449   8.073   2.482   3.397
 8836TIP3   OH226450   3.729   6.834   3.151
 8836TIP3    H126451   3.716   6.852   3.058
 8836TIP3    H226452   3.824   6.831   3.162
 8837TIP3   OH226453   3.582   2.038   1.085
 8837TIP3    H126454   3.660   2.081   1.121
 8837TIP3    H226455   3.605   1.946   1.081
 8838TIP3   OH226456   3.300   5.496   4.906
 8838TIP3    H126457   3.319   5.491   5.000
 8838TIP3    H226458   3.213   5.457   4.897
 8839TIP3   OH226459   5.015   3.143   3.452
 8839TIP3    H126460   5.067   3.081   3.503
 8839TIP3    H226461   4.971   3.197   3.516
 8840TIP3   OH226462   4.769   5.943   6.702
 8840TIP3    H126463   4.750   5.910   6.789
 8840TIP3    H226464   4.863   5.958   6.702
 8841TIP3   OH226465   0.145   6.123   1.221
 8841TIP3    H126466   0.074   6.173   1.261
 8841TIP3    H226467   0.158   6.164   1.135
 8842TIP3   OH226468   4.891   7.020   4.809
 8842TIP3    H126469   4.832   6.981   4.744
 8842TIP3    H226470   4.834   7.042   4.883
 8843TIP3   OH226471   0.458   2.510   5.984
 8843TIP3    H126472   0.493   2.446   5.921
 8843TIP3    H226473   0.531   2.571   5.999
 8844TIP3   OH226474   7.101   1.217   4.401
 8844TIP3    H126475   7.075   1.158   4.331
 8844TIP3    H226476   7.019   1.242   4.443
 8845TIP3   OH226477   5.189   2.202   6.689
 8845TIP3    H126478   5.100   2.216   6.719
 8845TIP3    H226479   5.189   2.233   6.598
 8846TIP3   OH226480   3.299   4.784   5.801
 8846TIP3    H126481   3.237   4.726   5.758
 8846TIP3    H226482   3.328   4.844   5.732
 8847TIP3   OH226483   3.262   6.374   0.184
 8847TIP3    H126484   3.323   6.373   0.110
 8847TIP3    H226485   3.176   6.372   0.144
 8848TIP3   OH226486   4.420   1.935   5.684
 8848TIP3    H126487   4.327   1.932   5.709
 8848TIP3    H226488   4.428   1.869   5.615
 8849TIP3   OH226489   2.147   2.117   1.878
 8849TIP3    H126490   2.114   2.192   1.927
 8849TIP3    H226491   2.167   2.052   1.945
 8850TIP3   OH226492   0.083   0.805   6.131
 8850TIP3    H126493   0.087   0.896   6.160
 8850TIP3    H226494   0.166   0.766   6.159
 8851TIP3   OH226495   6.251   1.305   0.124
 8851TIP3    H126496   6.179   1.366   0.137
 8851TIP3    H226497   6.220   1.245   0.056
 8852TIP3   OH226498   5.708   2.180   6.489
 8852TIP3    H126499   5.742   2.197   6.401
 8852TIP3    H226500   5.621   2.142   6.474
 8853TIP3   OH226501   5.370   0.885   5.167
 8853TIP3    H126502   5.387   0.800   5.126
 8853TIP3    H226503   5.338   0.940   5.096
 8854TIP3   OH226504   3.181   1.733   3.567
 8854TIP3    H126505   3.272   1.762   3.578
 8854TIP3    H226506   3.185   1.672   3.493
 8855TIP3   OH226507   4.854   0.618   2.398
 8855TIP3    H126508   4.940   0.660   2.401
 8855TIP3    H226509   4.805   0.660   2.469
 8856TIP3   OH226510   3.754   4.395   3.143
 8856TIP3    H126511   3.775   4.302   3.148
 8856TIP3    H226512   3.809   4.436   3.209
 8857TIP3   OH226513   4.026   2.536   1.150
 8857TIP3    H126514   3.948   2.515   1.098
 8857TIP3    H226515   4.082   2.587   1.091
 8858TIP3   OH226516   6.697   4.102   1.571
 8858TIP3    H126517   6.741   4.038   1.515
 8858TIP3    H226518   6.645   4.049   1.631
 8859TIP3   OH226519   5.584   0.219   0.725
 8859TIP3    H126520   5.657   0.271   0.759
 8859TIP3    H226521   5.560   0.261   0.643
 8860TIP3   OH226522   3.346   3.993   6.062
 8860TIP3    H126523   3.341   4.074   6.114
 8860TIP3    H226524   3.425   4.003   6.010
 8861TIP3   OH226525   4.529   3.391   4.557
 8861TIP3    H126526   4.610   3.407   4.508
 8861TIP3    H226527   4.546   3.426   4.644
 8862TIP3   OH226528   2.827   6.874   3.372
 8862TIP3    H126529   2.764   6.946   3.376
 8862TIP3    H226530   2.857   6.863   3.462
 8863TIP3   OH226531   5.853   2.426   0.427
 8863TIP3    H126532   5.825   2.378   0.505
 8863TIP3    H226533   5.911   2.365   0.382
 8864TIP3   OH226534   5.286   5.428   0.312
 8864TIP3    H126535   5.246   5.427   0.399
 8864TIP3    H226536   5.221   5.387   0.255
 8865TIP3   OH226537   0.081   6.458   3.494
 8865TIP3    H126538   0.143   6.409   3.441
 8865TIP3    H226539   0.106   6.439   3.584
 8866TIP3   OH226540   7.850   5.341   4.095
 8866TIP3    H126541   7.908   5.296   4.034
 8866TIP3    H226542   7.888   5.324   4.181
 8867TIP3   OH226543   1.928   1.430   2.993
 8867TIP3    H126544   1.893   1.456   2.908
 8867TIP3    H226545   2.012   1.476   2.999
 8868TIP3   OH226546   7.761   4.128   1.755
 8868TIP3    H126547   7.701   4.053   1.766
 8868TIP3    H226548   7.747   4.156   1.665
 8869TIP3   OH226549   2.823   4.290   4.238
 8869TIP3    H126550   2.863   4.208   4.209
 8869TIP3    H226551   2.879   4.320   4.310
 8870TIP3   OH226552   4.701   3.991   0.109
 8870TIP3    H126553   4.609   3.976   0.087
 8870TIP3    H226554   4.749   3.953   0.035
 8871TIP3   OH226555   4.969   1.695   4.803
 8871TIP3    H126556   4.876   1.700   4.827
 8871TIP3    H226557   4.969   1.695   4.708
 8872TIP3   OH226558   7.955   4.597   2.082
 8872TIP3    H126559   8.030   4.542   2.106
 8872TIP3    H226560   7.914   4.618   2.166
 8873TIP3   OH226561   3.522   4.336   2.521
 8873TIP3    H126562   3.505   4.400   2.452
 8873TIP3    H226563   3.461   4.264   2.504
 8874TIP3   OH226564   1.823   1.703   6.090
 8874TIP3    H126565   1.861   1.762   6.026
 8874TIP3    H226566   1.732   1.693   6.064
 8875TIP3   OH226567   8.273   6.257   1.436
 8875TIP3    H126568   8.223   6.188   1.480
 8875TIP3    H226569   8.211   6.329   1.427
 8876TIP3   OH226570   7.730   0.039   0.873
 8876TIP3    H126571   7.790  -0.021   0.917
 8876TIP3    H226572   7.760   0.041   0.782
 8877TIP3   OH226573   1.590   5.241   2.365
 8877TIP3    H126574   1.551   5.184   2.431
 8877TIP3    H226575   1.616   5.320   2.413
 8878TIP3   OH226576   6.096   1.548   1.480
 8878TIP3    H126577   6.165   1.612   1.497
 8878TIP3    H226578   6.072   1.515   1.567
 8879TIP3   OH226579   7.496   0.261   5.782
 8879TIP3    H126580   7.527   0.321   5.850
 8879TIP3    H226581   7.415   0.224   5.818
 8880TIP3   OH226582   0.386   1.004   0.681
 8880TIP3    H126583   0.296   1.037   0.691
 8880TIP3    H226584   0.375   0.910   0.669
 8881TIP3   OH226585   7.480   0.036   2.855
 8881TIP3    H126586   7.390   0.007   2.840
 8881TIP3    H226587   7.497   0.012   2.946
 8882TIP3   OH226588   4.383   1.062   2.360
 8882TIP3    H126589   4.298   1.101   2.380
 8882TIP3    H226590   4.437   1.080   2.437
 8883TIP3   OH226591   1.664   5.785   0.862
 8883TIP3    H126592   1.644   5.879   0.867
 8883TIP3    H226593   1.614   5.754   0.787
 8884TIP3   OH226594   5.032   0.610   5.191
 8884TIP3    H126595   5.127   0.612   5.193
 8884TIP3    H226596   5.007   0.560   5.268
 8885TIP3   OH226597   1.671   5.483   4.525
 8885TIP3    H126598   1.595   5.512   4.476
 8885TIP3    H226599   1.679   5.390   4.506
 8886TIP3   OH226600   3.548   5.733   2.334
 8886TIP3    H126601   3.555   5.675   2.409
 8886TIP3    H226602   3.600   5.810   2.358
 8887TIP3   OH226603   7.609   7.344   3.058
 8887TIP3    H126604   7.530   7.367   3.106
 8887TIP3    H226605   7.677   7.399   3.097
 8888TIP3   OH226606   0.390   0.838   1.846
 8888TIP3    H126607   0.471   0.791   1.866
 8888TIP3    H226608   0.393   0.916   1.902
 8889TIP3   OH226609   5.115   4.357   6.620
 8889TIP3    H126610   5.038   4.386   6.571
 8889TIP3    H226611   5.169   4.435   6.629
 8890TIP3   OH226612   0.290   2.602   5.613
 8890TIP3    H126613   0.348   2.678   5.623
 8890TIP3    H226614   0.216   2.635   5.563
 8891TIP3   OH226615   4.886   1.006   2.261
 8891TIP3    H126616   4.860   1.014   2.169
 8891TIP3    H226617   4.861   1.089   2.301
 8892TIP3   OH226618   3.946   7.696   3.365
 8892TIP3    H126619   3.927   7.778   3.320
 8892TIP3    H226620   3.924   7.713   3.456
 8893TIP3   OH226621   4.632   6.142   1.191
 8893TIP3    H126622   4.564   6.077   1.174
 8893TIP3    H226623   4.591   6.225   1.168
 8894TIP3   OH226624   5.079   7.188   5.004
 8894TIP3    H126625   4.994   7.145   5.003
 8894TIP3    H226626   5.065   7.268   4.952
 8895TIP3   OH226627   2.112   0.330   6.632
 8895TIP3    H126628   2.079   0.252   6.588
 8895TIP3    H226629   2.183   0.298   6.688
 8896TIP3   OH226630   7.818   1.389   2.308
 8896TIP3    H126631   7.770   1.408   2.389
 8896TIP3    H226632   7.860   1.471   2.285
 8897TIP3   OH226633   6.600   2.677   5.386
 8897TIP3    H126634   6.577   2.767   5.410
 8897TIP3    H226635   6.610   2.631   5.469
 8898TIP3   OH226636   2.107   5.811   2.109
 8898TIP3    H126637   2.147   5.892   2.075
 8898TIP3    H226638   2.087   5.831   2.201
 8899TIP3   OH226639   2.908   3.507   2.241
 8899TIP3    H126640   2.825   3.460   2.251
 8899TIP3    H226641   2.894   3.592   2.282
 8900TIP3   OH226642   2.601   4.979   5.124
 8900TIP3    H126643   2.558   5.007   5.043
 8900TIP3    H226644   2.604   5.057   5.179
 8901TIP3   OH226645   0.993   6.146   4.669
 8901TIP3    H126646   0.956   6.224   4.710
 8901TIP3    H226647   0.946   6.140   4.585
 8902TIP3   OH226648   1.556   2.831   3.711
 8902TIP3    H126649   1.467   2.840   3.744
 8902TIP3    H226650   1.546   2.790   3.625
 8903TIP3   OH226651   1.776   1.206   3.541
 8903TIP3    H126652   1.823   1.253   3.610
 8903TIP3    H226653   1.724   1.141   3.588
 8904TIP3   OH226654   1.680   6.082   1.746
 8904TIP3    H126655   1.732   6.067   1.666
 8904TIP3    H226656   1.617   6.149   1.720
 8905TIP3   OH226657   3.610   6.465   0.164
 8905TIP3    H126658   3.553   6.458   0.088
 8905TIP3    H226659   3.561   6.425   0.236
 8906TIP3   OH226660   3.989   5.240   0.433
 8906TIP3    H126661   4.025   5.245   0.344
 8906TIP3    H226662   4.065   5.222   0.489
 8907TIP3   OH226663   2.947   2.050   4.374
 8907TIP3    H126664   2.970   2.127   4.321
 8907TIP3    H226665   3.004   1.981   4.342
 8908TIP3   OH226666   1.693   5.504   0.879
 8908TIP3    H126667   1.619   5.516   0.939
 8908TIP3    H226668   1.727   5.592   0.864
 8909TIP3   OH226669   6.208   1.876   0.011
 8909TIP3    H126670   6.300   1.858   0.031
 8909TIP3    H226671   6.198   1.970   0.026
 8910TIP3   OH226672   2.509   6.918   6.457
 8910TIP3    H126673   2.442   6.852   6.445
 8910TIP3    H226674   2.496   6.950   6.547
 8911TIP3   OH226675   7.641   3.664   5.342
 8911TIP3    H126676   7.569   3.629   5.291
 8911TIP3    H226677   7.676   3.735   5.289
 8912TIP3   OH226678   0.329   0.618   5.146
 8912TIP3    H126679   0.362   0.548   5.089
 8912TIP3    H226680   0.391   0.620   5.219
 8913TIP3   OH226681   7.041   1.286   4.057
 8913TIP3    H126682   6.955   1.290   4.099
 8913TIP3    H226683   7.059   1.192   4.050
 8914TIP3   OH226684   8.121   6.031   3.627
 8914TIP3    H126685   8.155   5.955   3.675
 8914TIP3    H226686   8.030   6.009   3.609
 8915TIP3   OH226687   2.283   3.188   3.409
 8915TIP3    H126688   2.284   3.282   3.426
 8915TIP3    H226689   2.202   3.157   3.452
 8916TIP3   OH226690   4.921   4.954   0.113
 8916TIP3    H126691   4.851   4.891   0.130
 8916TIP3    H226692   4.946   4.938   0.022
 8917TIP3   OH226693   3.622   2.024   0.332
 8917TIP3    H126694   3.643   2.102   0.281
 8917TIP3    H226695   3.642   1.951   0.273
 8918TIP3   OH226696   3.337   1.666   0.175
 8918TIP3    H126697   3.404   1.605   0.145
 8918TIP3    H226698   3.254   1.623   0.152
 8919TIP3   OH226699   0.079   5.992   0.881
 8919TIP3    H126700   0.011   5.925   0.880
 8919TIP3    H226701   0.035   6.072   0.853
 8920TIP3   OH226702   1.378   2.270   6.338
 8920TIP3    H126703   1.301   2.233   6.295
 8920TIP3    H226704   1.451   2.251   6.278
 8921TIP3   OH226705   7.444   3.596   4.860
 8921TIP3    H126706   7.374   3.657   4.839
 8921TIP3    H226707   7.503   3.599   4.784
 8922TIP3   OH226708   4.931   6.859   5.087
 8922TIP3    H126709   4.876   6.907   5.025
 8922TIP3    H226710   4.940   6.772   5.047
 8923TIP3   OH226711   0.246   6.636   0.918
 8923TIP3    H126712   0.298   6.556   0.926
 8923TIP3    H226713   0.156   6.605   0.910
 8924TIP3   OH226714   2.661   6.622   1.552
 8924TIP3    H126715   2.649   6.715   1.574
 8924TIP3    H226716   2.754   6.606   1.566
 8925TIP3   OH226717   2.065   3.034   3.539
 8925TIP3    H126718   2.115   2.962   3.578
 8925TIP3    H226719   1.988   2.992   3.502
 8926TIP3   OH226720   8.016   6.591   0.340
 8926TIP3    H126721   7.953   6.633   0.398
 8926TIP3    H226722   8.025   6.651   0.266
 8927TIP3   OH226723   4.826   5.471   0.566
 8927TIP3    H126724   4.817   5.549   0.621
 8927TIP3    H226725   4.737   5.452   0.537
 8928TIP3   OH226726   3.731   1.715   1.600
 8928TIP3    H126727   3.688   1.658   1.536
 8928TIP3    H226728   3.817   1.733   1.563
 8929TIP3   OH226729   4.775   1.633   2.518
 8929TIP3    H126730   4.715   1.570   2.478
 8929TIP3    H226731   4.764   1.713   2.466
 8930TIP3   OH226732   0.851   6.339   1.128
 8930TIP3    H126733   0.909   6.394   1.076
 8930TIP3    H226734   0.780   6.315   1.069
 8931TIP3   OH226735   4.198   2.241   3.534
 8931TIP3    H126736   4.181   2.179   3.463
 8931TIP3    H226737   4.166   2.324   3.501
 8932TIP3   OH226738   4.252   0.601   1.779
 8932TIP3    H126739   4.323   0.547   1.812
 8932TIP3    H226740   4.183   0.595   1.846
 8933TIP3   OH226741   6.365   5.033   4.233
 8933TIP3    H126742   6.375   4.942   4.206
 8933TIP3    H226743   6.453   5.060   4.260
 8934TIP3   OH226744   0.924   3.183   2.098
 8934TIP3    H126745   0.846   3.138   2.068
 8934TIP3    H226746   0.992   3.115   2.103
 8935TIP3   OH226747   1.362   4.822   1.252
 8935TIP3    H126748   1.386   4.868   1.332
 8935TIP3    H226749   1.392   4.879   1.181
 8936TIP3   OH226750   1.747   3.075   0.771
 8936TIP3    H126751   1.745   2.990   0.726
 8936TIP3    H226752   1.707   3.135   0.708
 8937TIP3   OH226753   7.466   5.924   5.319
 8937TIP3    H126754   7.425   5.855   5.267
 8937TIP3    H226755   7.393   5.968   5.362
 8938TIP3   OH226756   1.614   4.883   0.125
 8938TIP3    H126757   1.693   4.838   0.095
 8938TIP3    H226758   1.568   4.907   0.045
 8939TIP3   OH226759   7.968   2.869   1.420
 8939TIP3    H126760   8.030   2.907   1.357
 8939TIP3    H226761   8.015   2.795   1.458
 8940TIP3   OH226762   0.198   3.828   5.491
 8940TIP3    H126763   0.270   3.773   5.460
 8940TIP3    H226764   0.203   3.823   5.586
 8941TIP3   OH226765   0.669   7.270   6.155
 8941TIP3    H126766   0.629   7.186   6.180
 8941TIP3    H226767   0.763   7.251   6.151
 8942TIP3   OH226768   3.333   0.361   1.653
 8942TIP3    H126769   3.319   0.454   1.639
 8942TIP3    H226770   3.426   0.352   1.673
 8943TIP3   OH226771   7.240   1.706   0.642
 8943TIP3    H126772   7.298   1.741   0.575
 8943TIP3    H226773   7.153   1.738   0.617
 8944TIP3   OH226774   1.084   2.758   1.127
 8944TIP3    H126775   1.025   2.683   1.121
 8944TIP3    H226776   1.092   2.789   1.036
 8945TIP3   OH226777   0.286   6.977   6.165
 8945TIP3    H126778   0.248   6.893   6.141
 8945TIP3    H226779   0.311   7.017   6.081
 8946TIP3   OH226780   1.242   3.659   1.306
 8946TIP3    H126781   1.272   3.613   1.227
 8946TIP3    H226782   1.323   3.686   1.350
 8947TIP3   OH226783   7.425   3.461   1.996
 8947TIP3    H126784   7.500   3.411   2.027
 8947TIP3    H226785   7.384   3.404   1.930
 8948TIP3   OH226786   2.576   2.049   4.810
 8948TIP3    H126787   2.611   2.093   4.732
 8948TIP3    H226788   2.642   2.066   4.878
 8949TIP3   OH226789   5.679   1.260   3.087
 8949TIP3    H126790   5.687   1.311   3.168
 8949TIP3    H226791   5.621   1.313   3.032
 8950TIP3   OH226792   1.211   1.227   4.233
 8950TIP3    H126793   1.194   1.286   4.159
 8950TIP3    H226794   1.135   1.169   4.236
 8951TIP3   OH226795   0.570   2.393   3.784
 8951TIP3    H126796   0.624   2.391   3.863
 8951TIP3    H226797   0.504   2.326   3.798
 8952TIP3   OH226798   0.718   4.241   6.121
 8952TIP3    H126799   0.754   4.311   6.067
 8952TIP3    H226800   0.651   4.200   6.067
 8953TIP3   OH226801   0.379   1.904   2.854
 8953TIP3    H126802   0.413   1.823   2.892
 8953TIP3    H226803   0.366   1.962   2.929
 8954TIP3   OH226804   1.104   5.481   2.104
 8954TIP3    H126805   1.182   5.511   2.150
 8954TIP3    H226806   1.111   5.519   2.016
 8955TIP3   OH226807   2.707   3.738   3.131
 8955TIP3    H126808   2.641   3.796   3.168
 8955TIP3    H226809   2.788   3.790   3.133
 8956TIP3   OH226810   3.212   6.617   4.297
 8956TIP3    H126811   3.159   6.575   4.229
 8956TIP3    H226812   3.297   6.632   4.255
 8957TIP3   OH226813   1.900   6.836   5.901
 8957TIP3    H126814   1.950   6.754   5.899
 8957TIP3    H226815   1.810   6.809   5.921
 8958TIP3   OH226816   6.312   3.199   6.033
 8958TIP3    H126817   6.315   3.123   5.975
 8958TIP3    H226818   6.298   3.273   5.975
 8959TIP3   OH226819   5.738   3.940   0.470
 8959TIP3    H126820   5.687   3.931   0.550
 8959TIP3    H226821   5.763   3.851   0.446
 8960TIP3   OH226822   2.285   0.233   0.691
 8960TIP3    H126823   2.281   0.146   0.732
 8960TIP3    H226824   2.193   0.256   0.677
 8961TIP3   OH226825   4.043   5.653   0.246
 8961TIP3    H126826   4.079   5.657   0.158
 8961TIP3    H226827   4.051   5.743   0.280
 8962TIP3   OH226828   3.740   3.343   0.141
 8962TIP3    H126829   3.794   3.416   0.110
 8962TIP3    H226830   3.675   3.385   0.199
 8963TIP3   OH226831   7.946   2.910   4.106
 8963TIP3    H126832   8.040   2.930   4.104
 8963TIP3    H226833   7.929   2.867   4.023
 8964TIP3   OH226834   0.504   6.851   2.790
 8964TIP3    H126835   0.447   6.841   2.866
 8964TIP3    H226836   0.519   6.946   2.784
 8965TIP3   OH226837   3.679   0.327   2.020
 8965TIP3    H126838   3.744   0.396   2.007
 8965TIP3    H226839   3.728   0.255   2.061
 8966TIP3   OH226840   2.086   5.291   1.840
 8966TIP3    H126841   2.115   5.279   1.750
 8966TIP3    H226842   2.105   5.382   1.859
 8967TIP3   OH226843   0.923   1.727   1.430
 8967TIP3    H126844   0.850   1.671   1.401
 8967TIP3    H226845   0.995   1.666   1.446
 8968TIP3   OH226846   6.767   4.449   0.249
 8968TIP3    H126847   6.770   4.431   0.342
 8968TIP3    H226848   6.858   4.465   0.224
 8969TIP3   OH226849   7.373   3.853   5.418
 8969TIP3    H126850   7.293   3.906   5.418
 8969TIP3    H226851   7.343   3.765   5.393
 8970TIP3   OH226852   5.930   6.870   1.670
 8970TIP3    H126853   6.023   6.879   1.691
 8970TIP3    H226854   5.928   6.865   1.574
 8971TIP3   OH226855   6.395   6.818   3.824
 8971TIP3    H126856   6.348   6.861   3.895
 8971TIP3    H226857   6.330   6.811   3.754
 8972TIP3   OH226858   2.097   0.875   4.024
 8972TIP3    H126859   2.143   0.940   3.970
 8972TIP3    H226860   2.019   0.853   3.973
 8973TIP3   OH226861   6.714   3.609   4.624
 8973TIP3    H126862   6.772   3.670   4.578
 8973TIP3    H226863   6.628   3.625   4.586
 8974TIP3   OH226864   5.272   3.321   4.341
 8974TIP3    H126865   5.283   3.382   4.268
 8974TIP3    H226866   5.359   3.316   4.381
 8975TIP3   OH226867   5.844   3.130   2.973
 8975TIP3    H126868   5.883   3.132   3.060
 8975TIP3    H226869   5.919   3.146   2.914
 8976TIP3   OH226870   2.252   2.065   0.035
 8976TIP3    H126871   2.334   2.049   0.082
 8976TIP3    H226872   2.271   2.141  -0.020
 8977TIP3   OH226873   1.884   2.867   2.672
 8977TIP3    H126874   1.879   2.926   2.748
 8977TIP3    H226875   1.872   2.780   2.708
 8978TIP3   OH226876   7.321   4.836   2.179
 8978TIP3    H126877   7.316   4.824   2.084
 8978TIP3    H226878   7.414   4.837   2.199
 8979TIP3   OH226879   7.578   1.727   4.149
 8979TIP3    H126880   7.577   1.741   4.244
 8979TIP3    H226881   7.644   1.788   4.116
 8980TIP3   OH226882   0.808   4.500   0.983
 8980TIP3    H126883   0.798   4.451   1.065
 8980TIP3    H226884   0.830   4.433   0.918
 8981TIP3   OH226885   3.952   1.863   0.686
 8981TIP3    H126886   3.959   1.827   0.598
 8981TIP3    H226887   3.869   1.912   0.684
 8982TIP3   OH226888   4.393   3.585   5.940
 8982TIP3    H126889   4.342   3.660   5.973
 8982TIP3    H226890   4.383   3.590   5.845
 8983TIP3   OH226891   4.701   4.934   2.210
 8983TIP3    H126892   4.698   4.853   2.260
 8983TIP3    H226893   4.718   5.002   2.275
 8984TIP3   OH226894   1.336   2.982   1.044
 8984TIP3    H126895   1.383   2.931   0.978
 8984TIP3    H226896   1.298   2.917   1.103
 8985TIP3   OH226897   1.491   5.762   3.895
 8985TIP3    H126898   1.570   5.730   3.938
 8985TIP3    H226899   1.432   5.686   3.894
 8986TIP3   OH226900   6.793   4.588   6.067
 8986TIP3    H126901   6.791   4.494   6.048
 8986TIP3    H226902   6.850   4.625   6.000
 8987TIP3   OH226903   4.417   4.514   5.629
 8987TIP3    H126904   4.510   4.522   5.647
 8987TIP3    H226905   4.411   4.450   5.559
 8988TIP3   OH226906   1.557   5.046   4.954
 8988TIP3    H126907   1.516   5.074   4.872
 8988TIP3    H226908   1.573   5.128   5.002
 8989TIP3   OH226909   5.648   7.683   0.058
 8989TIP3    H126910   5.633   7.599   0.015
 8989TIP3    H226911   5.570   7.735   0.037
 8990TIP3   OH226912   5.399   2.675   6.068
 8990TIP3    H126913   5.393   2.759   6.115
 8990TIP3    H226914   5.364   2.611   6.130
 8991TIP3   OH226915   5.995   4.742   2.193
 8991TIP3    H126916   5.990   4.654   2.231
 8991TIP3    H226917   5.974   4.729   2.100
 8992TIP3   OH226918   0.670   1.057   0.274
 8992TIP3    H126919   0.738   0.989   0.273
 8992TIP3    H226920   0.648   1.068   0.366
 8993TIP3   OH226921   3.149   0.225   4.922
 8993TIP3    H126922   3.067   0.211   4.969
 8993TIP3    H226923   3.205   0.272   4.985
 8994TIP3   OH226924   0.586   7.196   1.257
 8994TIP3    H126925   0.618   7.284   1.276
 8994TIP3    H226926   0.551   7.203   1.168
 8995TIP3   OH226927   6.067   6.859   4.522
 8995TIP3    H126928   6.028   6.785   4.568
 8995TIP3    H226929   6.160   6.857   4.547
 8996TIP3   OH226930   5.715   7.060   0.142
 8996TIP3    H126931   5.704   6.971   0.177
 8996TIP3    H226932   5.626   7.092   0.131
 8997TIP3   OH226933   2.194   1.694   0.753
 8997TIP3    H126934   2.212   1.600   0.752
 8997TIP3    H226935   2.274   1.733   0.788
 8998TIP3   OH226936   1.004   1.869   5.207
 8998TIP3    H126937   1.044   1.946   5.166
 8998TIP3    H226938   0.911   1.893   5.216
 8999TIP3   OH226939   8.044   2.299   5.219
 8999TIP3    H126940   7.959   2.267   5.187
 8999TIP3    H226941   8.080   2.349   5.146
 9000TIP3   OH226942   6.412   1.191   4.755
 9000TIP3    H126943   6.394   1.243   4.676
 9000TIP3    H226944   6.380   1.103   4.733
 9001TIP3   OH226945   5.836   1.903   4.832
 9001TIP3    H126946   5.884   1.874   4.754
 9001TIP3    H226947   5.810   1.992   4.812
 9002TIP3   OH226948   2.315   2.376   2.279
 9002TIP3    H126949   2.311   2.471   2.271
 9002TIP3    H226950   2.241   2.353   2.334
 9003TIP3   OH226951   0.190   6.313   6.481
 9003TIP3    H126952   0.225   6.373   6.547
 9003TIP3    H226953   0.187   6.365   6.401
 9004TIP3   OH226954   4.010   1.440   1.264
 9004TIP3    H126955   4.033   1.415   1.175
 9004TIP3    H226956   4.091   1.478   1.299
 9005TIP3   OH226957   0.207   1.850   1.199
 9005TIP3    H126958   0.246   1.918   1.253
 9005TIP3    H226959   0.113   1.857   1.216
 9006TIP3   OH226960   6.201   7.006   5.099
 9006TIP3    H126961   6.160   6.941   5.043
 9006TIP3    H226962   6.264   6.957   5.151
 9007TIP3   OH226963   2.676   2.207   6.578
 9007TIP3    H126964   2.590   2.235   6.610
 9007TIP3    H226965   2.736   2.232   6.649
 9008TIP3   OH226966   3.783   6.069   0.585
 9008TIP3    H126967   3.709   6.127   0.602
 9008TIP3    H226968   3.801   6.028   0.670
 9009TIP3   OH226969   6.022   3.054   3.244
 9009TIP3    H126970   6.019   3.147   3.266
 9009TIP3    H226971   6.098   3.045   3.187
 9010TIP3   OH226972   6.384   2.032   2.211
 9010TIP3    H126973   6.343   1.985   2.284
 9010TIP3    H226974   6.362   2.124   2.227
 9011TIP3   OH226975   4.292   1.938   0.427
 9011TIP3    H126976   4.359   1.873   0.444
 9011TIP3    H226977   4.324   1.986   0.351
 9012TIP3   OH226978   7.665   0.142   4.765
 9012TIP3    H126979   7.593   0.155   4.703
 9012TIP3    H226980   7.710   0.064   4.733
 9013TIP3   OH226981   4.217   5.735   2.265
 9013TIP3    H126982   4.184   5.651   2.294
 9013TIP3    H226983   4.270   5.715   2.188
 9014TIP3   OH226984   8.202   2.753   3.633
 9014TIP3    H126985   8.123   2.716   3.593
 9014TIP3    H226986   8.223   2.829   3.579
 9015TIP3   OH226987   0.265   0.218   5.862
 9015TIP3    H126988   0.346   0.269   5.867
 9015TIP3    H226989   0.252   0.203   5.768
 9016TIP3   OH226990   1.422   4.585   5.844
 9016TIP3    H126991   1.343   4.532   5.853
 9016TIP3    H226992   1.400   4.651   5.779
 9017TIP3   OH226993   6.565   6.856   2.418
 9017TIP3    H126994   6.498   6.860   2.486
 9017TIP3    H226995   6.535   6.919   2.352
 9018TIP3   OH226996   6.283   3.722   5.270
 9018TIP3    H126997   6.305   3.716   5.177
 9018TIP3    H226998   6.358   3.685   5.315
 9019TIP3   OH226999   2.521   5.972   0.301
 9019TIP3    H127000   2.538   6.013   0.216
 9019TIP3    H227001   2.596   5.998   0.355
 9020TIP3   OH227002   4.174   3.787   0.422
 9020TIP3    H127003   4.181   3.700   0.382
 9020TIP3    H227004   4.091   3.785   0.469
 9021TIP3   OH227005   6.933   3.754   4.515
 9021TIP3    H127006   6.967   3.767   4.604
 9021TIP3    H227007   6.986   3.683   4.479
 9022TIP3   OH227008   4.842   7.402   0.752
 9022TIP3    H127009   4.899   7.457   0.698
 9022TIP3    H227010   4.759   7.398   0.704
 9023TIP3   OH227011   6.692   1.770   3.228
 9023TIP3    H127012   6.649   1.716   3.294
 9023TIP3    H227013   6.781   1.735   3.223
 9024TIP3   OH227014   5.061   6.530   0.376
 9024TIP3    H127015   5.125   6.459   0.384
 9024TIP3    H227016   4.993   6.508   0.439
 9025TIP3   OH227017   2.988   3.368   6.115
 9025TIP3    H127018   3.028   3.322   6.188
 9025TIP3    H227019   2.980   3.302   6.046
 9026TIP3   OH227020   7.841   0.755   3.016
 9026TIP3    H127021   7.908   0.728   3.079
 9026TIP3    H227022   7.828   0.678   2.961
 9027TIP3   OH227023   6.444   1.654   6.385
 9027TIP3    H127024   6.373   1.639   6.447
 9027TIP3    H227025   6.442   1.577   6.327
 9028TIP3   OH227026   5.435   2.975   5.831
 9028TIP3    H127027   5.474   2.994   5.745
 9028TIP3    H227028   5.483   2.898   5.862
 9029TIP3   OH227029   4.411   6.176   6.410
 9029TIP3    H127030   4.481   6.188   6.474
 9029TIP3    H227031   4.441   6.105   6.354
 9030TIP3   OH227032   0.195   3.759   5.751
 9030TIP3    H127033   0.139   3.686   5.781
 9030TIP3    H227034   0.280   3.741   5.791
 9031TIP3   OH227035   1.866   4.260   5.058
 9031TIP3    H127036   1.849   4.318   4.983
 9031TIP3    H227037   1.890   4.320   5.129
 9032TIP3   OH227038   4.771   4.237   4.850
 9032TIP3    H127039   4.816   4.156   4.875
 9032TIP3    H227040   4.715   4.212   4.777
 9033TIP3   OH227041   4.277   1.196   0.372
 9033TIP3    H127042   4.271   1.244   0.455
 9033TIP3    H227043   4.274   1.265   0.306
 9034TIP3   OH227044   4.880   0.976   2.610
 9034TIP3    H127045   4.890   1.000   2.518
 9034TIP3    H227046   4.830   1.049   2.648
 9035TIP3   OH227047   2.193   0.476   6.089
 9035TIP3    H127048   2.257   0.546   6.071
 9035TIP3    H227049   2.203   0.459   6.182
 9036TIP3   OH227050   8.071   7.261   4.663
 9036TIP3    H127051   8.048   7.180   4.708
 9036TIP3    H227052   8.106   7.232   4.579
 9037TIP3   OH227053   1.757   1.493   2.797
 9037TIP3    H127054   1.705   1.437   2.739
 9037TIP3    H227055   1.695   1.558   2.831
 9038TIP3   OH227056   7.375   6.364   0.485
 9038TIP3    H127057   7.359   6.451   0.522
 9038TIP3    H227058   7.385   6.380   0.391
 9039TIP3   OH227059   4.683   1.806   3.770
 9039TIP3    H127060   4.768   1.848   3.755
 9039TIP3    H227061   4.620   1.864   3.726
 9040TIP3   OH227062   2.371   0.809   0.177
 9040TIP3    H127063   2.311   0.883   0.173
 9040TIP3    H227064   2.316   0.734   0.200
 9041TIP3   OH227065   0.558   7.175   3.476
 9041TIP3    H127066   0.630   7.112   3.466
 9041TIP3    H227067   0.598   7.260   3.455
 9042TIP3   OH227068   5.194   2.572   3.783
 9042TIP3    H127069   5.178   2.641   3.847
 9042TIP3    H227070   5.137   2.594   3.709
 9043TIP3   OH227071   6.434   3.519   3.966
 9043TIP3    H127072   6.432   3.584   4.036
 9043TIP3    H227073   6.342   3.507   3.941
 9044TIP3   OH227074   8.246   4.775   0.866
 9044TIP3    H127075   8.219   4.797   0.955
 9044TIP3    H227076   8.338   4.750   0.875
 9045TIP3   OH227077   1.780   5.269   2.056
 9045TIP3    H127078   1.800   5.176   2.046
 9045TIP3    H227079   1.699   5.270   2.107
 9046TIP3   OH227080   3.024   5.793   0.373
 9046TIP3    H127081   2.988   5.791   0.462
 9046TIP3    H227082   2.993   5.712   0.332
 9047TIP3   OH227083   1.099   4.513   1.013
 9047TIP3    H127084   1.105   4.608   1.002
 9047TIP3    H227085   1.008   4.497   1.039
 9048TIP3   OH227086   5.742   2.502   6.227
 9048TIP3    H127087   5.647   2.493   6.241
 9048TIP3    H227088   5.770   2.414   6.200
 9049TIP3   OH227089   5.085   1.341   1.220
 9049TIP3    H127090   5.073   1.336   1.125
 9049TIP3    H227091   5.114   1.254   1.246
 9050TIP3   OH227092   7.439   3.754   6.281
 9050TIP3    H127093   7.510   3.693   6.256
 9050TIP3    H227094   7.484   3.836   6.298
 9051TIP3   OH227095   8.145   1.453   0.663
 9051TIP3    H127096   8.218   1.515   0.660
 9051TIP3    H227097   8.099   1.466   0.580
 9052TIP3   OH227098   5.301   0.403   5.904
 9052TIP3    H127099   5.316   0.363   5.989
 9052TIP3    H227100   5.384   0.391   5.857
 9053TIP3   OH227101   5.451   2.964   1.865
 9053TIP3    H127102   5.509   3.026   1.909
 9053TIP3    H227103   5.370   2.964   1.916
 9054TIP3   OH227104   0.633   7.671   1.871
 9054TIP3    H127105   0.592   7.684   1.956
 9054TIP3    H227106   0.722   7.642   1.891
 9055TIP3   OH227107   8.024   5.746   6.754
 9055TIP3    H127108   7.977   5.734   6.836
 9055TIP3    H227109   7.966   5.800   6.701
 9056TIP3   OH227110   3.412   5.091   5.974
 9056TIP3    H127111   3.373   5.178   5.958
 9056TIP3    H227112   3.370   5.034   5.910
 9057TIP3   OH227113   6.959   6.224   6.605
 9057TIP3    H127114   7.021   6.251   6.537
 9057TIP3    H227115   6.873   6.251   6.572
 9058TIP3   OH227116   5.281   5.919   4.550
 9058TIP3    H127117   5.324   5.943   4.468
 9058TIP3    H227118   5.326   5.972   4.616
 9059TIP3   OH227119   2.469   4.668   0.525
 9059TIP3    H127120   2.464   4.628   0.612
 9059TIP3    H227121   2.556   4.642   0.492
 9060TIP3   OH227122   6.562   4.548   3.899
 9060TIP3    H127123   6.569   4.483   3.970
 9060TIP3    H227124   6.652   4.574   3.881
 9061TIP3   OH227125   0.067   1.078   6.171
 9061TIP3    H127126   0.000   1.138   6.138
 9061TIP3    H227127   0.099   1.119   6.251
 9062TIP3   OH227128   4.645   3.291   1.873
 9062TIP3    H127129   4.596   3.236   1.813
 9062TIP3    H227130   4.642   3.378   1.834
 9063TIP3   OH227131   2.578   4.186   4.696
 9063TIP3    H127132   2.500   4.197   4.642
 9063TIP3    H227133   2.581   4.265   4.750
 9064TIP3   OH227134   6.431   5.393   2.935
 9064TIP3    H127135   6.490   5.362   2.867
 9064TIP3    H227136   6.370   5.320   2.950
 9065TIP3   OH227137   2.519   7.247   2.771
 9065TIP3    H127138   2.482   7.332   2.746
 9065TIP3    H227139   2.461   7.183   2.731
 9066TIP3   OH227140   1.387   5.736   1.460
 9066TIP3    H127141   1.324   5.802   1.491
 9066TIP3    H227142   1.349   5.653   1.488
 9067TIP3   OH227143   3.244   4.282   5.018
 9067TIP3    H127144   3.328   4.300   4.977
 9067TIP3    H227145   3.195   4.363   5.010
 9068TIP3   OH227146   4.568   6.951   4.344
 9068TIP3    H127147   4.644   6.951   4.284
 9068TIP3    H227148   4.603   6.982   4.427
 9069TIP3   OH227149   3.967   2.612   3.862
 9069TIP3    H127150   4.045   2.566   3.893
 9069TIP3    H227151   3.946   2.571   3.779
 9070TIP3   OH227152   5.504   0.862   1.311
 9070TIP3    H127153   5.559   0.928   1.355
 9070TIP3    H227154   5.534   0.862   1.220
 9071TIP3   OH227155   7.390   3.257   3.938
 9071TIP3    H127156   7.397   3.338   3.989
 9071TIP3    H227157   7.478   3.243   3.903
 9072TIP3   OH227158   1.644   3.666   4.854
 9072TIP3    H127159   1.692   3.640   4.775
 9072TIP3    H227160   1.620   3.758   4.838
 9073TIP3   OH227161   5.995   1.945   3.243
 9073TIP3    H127162   5.988   1.936   3.148
 9073TIP3    H227163   6.089   1.940   3.260
 9074TIP3   OH227164   6.411   1.377   6.540
 9074TIP3    H127165   6.333   1.323   6.530
 9074TIP3    H227166   6.384   1.450   6.594
 9075TIP3   OH227167   8.143   2.601   4.329
 9075TIP3    H127168   8.205   2.543   4.284
 9075TIP3    H227169   8.166   2.688   4.297
 9076TIP3   OH227170   7.724   0.737   6.057
 9076TIP3    H127171   7.692   0.648   6.074
 9076TIP3    H227172   7.655   0.777   6.004
 9077TIP3   OH227173   4.081   3.185   5.402
 9077TIP3    H127174   4.074   3.093   5.428
 9077TIP3    H227175   3.992   3.208   5.373
 9078TIP3   OH227176   6.611   5.443   3.740
 9078TIP3    H127177   6.704   5.429   3.720
 9078TIP3    H227178   6.566   5.418   3.659
 9079TIP3   OH227179   0.442   5.979   4.951
 9079TIP3    H127180   0.379   5.965   4.881
 9079TIP3    H227181   0.430   5.903   5.009
 9080TIP3   OH227182   7.203   1.731   6.670
 9080TIP3    H127183   7.197   1.741   6.765
 9080TIP3    H227184   7.259   1.803   6.641
 9081TIP3   OH227185   7.602   5.438   5.422
 9081TIP3    H127186   7.666   5.369   5.440
 9081TIP3    H227187   7.642   5.517   5.457
 9082TIP3   OH227188   1.426   3.797   3.520
 9082TIP3    H127189   1.387   3.717   3.554
 9082TIP3    H227190   1.353   3.843   3.477
 9083TIP3   OH227191   7.335   5.566   0.825
 9083TIP3    H127192   7.274   5.518   0.881
 9083TIP3    H227193   7.395   5.609   0.887
 9084TIP3   OH227194   8.240   3.402   6.686
 9084TIP3    H127195   8.309   3.388   6.621
 9084TIP3    H227196   8.236   3.321   6.735
 9085TIP3   OH227197   4.167   0.204   4.739
 9085TIP3    H127198   4.204   0.154   4.666
 9085TIP3    H227199   4.183   0.295   4.716
 9086TIP3   OH227200   1.925   4.295   1.007
 9086TIP3    H127201   1.996   4.293   0.943
 9086TIP3    H227202   1.938   4.376   1.055
 9087TIP3   OH227203   0.519   6.817   5.402
 9087TIP3    H127204   0.521   6.913   5.407
 9087TIP3    H227205   0.587   6.795   5.338
 9088TIP3   OH227206   6.472   0.885   1.695
 9088TIP3    H127207   6.394   0.864   1.745
 9088TIP3    H227208   6.543   0.884   1.759
 9089TIP3   OH227209   4.942   5.989   5.821
 9089TIP3    H127210   4.926   5.991   5.727
 9089TIP3    H227211   4.858   5.961   5.859
 9090TIP3   OH227212   7.707   0.611   4.488
 9090TIP3    H127213   7.624   0.622   4.535
 9090TIP3    H227214   7.759   0.553   4.544
 9091TIP3   OH227215   0.952   5.688   2.809
 9091TIP3    H127216   1.005   5.672   2.887
 9091TIP3    H227217   0.928   5.601   2.778
 9092TIP3   OH227218   3.566   5.451   2.796
 9092TIP3    H127219   3.569   5.355   2.797
 9092TIP3    H227220   3.638   5.478   2.853
 9093TIP3   OH227221   0.290   4.123   5.659
 9093TIP3    H127222   0.270   4.150   5.570
 9093TIP3    H227223   0.240   4.042   5.672
 9094TIP3   OH227224   2.997   4.441   0.228
 9094TIP3    H127225   2.977   4.532   0.251
 9094TIP3    H227226   2.925   4.415   0.171
 9095TIP3   OH227227   6.275   5.108   1.440
 9095TIP3    H127228   6.242   5.150   1.360
 9095TIP3    H227229   6.294   5.181   1.499
 9096TIP3   OH227230   2.107   2.634   4.542
 9096TIP3    H127231   2.084   2.646   4.634
 9096TIP3    H227232   2.063   2.706   4.496
 9097TIP3   OH227233   7.913   2.069   1.757
 9097TIP3    H127234   7.879   2.020   1.682
 9097TIP3    H227235   7.836   2.109   1.797
 9098TIP3   OH227236   0.869   0.613   4.004
 9098TIP3    H127237   0.896   0.655   4.086
 9098TIP3    H227238   0.781   0.581   4.021
 9099TIP3   OH227239   1.844   1.473   6.296
 9099TIP3    H127240   1.752   1.460   6.274
 9099TIP3    H227241   1.885   1.501   6.214
 9100TIP3   OH227242   3.351   5.904   2.623
 9100TIP3    H127243   3.287   5.837   2.649
 9100TIP3    H227244   3.314   5.986   2.655
 9101TIP3   OH227245   1.968   1.387   0.751
 9101TIP3    H127246   1.997   1.478   0.753
 9101TIP3    H227247   1.974   1.362   0.658
 9102TIP3   OH227248   7.409   3.419   5.732
 9102TIP3    H127249   7.446   3.474   5.663
 9102TIP3    H227250   7.327   3.385   5.694
 9103TIP3   OH227251   7.207   6.781   1.261
 9103TIP3    H127252   7.137   6.835   1.224
 9103TIP3    H227253   7.276   6.844   1.285
 9104TIP3   OH227254   8.246   5.057   2.146
 9104TIP3    H127255   8.273   5.141   2.111
 9104TIP3    H227256   8.306   5.041   2.219
 9105TIP3   OH227257   5.859   7.394   4.399
 9105TIP3    H127258   5.837   7.421   4.309
 9105TIP3    H227259   5.819   7.461   4.454
 9106TIP3   OH227260   0.838   2.855   5.748
 9106TIP3    H127261   0.756   2.849   5.700
 9106TIP3    H227262   0.906   2.840   5.683
 9107TIP3   OH227263   3.161   3.592   3.113
 9107TIP3    H127264   3.118   3.614   3.030
 9107TIP3    H227265   3.092   3.556   3.168
 9108TIP3   OH227266   1.839   5.552   3.259
 9108TIP3    H127267   1.785   5.631   3.256
 9108TIP3    H227268   1.929   5.584   3.256
 9109TIP3   OH227269   5.985   7.467   1.996
 9109TIP3    H127270   5.987   7.557   2.029
 9109TIP3    H227271   6.035   7.417   2.061
 9110TIP3   OH227272   7.003   7.076   2.875
 9110TIP3    H127273   7.084   7.089   2.825
 9110TIP3    H227274   6.958   7.004   2.830
 9111TIP3   OH227275   2.036   5.898   6.651
 9111TIP3    H127276   2.045   5.889   6.556
 9111TIP3    H227277   2.000   5.986   6.663
 9112TIP3   OH227278   2.705   1.925   4.415
 9112TIP3    H127279   2.790   1.968   4.407
 9112TIP3    H227280   2.645   1.994   4.439
 9113TIP3   OH227281   2.103   4.927   0.353
 9113TIP3    H127282   2.140   5.010   0.321
 9113TIP3    H227283   2.009   4.934   0.333
 9114TIP3   OH227284   7.250   1.650   3.770
 9114TIP3    H127285   7.192   1.575   3.757
 9114TIP3    H227286   7.279   1.643   3.861
 9115TIP3   OH227287   5.254   2.726   3.257
 9115TIP3    H127288   5.289   2.809   3.227
 9115TIP3    H227289   5.309   2.660   3.216
 9116TIP3   OH227290   5.044   7.494   4.587
 9116TIP3    H127291   5.050   7.517   4.494
 9116TIP3    H227292   5.050   7.578   4.633
 9117TIP3   OH227293   5.761   2.735   3.320
 9117TIP3    H127294   5.844   2.700   3.289
 9117TIP3    H227295   5.751   2.818   3.275
 9118TIP3   OH227296   1.934   2.692   1.601
 9118TIP3    H127297   2.012   2.656   1.559
 9118TIP3    H227298   1.930   2.647   1.686
 9119TIP3   OH227299   4.574   1.475   6.176
 9119TIP3    H127300   4.537   1.406   6.122
 9119TIP3    H227301   4.588   1.548   6.116
 9120TIP3   OH227302   6.458   4.747   4.894
 9120TIP3    H127303   6.474   4.660   4.930
 9120TIP3    H227304   6.545   4.782   4.876
 9121TIP3   OH227305   6.432   2.122   4.918
 9121TIP3    H127306   6.435   2.060   4.844
 9121TIP3    H227307   6.356   2.178   4.900
 9122TIP3   OH227308   5.694   2.841   6.133
 9122TIP3    H127309   5.717   2.757   6.095
 9122TIP3    H227310   5.745   2.846   6.214
 9123TIP3   OH227311   7.803   1.569   0.001
 9123TIP3    H127312   7.774   1.649   0.044
 9123TIP3    H227313   7.726   1.511   0.004
 9124TIP3   OH227314   4.528   3.549   0.125
 9124TIP3    H127315   4.452   3.595   0.159
 9124TIP3    H227316   4.494   3.498   0.051
 9125TIP3   OH227317   8.090   4.602   6.133
 9125TIP3    H127318   8.043   4.640   6.059
 9125TIP3    H227319   8.027   4.605   6.206
 9126TIP3   OH227320   6.163   6.604   6.017
 9126TIP3    H127321   6.232   6.542   6.041
 9126TIP3    H227322   6.109   6.612   6.096
 9127TIP3   OH227323   1.558   1.248   4.154
 9127TIP3    H127324   1.469   1.227   4.182
 9127TIP3    H227325   1.614   1.214   4.223
 9128TIP3   OH227326   1.446   3.783   2.255
 9128TIP3    H127327   1.468   3.758   2.345
 9128TIP3    H227328   1.510   3.851   2.233
 9129TIP3   OH227329   0.061   3.602   5.146
 9129TIP3    H127330  -0.021   3.584   5.192
 9129TIP3    H227331   0.045   3.575   5.056
 9130TIP3   OH227332   7.798   4.389   2.851
 9130TIP3    H127333   7.736   4.334   2.900
 9130TIP3    H227334   7.764   4.478   2.861
 9131TIP3   OH227335   0.398   1.558   4.131
 9131TIP3    H127336   0.402   1.462   4.137
 9131TIP3    H227337   0.311   1.576   4.096
 9132TIP3   OH227338   5.592   5.438   0.131
 9132TIP3    H127339   5.634   5.352   0.134
 9132TIP3    H227340   5.512   5.428   0.182
 9133TIP3   OH227341   3.531   1.012   5.901
 9133TIP3    H127342   3.545   0.941   5.963
 9133TIP3    H227343   3.611   1.014   5.848
 9134TIP3   OH227344   7.645   5.534   4.204
 9134TIP3    H127345   7.716   5.473   4.183
 9134TIP3    H227346   7.568   5.478   4.212
 9135TIP3   OH227347   3.213   4.497   6.463
 9135TIP3    H127348   3.212   4.593   6.469
 9135TIP3    H227349   3.135   4.476   6.412
 9136TIP3   OH227350   0.462   6.812   4.319
 9136TIP3    H127351   0.387   6.792   4.375
 9136TIP3    H227352   0.472   6.907   4.325
 9137TIP3   OH227353   4.858   4.296   2.578
 9137TIP3    H127354   4.839   4.211   2.617
 9137TIP3    H227355   4.928   4.332   2.632
 9138TIP3   OH227356   1.889   4.578   4.877
 9138TIP3    H127357   1.903   4.553   4.786
 9138TIP3    H227358   1.824   4.648   4.874
 9139TIP3   OH227359   1.105   7.564   4.989
 9139TIP3    H127360   1.132   7.603   4.906
 9139TIP3    H227361   1.016   7.531   4.973
 9140TIP3   OH227362   0.117   7.069   2.161
 9140TIP3    H127363   0.061   7.135   2.121
 9140TIP3    H227364   0.202   7.081   2.119
 9141TIP3   OH227365   8.075   3.846   0.450
 9141TIP3    H127366   8.146   3.807   0.501
 9141TIP3    H227367   8.114   3.864   0.365
 9142TIP3   OH227368   5.945   2.063   1.936
 9142TIP3    H127369   5.865   2.059   1.989
 9142TIP3    H227370   5.921   2.019   1.855
 9143TIP3   OH227371   1.202   2.752   2.595
 9143TIP3    H127372   1.218   2.689   2.525
 9143TIP3    H227373   1.217   2.703   2.676
 9144TIP3   OH227374   1.982   2.118   2.165
 9144TIP3    H127375   1.999   2.115   2.259
 9144TIP3    H227376   2.048   2.179   2.131
 9145TIP3   OH227377   4.033   6.863   1.807
 9145TIP3    H127378   4.043   6.958   1.810
 9145TIP3    H227379   3.957   6.845   1.863
 9146TIP3   OH227380   1.574   3.211   2.324
 9146TIP3    H127381   1.596   3.260   2.244
 9146TIP3    H227382   1.624   3.254   2.393
 9147TIP3   OH227383   3.349   1.348   5.133
 9147TIP3    H127384   3.370   1.255   5.134
 9147TIP3    H227385   3.253   1.351   5.129
 9148TIP3   OH227386   5.819   3.027   4.508
 9148TIP3    H127387   5.855   2.943   4.534
 9148TIP3    H227388   5.787   3.013   4.419
 9149TIP3   OH227389   5.473   2.226   3.930
 9149TIP3    H127390   5.378   2.234   3.922
 9149TIP3    H227391   5.504   2.222   3.840
 9150TIP3   OH227392   5.783   7.670   4.461
 9150TIP3    H127393   5.754   7.620   4.537
 9150TIP3    H227394   5.744   7.756   4.473
 9151TIP3   OH227395   5.566   4.658   0.204
 9151TIP3    H127396   5.627   4.727   0.179
 9151TIP3    H227397   5.621   4.579   0.207
 9152TIP3   OH227398   7.740   4.658   4.286
 9152TIP3    H127399   7.768   4.574   4.250
 9152TIP3    H227400   7.817   4.714   4.279
 9153TIP3   OH227401   4.460   2.886   1.821
 9153TIP3    H127402   4.513   2.851   1.750
 9153TIP3    H227403   4.442   2.977   1.795
 9154TIP3   OH227404   4.003   5.145   2.833
 9154TIP3    H127405   4.004   5.235   2.801
 9154TIP3    H227406   3.911   5.124   2.845
 9155TIP3   OH227407   1.653   0.870   0.772
 9155TIP3    H127408   1.645   0.799   0.835
 9155TIP3    H227409   1.737   0.855   0.728
 9156TIP3   OH227410   7.407   6.016   0.801
 9156TIP3    H127411   7.369   5.938   0.760
 9156TIP3    H227412   7.332   6.063   0.836
 9157TIP3   OH227413   5.802   6.426   5.003
 9157TIP3    H127414   5.781   6.361   5.069
 9157TIP3    H227415   5.823   6.505   5.052
 9158TIP3   OH227416   6.696   0.665   5.373
 9158TIP3    H127417   6.616   0.680   5.324
 9158TIP3    H227418   6.742   0.596   5.326
 9159TIP3   OH227419   8.011   3.129  -0.063
 9159TIP3    H127420   8.063   3.074  -0.005
 9159TIP3    H227421   7.934   3.152  -0.012
 9160TIP3   OH227422   2.188   2.756   3.589
 9160TIP3    H127423   2.182   2.662   3.602
 9160TIP3    H227424   2.208   2.767   3.496
 9161TIP3   OH227425   4.746   5.119   4.567
 9161TIP3    H127426   4.728   5.064   4.491
 9161TIP3    H227427   4.784   5.199   4.531
 9162TIP3   OH227428   4.882   7.631   6.022
 9162TIP3    H127429   4.937   7.617   6.099
 9162TIP3    H227430   4.943   7.625   5.948
 9163TIP3   OH227431   4.504   2.376   0.378
 9163TIP3    H127432   4.526   2.449   0.320
 9163TIP3    H227433   4.486   2.418   0.463
 9164TIP3   OH227434   0.667   1.462   3.932
 9164TIP3    H127435   0.674   1.541   3.987
 9164TIP3    H227436   0.622   1.492   3.854
 9165TIP3   OH227437   6.547   6.375   2.139
 9165TIP3    H127438   6.484   6.304   2.153
 9165TIP3    H227439   6.512   6.425   2.066
 9166TIP3   OH227440   1.227   4.689   1.592
 9166TIP3    H127441   1.252   4.652   1.676
 9166TIP3    H227442   1.246   4.783   1.601
 9167TIP3   OH227443   6.819   4.194   4.338
 9167TIP3    H127444   6.845   4.244   4.415
 9167TIP3    H227445   6.787   4.259   4.276
 9168TIP3   OH227446   2.556   0.479   5.929
 9168TIP3    H127447   2.490   0.540   5.963
 9168TIP3    H227448   2.611   0.533   5.872
 9169TIP3   OH227449   8.292   0.398   3.408
 9169TIP3    H127450   8.361   0.353   3.359
 9169TIP3    H227451   8.254   0.330   3.463
 9170TIP3   OH227452   2.807   0.366   4.015
 9170TIP3    H127453   2.758   0.444   3.988
 9170TIP3    H227454   2.887   0.369   3.963
 9171TIP3   OH227455   2.796   1.508   0.201
 9171TIP3    H127456   2.803   1.417   0.173
 9171TIP3    H227457   2.832   1.509   0.290
 9172TIP3   OH227458   4.698   2.107   5.911
 9172TIP3    H127459   4.667   2.124   5.822
 9172TIP3    H227460   4.648   2.031   5.940
 9173TIP3   OH227461   6.331   0.521   2.212
 9173TIP3    H127462   6.283   0.454   2.261
 9173TIP3    H227463   6.422   0.491   2.212
 9174TIP3   OH227464   7.930   0.760   5.221
 9174TIP3    H127465   7.996   0.728   5.160
 9174TIP3    H227466   7.977   0.771   5.304
 9175TIP3   OH227467   4.257   3.319   4.724
 9175TIP3    H127468   4.325   3.321   4.791
 9175TIP3    H227469   4.290   3.255   4.660
 9176TIP3   OH227470   2.811   3.629   0.586
 9176TIP3    H127471   2.778   3.718   0.571
 9176TIP3    H227472   2.865   3.610   0.509
 9177TIP3   OH227473   7.404   3.991   0.228
 9177TIP3    H127474   7.325   3.948   0.262
 9177TIP3    H227475   7.385   4.010   0.136
 9178TIP3   OH227476   5.775   1.216   0.613
 9178TIP3    H127477   5.789   1.310   0.626
 9178TIP3    H227478   5.706   1.193   0.675
 9179TIP3   OH227479   7.809   6.111   3.480
 9179TIP3    H127480   7.762   6.043   3.431
 9179TIP3    H227481   7.741   6.172   3.508
 9180TIP3   OH227482   2.702   1.351   2.509
 9180TIP3    H127483   2.625   1.300   2.485
 9180TIP3    H227484   2.707   1.345   2.604
 9181TIP3   OH227485   6.287   1.743   3.523
 9181TIP3    H127486   6.208   1.769   3.571
 9181TIP3    H227487   6.258   1.676   3.462
 9182TIP3   OH227488   3.656   0.881   5.580
 9182TIP3    H127489   3.706   0.961   5.563
 9182TIP3    H227490   3.672   0.861   5.672
 9183TIP3   OH227491   5.070   6.107   2.340
 9183TIP3    H127492   5.126   6.032   2.324
 9183TIP3    H227493   5.067   6.115   2.435
 9184TIP3   OH227494   8.138   7.335   5.978
 9184TIP3    H127495   8.106   7.356   6.066
 9184TIP3    H227496   8.060   7.339   5.923
 9185TIP3   OH227497   4.341   1.826   3.776
 9185TIP3    H127498   4.407   1.836   3.845
 9185TIP3    H227499   4.258   1.821   3.822
 9186TIP3   OH227500   1.467   7.579   0.727
 9186TIP3    H127501   1.381   7.538   0.713
 9186TIP3    H227502   1.447   7.672   0.736
 9187TIP3   OH227503   2.322   0.426   4.328
 9187TIP3    H127504   2.361   0.403   4.244
 9187TIP3    H227505   2.322   0.521   4.330
 9188TIP3   OH227506   5.102   4.588   0.139
 9188TIP3    H127507   5.083   4.651   0.070
 9188TIP3    H227508   5.196   4.574   0.134
 9189TIP3   OH227509   4.994   2.603   6.493
 9189TIP3    H127510   4.991   2.508   6.480
 9189TIP3    H227511   5.087   2.622   6.509
 9190TIP3   OH227512   3.058   5.314   4.391
 9190TIP3    H127513   3.080   5.248   4.325
 9190TIP3    H227514   3.115   5.293   4.465
 9191TIP3   OH227515   5.322   6.846   1.135
 9191TIP3    H127516   5.356   6.758   1.151
 9191TIP3    H227517   5.354   6.898   1.209
 9192TIP3   OH227518   2.105   3.632   4.342
 9192TIP3    H127519   2.080   3.602   4.255
 9192TIP3    H227520   2.182   3.686   4.328
 9193TIP3   OH227521   5.667   3.591   2.243
 9193TIP3    H127522   5.707   3.677   2.247
 9193TIP3    H227523   5.709   3.548   2.169
 9194TIP3   OH227524   5.624   2.858   0.373
 9194TIP3    H127525   5.665   2.832   0.455
 9194TIP3    H227526   5.534   2.880   0.397
 9195TIP3   OH227527   1.815   1.532   5.315
 9195TIP3    H127528   1.823   1.462   5.380
 9195TIP3    H227529   1.744   1.502   5.257
 9196TIP3   OH227530   3.436   2.479   1.328
 9196TIP3    H127531   3.439   2.572   1.349
 9196TIP3    H227532   3.469   2.435   1.406
 9197TIP3   OH227533   5.463   3.925   2.456
 9197TIP3    H127534   5.378   3.900   2.419
 9197TIP3    H227535   5.515   3.952   2.380
 9198TIP3   OH227536   1.418   7.413   5.489
 9198TIP3    H127537   1.388   7.348   5.425
 9198TIP3    H227538   1.497   7.451   5.449
 9199TIP3   OH227539   1.929   1.633   3.228
 9199TIP3    H127540   1.835   1.635   3.207
 9199TIP3    H227541   1.968   1.582   3.157
 9200TIP3   OH227542   0.513   1.196   6.664
 9200TIP3    H127543   0.597   1.226   6.699
 9200TIP3    H227544   0.465   1.164   6.740
 9201TIP3   OH227545   2.713   6.898   2.549
 9201TIP3    H127546   2.625   6.860   2.551
 9201TIP3    H227547   2.769   6.827   2.517
 9202TIP3   OH227548   0.296   4.838   4.362
 9202TIP3    H127549   0.252   4.754   4.369
 9202TIP3    H227550   0.251   4.894   4.425
 9203TIP3   OH227551   3.198   3.881   0.099
 9203TIP3    H127552   3.112   3.890   0.057
 9203TIP3    H227553   3.260   3.913   0.034
 9204TIP3   OH227554   1.720   5.721   1.183
 9204TIP3    H127555   1.744   5.690   1.271
 9204TIP3    H227556   1.664   5.797   1.199
 9205TIP3   OH227557   3.250   1.190   5.654
 9205TIP3    H127558   3.221   1.240   5.577
 9205TIP3    H227559   3.169   1.167   5.700
 9206TIP3   OH227560   3.229   6.066   5.682
 9206TIP3    H127561   3.257   5.988   5.730
 9206TIP3    H227562   3.139   6.081   5.711
 9207TIP3   OH227563   1.214   2.952   2.859
 9207TIP3    H127564   1.273   2.975   2.787
 9207TIP3    H227565   1.212   2.856   2.858
 9208TIP3   OH227566   7.722   6.952   4.477
 9208TIP3    H127567   7.713   6.879   4.416
 9208TIP3    H227568   7.740   7.028   4.421
 9209TIP3   OH227569   4.581   5.327   5.865
 9209TIP3    H127570   4.631   5.402   5.832
 9209TIP3    H227571   4.489   5.354   5.856
 9210TIP3   OH227572   6.778   4.348   3.375
 9210TIP3    H127573   6.814   4.293   3.306
 9210TIP3    H227574   6.710   4.295   3.416
 9211TIP3   OH227575   5.709   7.097   2.578
 9211TIP3    H127576   5.748   7.075   2.493
 9211TIP3    H227577   5.646   7.166   2.559
 9212TIP3   OH227578   5.511   2.710   2.118
 9212TIP3    H127579   5.571   2.736   2.187
 9212TIP3    H227580   5.461   2.638   2.155
 9213TIP3   OH227581   7.092   3.212   0.973
 9213TIP3    H127582   7.142   3.152   1.029
 9213TIP3    H227583   7.138   3.296   0.981
 9214TIP3   OH227584   6.110   1.549   2.940
 9214TIP3    H127585   6.023   1.532   2.903
 9214TIP3    H227586   6.141   1.463   2.969
 9215TIP3   OH227587   3.584   5.058   6.561
 9215TIP3    H127588   3.607   5.096   6.646
 9215TIP3    H227589   3.566   4.966   6.580
 9216TIP3   OH227590   6.154   3.427   2.756
 9216TIP3    H127591   6.110   3.461   2.678
 9216TIP3    H227592   6.212   3.499   2.784
 9217TIP3   OH227593   3.511   7.292   6.465
 9217TIP3    H127594   3.580   7.239   6.425
 9217TIP3    H227595   3.554   7.376   6.482
 9218TIP3   OH227596   0.881   3.279   1.618
 9218TIP3    H127597   0.852   3.303   1.706
 9218TIP3    H227598   0.821   3.327   1.560
 9219TIP3   OH227599   1.489   4.571   1.266
 9219TIP3    H127600   1.438   4.649   1.245
 9219TIP3    H227601   1.567   4.577   1.210
 9220TIP3   OH227602   2.431   3.582   1.175
 9220TIP3    H127603   2.367   3.516   1.151
 9220TIP3    H227604   2.406   3.660   1.125
 9221TIP3   OH227605   1.445   1.138   0.840
 9221TIP3    H127606   1.533   1.136   0.878
 9221TIP3    H227607   1.460   1.138   0.745
 9222TIP3   OH227608   5.414   1.006   5.933
 9222TIP3    H127609   5.466   0.993   5.853
 9222TIP3    H227610   5.324   1.019   5.902
 9223TIP3   OH227611   0.614   3.126   5.218
 9223TIP3    H127612   0.695   3.099   5.259
 9223TIP3    H227613   0.571   3.045   5.193
 9224TIP3   OH227614   1.017   3.474   3.980
 9224TIP3    H127615   1.080   3.403   3.984
 9224TIP3    H227616   0.931   3.431   3.982
 9225TIP3   OH227617   6.996   3.826   1.619
 9225TIP3    H127618   7.028   3.874   1.542
 9225TIP3    H227619   7.017   3.734   1.600
 9226TIP3   OH227620   3.038   1.695   6.176
 9226TIP3    H127621   3.060   1.602   6.187
 9226TIP3    H227622   3.071   1.716   6.089
 9227TIP3   OH227623   1.522   3.223   1.720
 9227TIP3    H127624   1.508   3.166   1.796
 9227TIP3    H227625   1.476   3.304   1.742
 9228TIP3   OH227626   3.347   5.181   2.059
 9228TIP3    H127627   3.291   5.203   2.134
 9228TIP3    H227628   3.432   5.162   2.098
 9229TIP3   OH227629   7.268   2.633   2.035
 9229TIP3    H127630   7.267   2.709   1.977
 9229TIP3    H227631   7.330   2.655   2.104
 9230TIP3   OH227632   0.942   2.652   5.068
 9230TIP3    H127633   1.003   2.594   5.023
 9230TIP3    H227634   0.997   2.722   5.104
 9231TIP3   OH227635   8.031   4.219   6.068
 9231TIP3    H127636   8.008   4.127   6.051
 9231TIP3    H227637   8.121   4.227   6.038
 9232TIP3   OH227638   0.941   7.252   6.074
 9232TIP3    H127639   0.892   7.244   5.992
 9232TIP3    H227640   0.985   7.168   6.084
 9233TIP3   OH227641   7.422   3.322   1.621
 9233TIP3    H127642   7.430   3.258   1.691
 9233TIP3    H227643   7.510   3.327   1.583
 9234TIP3   OH227644   5.605   2.241   6.766
 9234TIP3    H127645   5.667   2.315   6.765
 9234TIP3    H227646   5.534   2.269   6.709
 9235TIP3   OH227647   7.739   7.137   0.557
 9235TIP3    H127648   7.780   7.068   0.608
 9235TIP3    H227649   7.797   7.148   0.481
 9236TIP3   OH227650   6.721   6.997   1.170
 9236TIP3    H127651   6.716   6.929   1.104
 9236TIP3    H227652   6.756   7.073   1.124
 9237TIP3   OH227653   6.674   2.666   0.268
 9237TIP3    H127654   6.682   2.599   0.201
 9237TIP3    H227655   6.764   2.682   0.297
 9238TIP3   OH227656   1.926   0.611   0.827
 9238TIP3    H127657   1.899   0.524   0.857
 9238TIP3    H227658   1.898   0.670   0.897
 9239TIP3   OH227659   7.071   1.335   6.000
 9239TIP3    H127660   7.069   1.423   6.038
 9239TIP3    H227661   7.048   1.348   5.908
 9240TIP3   OH227662   5.903   1.430   4.109
 9240TIP3    H127663   5.945   1.345   4.117
 9240TIP3    H227664   5.811   1.413   4.125
 9241TIP3   OH227665   1.171   0.891   2.969
 9241TIP3    H127666   1.190   0.835   3.045
 9241TIP3    H227667   1.255   0.932   2.949
 9242TIP3   OH227668   1.055   6.473   2.407
 9242TIP3    H127669   1.067   6.498   2.315
 9242TIP3    H227670   0.998   6.397   2.404
 9243TIP3   OH227671   1.933   6.958   0.822
 9243TIP3    H127672   2.026   6.959   0.842
 9243TIP3    H227673   1.902   6.874   0.855
 9244TIP3   OH227674   3.173   7.547   1.335
 9244TIP3    H127675   3.212   7.466   1.367
 9244TIP3    H227676   3.079   7.530   1.334
 9245TIP3   OH227677   6.515   5.093   5.830
 9245TIP3    H127678   6.503   5.009   5.786
 9245TIP3    H227679   6.581   5.138   5.777
 9246TIP3   OH227680   3.868   4.513   3.372
 9246TIP3    H127681   3.957   4.491   3.399
 9246TIP3    H227682   3.813   4.449   3.417
 9247TIP3   OH227683   8.181   1.889   0.570
 9247TIP3    H127684   8.160   1.943   0.646
 9247TIP3    H227685   8.100   1.840   0.552
 9248TIP3   OH227686   7.770   1.196   6.195
 9248TIP3    H127687   7.819   1.114   6.194
 9248TIP3    H227688   7.688   1.175   6.150
 9249TIP3   OH227689   8.242   0.587   5.167
 9249TIP3    H127690   8.295   0.629   5.235
 9249TIP3    H227691   8.201   0.512   5.211
 9250TIP3   OH227692   2.494   7.718   2.874
 9250TIP3    H127693   2.576   7.704   2.921
 9250TIP3    H227694   2.482   7.813   2.874
 9251TIP3   OH227695   6.337   5.281   4.929
 9251TIP3    H127696   6.355   5.260   4.837
 9251TIP3    H227697   6.241   5.274   4.936
 9252TIP3   OH227698   2.976   4.605   3.262
 9252TIP3    H127699   3.008   4.633   3.348
 9252TIP3    H227700   2.994   4.678   3.204
 9253TIP3   OH227701   5.461   5.037   6.440
 9253TIP3    H127702   5.448   5.114   6.495
 9253TIP3    H227703   5.377   5.024   6.397
 9254TIP3   OH227704   6.256   7.172   3.555
 9254TIP3    H127705   6.166   7.187   3.526
 9254TIP3    H227706   6.248   7.107   3.625
 9255TIP3   OH227707   1.618   7.664   6.549
 9255TIP3    H127708   1.652   7.649   6.637
 9255TIP3    H227709   1.682   7.622   6.491
 9256TIP3   OH227710   3.985  -0.004   2.918
 9256TIP3    H127711   3.999   0.019   3.010
 9256TIP3    H227712   4.015   0.073   2.870
 9257TIP3   OH227713   6.476   3.698   1.257
 9257TIP3    H127714   6.435   3.623   1.300
 9257TIP3    H227715   6.431   3.705   1.173
 9258TIP3   OH227716   4.572   4.763   5.577
 9258TIP3    H127717   4.571   4.713   5.495
 9258TIP3    H227718   4.528   4.845   5.555
 9259TIP3   OH227719   7.783   1.181   3.200
 9259TIP3    H127720   7.720   1.121   3.240
 9259TIP3    H227721   7.754   1.268   3.229
 9260TIP3   OH227722   4.094   5.109   5.091
 9260TIP3    H127723   4.140   5.143   5.014
 9260TIP3    H227724   4.004   5.095   5.062
 9261TIP3   OH227725   0.986   5.695   5.406
 9261TIP3    H127726   1.007   5.604   5.423
 9261TIP3    H227727   1.071   5.738   5.394
 9262TIP3   OH227728   3.759   6.178   6.284
 9262TIP3    H127729   3.801   6.250   6.331
 9262TIP3    H227730   3.666   6.199   6.286
 9263TIP3   OH227731   1.446   4.122   2.588
 9263TIP3    H127732   1.432   4.175   2.666
 9263TIP3    H227733   1.401   4.039   2.607
 9264TIP3   OH227734   2.866   0.112   0.719
 9264TIP3    H127735   2.907   0.046   0.662
 9264TIP3    H227736   2.939   0.166   0.748
 9265TIP3   OH227737   2.365   0.481   3.146
 9265TIP3    H127738   2.304   0.445   3.081
 9265TIP3    H227739   2.402   0.404   3.189
 9266TIP3   OH227740   6.883   1.184   0.718
 9266TIP3    H127741   6.871   1.264   0.667
 9266TIP3    H227742   6.964   1.145   0.683
 9267TIP3   OH227743   3.002   3.668   6.350
 9267TIP3    H127744   2.930   3.621   6.392
 9267TIP3    H227745   3.080   3.640   6.398
 9268TIP3   OH227746   2.215   1.850   0.413
 9268TIP3    H127747   2.194   1.934   0.373
 9268TIP3    H227748   2.131   1.808   0.428
 9269TIP3   OH227749   6.621   2.527   5.641
 9269TIP3    H127750   6.616   2.613   5.682
 9269TIP3    H227751   6.534   2.489   5.654
 9270TIP3   OH227752   5.155   1.669   3.930
 9270TIP3    H127753   5.213   1.734   3.970
 9270TIP3    H227754   5.079   1.665   3.988
 9271TIP3   OH227755   8.106   4.309   0.056
 9271TIP3    H127756   8.011   4.319   0.061
 9271TIP3    H227757   8.141   4.375   0.116
 9272TIP3   OH227758   2.476   1.589   3.190
 9272TIP3    H127759   2.454   1.496   3.194
 9272TIP3    H227760   2.542   1.601   3.258
 9273TIP3   OH227761   7.320   1.958   2.497
 9273TIP3    H127762   7.280   2.032   2.543
 9273TIP3    H227763   7.349   1.995   2.413
 9274TIP3   OH227764   6.670   5.268   4.243
 9274TIP3    H127765   6.679   5.245   4.150
 9274TIP3    H227766   6.637   5.188   4.284
 9275TIP3   OH227767   8.064   0.581   6.393
 9275TIP3    H127768   8.072   0.620   6.480
 9275TIP3    H227769   8.153   0.557   6.368
 9276TIP3   OH227770   2.562   2.662   1.764
 9276TIP3    H127771   2.520   2.640   1.681
 9276TIP3    H227772   2.531   2.596   1.826
 9277TIP3   OH227773   1.066   3.924   5.031
 9277TIP3    H127774   1.113   3.851   5.073
 9277TIP3    H227775   1.019   3.883   4.958
 9278TIP3   OH227776   7.012   1.848   4.842
 9278TIP3    H127777   6.966   1.901   4.776
 9278TIP3    H227778   6.946   1.833   4.910
 9279TIP3   OH227779   2.568   4.889   0.399
 9279TIP3    H127780   2.522   4.919   0.321
 9279TIP3    H227781   2.499   4.853   0.455
 9280TIP3   OH227782   7.718   0.210   4.212
 9280TIP3    H127783   7.718   0.305   4.219
 9280TIP3    H227784   7.628   0.188   4.186
 9281TIP3   OH227785   1.500   6.097   4.573
 9281TIP3    H127786   1.514   6.015   4.526
 9281TIP3    H227787   1.583   6.144   4.565
 9282TIP3   OH227788   1.014   3.626   5.529
 9282TIP3    H127789   1.048   3.632   5.618
 9282TIP3    H227790   0.941   3.564   5.535
 9283TIP3   OH227791   5.932   2.343   5.605
 9283TIP3    H127792   5.933   2.434   5.636
 9283TIP3    H227793   5.911   2.350   5.512
 9284TIP3   OH227794   3.813   6.492   1.391
 9284TIP3    H127795   3.859   6.549   1.452
 9284TIP3    H227796   3.725   6.529   1.383
 9285TIP3   OH227797   3.257   4.979   0.656
 9285TIP3    H127798   3.336   5.020   0.620
 9285TIP3    H227799   3.277   4.886   0.659
 9286TIP3   OH227800   2.612   0.073   3.624
 9286TIP3    H127801   2.651   0.009   3.684
 9286TIP3    H227802   2.519   0.074   3.647
 9287TIP3   OH227803   4.953   0.170   3.468
 9287TIP3    H127804   4.980   0.251   3.513
 9287TIP3    H227805   4.976   0.184   3.377
 9288TIP3   OH227806   8.136   0.649   6.657
 9288TIP3    H127807   8.126   0.561   6.692
 9288TIP3    H227808   8.113   0.706   6.731
 9289TIP3   OH227809   1.664   1.039   1.512
 9289TIP3    H127810   1.744   1.086   1.531
 9289TIP3    H227811   1.594   1.103   1.523
 9290TIP3   OH227812   3.587   0.759   6.444
 9290TIP3    H127813   3.638   0.807   6.509
 9290TIP3    H227814   3.585   0.817   6.368
 9291TIP3   OH227815   0.409   4.588   6.617
 9291TIP3    H127816   0.466   4.513   6.634
 9291TIP3    H227817   0.329   4.550   6.581
 9292TIP3   OH227818   7.948   1.272   4.187
 9292TIP3    H127819   7.914   1.302   4.102
 9292TIP3    H227820   7.875   1.223   4.225
 9293TIP3   OH227821   3.986   7.126   5.549
 9293TIP3    H127822   3.931   7.203   5.534
 9293TIP3    H227823   4.007   7.129   5.643
 9294TIP3   OH227824   6.278   3.082   1.870
 9294TIP3    H127825   6.291   3.038   1.954
 9294TIP3    H227826   6.222   3.156   1.890
 9295TIP3   OH227827   2.153   1.085   2.604
 9295TIP3    H127828   2.129   1.129   2.685
 9295TIP3    H227829   2.081   1.105   2.544
 9296TIP3   OH227830   5.756   6.205   1.499
 9296TIP3    H127831   5.669   6.200   1.459
 9296TIP3    H227832   5.760   6.293   1.536
 9297TIP3   OH227833   4.510   4.879   0.676
 9297TIP3    H127834   4.482   4.859   0.766
 9297TIP3    H227835   4.499   4.974   0.668
 9298TIP3   OH227836   7.050   7.454   6.077
 9298TIP3    H127837   6.999   7.481   6.001
 9298TIP3    H227838   7.024   7.363   6.093
 9299TIP3   OH227839   2.279   0.961   5.069
 9299TIP3    H127840   2.251   0.953   5.161
 9299TIP3    H227841   2.341   1.033   5.069
 9300TIP3   OH227842   0.655   5.250   4.498
 9300TIP3    H127843   0.669   5.273   4.406
 9300TIP3    H227844   0.609   5.324   4.535
 9301TIP3   OH227845   7.116   2.204   6.402
 9301TIP3    H127846   7.158   2.118   6.394
 9301TIP3    H227847   7.024   2.187   6.383
 9302TIP3   OH227848   2.249   6.988   0.813
 9302TIP3    H127849   2.299   7.020   0.738
 9302TIP3    H227850   2.236   6.895   0.796
 9303TIP3   OH227851   5.435   0.639   5.025
 9303TIP3    H127852   5.530   0.641   5.011
 9303TIP3    H227853   5.402   0.587   4.952
 9304TIP3   OH227854   4.858   1.867   5.944
 9304TIP3    H127855   4.875   1.921   5.866
 9304TIP3    H227856   4.935   1.880   5.999
 9305TIP3   OH227857   3.938   1.240   5.782
 9305TIP3    H127858   3.992   1.240   5.703
 9305TIP3    H227859   3.957   1.323   5.824
 9306TIP3   OH227860   4.533   6.173   2.942
 9306TIP3    H127861   4.501   6.262   2.954
 9306TIP3    H227862   4.558   6.168   2.849
 9307TIP3   OH227863   7.659   7.001   1.928
 9307TIP3    H127864   7.722   7.071   1.949
 9307TIP3    H227865   7.585   7.017   1.986
 9308TIP3   OH227866   0.747   6.409   3.228
 9308TIP3    H127867   0.658   6.423   3.195
 9308TIP3    H227868   0.776   6.496   3.256
 9309TIP3   OH227869   2.310   2.247   4.020
 9309TIP3    H127870   2.366   2.325   4.017
 9309TIP3    H227871   2.243   2.268   4.084
 9310TIP3   OH227872   7.025   2.269   3.708
 9310TIP3    H127873   7.030   2.187   3.659
 9310TIP3    H227874   7.032   2.243   3.800
 9311TIP3   OH227875   7.481   0.260   6.507
 9311TIP3    H127876   7.450   0.348   6.526
 9311TIP3    H227877   7.450   0.241   6.419
 9312TIP3   OH227878   2.668   2.416   4.438
 9312TIP3    H127879   2.619   2.388   4.360
 9312TIP3    H227880   2.724   2.488   4.407
 9313TIP3   OH227881   1.274   6.638   6.782
 9313TIP3    H127882   1.334   6.563   6.791
 9313TIP3    H227883   1.317   6.709   6.830
 9314TIP3   OH227884   8.156   6.237   5.822
 9314TIP3    H127885   8.113   6.197   5.746
 9314TIP3    H227886   8.169   6.165   5.883
 9315TIP3   OH227887   7.774   1.066   3.942
 9315TIP3    H127888   7.751   1.158   3.956
 9315TIP3    H227889   7.690   1.021   3.933
 9316TIP3   OH227890   4.400   7.082   0.603
 9316TIP3    H127891   4.387   7.176   0.591
 9316TIP3    H227892   4.413   7.071   0.697
 9317TIP3   OH227893   4.230   4.069   4.729
 9317TIP3    H127894   4.324   4.059   4.737
 9317TIP3    H227895   4.205   4.006   4.660
 9318TIP3   OH227896   0.271   4.465   1.904
 9318TIP3    H127897   0.315   4.397   1.854
 9318TIP3    H227898   0.190   4.482   1.856
 9319TIP3   OH227899   6.045   3.028   5.523
 9319TIP3    H127900   6.114   3.068   5.471
 9319TIP3    H227901   5.966   3.074   5.497
 9320TIP3   OH227902   8.199   1.652   3.094
 9320TIP3    H127903   8.203   1.567   3.137
 9320TIP3    H227904   8.125   1.696   3.134
 9321TIP3   OH227905   5.618   4.298   6.648
 9321TIP3    H127906   5.626   4.378   6.597
 9321TIP3    H227907   5.555   4.319   6.717
 9322TIP3   OH227908   3.105   7.058   4.972
 9322TIP3    H127909   3.176   7.007   5.010
 9322TIP3    H227910   3.034   6.995   4.959
 9323TIP3   OH227911   7.658   3.132   4.443
 9323TIP3    H127912   7.613   3.051   4.465
 9323TIP3    H227913   7.738   3.105   4.399
 9324TIP3   OH227914   0.350   1.403   6.098
 9324TIP3    H127915   0.411   1.454   6.044
 9324TIP3    H227916   0.399   1.323   6.120
 9325TIP3   OH227917   8.324   3.217   3.316
 9325TIP3    H127918   8.398   3.166   3.347
 9325TIP3    H227919   8.265   3.153   3.277
 9326TIP3   OH227920   7.458   3.851   5.769
 9326TIP3    H127921   7.426   3.775   5.818
 9326TIP3    H227922   7.388   3.915   5.776
 9327TIP3   OH227923   6.069   0.999   1.025
 9327TIP3    H127924   6.122   1.075   1.048
 9327TIP3    H227925   6.083   0.938   1.098
 9328TIP3   OH227926   3.815   0.848   3.130
 9328TIP3    H127927   3.773   0.844   3.045
 9328TIP3    H227928   3.751   0.891   3.187
 9329TIP3   OH227929   7.228   1.394   5.232
 9329TIP3    H127930   7.233   1.350   5.148
 9329TIP3    H227931   7.296   1.352   5.285
 9330TIP3   OH227932   6.825   4.118   6.170
 9330TIP3    H127933   6.898   4.122   6.233
 9330TIP3    H227934   6.823   4.027   6.141
 9331TIP3   OH227935   4.655   1.496   5.011
 9331TIP3    H127936   4.685   1.587   5.012
 9331TIP3    H227937   4.620   1.483   4.923
 9332TIP3   OH227938   1.222   6.755   4.414
 9332TIP3    H127939   1.265   6.826   4.463
 9332TIP3    H227940   1.133   6.786   4.402
 9333TIP3   OH227941   1.749   2.004   6.333
 9333TIP3    H127942   1.767   2.007   6.427
 9333TIP3    H227943   1.733   1.912   6.314
 9334TIP3   OH227944   2.403   6.585   0.575
 9334TIP3    H127945   2.453   6.590   0.656
 9334TIP3    H227946   2.469   6.590   0.506
 9335TIP3   OH227947   3.597   3.634   3.908
 9335TIP3    H127948   3.522   3.692   3.906
 9335TIP3    H227949   3.561   3.547   3.889
 9336TIP3   OH227950   4.951   5.222   5.777
 9336TIP3    H127951   4.931   5.129   5.790
 9336TIP3    H227952   5.046   5.224   5.762
 9337TIP3   OH227953   5.522   5.090   0.529
 9337TIP3    H127954   5.556   5.006   0.559
 9337TIP3    H227955   5.523   5.146   0.607
 9338TIP3   OH227956   2.306   3.936   5.492
 9338TIP3    H127957   2.269   4.001   5.433
 9338TIP3    H227958   2.357   3.987   5.555
 9339TIP3   OH227959   0.346   5.525   1.276
 9339TIP3    H127960   0.274   5.470   1.245
 9339TIP3    H227961   0.423   5.490   1.232
 9340TIP3   OH227962   4.218   7.465   5.369
 9340TIP3    H127963   4.240   7.400   5.437
 9340TIP3    H227964   4.273   7.441   5.294
 9341TIP3   OH227965   4.756   0.448   3.423
 9341TIP3    H127966   4.685   0.471   3.363
 9341TIP3    H227967   4.826   0.511   3.402
 9342TIP3   OH227968   7.313   1.330   1.252
 9342TIP3    H127969   7.308   1.234   1.248
 9342TIP3    H227970   7.249   1.360   1.188
 9343TIP3   OH227971   3.855   7.692   4.753
 9343TIP3    H127972   3.928   7.754   4.753
 9343TIP3    H227973   3.857   7.652   4.666
 9344TIP3   OH227974   1.390   5.736   0.291
 9344TIP3    H127975   1.311   5.706   0.336
 9344TIP3    H227976   1.444   5.775   0.360
 9345TIP3   OH227977   7.930   1.145   0.507
 9345TIP3    H127978   7.947   1.051   0.521
 9345TIP3    H227979   7.835   1.153   0.512
 9346TIP3   OH227980   4.148   3.393   5.221
 9346TIP3    H127981   4.127   3.321   5.280
 9346TIP3    H227982   4.087   3.463   5.245
 9347TIP3   OH227983   0.490   3.342   2.799
 9347TIP3    H127984   0.512   3.336   2.706
 9347TIP3    H227985   0.462   3.433   2.811
 9348TIP3   OH227986   7.260   7.733   4.266
 9348TIP3    H127987   7.326   7.759   4.330
 9348TIP3    H227988   7.309   7.684   4.199
 9349TIP3   OH227989   0.166   1.988   0.696
 9349TIP3    H127990   0.201   1.950   0.616
 9349TIP3    H227991   0.078   2.018   0.672
 9350TIP3   OH227992   6.896   6.603   2.285
 9350TIP3    H127993   6.843   6.667   2.237
 9350TIP3    H227994   6.882   6.625   2.377
 9351TIP3   OH227995   1.992   6.449   3.060
 9351TIP3    H127996   1.976   6.419   3.149
 9351TIP3    H227997   2.077   6.411   3.037
 9352TIP3   OH227998   2.840   5.343   5.559
 9352TIP3    H127999   2.872   5.265   5.604
 9352TIP3    H228000   2.882   5.339   5.473
 9353TIP3   OH228001   5.462   7.190   0.491
 9353TIP3    H128002   5.484   7.283   0.498
 9353TIP3    H228003   5.399   7.186   0.419
 9354TIP3   OH228004   4.041   3.664   0.920
 9354TIP3    H128005   4.135   3.643   0.921
 9354TIP3    H228006   4.009   3.635   1.005
 9355TIP3   OH228007   6.808   6.962   3.359
 9355TIP3    H128008   6.773   6.876   3.381
 9355TIP3    H228009   6.819   6.959   3.264
 9356TIP3   OH228010   1.909   4.654   3.347
 9356TIP3    H128011   1.992   4.691   3.377
 9356TIP3    H228012   1.848   4.729   3.346
 9357TIP3   OH228013   1.711   3.872   2.640
 9357TIP3    H128014   1.723   3.789   2.686
 9357TIP3    H228015   1.746   3.938   2.699
 9358TIP3   OH228016   0.478   4.480   2.441
 9358TIP3    H128017   0.472   4.474   2.536
 9358TIP3    H228018   0.546   4.417   2.418
 9359TIP3   OH228019   2.126   4.740   6.352
 9359TIP3    H128020   2.219   4.746   6.374
 9359TIP3    H228021   2.085   4.703   6.430
 9360TIP3   OH228022   2.951   2.290   2.115
 9360TIP3    H128023   2.915   2.367   2.072
 9360TIP3    H228024   2.899   2.279   2.194
 9361TIP3   OH228025   5.489   0.801   0.752
 9361TIP3    H128026   5.581   0.795   0.726
 9361TIP3    H228027   5.490   0.800   0.847
 9362TIP3   OH228028   5.085   3.126   0.205
 9362TIP3    H128029   5.062   3.162   0.119
 9362TIP3    H228030   5.091   3.203   0.262
 9363TIP3   OH228031   0.781   2.493   0.112
 9363TIP3    H128032   0.775   2.588   0.104
 9363TIP3    H228033   0.691   2.463   0.100
 9364TIP3   OH228034   1.716   4.018   3.092
 9364TIP3    H128035   1.624   4.002   3.070
 9364TIP3    H228036   1.713   4.079   3.166
 9365TIP3   OH228037   5.555   4.936   2.839
 9365TIP3    H128038   5.585   4.973   2.756
 9365TIP3    H228039   5.564   4.841   2.828
 9366TIP3   OH228040   2.484   4.721   1.382
 9366TIP3    H128041   2.440   4.804   1.362
 9366TIP3    H228042   2.543   4.742   1.454
 9367TIP3   OH228043   5.035   3.863   2.740
 9367TIP3    H128044   5.063   3.795   2.801
 9367TIP3    H228045   5.069   3.834   2.655
 9368TIP3   OH228046   3.795   1.266   0.825
 9368TIP3    H128047   3.744   1.340   0.856
 9368TIP3    H228048   3.857   1.303   0.763
 9369TIP3   OH228049   7.030   0.270   0.234
 9369TIP3    H128050   6.987   0.355   0.226
 9369TIP3    H228051   7.123   0.290   0.239
 9370TIP3   OH228052   1.971   4.940   4.569
 9370TIP3    H128053   2.004   4.895   4.647
 9370TIP3    H228054   1.919   5.012   4.604
 9371TIP3   OH228055   4.832   5.206   1.222
 9371TIP3    H128056   4.852   5.298   1.207
 9371TIP3    H228057   4.833   5.167   1.134
 9372TIP3   OH228058   7.863   2.768   5.568
 9372TIP3    H128059   7.779   2.815   5.572
 9372TIP3    H228060   7.838   2.676   5.562
 9373TIP3   OH228061   2.423   7.385   4.590
 9373TIP3    H128062   2.399   7.352   4.677
 9373TIP3    H228063   2.339   7.396   4.545
 9374TIP3   OH228064   0.436   3.731   5.905
 9374TIP3    H128065   0.460   3.814   5.946
 9374TIP3    H228066   0.520   3.690   5.885
 9375TIP3   OH228067   5.899   6.883   2.999
 9375TIP3    H128068   5.948   6.870   3.080
 9375TIP3    H228069   5.831   6.947   3.021
 9376TIP3   OH228070   1.577   2.376   0.800
 9376TIP3    H128071   1.639   2.304   0.811
 9376TIP3    H228072   1.632   2.455   0.801
 9377TIP3   OH228073   3.673   5.633   0.491
 9377TIP3    H128074   3.694   5.540   0.494
 9377TIP3    H228075   3.750   5.676   0.528
 9378TIP3   OH228076   2.347   4.819   3.456
 9378TIP3    H128077   2.278   4.831   3.390
 9378TIP3    H228078   2.299   4.811   3.539
 9379TIP3   OH228079   0.116   4.134   3.306
 9379TIP3    H128080   0.066   4.058   3.335
 9379TIP3    H228081   0.181   4.148   3.375
 9380TIP3   OH228082   3.847   4.808   2.310
 9380TIP3    H128083   3.937   4.841   2.314
 9380TIP3    H228084   3.838   4.754   2.388
 9381TIP3   OH228085   5.263   1.123   0.319
 9381TIP3    H128086   5.243   1.082   0.235
 9381TIP3    H228087   5.179   1.157   0.350
 9382TIP3   OH228088   7.376   3.630   5.926
 9382TIP3    H128089   7.368   3.560   5.860
 9382TIP3    H228090   7.411   3.585   6.003
 9383TIP3   OH228091   2.575   2.143   5.785
 9383TIP3    H128092   2.634   2.091   5.729
 9383TIP3    H228093   2.602   2.121   5.874
 9384TIP3   OH228094   4.027   2.139   5.550
 9384TIP3    H128095   4.079   2.157   5.628
 9384TIP3    H228096   3.972   2.217   5.541
 9385TIP3   OH228097   4.555   7.405   4.013
 9385TIP3    H128098   4.505   7.472   3.965
 9385TIP3    H228099   4.491   7.365   4.073
 9386TIP3   OH228100   5.403   0.800   2.838
 9386TIP3    H128101   5.479   0.855   2.818
 9386TIP3    H228102   5.439   0.712   2.846
 9387TIP3   OH228103   1.243   3.674   4.819
 9387TIP3    H128104   1.171   3.633   4.772
 9387TIP3    H228105   1.203   3.750   4.862
 9388TIP3   OH228106   0.732   5.738   5.246
 9388TIP3    H128107   0.825   5.717   5.247
 9388TIP3    H228108   0.696   5.691   5.321
 9389TIP3   OH228109   7.222   0.971   0.436
 9389TIP3    H128110   7.195   1.036   0.501
 9389TIP3    H228111   7.286   1.017   0.381
 9390TIP3   OH228112   4.505   0.681   3.573
 9390TIP3    H128113   4.502   0.772   3.603
 9390TIP3    H228114   4.542   0.687   3.485
 9391TIP3   OH228115   1.269   2.535   3.715
 9391TIP3    H128116   1.272   2.630   3.728
 9391TIP3    H228117   1.197   2.522   3.653
 9392TIP3   OH228118   5.954   0.448   4.109
 9392TIP3    H128119   6.007   0.369   4.102
 9392TIP3    H228120   5.867   0.417   4.132
 9393TIP3   OH228121   7.915   5.995   6.654
 9393TIP3    H128122   7.988   6.008   6.714
 9393TIP3    H228123   7.951   6.010   6.567
 9394TIP3   OH228124   0.713   2.299   4.727
 9394TIP3    H128125   0.699   2.386   4.690
 9394TIP3    H228126   0.736   2.244   4.652
 9395TIP3   OH228127   7.208   6.219   3.537
 9395TIP3    H128128   7.269   6.189   3.604
 9395TIP3    H228129   7.141   6.150   3.535
 9396TIP3   OH228130   7.434   1.992   1.867
 9396TIP3    H128131   7.411   1.904   1.837
 9396TIP3    H228132   7.520   1.982   1.907
 9397TIP3   OH228133   3.867   6.621   2.043
 9397TIP3    H128134   3.844   6.534   2.076
 9397TIP3    H228135   3.963   6.625   2.049
 9398TIP3   OH228136   3.438   6.604   3.709
 9398TIP3    H128137   3.497   6.668   3.748
 9398TIP3    H228138   3.381   6.577   3.781
 9399TIP3   OH228139   5.602   4.117   5.916
 9399TIP3    H128140   5.578   4.093   5.826
 9399TIP3    H228141   5.697   4.115   5.917
 9400TIP3   OH228142   0.664   6.850   1.433
 9400TIP3    H128143   0.635   6.767   1.393
 9400TIP3    H228144   0.587   6.882   1.480
 9401TIP3   OH228145   5.510   0.124   2.716
 9401TIP3    H128146   5.561   0.070   2.776
 9401TIP3    H228147   5.570   0.144   2.644
 9402TIP3   OH228148   7.431   0.275   4.466
 9402TIP3    H128149   7.490   0.253   4.394
 9402TIP3    H228150   7.343   0.262   4.430
 9403TIP3   OH228151   4.269   4.700   2.996
 9403TIP3    H128152   4.266   4.679   3.090
 9403TIP3    H228153   4.199   4.764   2.984
 9404TIP3   OH228154   6.526   2.442   3.951
 9404TIP3    H128155   6.502   2.393   3.872
 9404TIP3    H228156   6.622   2.440   3.952
 9405TIP3   OH228157   6.762   4.649   3.147
 9405TIP3    H128158   6.725   4.730   3.110
 9405TIP3    H228159   6.787   4.672   3.236
 9406TIP3   OH228160   3.735   5.854   6.726
 9406TIP3    H128161   3.829   5.841   6.738
 9406TIP3    H228162   3.728   5.915   6.653
 9407TIP3   OH228163   3.488   1.924   3.104
 9407TIP3    H128164   3.395   1.919   3.084
 9407TIP3    H228165   3.524   1.841   3.074
 9408TIP3   OH228166   3.807   0.193   1.367
 9408TIP3    H128167   3.891   0.187   1.320
 9408TIP3    H228168   3.754   0.251   1.312
 9409TIP3   OH228169   7.037   3.236   4.930
 9409TIP3    H128170   7.052   3.257   4.837
 9409TIP3    H228171   7.106   3.283   4.976
 9410TIP3   OH228172   3.492   4.385   3.981
 9410TIP3    H128173   3.482   4.348   3.893
 9410TIP3    H228174   3.402   4.392   4.014
 9411TIP3   OH228175   5.133   1.109   6.434
 9411TIP3    H128176   5.202   1.043   6.441
 9411TIP3    H228177   5.054   1.059   6.414
 9412TIP3   OH228178   7.476   0.171   5.267
 9412TIP3    H128179   7.460   0.253   5.219
 9412TIP3    H228180   7.430   0.183   5.350
 9413TIP3   OH228181   0.793   2.547   1.887
 9413TIP3    H128182   0.824   2.545   1.978
 9413TIP3    H228183   0.801   2.639   1.861
 9414TIP3   OH228184   3.346   5.547   2.955
 9414TIP3    H128185   3.316   5.460   2.928
 9414TIP3    H228186   3.424   5.563   2.901
 9415TIP3   OH228187   7.888   5.764   1.887
 9415TIP3    H128188   7.817   5.764   1.822
 9415TIP3    H228189   7.863   5.695   1.949
 9416TIP3   OH228190   0.658   6.045   6.679
 9416TIP3    H128191   0.590   6.081   6.622
 9416TIP3    H228192   0.685   6.119   6.733
 9417TIP3   OH228193   2.183   0.315   3.940
 9417TIP3    H128194   2.166   0.404   3.971
 9417TIP3    H228195   2.188   0.323   3.845
 9418TIP3   OH228196   8.299   6.959   3.766
 9418TIP3    H128197   8.393   6.973   3.773
 9418TIP3    H228198   8.289   6.864   3.755
 9419TIP3   OH228199   1.472   3.661   0.814
 9419TIP3    H128200   1.386   3.690   0.842
 9419TIP3    H228201   1.458   3.572   0.781
 9420TIP3   OH228202   6.441   2.161   1.571
 9420TIP3    H128203   6.507   2.230   1.574
 9420TIP3    H228204   6.366   2.197   1.619
 9421TIP3   OH228205   6.705   2.692   3.800
 9421TIP3    H128206   6.671   2.707   3.888
 9421TIP3    H228207   6.752   2.609   3.805
 9422TIP3   OH228208   6.459   3.761   0.321
 9422TIP3    H128209   6.508   3.684   0.293
 9422TIP3    H228210   6.468   3.822   0.248
 9423TIP3   OH228211   2.899   4.248   2.995
 9423TIP3    H128212   2.967   4.183   2.980
 9423TIP3    H228213   2.943   4.332   2.983
 9424TIP3   OH228214   0.237   3.196   1.945
 9424TIP3    H128215   0.242   3.141   2.023
 9424TIP3    H228216   0.323   3.237   1.940
 9425TIP3   OH228217   7.969   6.796   2.521
 9425TIP3    H128218   8.028   6.724   2.498
 9425TIP3    H228219   7.896   6.787   2.461
 9426TIP3   OH228220   1.506   7.696   3.665
 9426TIP3    H128221   1.544   7.725   3.748
 9426TIP3    H228222   1.574   7.711   3.600
 9427TIP3   OH228223   0.611   3.248   3.264
 9427TIP3    H128224   0.628   3.286   3.178
 9427TIP3    H228225   0.534   3.295   3.297
 9428TIP3   OH228226   2.188   2.449   3.628
 9428TIP3    H128227   2.098   2.444   3.594
 9428TIP3    H228228   2.243   2.456   3.550
 9429TIP3   OH228229   8.212   2.767   6.295
 9429TIP3    H128230   8.260   2.845   6.321
 9429TIP3    H228231   8.273   2.720   6.238
 9430TIP3   OH228232   1.262   7.388   0.247
 9430TIP3    H128233   1.244   7.477   0.276
 9430TIP3    H228234   1.341   7.362   0.294
 9431TIP3   OH228235   2.016   1.608   1.687
 9431TIP3    H128236   1.988   1.517   1.703
 9431TIP3    H228237   2.010   1.618   1.592
 9432TIP3   OH228238   0.455   0.569   0.073
 9432TIP3    H128239   0.422   0.519  -0.001
 9432TIP3    H228240   0.542   0.533   0.089
 9433TIP3   OH228241   2.292   7.756   6.365
 9433TIP3    H128242   2.362   7.770   6.302
 9433TIP3    H228243   2.336   7.719   6.441
 9434TIP3   OH228244   2.649   0.534   0.838
 9434TIP3    H128245   2.625   0.499   0.753
 9434TIP3    H228246   2.719   0.477   0.869
 9435TIP3   OH228247   3.829   4.775   6.681
 9435TIP3    H128248   3.913   4.784   6.634
 9435TIP3    H228249   3.828   4.850   6.741
 9436TIP3   OH228250   1.537   4.826   0.409
 9436TIP3    H128251   1.541   4.907   0.460
 9436TIP3    H228252   1.553   4.854   0.319
 9437TIP3   OH228253   1.274   6.465   0.438
 9437TIP3    H128254   1.287   6.499   0.349
 9437TIP3    H228255   1.306   6.375   0.434
 9438TIP3   OH228256   2.989   0.612   4.927
 9438TIP3    H128257   2.904   0.614   4.882
 9438TIP3    H228258   2.972   0.564   5.008
 9439TIP3   OH228259   4.165   4.944   5.518
 9439TIP3    H128260   4.100   4.914   5.580
 9439TIP3    H228261   4.191   4.866   5.470
 9440TIP3   OH228262   2.025   6.227   0.037
 9440TIP3    H128263   1.957   6.204  -0.027
 9440TIP3    H228264   2.018   6.322   0.045
 9441TIP3   OH228265   4.297   7.515   1.501
 9441TIP3    H128266   4.318   7.607   1.520
 9441TIP3    H228267   4.359   7.465   1.554
 9442TIP3   OH228268   1.432   3.451   5.891
 9442TIP3    H128269   1.526   3.449   5.877
 9442TIP3    H228270   1.421   3.495   5.976
 9443TIP3   OH228271   2.391   6.309   4.457
 9443TIP3    H128272   2.381   6.268   4.543
 9443TIP3    H228273   2.473   6.358   4.463
 9444TIP3   OH228274   4.691   1.019   5.110
 9444TIP3    H128275   4.659   1.079   5.178
 9444TIP3    H228276   4.613   0.997   5.059
 9445TIP3   OH228277   2.311   5.554   5.643
 9445TIP3    H128278   2.391   5.607   5.649
 9445TIP3    H228279   2.273   5.578   5.558
 9446TIP3   OH228280   4.014   5.807   5.876
 9446TIP3    H128281   4.063   5.779   5.799
 9446TIP3    H228282   4.078   5.805   5.947
 9447TIP3   OH228283   2.324   0.356   5.048
 9447TIP3    H128284   2.281   0.271   5.039
 9447TIP3    H228285   2.403   0.336   5.099
 9448TIP3   OH228286   5.142   0.961   4.278
 9448TIP3    H128287   5.151   1.051   4.308
 9448TIP3    H228288   5.055   0.935   4.309
 9449TIP3   OH228289   7.542   4.564   0.608
 9449TIP3    H128290   7.556   4.644   0.660
 9449TIP3    H228291   7.541   4.494   0.673
 9450TIP3   OH228292   0.750   4.298   6.517
 9450TIP3    H128293   0.766   4.350   6.439
 9450TIP3    H228294   0.692   4.227   6.488
 9451TIP3   OH228295   1.409   3.291   0.936
 9451TIP3    H128296   1.351   3.311   0.862
 9451TIP3    H228297   1.434   3.199   0.922
 9452TIP3   OH228298   0.247   5.584   1.519
 9452TIP3    H128299   0.261   5.574   1.425
 9452TIP3    H228300   0.296   5.513   1.559
 9453TIP3   OH228301   0.489   2.031   1.084
 9453TIP3    H128302   0.406   2.060   1.047
 9453TIP3    H228303   0.511   2.096   1.150
 9454TIP3   OH228304   4.934   2.267   3.319
 9454TIP3    H128305   4.950   2.266   3.224
 9454TIP3    H228306   4.925   2.175   3.343
 9455TIP3   OH228307   2.006   1.268   1.017
 9455TIP3    H128308   2.046   1.182   1.031
 9455TIP3    H228309   2.011   1.281   0.923
 9456TIP3   OH228310   6.732   3.683   5.292
 9456TIP3    H128311   6.824   3.710   5.289
 9456TIP3    H228312   6.701   3.695   5.202
 9457TIP3   OH228313   4.992   7.681   5.795
 9457TIP3    H128314   5.005   7.605   5.738
 9457TIP3    H228315   4.949   7.745   5.739
 9458TIP3   OH228316   3.030   4.496   4.947
 9458TIP3    H128317   3.104   4.539   4.904
 9458TIP3    H228318   2.953   4.534   4.905
 9459TIP3   OH228319   1.811   7.085   3.302
 9459TIP3    H128320   1.858   7.075   3.385
 9459TIP3    H228321   1.866   7.144   3.251
 9460TIP3   OH228322   7.458   4.818   1.926
 9460TIP3    H128323   7.521   4.821   1.998
 9460TIP3    H228324   7.511   4.797   1.849
 9461TIP3   OH228325   7.907   4.622   2.412
 9461TIP3    H128326   7.847   4.694   2.429
 9461TIP3    H228327   7.874   4.551   2.467
 9462TIP3   OH228328   4.558   3.158   3.273
 9462TIP3    H128329   4.603   3.241   3.255
 9462TIP3    H228330   4.487   3.155   3.210
 9463TIP3   OH228331   4.851   0.347   4.448
 9463TIP3    H128332   4.760   0.372   4.463
 9463TIP3    H228333   4.894   0.429   4.422
 9464TIP3   OH228334   6.864   5.825   0.677
 9464TIP3    H128335   6.949   5.782   0.672
 9464TIP3    H228336   6.881   5.909   0.720
 9465TIP3   OH228337   5.820   0.996   1.193
 9465TIP3    H128338   5.876   0.953   1.128
 9465TIP3    H228339   5.853   0.965   1.278
 9466TIP3   OH228340   5.102   0.537   5.737
 9466TIP3    H128341   5.152   0.493   5.806
 9466TIP3    H228342   5.100   0.473   5.665
 9467TIP3   OH228343   0.287   6.275   3.412
 9467TIP3    H128344   0.241   6.199   3.446
 9467TIP3    H228345   0.268   6.275   3.318
 9468TIP3   OH228346   8.152   0.251   4.729
 9468TIP3    H128347   8.242   0.232   4.701
 9468TIP3    H228348   8.162   0.322   4.793
 9469TIP3   OH228349   1.526   2.670   3.462
 9469TIP3    H128350   1.550   2.714   3.380
 9469TIP3    H228351   1.451   2.615   3.437
 9470TIP3   OH228352   3.430   0.173   2.349
 9470TIP3    H128353   3.462   0.134   2.267
 9470TIP3    H228354   3.375   0.106   2.388
 9471TIP3   OH228355   0.062   1.356   5.748
 9471TIP3    H128356   0.140   1.395   5.708
 9471TIP3    H228357   0.054   1.270   5.706
 9472TIP3   OH228358   3.529   6.203   3.405
 9472TIP3    H128359   3.542   6.245   3.490
 9472TIP3    H228360   3.615   6.168   3.383
 9473TIP3   OH228361   3.268   1.566   5.953
 9473TIP3    H128362   3.200   1.501   5.935
 9473TIP3    H228363   3.349   1.515   5.959
 9474TIP3   OH228364   7.563   6.650   0.353
 9474TIP3    H128365   7.629   6.673   0.419
 9474TIP3    H228366   7.481   6.647   0.402
 9475TIP3   OH228367   7.441   4.448   0.926
 9475TIP3    H128368   7.359   4.494   0.947
 9475TIP3    H228369   7.501   4.472   0.996
 9476TIP3   OH228370   7.485   7.168   6.555
 9476TIP3    H128371   7.399   7.125   6.554
 9476TIP3    H228372   7.548   7.098   6.537
 9477TIP3   OH228373   2.029   1.558   5.860
 9477TIP3    H128374   2.045   1.479   5.809
 9477TIP3    H228375   2.090   1.552   5.934
 9478TIP3   OH228376   7.434   6.729   5.410
 9478TIP3    H128377   7.449   6.819   5.381
 9478TIP3    H228378   7.488   6.720   5.489
 9479TIP3   OH228379   2.742   5.793   5.831
 9479TIP3    H128380   2.670   5.734   5.813
 9479TIP3    H228381   2.797   5.746   5.894
 9480TIP3   OH228382   6.660   5.746   2.664
 9480TIP3    H128383   6.678   5.798   2.586
 9480TIP3    H228384   6.619   5.666   2.630
 9481TIP3   OH228385   6.292   2.741   0.118
 9481TIP3    H128386   6.304   2.672   0.053
 9481TIP3    H228387   6.243   2.699   0.189
 9482TIP3   OH228388   4.778   4.198   3.677
 9482TIP3    H128389   4.826   4.235   3.751
 9482TIP3    H228390   4.686   4.200   3.705
 9483TIP3   OH228391   6.779   7.337   5.331
 9483TIP3    H128392   6.707   7.317   5.271
 9483TIP3    H228393   6.794   7.256   5.379
 9484TIP3   OH228394   6.557   0.307   0.333
 9484TIP3    H128395   6.592   0.374   0.275
 9484TIP3    H228396   6.635   0.266   0.371
 9485TIP3   OH228397   7.685   7.055   1.154
 9485TIP3    H128398   7.637   6.974   1.170
 9485TIP3    H228399   7.711   7.085   1.241
 9486TIP3   OH228400   3.598   3.573   5.182
 9486TIP3    H128401   3.539   3.507   5.218
 9486TIP3    H228402   3.626   3.624   5.257
 9487TIP3   OH228403   0.345   7.480   0.597
 9487TIP3    H128404   0.398   7.474   0.518
 9487TIP3    H228405   0.338   7.574   0.614
 9488TIP3   OH228406   2.371   4.855   2.995
 9488TIP3    H128407   2.465   4.846   2.981
 9488TIP3    H228408   2.332   4.823   2.914
 9489TIP3   OH228409   3.300   6.703   6.546
 9489TIP3    H128410   3.257   6.629   6.589
 9489TIP3    H228411   3.347   6.664   6.472
 9490TIP3   OH228412   1.622   1.210   5.701
 9490TIP3    H128413   1.592   1.239   5.615
 9490TIP3    H228414   1.642   1.291   5.748
 9491TIP3   OH228415   0.878   5.945   3.746
 9491TIP3    H128416   0.791   5.977   3.724
 9491TIP3    H228417   0.936   5.988   3.683
 9492TIP3   OH228418   7.694   5.597   0.314
 9492TIP3    H128419   7.741   5.677   0.340
 9492TIP3    H228420   7.746   5.526   0.351
 9493TIP3   OH228421   2.733   5.562   3.035
 9493TIP3    H128422   2.659   5.503   3.048
 9493TIP3    H228423   2.748   5.561   2.940
 9494TIP3   OH228424   5.369   7.295   6.514
 9494TIP3    H128425   5.441   7.258   6.462
 9494TIP3    H228426   5.332   7.364   6.459
 9495TIP3   OH228427   6.172   6.773   4.031
 9495TIP3    H128428   6.092   6.821   4.009
 9495TIP3    H228429   6.204   6.815   4.111
 9496TIP3   OH228430   0.587   1.982   4.739
 9496TIP3    H128431   0.570   2.017   4.827
 9496TIP3    H228432   0.627   1.896   4.755
 9497TIP3   OH228433   4.761   6.277   2.450
 9497TIP3    H128434   4.674   6.271   2.410
 9497TIP3    H228435   4.820   6.288   2.376
 9498TIP3   OH228436   0.553   2.090   4.490
 9498TIP3    H128437   0.630   2.145   4.474
 9498TIP3    H228438   0.585   2.019   4.546
 9499TIP3   OH228439   1.872   4.795   2.310
 9499TIP3    H128440   1.828   4.874   2.280
 9499TIP3    H228441   1.807   4.726   2.299
 9500TIP3   OH228442   0.154   2.254   2.468
 9500TIP3    H128443   0.206   2.313   2.413
 9500TIP3    H228444   0.117   2.191   2.406
 9501TIP3   OH228445   3.376   6.707   3.244
 9501TIP3    H128446   3.446   6.721   3.308
 9501TIP3    H228447   3.363   6.612   3.242
 9502TIP3   OH228448   5.162   2.088   4.086
 9502TIP3    H128449   5.083   2.037   4.070
 9502TIP3    H228450   5.132   2.179   4.091
 9503TIP3   OH228451   2.117   4.923   6.654
 9503TIP3    H128452   2.176   4.944   6.581
 9503TIP3    H228453   2.149   4.977   6.726
 9504TIP3   OH228454   2.377   7.466   1.845
 9504TIP3    H128455   2.322   7.430   1.915
 9504TIP3    H228456   2.402   7.553   1.878
 9505TIP3   OH228457   3.016   3.080   1.504
 9505TIP3    H128458   2.958   3.112   1.573
 9505TIP3    H228459   3.001   3.139   1.431
 9506TIP3   OH228460   6.064   3.043   6.188
 9506TIP3    H128461   6.136   3.055   6.127
 9506TIP3    H228462   6.049   2.948   6.189
 9507TIP3   OH228463   4.166   5.557   0.969
 9507TIP3    H128464   4.229   5.626   0.947
 9507TIP3    H228465   4.083   5.603   0.978
 9508TIP3   OH228466   4.755   4.444   5.555
 9508TIP3    H128467   4.789   4.452   5.644
 9508TIP3    H228468   4.765   4.351   5.534
 9509TIP3   OH228469   0.187   0.886   5.323
 9509TIP3    H128470   0.271   0.843   5.314
 9509TIP3    H228471   0.151   0.889   5.234
 9510TIP3   OH228472   0.846   4.787   1.029
 9510TIP3    H128473   0.849   4.695   1.001
 9510TIP3    H228474   0.937   4.809   1.047
 9511TIP3   OH228475   0.370   6.617   0.158
 9511TIP3    H128476   0.322   6.536   0.170
 9511TIP3    H228477   0.313   6.685   0.193
 9512TIP3   OH228478   1.432   5.690   5.086
 9512TIP3    H128479   1.378   5.765   5.059
 9512TIP3    H228480   1.508   5.693   5.028
 9513TIP3   OH228481   2.635   7.339   5.153
 9513TIP3    H128482   2.691   7.310   5.081
 9513TIP3    H228483   2.572   7.267   5.164
 9514TIP3   OH228484   3.138   2.418   0.509
 9514TIP3    H128485   3.139   2.423   0.604
 9514TIP3    H228486   3.126   2.325   0.489
 9515TIP3   OH228487   7.724   7.206   1.398
 9515TIP3    H128488   7.741   7.162   1.481
 9515TIP3    H228489   7.782   7.282   1.399
 9516TIP3   OH228490   0.792   1.304   4.625
 9516TIP3    H128491   0.881   1.290   4.655
 9516TIP3    H228492   0.799   1.308   4.529
 9517TIP3   OH228493   5.454   2.430   6.199
 9517TIP3    H128494   5.454   2.447   6.105
 9517TIP3    H228495   5.436   2.337   6.207
 9518TIP3   OH228496   8.050   4.832   5.321
 9518TIP3    H128497   8.140   4.813   5.348
 9518TIP3    H228498   8.011   4.874   5.397
 9519TIP3   OH228499   3.046   7.569   5.402
 9519TIP3    H128500   3.093   7.507   5.458
 9519TIP3    H228501   2.967   7.522   5.375
 9520TIP3   OH228502   0.931   0.486   5.721
 9520TIP3    H128503   0.999   0.546   5.750
 9520TIP3    H228504   0.968   0.443   5.644
 9521TIP3   OH228505   5.938   6.402   2.614
 9521TIP3    H128506   5.861   6.458   2.623
 9521TIP3    H228507   5.913   6.338   2.548
 9522TIP3   OH228508   1.063   5.319   4.757
 9522TIP3    H128509   1.032   5.409   4.745
 9522TIP3    H228510   1.075   5.310   4.851
 9523TIP3   OH228511   1.772   3.608   1.783
 9523TIP3    H128512   1.716   3.686   1.786
 9523TIP3    H228513   1.745   3.557   1.859
 9524TIP3   OH228514   0.899   5.257   6.475
 9524TIP3    H128515   0.915   5.283   6.566
 9524TIP3    H228516   0.805   5.266   6.463
 9525TIP3   OH228517   5.109   5.064   2.730
 9525TIP3    H128518   5.157   5.009   2.792
 9525TIP3    H228519   5.103   5.011   2.651
 9526TIP3   OH228520   4.754   5.461   2.310
 9526TIP3    H128521   4.780   5.399   2.242
 9526TIP3    H228522   4.837   5.490   2.348
 9527TIP3   OH228523   5.603   4.825   6.352
 9527TIP3    H128524   5.671   4.854   6.291
 9527TIP3    H228525   5.564   4.906   6.385
 9528TIP3   OH228526   6.453   0.145   1.963
 9528TIP3    H128527   6.424   0.088   2.034
 9528TIP3    H228528   6.481   0.085   1.894
 9529TIP3   OH228529   2.721   2.500   4.067
 9529TIP3    H128530   2.710   2.555   4.145
 9529TIP3    H228531   2.760   2.420   4.100
 9530TIP3   OH228532   2.189   2.383   5.030
 9530TIP3    H128533   2.122   2.318   5.010
 9530TIP3    H228534   2.195   2.382   5.126
 9531TIP3   OH228535   8.153   7.399   6.792
 9531TIP3    H128536   8.151   7.318   6.742
 9531TIP3    H228537   8.117   7.465   6.733
 9532TIP3   OH228538   7.714   0.950   4.511
 9532TIP3    H128539   7.777   1.022   4.505
 9532TIP3    H228540   7.669   0.965   4.594
 9533TIP3   OH228541   5.032   4.131   3.251
 9533TIP3    H128542   5.116   4.116   3.293
 9533TIP3    H228543   4.967   4.119   3.320
 9534TIP3   OH228544   3.131   1.452   1.837
 9534TIP3    H128545   3.188   1.441   1.762
 9534TIP3    H228546   3.162   1.531   1.880
 9535TIP3   OH228547   4.704   3.815   6.470
 9535TIP3    H128548   4.686   3.741   6.412
 9535TIP3    H228549   4.797   3.808   6.491
 9536TIP3   OH228550   1.307   4.401   3.427
 9536TIP3    H128551   1.253   4.395   3.349
 9536TIP3    H228552   1.302   4.494   3.453
 9537TIP3   OH228553   7.784   7.833   0.844
 9537TIP3    H128554   7.717   7.854   0.909
 9537TIP3    H228555   7.822   7.751   0.875
 9538TIP3   OH228556   6.770   1.660   0.768
 9538TIP3    H128557   6.714   1.713   0.825
 9538TIP3    H228558   6.716   1.641   0.692
 9539TIP3   OH228559   5.655   2.977   1.237
 9539TIP3    H128560   5.738   2.955   1.195
 9539TIP3    H228561   5.590   2.968   1.167
 9540TIP3   OH228562   8.124   6.019   1.192
 9540TIP3    H128563   8.155   5.999   1.104
 9540TIP3    H228564   8.189   5.980   1.250
 9541TIP3   OH228565   6.592   0.591   4.607
 9541TIP3    H128566   6.519   0.533   4.585
 9541TIP3    H228567   6.583   0.604   4.702
 9542TIP3   OH228568   7.725   7.460   1.734
 9542TIP3    H128569   7.804   7.410   1.754
 9542TIP3    H228570   7.750   7.516   1.661
 9543TIP3   OH228571   4.568   7.653   3.359
 9543TIP3    H128572   4.588   7.695   3.275
 9543TIP3    H228573   4.615   7.705   3.424
 9544TIP3   OH228574   4.098   6.730   1.256
 9544TIP3    H128575   4.151   6.802   1.223
 9544TIP3    H228576   4.131   6.715   1.345
 9545TIP3   OH228577   7.617   6.421   5.548
 9545TIP3    H128578   7.687   6.375   5.595
 9545TIP3    H228579   7.663   6.486   5.495
 9546TIP3   OH228580   4.995   5.499   1.269
 9546TIP3    H128581   4.936   5.532   1.201
 9546TIP3    H228582   4.950   5.520   1.351
 9547TIP3   OH228583   4.200   0.901   1.101
 9547TIP3    H128584   4.233   0.959   1.032
 9547TIP3    H228585   4.166   0.825   1.053
 9548TIP3   OH228586   0.174   6.009   4.492
 9548TIP3    H128587   0.168   5.915   4.506
 9548TIP3    H228588   0.107   6.046   4.549
 9549TIP3   OH228589   0.314   3.202   6.317
 9549TIP3    H128590   0.354   3.234   6.236
 9549TIP3    H228591   0.220   3.205   6.298
 9550TIP3   OH228592   1.545   3.616   6.504
 9550TIP3    H128593   1.528   3.540   6.559
 9550TIP3    H228594   1.614   3.587   6.444
 9551TIP3   OH228595   5.742   7.254   5.516
 9551TIP3    H128596   5.685   7.322   5.479
 9551TIP3    H228597   5.763   7.286   5.604
 9552TIP3   OH228598   1.809   5.351   6.359
 9552TIP3    H128599   1.850   5.284   6.305
 9552TIP3    H228600   1.762   5.406   6.297
 9553TIP3   OH228601   4.265   1.461   3.007
 9553TIP3    H128602   4.243   1.531   3.068
 9553TIP3    H228603   4.352   1.484   2.974
 9554TIP3   OH228604   2.852   4.412   4.677
 9554TIP3    H128605   2.813   4.449   4.757
 9554TIP3    H228606   2.945   4.403   4.697
 9555TIP3   OH228607   5.106   4.781   0.906
 9555TIP3    H128608   5.169   4.851   0.921
 9555TIP3    H228609   5.021   4.825   0.903
 9556TIP3   OH228610   8.246   1.294   5.473
 9556TIP3    H128611   8.261   1.206   5.440
 9556TIP3    H228612   8.314   1.347   5.431
 9557TIP3   OH228613   2.347   6.212   1.973
 9557TIP3    H128614   2.389   6.133   2.008
 9557TIP3    H228615   2.397   6.284   2.010
 9558TIP3   OH228616   7.603   7.273   6.775
 9558TIP3    H128617   7.556   7.271   6.692
 9558TIP3    H228618   7.600   7.183   6.807
 9559TIP3   OH228619   5.490   4.494   1.816
 9559TIP3    H128620   5.487   4.435   1.741
 9559TIP3    H228621   5.412   4.470   1.867
 9560TIP3   OH228622   0.320   7.068   0.362
 9560TIP3    H128623   0.240   7.121   0.368
 9560TIP3    H228624   0.288   6.979   0.348
 9561TIP3   OH228625   7.120   6.577   1.490
 9561TIP3    H128626   7.091   6.486   1.483
 9561TIP3    H228627   7.112   6.597   1.583
 9562TIP3   OH228628   7.394   1.087   6.750
 9562TIP3    H128629   7.345   1.097   6.669
 9562TIP3    H228630   7.473   1.040   6.725
 9563TIP3   OH228631   6.184   2.382   5.460
 9563TIP3    H128632   6.197   2.426   5.376
 9563TIP3    H228633   6.092   2.398   5.482
 9564TIP3   OH228634   7.757   5.323   6.517
 9564TIP3    H128635   7.781   5.370   6.597
 9564TIP3    H228636   7.839   5.315   6.469
 9565TIP3   OH228637   2.577   4.157   3.593
 9565TIP3    H128638   2.588   4.111   3.676
 9565TIP3    H228639   2.484   4.145   3.570
 9566TIP3   OH228640   6.256   5.884   4.514
 9566TIP3    H128641   6.247   5.795   4.549
 9566TIP3    H228642   6.299   5.873   4.429
 9567TIP3   OH228643   4.559   5.131   2.736
 9567TIP3    H128644   4.618   5.158   2.806
 9567TIP3    H228645   4.567   5.200   2.669
 9568TIP3   OH228646   1.368   0.538   4.175
 9568TIP3    H128647   1.356   0.628   4.146
 9568TIP3    H228648   1.410   0.546   4.261
 9569TIP3   OH228649   6.017   1.195   0.724
 9569TIP3    H128650   5.943   1.199   0.664
 9569TIP3    H228651   6.057   1.110   0.707
 9570TIP3   OH228652   7.083   0.227   4.614
 9570TIP3    H128653   7.142   0.296   4.643
 9570TIP3    H228654   7.125   0.146   4.642
 9571TIP3   OH228655   0.566   5.268   1.219
 9571TIP3    H128656   0.568   5.317   1.137
 9571TIP3    H228657   0.642   5.299   1.267
 9572TIP3   OH228658   2.374   4.312   4.537
 9572TIP3    H128659   2.327   4.245   4.487
 9572TIP3    H228660   2.458   4.322   4.490
 9573TIP3   OH228661   5.078   3.630   3.910
 9573TIP3    H128662   4.995   3.587   3.893
 9573TIP3    H228663   5.138   3.593   3.846
 9574TIP3   OH228664   0.197   1.268   0.060
 9574TIP3    H128665   0.285   1.244   0.088
 9574TIP3    H228666   0.205   1.283  -0.034
 9575TIP3   OH228667   1.255   6.511   2.692
 9575TIP3    H128668   1.248   6.513   2.787
 9575TIP3    H228669   1.237   6.420   2.668
 9576TIP3   OH228670   5.493  -0.095   3.048
 9576TIP3    H128671   5.535  -0.046   2.978
 9576TIP3    H228672   5.560  -0.102   3.116
 9577TIP3   OH228673   6.218   1.889   0.955
 9577TIP3    H128674   6.264   1.973   0.955
 9577TIP3    H228675   6.149   1.900   0.890
 9578TIP3   OH228676   7.561   0.535   1.186
 9578TIP3    H128677   7.497   0.594   1.148
 9578TIP3    H228678   7.612   0.503   1.112
 9579TIP3   OH228679   4.778   0.351   2.413
 9579TIP3    H128680   4.809   0.441   2.426
 9579TIP3    H228681   4.813   0.325   2.328
 9580TIP3   OH228682   3.530   2.427   5.565
 9580TIP3    H128683   3.536   2.442   5.660
 9580TIP3    H228684   3.580   2.347   5.551
 9581TIP3   OH228685   7.752   6.704   0.584
 9581TIP3    H128686   7.790   6.641   0.645
 9581TIP3    H228687   7.783   6.789   0.615
 9582TIP3   OH228688   1.812   5.326   1.741
 9582TIP3    H128689   1.891   5.350   1.790
 9582TIP3    H228690   1.740   5.343   1.801
 9583TIP3   OH228691   7.176   1.474   0.349
 9583TIP3    H128692   7.156   1.413   0.278
 9583TIP3    H228693   7.096   1.526   0.358
 9584TIP3   OH228694   1.421   1.168  -0.018
 9584TIP3    H128695   1.343   1.210   0.018
 9584TIP3    H228696   1.429   1.087   0.032
 9585TIP3   OH228697   6.977   0.831   2.656
 9585TIP3    H128698   6.882   0.819   2.657
 9585TIP3    H228699   7.012   0.750   2.620
 9586TIP3   OH228700   2.321   0.704   0.472
 9586TIP3    H128701   2.268   0.649   0.531
 9586TIP3    H228702   2.257   0.750   0.419
 9587TIP3   OH228703   5.289   2.930   0.277
 9587TIP3    H128704   5.211   2.974   0.241
 9587TIP3    H228705   5.333   2.894   0.200
 9588TIP3   OH228706   2.240   4.176   5.286
 9588TIP3    H128707   2.325   4.215   5.265
 9588TIP3    H228708   2.201   4.236   5.350
 9589TIP3   OH228709   3.117   3.836   4.476
 9589TIP3    H128710   3.067   3.754   4.482
 9589TIP3    H228711   3.202   3.815   4.513
 9590TIP3   OH228712   1.324   3.126   5.282
 9590TIP3    H128713   1.230   3.130   5.263
 9590TIP3    H228714   1.346   3.033   5.276
 9591TIP3   OH228715   1.248   3.751   3.208
 9591TIP3    H128716   1.228   3.840   3.240
 9591TIP3    H228717   1.206   3.693   3.272
 9592TIP3   OH228718   7.816   5.973   4.950
 9592TIP3    H128719   7.892   5.999   5.001
 9592TIP3    H228720   7.743   5.975   5.013
 9593TIP3   OH228721   2.640   5.511   4.478
 9593TIP3    H128722   2.633   5.462   4.396
 9593TIP3    H228723   2.728   5.548   4.476
 9594TIP3   OH228724   2.186   0.716   6.414
 9594TIP3    H128725   2.106   0.730   6.363
 9594TIP3    H228726   2.246   0.785   6.384
 9595TIP3   OH228727   6.724   6.808   1.753
 9595TIP3    H128728   6.665   6.735   1.741
 9595TIP3    H228729   6.667   6.883   1.771
 9596TIP3   OH228730   5.896   6.469   1.396
 9596TIP3    H128731   5.856   6.506   1.475
 9596TIP3    H228732   5.986   6.503   1.397
 9597TIP3   OH228733   1.489   0.495   5.369
 9597TIP3    H128734   1.460   0.585   5.354
 9597TIP3    H228735   1.445   0.469   5.450
 9598TIP3   OH228736   3.077   0.283   4.001
 9598TIP3    H128737   3.121   0.368   4.002
 9598TIP3    H228738   3.094   0.247   4.087
 9599TIP3   OH228739   4.273   5.392   2.660
 9599TIP3    H128740   4.179   5.404   2.675
 9599TIP3    H228741   4.312   5.397   2.748
 9600TIP3   OH228742   6.976   0.320   4.193
 9600TIP3    H128743   6.992   0.245   4.136
 9600TIP3    H228744   7.018   0.393   4.149
 9601TIP3   OH228745   1.236   2.315   2.748
 9601TIP3    H128746   1.269   2.225   2.744
 9601TIP3    H228747   1.141   2.307   2.739
 9602TIP3   OH228748   2.588   6.047   5.840
 9602TIP3    H128749   2.619   5.958   5.820
 9602TIP3    H228750   2.520   6.034   5.906
 9603TIP3   OH228751   1.061   7.160   0.566
 9603TIP3    H128752   0.994   7.146   0.498
 9603TIP3    H228753   1.137   7.112   0.535
 9604TIP3   OH228754   7.755   7.116   5.316
 9604TIP3    H128755   7.834   7.144   5.363
 9604TIP3    H228756   7.723   7.196   5.274
 9605TIP3   OH228757   1.747   0.538   0.582
 9605TIP3    H128758   1.740   0.537   0.677
 9605TIP3    H228759   1.660   0.514   0.550
 9606TIP3   OH228760   6.865   7.606   0.238
 9606TIP3    H128761   6.801   7.584   0.306
 9606TIP3    H228762   6.829   7.684   0.196
 9607TIP3   OH228763   2.182   4.047   1.064
 9607TIP3    H128764   2.089   4.047   1.038
 9607TIP3    H228765   2.192   4.129   1.112
 9608TIP3   OH228766   1.016   0.452   5.431
 9608TIP3    H128767   1.048   0.534   5.394
 9608TIP3    H228768   1.090   0.392   5.423
 9609TIP3   OH228769   4.124   2.346   3.798
 9609TIP3    H128770   4.180   2.308   3.731
 9609TIP3    H228771   4.042   2.298   3.791
 9610TIP3   OH228772   5.216   3.066   5.189
 9610TIP3    H128773   5.246   3.141   5.138
 9610TIP3    H228774   5.188   3.002   5.124
 9611TIP3   OH228775   3.749   3.199   6.432
 9611TIP3    H128776   3.701   3.116   6.431
 9611TIP3    H228777   3.839   3.174   6.408
 9612TIP3   OH228778   4.221   0.265   3.607
 9612TIP3    H128779   4.303   0.227   3.575
 9612TIP3    H228780   4.238   0.359   3.612
 9613TIP3   OH228781   5.612   6.090   4.666
 9613TIP3    H128782   5.616   6.028   4.740
 9613TIP3    H228783   5.694   6.138   4.672
 9614TIP3   OH228784   2.473   4.938   5.932
 9614TIP3    H128785   2.550   4.954   5.986
 9614TIP3    H228786   2.411   5.005   5.957
 9615TIP3   OH228787   1.506   0.361   5.844
 9615TIP3    H128788   1.582   0.418   5.836
 9615TIP3    H228789   1.516   0.320   5.931
 9616TIP3   OH228790   4.198   1.031   6.633
 9616TIP3    H128791   4.232   0.995   6.715
 9616TIP3    H228792   4.105   1.007   6.632
 9617TIP3   OH228793   6.470   1.734   2.255
 9617TIP3    H128794   6.541   1.762   2.197
 9617TIP3    H228795   6.486   1.780   2.337
 9618TIP3   OH228796   0.179   3.972   2.331
 9618TIP3    H128797   0.164   4.035   2.402
 9618TIP3    H228798   0.150   4.018   2.252
 9619TIP3   OH228799   1.044   3.206   5.555
 9619TIP3    H128800   1.087   3.264   5.492
 9619TIP3    H228801   0.955   3.239   5.561
 9620TIP3   OH228802   6.449   2.314   3.405
 9620TIP3    H128803   6.538   2.342   3.384
 9620TIP3    H228804   6.450   2.299   3.499
 9621TIP3   OH228805   2.928   1.889   0.361
 9621TIP3    H128806   2.966   1.820   0.415
 9621TIP3    H228807   2.835   1.890   0.383
 9622TIP3   OH228808   4.473   3.927   3.220
 9622TIP3    H128809   4.414   3.864   3.179
 9622TIP3    H228810   4.559   3.885   3.216
 9623TIP3   OH228811   1.835   4.042   1.731
 9623TIP3    H128812   1.810   4.114   1.672
 9623TIP3    H228813   1.887   3.983   1.675
 9624TIP3   OH228814   4.535   4.790   4.014
 9624TIP3    H128815   4.453   4.791   3.965
 9624TIP3    H228816   4.594   4.846   3.964
 9625TIP3   OH228817   2.841   5.823   4.069
 9625TIP3    H128818   2.802   5.861   3.990
 9625TIP3    H228819   2.779   5.844   4.138
 9626TIP3   OH228820   6.550   3.465   3.306
 9626TIP3    H128821   6.498   3.439   3.382
 9626TIP3    H228822   6.539   3.560   3.301
 9627TIP3   OH228823   7.122   3.222   4.658
 9627TIP3    H128824   7.096   3.209   4.567
 9627TIP3    H228825   7.133   3.317   4.666
 9628TIP3   OH228826   1.277   4.353   5.869
 9628TIP3    H128827   1.333   4.304   5.808
 9628TIP3    H228828   1.190   4.315   5.857
 9629TIP3   OH228829   8.119   1.114   2.628
 9629TIP3    H128830   8.048   1.178   2.620
 9629TIP3    H228831   8.161   1.115   2.542
 9630TIP3   OH228832   1.671   0.216   0.573
 9630TIP3    H128833   1.739   0.271   0.535
 9630TIP3    H228834   1.607   0.205   0.502
 9631TIP3   OH228835   6.584   3.298   1.062
 9631TIP3    H128836   6.664   3.288   1.010
 9631TIP3    H228837   6.524   3.346   1.005
 9632TIP3   OH228838   5.833   6.337   4.433
 9632TIP3    H128839   5.884   6.337   4.514
 9632TIP3    H228840   5.854   6.253   4.392
 9633TIP3   OH228841   2.488   3.613   3.531
 9633TIP3    H128842   2.490   3.551   3.458
 9633TIP3    H228843   2.469   3.559   3.607
 9634TIP3   OH228844   2.827   4.321   6.581
 9634TIP3    H128845   2.809   4.372   6.661
 9634TIP3    H228846   2.743   4.279   6.560
 9635TIP3   OH228847   2.243   0.090   5.016
 9635TIP3    H128848   2.239   0.010   5.068
 9635TIP3    H228849   2.182   0.075   4.943
 9636TIP3   OH228850   0.582   1.516   4.552
 9636TIP3    H128851   0.666   1.529   4.509
 9636TIP3    H228852   0.603   1.515   4.646
 9637TIP3   OH228853   3.975   3.682   2.971
 9637TIP3    H128854   3.998   3.622   2.900
 9637TIP3    H228855   3.932   3.628   3.037
 9638TIP3   OH228856   0.725   7.518   0.198
 9638TIP3    H128857   0.665   7.587   0.169
 9638TIP3    H228858   0.778   7.498   0.121
 9639TIP3   OH228859   3.611   3.366   4.863
 9639TIP3    H128860   3.664   3.301   4.816
 9639TIP3    H228861   3.675   3.416   4.914
 9640TIP3   OH228862   6.854   3.403   3.880
 9640TIP3    H128863   6.918   3.338   3.852
 9640TIP3    H228864   6.885   3.432   3.966
 9641TIP3   OH228865   2.334   6.599   5.307
 9641TIP3    H128866   2.381   6.592   5.224
 9641TIP3    H228867   2.366   6.525   5.358
 9642TIP3   OH228868   3.344   2.061   4.889
 9642TIP3    H128869   3.289   2.127   4.846
 9642TIP3    H228870   3.281   2.003   4.932
 9643TIP3   OH228871   6.253   5.740   1.055
 9643TIP3    H128872   6.184   5.805   1.043
 9643TIP3    H228873   6.207   5.657   1.067
 9644TIP3   OH228874   2.484   5.251   2.382
 9644TIP3    H128875   2.525   5.335   2.402
 9644TIP3    H228876   2.503   5.238   2.289
 9645TIP3   OH228877   3.180   1.416   0.723
 9645TIP3    H128878   3.110   1.420   0.789
 9645TIP3    H228879   3.135   1.395   0.642
 9646TIP3   OH228880   3.472   6.542   4.654
 9646TIP3    H128881   3.394   6.534   4.599
 9646TIP3    H228882   3.520   6.461   4.639
 9647TIP3   OH228883   6.385   1.473   5.149
 9647TIP3    H128884   6.326   1.548   5.159
 9647TIP3    H228885   6.411   1.474   5.057
 9648TIP3   OH228886   1.417   7.413   5.962
 9648TIP3    H128887   1.374   7.400   5.877
 9648TIP3    H228888   1.413   7.327   6.004
 9649TIP3   OH228889   7.816   2.289   4.874
 9649TIP3    H128890   7.909   2.274   4.855
 9649TIP3    H228891   7.796   2.225   4.942
 9650TIP3   OH228892   1.465   2.972   4.148
 9650TIP3    H128893   1.438   2.884   4.175
 9650TIP3    H228894   1.524   3.002   4.216
 9651TIP3   OH228895   1.889   1.702   6.605
 9651TIP3    H128896   1.820   1.747   6.557
 9651TIP3    H228897   1.957   1.685   6.540
 9652TIP3   OH228898   7.704   2.504   4.726
 9652TIP3    H128899   7.624   2.463   4.695
 9652TIP3    H228900   7.744   2.439   4.784
 9653TIP3   OH228901   1.778   0.953   0.222
 9653TIP3    H128902   1.814   1.030   0.177
 9653TIP3    H228903   1.832   0.880   0.191
 9654TIP3   OH228904   1.806   2.891   5.083
 9654TIP3    H128905   1.790   2.808   5.129
 9654TIP3    H228906   1.901   2.898   5.079
 9655TIP3   OH228907   0.724   5.425   3.185
 9655TIP3    H128908   0.660   5.485   3.146
 9655TIP3    H228909   0.808   5.470   3.174
 9656TIP3   OH228910   1.751   1.881   1.641
 9656TIP3    H128911   1.740   1.793   1.604
 9656TIP3    H228912   1.844   1.886   1.665
 9657TIP3   OH228913   5.397   2.079   0.035
 9657TIP3    H128914   5.367   1.994   0.068
 9657TIP3    H228915   5.455   2.113   0.104
 9658TIP3   OH228916   6.384   3.100   3.586
 9658TIP3    H128917   6.442   3.032   3.621
 9658TIP3    H228918   6.326   3.054   3.526
 9659TIP3   OH228919   2.302   6.069   5.690
 9659TIP3    H128920   2.249   6.144   5.661
 9659TIP3    H228921   2.387   6.106   5.710
 9660TIP3   OH228922   0.631   0.841   2.030
 9660TIP3    H128923   0.668   0.755   2.048
 9660TIP3    H228924   0.568   0.856   2.100
 9661TIP3   OH228925   5.594   0.162   6.518
 9661TIP3    H128926   5.623   0.240   6.564
 9661TIP3    H228927   5.639   0.090   6.562
 9662TIP3   OH228928   6.815   7.418   4.076
 9662TIP3    H128929   6.787   7.509   4.071
 9662TIP3    H228930   6.882   7.418   4.144
 9663TIP3   OH228931   0.485   4.886   5.429
 9663TIP3    H128932   0.577   4.914   5.430
 9663TIP3    H228933   0.488   4.796   5.398
 9664TIP3   OH228934   3.687   0.949   0.473
 9664TIP3    H128935   3.624   1.002   0.425
 9664TIP3    H228936   3.636   0.905   0.541
 9665TIP3   OH228937   2.569   0.351   1.484
 9665TIP3    H128938   2.532   0.271   1.523
 9665TIP3    H228939   2.596   0.404   1.559
 9666TIP3   OH228940   4.366   7.104   6.008
 9666TIP3    H128941   4.277   7.069   6.019
 9666TIP3    H228942   4.404   7.099   6.096
 9667TIP3   OH228943   6.344   1.697   1.432
 9667TIP3    H128944   6.399   1.772   1.453
 9667TIP3    H228945   6.320   1.711   1.340
 9668TIP3   OH228946   0.139   0.433   6.601
 9668TIP3    H128947   0.140   0.369   6.531
 9668TIP3    H228948   0.190   0.393   6.672
 9669TIP3   OH228949   2.340   2.288   5.767
 9669TIP3    H128950   2.339   2.259   5.675
 9669TIP3    H228951   2.428   2.268   5.798
 9670TIP3   OH228952   8.169   3.316   4.446
 9670TIP3    H128953   8.076   3.341   4.443
 9670TIP3    H228954   8.199   3.346   4.532
 9671TIP3   OH228955   5.366   2.526   3.037
 9671TIP3    H128956   5.445   2.539   3.090
 9671TIP3    H228957   5.394   2.543   2.948
 9672TIP3   OH228958   1.063   2.097   2.579
 9672TIP3    H128959   1.123   2.022   2.581
 9672TIP3    H228960   1.022   2.092   2.493
 9673TIP3   OH228961   6.354   2.641   1.600
 9673TIP3    H128962   6.295   2.567   1.610
 9673TIP3    H228963   6.350   2.687   1.684
 9674TIP3   OH228964   3.954   7.732   2.323
 9674TIP3    H128965   4.041   7.741   2.361
 9674TIP3    H228966   3.915   7.657   2.368
 9675TIP3   OH228967   7.937   7.553   3.783
 9675TIP3    H128968   8.029   7.579   3.776
 9675TIP3    H228969   7.905   7.602   3.858
 9676TIP3   OH228970   1.144   1.356   4.011
 9676TIP3    H128971   1.135   1.395   3.925
 9676TIP3    H228972   1.165   1.264   3.994
 9677TIP3   OH228973   0.081   5.342   0.438
 9677TIP3    H128974   0.089   5.415   0.377
 9677TIP3    H228975   0.169   5.330   0.474
 9678TIP3   OH228976   6.948   1.870   5.539
 9678TIP3    H128977   7.027   1.842   5.493
 9678TIP3    H228978   6.947   1.965   5.530
 9679TIP3   OH228979   2.500   1.458   4.461
 9679TIP3    H128980   2.578   1.504   4.430
 9679TIP3    H228981   2.482   1.498   4.547
 9680TIP3   OH228982   1.488   6.675   5.034
 9680TIP3    H128983   1.463   6.757   4.993
 9680TIP3    H228984   1.550   6.635   4.974
 9681TIP3   OH228985   0.453   7.198   4.122
 9681TIP3    H128986   0.401   7.118   4.122
 9681TIP3    H228987   0.524   7.180   4.060
 9682TIP3   OH228988   7.502   2.192   3.400
 9682TIP3    H128989   7.571   2.239   3.447
 9682TIP3    H228990   7.540   2.173   3.315
 9683TIP3   OH228991   8.171   4.515   0.261
 9683TIP3    H128992   8.081   4.524   0.292
 9683TIP3    H228993   8.214   4.462   0.329
 9684TIP3   OH228994   6.983   2.794   5.004
 9684TIP3    H128995   6.952   2.704   5.016
 9684TIP3    H228996   6.934   2.826   4.928
 9685TIP3   OH228997   7.830   5.393   4.818
 9685TIP3    H128998   7.738   5.412   4.836
 9685TIP3    H228999   7.829   5.313   4.765
 9686TIP3   OH229000   7.556   1.878   3.460
 9686TIP3    H129001   7.550   1.833   3.544
 9686TIP3    H229002   7.523   1.966   3.477
 9687TIP3   OH229003   7.653   7.157   4.788
 9687TIP3    H129004   7.703   7.168   4.707
 9687TIP3    H229005   7.710   7.104   4.843
 9688TIP3   OH229006   8.216   0.854   3.113
 9688TIP3    H129007   8.149   0.909   3.153
 9688TIP3    H229008   8.212   0.772   3.163
 9689TIP3   OH229009   4.204   1.435   4.128
 9689TIP3    H129010   4.177   1.357   4.176
 9689TIP3    H229011   4.257   1.485   4.190
 9690TIP3   OH229012   7.544   5.629   4.475
 9690TIP3    H129013   7.593   5.672   4.405
 9690TIP3    H229014   7.455   5.663   4.467
 9691TIP3   OH229015   3.100   1.011   4.229
 9691TIP3    H129016   3.007   0.994   4.244
 9691TIP3    H229017   3.134   0.928   4.196
 9692TIP3   OH229018   4.955   4.230   5.391
 9692TIP3    H129019   4.887   4.200   5.451
 9692TIP3    H229020   4.912   4.234   5.305
 9693TIP3   OH229021   2.545   5.389   3.133
 9693TIP3    H129022   2.520   5.387   3.225
 9693TIP3    H229023   2.495   5.319   3.093
 9694TIP3   OH229024   3.450   5.967   3.857
 9694TIP3    H129025   3.525   5.932   3.905
 9694TIP3    H229026   3.377   5.909   3.879
 9695TIP3   OH229027   7.810   0.039   1.583
 9695TIP3    H129028   7.727   0.058   1.628
 9695TIP3    H229029   7.836   0.123   1.546
 9696TIP3   OH229030   1.848   6.961   5.440
 9696TIP3    H129031   1.799   6.913   5.507
 9696TIP3    H229032   1.839   7.053   5.465
 9697TIP3   OH229033   0.513   0.911   3.462
 9697TIP3    H129034   0.499   0.983   3.401
 9697TIP3    H229035   0.608   0.905   3.471
 9698TIP3   OH229036   3.264   4.592   6.104
 9698TIP3    H129037   3.268   4.560   6.014
 9698TIP3    H229038   3.211   4.528   6.150
 9699TIP3   OH229039   2.289   7.725   3.462
 9699TIP3    H129040   2.270   7.808   3.506
 9699TIP3    H229041   2.380   7.733   3.434
 9700TIP3   OH229042   0.606   5.560   1.141
 9700TIP3    H129043   0.677   5.524   1.194
 9700TIP3    H229044   0.634   5.649   1.120
 9701TIP3   OH229045   4.789   1.316   3.568
 9701TIP3    H129046   4.874   1.284   3.536
 9701TIP3    H229047   4.776   1.399   3.522
 9702TIP3   OH229048   0.322   1.051   6.049
 9702TIP3    H129049   0.250   1.057   6.111
 9702TIP3    H229050   0.302   0.973   5.997
 9703TIP3   OH229051   6.438   2.003   6.775
 9703TIP3    H129052   6.494   1.962   6.708
 9703TIP3    H229053   6.489   1.997   6.855
 9704TIP3   OH229054   4.252   4.018   5.403
 9704TIP3    H129055   4.213   4.098   5.439
 9704TIP3    H229056   4.298   4.047   5.324
 9705TIP3   OH229057   5.650   5.651   2.962
 9705TIP3    H129058   5.623   5.560   2.974
 9705TIP3    H229059   5.603   5.680   2.883
 9706TIP3   OH229060   1.576   5.712   2.936
 9706TIP3    H129061   1.530   5.792   2.959
 9706TIP3    H229062   1.668   5.735   2.940
 9707TIP3   OH229063   5.688   0.852   2.162
 9707TIP3    H129064   5.753   0.917   2.137
 9707TIP3    H229065   5.727   0.807   2.237
 9708TIP3   OH229066   2.659   3.805   1.750
 9708TIP3    H129067   2.641   3.887   1.706
 9708TIP3    H229068   2.581   3.752   1.737
 9709TIP3   OH229069   0.643   3.079   3.678
 9709TIP3    H129070   0.714   3.072   3.614
 9709TIP3    H229071   0.563   3.062   3.628
 9710TIP3   OH229072   3.641   2.901   4.803
 9710TIP3    H129073   3.565   2.864   4.757
 9710TIP3    H229074   3.714   2.845   4.776
 9711TIP3   OH229075   6.211   1.156   3.393
 9711TIP3    H129076   6.245   1.090   3.453
 9711TIP3    H229077   6.288   1.189   3.347
 9712TIP3   OH229078   0.518   0.390   0.919
 9712TIP3    H129079   0.557   0.469   0.882
 9712TIP3    H229080   0.426   0.412   0.931
 9713TIP3   OH229081   4.667   0.497   1.009
 9713TIP3    H129082   4.623   0.568   1.055
 9713TIP3    H229083   4.751   0.488   1.055
 9714TIP3   OH229084   1.327   3.090   2.237
 9714TIP3    H129085   1.391   3.137   2.290
 9714TIP3    H229086   1.335   2.999   2.263
 9715TIP3   OH229087   3.869   0.111   5.251
 9715TIP3    H129088   3.923   0.066   5.186
 9715TIP3    H229089   3.891   0.204   5.241
 9716TIP3   OH229090   7.460   0.678   0.494
 9716TIP3    H129091   7.536   0.647   0.444
 9716TIP3    H229092   7.462   0.627   0.575
 9717TIP3   OH229093   1.866   5.711   4.433
 9717TIP3    H129094   1.904   5.788   4.475
 9717TIP3    H229095   1.800   5.681   4.494
 9718TIP3   OH229096   1.280   2.381   2.084
 9718TIP3    H129097   1.243   2.294   2.065
 9718TIP3    H229098   1.342   2.396   2.013
 9719TIP3   OH229099   0.925   4.017   1.791
 9719TIP3    H129100   0.834   4.046   1.793
 9719TIP3    H229101   0.934   3.960   1.867
 9720TIP3   OH229102   7.795   1.776   5.395
 9720TIP3    H129103   7.828   1.754   5.308
 9720TIP3    H229104   7.763   1.865   5.387
 9721TIP3   OH229105   3.432   1.869   6.102
 9721TIP3    H129106   3.506   1.930   6.110
 9721TIP3    H229107   3.357   1.925   6.080
 9722TIP3   OH229108   6.996   5.331   3.985
 9722TIP3    H129109   6.941   5.289   3.919
 9722TIP3    H229110   7.065   5.374   3.935
 9723TIP3   OH229111   6.194   1.940   5.943
 9723TIP3    H129112   6.128   1.871   5.935
 9723TIP3    H229113   6.239   1.920   6.024
 9724TIP3   OH229114   1.542   4.514   5.030
 9724TIP3    H129115   1.545   4.504   5.125
 9724TIP3    H229116   1.549   4.608   5.016
 9725TIP3   OH229117   2.243   0.560   0.196
 9725TIP3    H129118   2.280   0.474   0.181
 9725TIP3    H229119   2.148   0.546   0.198
 9726TIP3   OH229120   4.376   6.208   0.667
 9726TIP3    H129121   4.337   6.204   0.580
 9726TIP3    H229122   4.467   6.183   0.654
 9727TIP3   OH229123   2.263   0.845   1.986
 9727TIP3    H129124   2.221   0.761   1.967
 9727TIP3    H229125   2.287   0.840   2.078
 9728TIP3   OH229126   7.627   5.454   3.659
 9728TIP3    H129127   7.588   5.541   3.662
 9728TIP3    H229128   7.623   5.423   3.749
 9729TIP3   OH229129   4.026   3.485   2.012
 9729TIP3    H129130   3.960   3.544   1.976
 9729TIP3    H229131   4.005   3.399   1.976
 9730TIP3   OH229132   1.673   3.519   1.525
 9730TIP3    H129133   1.579   3.515   1.541
 9730TIP3    H229134   1.706   3.580   1.592
 9731TIP3   OH229135   1.789   3.520   5.663
 9731TIP3    H129136   1.762   3.428   5.663
 9731TIP3    H229137   1.786   3.545   5.571
 9732TIP3   OH229138   6.113   6.034   0.214
 9732TIP3    H129139   6.158   6.003   0.292
 9732TIP3    H229140   6.035   5.978   0.208
 9733TIP3   OH229141   3.775   7.726   6.664
 9733TIP3    H129142   3.851   7.683   6.704
 9733TIP3    H229143   3.739   7.660   6.604
 9734TIP3   OH229144   2.159   5.349   5.775
 9734TIP3    H129145   2.197   5.421   5.725
 9734TIP3    H229146   2.103   5.392   5.840
 9735TIP3   OH229147   2.653   5.017   6.682
 9735TIP3    H129148   2.649   5.002   6.776
 9735TIP3    H229149   2.610   5.102   6.669
 9736TIP3   OH229150   7.551   4.968   6.261
 9736TIP3    H129151   7.620   4.914   6.221
 9736TIP3    H229152   7.474   4.950   6.208
 9737TIP3   OH229153   4.200   0.640   5.165
 9737TIP3    H129154   4.187   0.695   5.088
 9737TIP3    H229155   4.190   0.551   5.133
 9738TIP3   OH229156   6.632   1.681   4.049
 9738TIP3    H129157   6.642   1.657   3.957
 9738TIP3    H229158   6.721   1.700   4.079
 9739TIP3   OH229159   8.090   6.342   6.420
 9739TIP3    H129160   7.997   6.331   6.442
 9739TIP3    H229161   8.131   6.260   6.446
 9740TIP3   OH229162   5.646   0.224   0.314
 9740TIP3    H129163   5.603   0.154   0.265
 9740TIP3    H229164   5.738   0.196   0.320
 9741TIP3   OH229165   0.552   6.810   3.221
 9741TIP3    H129166   0.535   6.743   3.288
 9741TIP3    H229167   0.610   6.873   3.265
 9742TIP3   OH229168   5.921   7.840   1.725
 9742TIP3    H129169   5.922   7.835   1.820
 9742TIP3    H229170   5.994   7.897   1.703
 9743TIP3   OH229171   2.190   1.093   2.306
 9743TIP3    H129172   2.197   1.080   2.400
 9743TIP3    H229173   2.248   1.166   2.287
 9744TIP3   OH229174   4.179   0.262   2.340
 9744TIP3    H129175   4.084   0.256   2.329
 9744TIP3    H229176   4.192   0.345   2.386
 9745TIP3   OH229177  -0.063   1.145   4.306
 9745TIP3    H129178  -0.108   1.153   4.221
 9745TIP3    H229179   0.018   1.195   4.295
 9746TIP3   OH229180   1.611   3.300   4.940
 9746TIP3    H129181   1.566   3.317   5.022
 9746TIP3    H229182   1.660   3.381   4.922
 9747TIP3   OH229183   0.658   1.146   1.123
 9747TIP3    H129184   0.610   1.076   1.079
 9747TIP3    H229185   0.657   1.121   1.215
 9748TIP3   OH229186   6.899   7.732   5.928
 9748TIP3    H129187   6.810   7.737   5.963
 9748TIP3    H229188   6.909   7.813   5.878
 9749TIP3   OH229189   2.631   7.783   3.861
 9749TIP3    H129190   2.705   7.823   3.908
 9749TIP3    H229191   2.643   7.689   3.874
 9750TIP3   OH229192   1.622   2.283   2.611
 9750TIP3    H129193   1.708   2.294   2.652
 9750TIP3    H229194   1.600   2.191   2.626
 9751TIP3   OH229195   2.312   0.151   4.108
 9751TIP3    H129196   2.270   0.216   4.052
 9751TIP3    H229197   2.405   0.173   4.105
 9752TIP3   OH229198   3.999   3.770   3.868
 9752TIP3    H129199   3.964   3.769   3.779
 9752TIP3    H229200   4.011   3.863   3.888
 9753TIP3   OH229201   7.438   3.083   6.413
 9753TIP3    H129202   7.439   3.048   6.324
 9753TIP3    H229203   7.483   3.017   6.466
 9754TIP3   OH229204   1.869   5.291   6.614
 9754TIP3    H129205   1.842   5.303   6.523
 9754TIP3    H229206   1.791   5.310   6.665
 9755TIP3   OH229207   2.863   3.428   6.720
 9755TIP3    H129208   2.842   3.336   6.700
 9755TIP3    H229209   2.812   3.448   6.798
 9756TIP3   OH229210   2.114   3.468   3.356
 9756TIP3    H129211   2.063   3.430   3.428
 9756TIP3    H229212   2.135   3.556   3.386
 9757TIP3   OH229213   5.987   5.303   3.356
 9757TIP3    H129214   6.000   5.209   3.349
 9757TIP3    H229215   5.910   5.321   3.302
 9758TIP3   OH229216   5.610   2.135   5.014
 9758TIP3    H129217   5.683   2.130   5.077
 9758TIP3    H229218   5.533   2.154   5.067
 9759TIP3   OH229219   3.930   5.721   4.589
 9759TIP3    H129220   3.862   5.730   4.522
 9759TIP3    H229221   4.012   5.740   4.543
 9760TIP3   OH229222   7.439   1.774   3.245
 9760TIP3    H129223   7.452   1.681   3.265
 9760TIP3    H229224   7.470   1.820   3.323
 9761TIP3   OH229225   5.244   6.258   5.696
 9761TIP3    H129226   5.310   6.192   5.716
 9761TIP3    H229227   5.187   6.258   5.773
 9762TIP3   OH229228   2.408   0.770   1.238
 9762TIP3    H129229   2.488   0.737   1.279
 9762TIP3    H229230   2.431   0.778   1.145
 9763TIP3   OH229231   2.654   7.479   0.404
 9763TIP3    H129232   2.698   7.454   0.323
 9763TIP3    H229233   2.561   7.471   0.383
 9764TIP3   OH229234   4.554   0.224   4.504
 9764TIP3    H129235   4.563   0.300   4.561
 9764TIP3    H229236   4.460   0.206   4.502
 9765TIP3   OH229237   7.488   7.402   6.409
 9765TIP3    H129238   7.490   7.322   6.462
 9765TIP3    H229239   7.470   7.371   6.320
 9766TIP3   OH229240   7.664   2.665   2.684
 9766TIP3    H129241   7.755   2.676   2.711
 9766TIP3    H229242   7.666   2.591   2.624
 9767TIP3   OH229243   6.562   3.513   1.615
 9767TIP3    H129244   6.515   3.433   1.592
 9767TIP3    H229245   6.494   3.579   1.626
 9768TIP3   OH229246   3.733   2.222   3.914
 9768TIP3    H129247   3.649   2.265   3.926
 9768TIP3    H229248   3.784   2.248   3.991
 9769TIP3   OH229249   6.202   0.070   2.710
 9769TIP3    H129250   6.163   0.144   2.758
 9769TIP3    H229251   6.175   0.084   2.619
 9770TIP3   OH229252   6.182   1.957   4.826
 9770TIP3    H129253   6.259   1.912   4.860
 9770TIP3    H229254   6.183   1.939   4.732
 9771TIP3   OH229255   4.072   5.857   5.155
 9771TIP3    H129256   4.084   5.933   5.098
 9771TIP3    H229257   3.982   5.829   5.139
 9772TIP3   OH229258   1.721   4.891   5.287
 9772TIP3    H129259   1.806   4.848   5.296
 9772TIP3    H229260   1.739   4.984   5.299
 9773TIP3   OH229261   4.825   2.427   1.053
 9773TIP3    H129262   4.889   2.490   1.086
 9773TIP3    H229263   4.752   2.433   1.115
 9774TIP3   OH229264   2.739   2.890   6.275
 9774TIP3    H129265   2.688   2.958   6.231
 9774TIP3    H229266   2.674   2.826   6.303
 9775TIP3   OH229267   0.686   5.391   0.759
 9775TIP3    H129268   0.688   5.480   0.794
 9775TIP3    H229269   0.700   5.334   0.835
 9776TIP3   OH229270   7.481   7.698   3.406
 9776TIP3    H129271   7.459   7.605   3.396
 9776TIP3    H229272   7.440   7.740   3.331
 9777TIP3   OH229273   0.771   0.225   3.279
 9777TIP3    H129274   0.750   0.166   3.208
 9777TIP3    H229275   0.814   0.170   3.345
 9778TIP3   OH229276   1.338   1.048   4.417
 9778TIP3    H129277   1.307   1.116   4.357
 9778TIP3    H229278   1.347   1.092   4.501
 9779TIP3   OH229279   5.847   1.044   0.174
 9779TIP3    H129280   5.763   1.089   0.180
 9779TIP3    H229281   5.893   1.068   0.254
 9780TIP3   OH229282   2.847   4.988   3.013
 9780TIP3    H129283   2.911   5.018   2.949
 9780TIP3    H229284   2.895   4.925   3.067
 9781TIP3   OH229285   6.688   4.432   4.162
 9781TIP3    H129286   6.595   4.417   4.145
 9781TIP3    H229287   6.690   4.507   4.222
 9782TIP3   OH229288   0.080   5.873   5.496
 9782TIP3    H129289   0.047   5.953   5.454
 9782TIP3    H229290   0.165   5.898   5.531
 9783TIP3   OH229291   5.308   2.827   1.246
 9783TIP3    H129292   5.320   2.906   1.299
 9783TIP3    H229293   5.294   2.757   1.310
 9784TIP3   OH229294   0.598   3.006   1.931
 9784TIP3    H129295   0.601   2.969   2.020
 9784TIP3    H229296   0.610   3.100   1.945
 9785TIP3   OH229297   3.299   3.267   3.419
 9785TIP3    H129298   3.300   3.247   3.325
 9785TIP3    H229299   3.233   3.208   3.455
 9786TIP3   OH229300   1.263   5.047   6.141
 9786TIP3    H129301   1.198   5.109   6.175
 9786TIP3    H229302   1.303   5.009   6.220
 9787TIP3   OH229303   1.526   1.245   1.307
 9787TIP3    H129304   1.440   1.272   1.337
 9787TIP3    H229305   1.587   1.282   1.371
 9788TIP3   OH229306   1.930   1.927   0.175
 9788TIP3    H129307   1.885   1.843   0.179
 9788TIP3    H229308   1.943   1.952   0.266
 9789TIP3   OH229309   0.652   2.785   2.546
 9789TIP3    H129310   0.597   2.713   2.516
 9789TIP3    H229311   0.611   2.864   2.511
 9790TIP3   OH229312   0.903   6.725   5.481
 9790TIP3    H129313   0.897   6.756   5.571
 9790TIP3    H229314   0.990   6.751   5.452
 9791TIP3   OH229315   0.348   0.470   6.024
 9791TIP3    H129316   0.346   0.471   5.928
 9791TIP3    H229317   0.403   0.394   6.046
 9792TIP3   OH229318   5.177   0.995   3.400
 9792TIP3    H129319   5.179   1.000   3.495
 9792TIP3    H229320   5.252   1.048   3.371
 9793TIP3   OH229321   3.759   2.084   0.672
 9793TIP3    H129322   3.703   2.039   0.609
 9793TIP3    H229323   3.703   2.099   0.748
 9794TIP3   OH229324   5.537   6.947   4.193
 9794TIP3    H129325   5.579   6.904   4.268
 9794TIP3    H229326   5.610   6.981   4.141
 9795TIP3   OH229327   1.273   5.573   3.450
 9795TIP3    H129328   1.227   5.493   3.424
 9795TIP3    H229329   1.281   5.566   3.546
 9796TIP3   OH229330   5.484   0.058   1.581
 9796TIP3    H129331   5.549   0.052   1.511
 9796TIP3    H229332   5.532   0.092   1.656
 9797TIP3   OH229333   8.006   6.086   5.106
 9797TIP3    H129334   8.060   6.153   5.065
 9797TIP3    H229335   7.958   6.133   5.174
 9798TIP3   OH229336   0.428   3.908   1.774
 9798TIP3    H129337   0.516   3.893   1.808
 9798TIP3    H229338   0.442   3.947   1.688
 9799TIP3   OH229339   4.087   7.092   1.310
 9799TIP3    H129340   4.104   7.185   1.297
 9799TIP3    H229341   4.123   7.049   1.232
 9800TIP3   OH229342   0.894   3.073   4.376
 9800TIP3    H129343   0.935   3.159   4.365
 9800TIP3    H229344   0.803   3.086   4.347
 9801TIP3   OH229345   5.750   6.814   1.865
 9801TIP3    H129346   5.823   6.821   1.804
 9801TIP3    H229347   5.676   6.785   1.812
 9802TIP3   OH229348   2.736   5.310   5.928
 9802TIP3    H129349   2.815   5.341   5.973
 9802TIP3    H229350   2.765   5.231   5.881
 9803TIP3   OH229351   6.683   1.979   2.920
 9803TIP3    H129352   6.691   1.900   2.974
 9803TIP3    H229353   6.622   2.035   2.969
 9804TIP3   OH229354   2.050   0.123   4.821
 9804TIP3    H129355   2.043   0.204   4.771
 9804TIP3    H229356   1.974   0.071   4.794
 9805TIP3   OH229357   1.116   1.618   5.095
 9805TIP3    H129358   1.193   1.666   5.064
 9805TIP3    H229359   1.067   1.681   5.146
 9806TIP3   OH229360   1.787   0.680   3.098
 9806TIP3    H129361   1.760   0.598   3.140
 9806TIP3    H229362   1.708   0.734   3.097
 9807TIP3   OH229363   4.783   1.461   5.255
 9807TIP3    H129364   4.749   1.470   5.166
 9807TIP3    H229365   4.768   1.369   5.276
 9808TIP3   OH229366   3.504   0.101   2.108
 9808TIP3    H129367   3.442   0.163   2.069
 9808TIP3    H229368   3.589   0.130   2.078
 9809TIP3   OH229369   4.361   2.604   2.617
 9809TIP3    H129370   4.439   2.605   2.673
 9809TIP3    H229371   4.352   2.694   2.587
 9810TIP3   OH229372   1.075   1.512   2.828
 9810TIP3    H129373   1.107   1.560   2.751
 9810TIP3    H229374   1.006   1.568   2.864
 9811TIP3   OH229375   3.500   6.291   1.737
 9811TIP3    H129376   3.510   6.256   1.648
 9811TIP3    H229377   3.409   6.321   1.741
 9812TIP3   OH229378   5.124   4.118   3.999
 9812TIP3    H129379   5.090   4.029   3.996
 9812TIP3    H229380   5.107   4.148   4.088
 9813TIP3   OH229381   0.180   1.416   5.397
 9813TIP3    H129382   0.227   1.336   5.376
 9813TIP3    H229383   0.202   1.434   5.488
 9814TIP3   OH229384   0.807   0.172   1.271
 9814TIP3    H129385   0.731   0.198   1.219
 9814TIP3    H229386   0.838   0.092   1.228
 9815TIP3   OH229387   7.311   7.303   5.127
 9815TIP3    H129388   7.257   7.255   5.065
 9815TIP3    H229389   7.250   7.338   5.191
 9816TIP3   OH229390   3.308   2.882   5.284
 9816TIP3    H129391   3.366   2.807   5.291
 9816TIP3    H229392   3.221   2.847   5.300
 9817TIP3   OH229393   6.240   7.414   2.700
 9817TIP3    H129394   6.334   7.396   2.700
 9817TIP3    H229395   6.224   7.456   2.785
 9818TIP3   OH229396   3.745   1.495   5.668
 9818TIP3    H129397   3.720   1.586   5.648
 9818TIP3    H229398   3.834   1.502   5.702
 9819TIP3   OH229399   4.421   5.535   0.767
 9819TIP3    H129400   4.396   5.446   0.741
 9819TIP3    H229401   4.483   5.522   0.840
 9820TIP3   OH229402   8.101   0.018   2.932
 9820TIP3    H129403   8.107  -0.076   2.914
 9820TIP3    H229404   8.185   0.054   2.901
 9821TIP3   OH229405   4.874   2.202   2.138
 9821TIP3    H129406   4.901   2.179   2.227
 9821TIP3    H229407   4.872   2.298   2.137
 9822TIP3   OH229408   7.413   6.774   4.236
 9822TIP3    H129409   7.395   6.794   4.144
 9822TIP3    H229410   7.332   6.735   4.269
 9823TIP3   OH229411   6.111   0.281   0.605
 9823TIP3    H129412   6.150   0.244   0.685
 9823TIP3    H229413   6.186   0.313   0.555
 9824TIP3   OH229414   5.211   4.166   5.461
 9824TIP3    H129415   5.253   4.237   5.510
 9824TIP3    H229416   5.118   4.190   5.459
 9825TIP3   OH229417   5.121   2.176   2.636
 9825TIP3    H129418   5.182   2.151   2.704
 9825TIP3    H229419   5.171   2.169   2.554
 9826TIP3   OH229420   7.991   5.099   0.507
 9826TIP3    H129421   8.024   5.157   0.576
 9826TIP3    H229422   7.971   5.157   0.434
 9827TIP3   OH229423   0.040   1.661   0.580
 9827TIP3    H129424   0.073   1.645   0.492
 9827TIP3    H229425   0.004   1.749   0.577
 9828TIP3   OH229426   2.129   3.194   4.342
 9828TIP3    H129427   2.076   3.271   4.363
 9828TIP3    H229428   2.072   3.139   4.289
 9829TIP3   OH229429   6.760   5.487   6.430
 9829TIP3    H129430   6.738   5.418   6.367
 9829TIP3    H229431   6.712   5.564   6.399
 9830TIP3   OH229432   4.009   6.083   6.231
 9830TIP3    H129433   3.917   6.105   6.247
 9830TIP3    H229434   4.056   6.166   6.242
 9831TIP3   OH229435   4.761   5.598   0.808
 9831TIP3    H129436   4.754   5.671   0.870
 9831TIP3    H229437   4.675   5.557   0.809
 9832TIP3   OH229438   1.241   4.349   4.106
 9832TIP3    H129439   1.229   4.346   4.011
 9832TIP3    H229440   1.211   4.436   4.131
 9833TIP3   OH229441   4.036   1.130   5.136
 9833TIP3    H129442   4.084   1.206   5.170
 9833TIP3    H229443   3.944   1.156   5.140
 9834TIP3   OH229444   2.938   0.773   3.091
 9834TIP3    H129445   2.930   0.809   3.179
 9834TIP3    H229446   2.959   0.681   3.104
 9835TIP3   OH229447  -0.032   5.837   3.775
 9835TIP3    H129448  -0.019   5.859   3.867
 9835TIP3    H229449  -0.048   5.743   3.775
 9836TIP3   OH229450   7.208   0.241   1.658
 9836TIP3    H129451   7.188   0.228   1.751
 9836TIP3    H229452   7.178   0.330   1.639
 9837TIP3   OH229453   0.495   0.769   5.541
 9837TIP3    H129454   0.485   0.859   5.572
 9837TIP3    H229455   0.568   0.734   5.592
 9838TIP3   OH229456   1.115   6.216   3.387
 9838TIP3    H129457   1.152   6.295   3.427
 9838TIP3    H229458   1.073   6.170   3.459
 9839TIP3   OH229459   6.269   4.482   1.715
 9839TIP3    H129460   6.184   4.501   1.676
 9839TIP3    H229461   6.305   4.568   1.737
 9840TIP3   OH229462   3.259   7.671   3.837
 9840TIP3    H129463   3.164   7.674   3.845
 9840TIP3    H229464   3.277   7.590   3.789
 9841TIP3   OH229465   7.258   2.236   1.871
 9841TIP3    H129466   7.270   2.255   1.778
 9841TIP3    H229467   7.263   2.141   1.877
 9842TIP3   OH229468   0.756   3.778   0.697
 9842TIP3    H129469   0.775   3.854   0.643
 9842TIP3    H229470   0.807   3.707   0.657
 9843TIP3   OH229471   7.753   5.669   5.046
 9843TIP3    H129472   7.670   5.654   5.000
 9843TIP3    H229473   7.781   5.756   5.017
 9844TIP3   OH229474   0.373   0.157   2.879
 9844TIP3    H129475   0.315   0.220   2.837
 9844TIP3    H229476   0.435   0.132   2.811
 9845TIP3   OH229477   5.480   2.106   5.548
 9845TIP3    H129478   5.388   2.083   5.532
 9845TIP3    H229479   5.504   2.058   5.627
 9846TIP3   OH229480   0.333   7.755   6.291
 9846TIP3    H129481   0.351   7.763   6.198
 9846TIP3    H229482   0.418   7.765   6.333
 9847TIP3   OH229483   5.162   2.919   5.659
 9847TIP3    H129484   5.169   2.944   5.566
 9847TIP3    H229485   5.230   2.970   5.702
 9848TIP3   OH229486   2.133   0.213   3.619
 9848TIP3    H129487   2.085   0.295   3.624
 9848TIP3    H229488   2.078   0.156   3.565
 9849TIP3   OH229489   4.806   4.433   1.453
 9849TIP3    H129490   4.752   4.389   1.388
 9849TIP3    H229491   4.893   4.394   1.443
 9850TIP3   OH229492   6.580   1.371   6.300
 9850TIP3    H129493   6.533   1.373   6.384
 9850TIP3    H229494   6.512   1.355   6.235
 9851TIP3   OH229495   4.140   2.867   6.152
 9851TIP3    H129496   4.211   2.814   6.115
 9851TIP3    H229497   4.139   2.946   6.098
 9852TIP3   OH229498   3.762   0.367   5.499
 9852TIP3    H129499   3.847   0.409   5.486
 9852TIP3    H229500   3.784   0.280   5.534
 9853TIP3   OH229501   2.742   5.337   1.162
 9853TIP3    H129502   2.675   5.406   1.159
 9853TIP3    H229503   2.696   5.258   1.135
 9854TIP3   OH229504   5.838   5.980   4.058
 9854TIP3    H129505   5.818   6.052   3.999
 9854TIP3    H229506   5.884   5.917   4.003
 9855TIP3   OH229507   2.333   6.099   5.059
 9855TIP3    H129508   2.401   6.127   4.998
 9855TIP3    H229509   2.252   6.102   5.008
 9856TIP3   OH229510   5.062   1.662   0.787
 9856TIP3    H129511   4.993   1.653   0.852
 9856TIP3    H229512   5.141   1.678   0.838
 9857TIP3   OH229513   5.779   2.135   1.566
 9857TIP3    H129514   5.724   2.195   1.514
 9857TIP3    H229515   5.769   2.050   1.523
 9858TIP3   OH229516   4.450   4.508   1.395
 9858TIP3    H129517   4.528   4.535   1.443
 9858TIP3    H229518   4.466   4.417   1.372
 9859TIP3   OH229519   6.416   6.883   0.820
 9859TIP3    H129520   6.320   6.886   0.816
 9859TIP3    H229521   6.443   6.863   0.730
 9860TIP3   OH229522   3.855   5.176   3.133
 9860TIP3    H129523   3.822   5.146   3.048
 9860TIP3    H229524   3.776   5.189   3.186
 9861TIP3   OH229525   5.239   3.330   2.484
 9861TIP3    H129526   5.193   3.348   2.402
 9861TIP3    H229527   5.248   3.416   2.526
 9862TIP3   OH229528   3.875   1.719   4.475
 9862TIP3    H129529   3.880   1.634   4.518
 9862TIP3    H229530   3.834   1.776   4.540
 9863TIP3   OH229531   1.518   2.916   5.041
 9863TIP3    H129532   1.613   2.907   5.056
 9863TIP3    H229533   1.479   2.898   5.126
 9864TIP3   OH229534   1.121   0.080   1.686
 9864TIP3    H129535   1.122   0.094   1.780
 9864TIP3    H229536   1.046   0.131   1.656
 9865TIP3   OH229537   8.065   1.867   1.888
 9865TIP3    H129538   8.018   1.785   1.875
 9865TIP3    H229539   8.013   1.933   1.841
 9866TIP3   OH229540   4.578   2.420   6.679
 9866TIP3    H129541   4.619   2.414   6.593
 9866TIP3    H229542   4.489   2.389   6.666
 9867TIP3   OH229543   7.948   1.949   2.846
 9867TIP3    H129544   7.853   1.960   2.851
 9867TIP3    H229545   7.969   1.968   2.755
 9868TIP3   OH229546   3.050   4.138   2.655
 9868TIP3    H129547   3.055   4.089   2.737
 9868TIP3    H229548   2.962   4.176   2.655
 9869TIP3   OH229549   6.521   6.607   0.618
 9869TIP3    H129550   6.481   6.581   0.701
 9869TIP3    H229551   6.447   6.626   0.560
 9870TIP3   OH229552   7.669   3.652   6.651
 9870TIP3    H129553   7.666   3.560   6.677
 9870TIP3    H229554   7.725   3.654   6.573
 9871TIP3   OH229555   8.063   1.636   5.158
 9871TIP3    H129556   8.043   1.572   5.227
 9871TIP3    H229557   8.147   1.673   5.185
 9872TIP3   OH229558   4.700   5.028   4.239
 9872TIP3    H129559   4.636   5.094   4.214
 9872TIP3    H229560   4.739   4.998   4.157
 9873TIP3   OH229561   7.301   2.286   5.109
 9873TIP3    H129562   7.249   2.212   5.140
 9873TIP3    H229563   7.241   2.360   5.112
 9874TIP3   OH229564   6.664   4.479   4.634
 9874TIP3    H129565   6.644   4.451   4.723
 9874TIP3    H229566   6.604   4.551   4.618
 9875TIP3   OH229567   5.701   1.284   5.597
 9875TIP3    H129568   5.608   1.283   5.618
 9875TIP3    H229569   5.713   1.211   5.536
 9876TIP3   OH229570   5.247   2.794   5.247
 9876TIP3    H129571   5.270   2.885   5.233
 9876TIP3    H229572   5.228   2.760   5.160
 9877TIP3   OH229573   5.337   4.054   1.535
 9877TIP3    H129574   5.403   3.985   1.529
 9877TIP3    H229575   5.370   4.113   1.602
 9878TIP3   OH229576   0.203   5.850   6.367
 9878TIP3    H129577   0.230   5.807   6.449
 9878TIP3    H229578   0.281   5.896   6.337
 9879TIP3   OH229579   6.517   5.568   6.762
 9879TIP3    H129580   6.488   5.618   6.685
 9879TIP3    H229581   6.560   5.491   6.726
 9880TIP3   OH229582   7.985   1.407   6.674
 9880TIP3    H129583   8.015   1.349   6.604
 9880TIP3    H229584   8.036   1.487   6.662
 9881TIP3   OH229585   7.041   4.416   1.792
 9881TIP3    H129586   6.962   4.405   1.739
 9881TIP3    H229587   7.056   4.331   1.832
 9882TIP3   OH229588   2.045   2.995   5.926
 9882TIP3    H129589   2.053   2.909   5.885
 9882TIP3    H229590   1.979   3.041   5.875
 9883TIP3   OH229591   1.721   6.983   1.834
 9883TIP3    H129592   1.769   7.062   1.811
 9883TIP3    H229593   1.691   6.949   1.750
 9884TIP3   OH229594   6.795   6.753   4.536
 9884TIP3    H129595   6.753   6.710   4.462
 9884TIP3    H229596   6.738   6.826   4.557
 9885TIP3   OH229597   4.843   3.879   4.859
 9885TIP3    H129598   4.879   3.919   4.938
 9885TIP3    H229599   4.913   3.889   4.794
 9886TIP3   OH229600   0.389   3.854   3.398
 9886TIP3    H129601   0.370   3.919   3.467
 9886TIP3    H229602   0.378   3.903   3.316
 9887TIP3   OH229603   4.346   0.210   0.725
 9887TIP3    H129604   4.370   0.125   0.689
 9887TIP3    H229605   4.417   0.232   0.785
 9888TIP3   OH229606   7.011   0.658   6.567
 9888TIP3    H129607   6.929   0.660   6.616
 9888TIP3    H229608   7.012   0.740   6.518
 9889TIP3   OH229609   5.712   0.926   1.538
 9889TIP3    H129610   5.771   0.947   1.611
 9889TIP3    H229611   5.726   0.997   1.475
 9890TIP3   OH229612   3.167   4.249   4.249
 9890TIP3    H129613   3.164   4.325   4.191
 9890TIP3    H229614   3.206   4.282   4.330
 9891TIP3   OH229615   0.937   3.911   2.999
 9891TIP3    H129616   1.021   3.951   3.020
 9891TIP3    H229617   0.877   3.985   2.987
 9892TIP3   OH229618   6.938   5.813   4.405
 9892TIP3    H129619   6.989   5.766   4.472
 9892TIP3    H229620   6.982   5.898   4.397
 9893TIP3   OH229621   5.115   3.647   4.923
 9893TIP3    H129622   5.147   3.734   4.947
 9893TIP3    H229623   5.146   3.633   4.834
 9894TIP3   OH229624   7.935   7.507   4.643
 9894TIP3    H129625   7.953   7.414   4.654
 9894TIP3    H229626   7.960   7.547   4.727
 9895TIP3   OH229627   3.792   1.023   5.799
 9895TIP3    H129628   3.821   1.114   5.797
 9895TIP3    H229629   3.857   0.979   5.854
 9896TIP3   OH229630   2.858   0.450   5.446
 9896TIP3    H129631   2.796   0.388   5.407
 9896TIP3    H229632   2.806   0.499   5.509
 9897TIP3   OH229633   4.034   4.881   2.956
 9897TIP3    H129634   4.011   4.848   2.869
 9897TIP3    H229635   4.026   4.976   2.948
 9898TIP3   OH229636   6.188   3.043   3.017
 9898TIP3    H129637   6.268   3.094   3.025
 9898TIP3    H229638   6.150   3.069   2.933
 9899TIP3   OH229639   5.351   4.486   0.116
 9899TIP3    H129640   5.420   4.552   0.119
 9899TIP3    H229641   5.362   4.437   0.198
 9900TIP3   OH229642   7.054   1.481   3.330
 9900TIP3    H129643   7.027   1.533   3.254
 9900TIP3    H229644   7.128   1.530   3.367
 9901TIP3   OH229645   4.076   1.530   0.938
 9901TIP3    H129646   4.057   1.624   0.937
 9901TIP3    H229647   4.163   1.523   0.977
 9902TIP3   OH229648   6.800   2.128   6.585
 9902TIP3    H129649   6.757   2.174   6.513
 9902TIP3    H229650   6.743   2.055   6.606
 9903TIP3   OH229651   2.541   5.176   5.655
 9903TIP3    H129652   2.466   5.159   5.713
 9903TIP3    H229653   2.617   5.165   5.712
 9904TIP3   OH229654   3.262   3.508   4.602
 9904TIP3    H129655   3.330   3.494   4.669
 9904TIP3    H229656   3.264   3.428   4.550
 9905TIP3   OH229657   1.442   6.488   1.066
 9905TIP3    H129658   1.524   6.461   1.025
 9905TIP3    H229659   1.391   6.407   1.074
 9906TIP3   OH229660   6.961   0.010   4.150
 9906TIP3    H129661   6.980   0.023   4.242
 9906TIP3    H229662   6.886  -0.050   4.149
 9907TIP3   OH229663   4.619   6.494   3.986
 9907TIP3    H129664   4.624   6.410   3.941
 9907TIP3    H229665   4.678   6.552   3.936
 9908TIP3   OH229666   6.440   4.270   2.202
 9908TIP3    H129667   6.367   4.329   2.218
 9908TIP3    H229668   6.505   4.324   2.156
 9909TIP3   OH229669   3.094   6.051   1.634
 9909TIP3    H129670   3.024   6.008   1.585
 9909TIP3    H229671   3.125   5.984   1.695
 9910TIP3   OH229672   4.523   6.257   6.072
 9910TIP3    H129673   4.571   6.243   5.990
 9910TIP3    H229674   4.451   6.315   6.047
 9911TIP3   OH229675   4.847   3.398   5.563
 9911TIP3    H129676   4.900   3.360   5.633
 9911TIP3    H229677   4.896   3.475   5.534
 9912TIP3   OH229678   7.394   0.660   1.621
 9912TIP3    H129679   7.422   0.584   1.570
 9912TIP3    H229680   7.300   0.650   1.630
 9913TIP3   OH229681   5.922   5.286   0.030
 9913TIP3    H129682   5.991   5.279  -0.036
 9913TIP3    H229683   5.903   5.379   0.035
 9914TIP3   OH229684   4.441   2.523   5.219
 9914TIP3    H129685   4.499   2.593   5.248
 9914TIP3    H229686   4.469   2.502   5.130
 9915TIP3   OH229687   1.109   3.626   6.654
 9915TIP3    H129688   1.184   3.672   6.618
 9915TIP3    H229689   1.074   3.685   6.721
 9916TIP3   OH229690   1.162   1.400   4.905
 9916TIP3    H129691   1.145   1.493   4.894
 9916TIP3    H229692   1.239   1.383   4.851
 9917TIP3   OH229693   3.804   7.392   6.435
 9917TIP3    H129694   3.809   7.380   6.340
 9917TIP3    H229695   3.863   7.466   6.453
 9918TIP3   OH229696   5.909   2.897   5.720
 9918TIP3    H129697   5.873   2.814   5.688
 9918TIP3    H229698   5.959   2.931   5.646
 9919TIP3   OH229699   4.659   0.730   6.587
 9919TIP3    H129700   4.569   0.757   6.605
 9919TIP3    H229701   4.695   0.707   6.672
 9920TIP3   OH229702   3.191   1.414   5.469
 9920TIP3    H129703   3.116   1.382   5.419
 9920TIP3    H229704   3.197   1.508   5.448
 9921TIP3   OH229705   5.148   3.786   5.404
 9921TIP3    H129706   5.120   3.848   5.471
 9921TIP3    H229707   5.234   3.755   5.434
 9922TIP3   OH229708   4.187   2.560   5.525
 9922TIP3    H129709   4.156   2.494   5.588
 9922TIP3    H229710   4.115   2.570   5.463
 9923TIP3   OH229711   1.329   6.200   1.673
 9923TIP3    H129712   1.294   6.124   1.627
 9923TIP3    H229713   1.262   6.267   1.663
 9924TIP3   OH229714   6.941   1.375   1.309
 9924TIP3    H129715   6.957   1.465   1.281
 9924TIP3    H229716   7.014   1.355   1.368
 9925TIP3   OH229717   1.117   2.909   4.371
 9925TIP3    H129718   1.048   2.973   4.385
 9925TIP3    H229719   1.197   2.961   4.363
 9926TIP3   OH229720   6.504   7.591   2.296
 9926TIP3    H129721   6.520   7.573   2.388
 9926TIP3    H229722   6.479   7.683   2.292
 9927TIP3   OH229723   4.334   6.666   4.136
 9927TIP3    H129724   4.427   6.647   4.148
 9927TIP3    H229725   4.298   6.659   4.225
 9928TIP3   OH229726   7.458   6.055   6.659
 9928TIP3    H129727   7.535   6.069   6.604
 9928TIP3    H229728   7.385   6.046   6.598
 9929TIP3   OH229729   1.199   5.846   4.982
 9929TIP3    H129730   1.159   5.921   5.026
 9929TIP3    H229731   1.269   5.884   4.929
 9930TIP3   OH229732   1.338   3.113   6.357
 9930TIP3    H129733   1.295   3.129   6.273
 9930TIP3    H229734   1.340   3.199   6.399
 9931TIP3   OH229735   0.118   0.317   4.126
 9931TIP3    H129736   0.084   0.366   4.201
 9931TIP3    H229737   0.060   0.340   4.053
 9932TIP3   OH229738   6.975   3.638   6.041
 9932TIP3    H129739   6.909   3.568   6.037
 9932TIP3    H229740   7.052   3.596   6.079
 9933TIP3   OH229741   2.341   4.581   6.707
 9933TIP3    H129742   2.377   4.496   6.681
 9933TIP3    H229743   2.415   4.641   6.703
 9934TIP3   OH229744   5.519   4.813   0.833
 9934TIP3    H129745   5.526   4.908   0.835
 9934TIP3    H229746   5.438   4.796   0.783
 9935TIP3   OH229747   7.172   5.121   2.100
 9935TIP3    H129748   7.187   5.172   2.020
 9935TIP3    H229749   7.116   5.048   2.071
 9936TIP3   OH229750   3.980   1.396   3.593
 9936TIP3    H129751   4.041   1.323   3.593
 9936TIP3    H229752   4.015   1.456   3.659
 9937TIP3   OH229753   1.658   7.792   6.183
 9937TIP3    H129754   1.698   7.705   6.182
 9937TIP3    H229755   1.663   7.819   6.275
 9938TIP3   OH229756   1.631   6.550   3.506
 9938TIP3    H129757   1.625   6.486   3.435
 9938TIP3    H229758   1.646   6.634   3.463
 9939TIP3   OH229759   1.020   2.770   4.735
 9939TIP3    H129760   0.958   2.794   4.666
 9939TIP3    H229761   0.975   2.700   4.784
 9940TIP3   OH229762   0.890   4.239   0.937
 9940TIP3    H129763   0.830   4.182   0.889
 9940TIP3    H229764   0.945   4.179   0.988
 9941TIP3   OH229765   0.341   4.886   3.737
 9941TIP3    H129766   0.339   4.812   3.799
 9941TIP3    H229767   0.433   4.911   3.732
 9942TIP3   OH229768   4.438   0.404   3.404
 9942TIP3    H129769   4.425   0.359   3.320
 9942TIP3    H229770   4.459   0.494   3.380
 9943TIP3   OH229771   4.339   0.389   0.510
 9943TIP3    H129772   4.412   0.362   0.455
 9943TIP3    H229773   4.343   0.331   0.586
 9944TIP3   OH229774   0.635   3.974   5.384
 9944TIP3    H129775   0.556   3.932   5.351
 9944TIP3    H229776   0.700   3.960   5.315
 9945TIP3   OH229777   8.032   0.586   0.586
 9945TIP3    H129778   8.099   0.523   0.560
 9945TIP3    H229779   7.952   0.534   0.594
 9946TIP3   OH229780   8.231   2.429   2.398
 9946TIP3    H129781   8.307   2.383   2.434
 9946TIP3    H229782   8.268   2.496   2.341
 9947TIP3   OH229783   7.468   3.387   1.063
 9947TIP3    H129784   7.435   3.444   0.994
 9947TIP3    H229785   7.535   3.439   1.107
 9948TIP3   OH229786   2.363   1.202   4.059
 9948TIP3    H129787   2.283   1.211   4.008
 9948TIP3    H229788   2.350   1.121   4.109
 9949TIP3   OH229789   0.642   7.168   0.224
 9949TIP3    H129790   0.711   7.169   0.158
 9949TIP3    H229791   0.684   7.199   0.304
 9950TIP3   OH229792   3.437   7.400   1.916
 9950TIP3    H129793   3.485   7.326   1.954
 9950TIP3    H229794   3.404   7.366   1.833
 9951TIP3   OH229795   4.063   6.377   5.348
 9951TIP3    H129796   4.044   6.396   5.256
 9951TIP3    H229797   4.084   6.283   5.349
 9952TIP3   OH229798   3.893   3.290   2.878
 9952TIP3    H129799   3.820   3.228   2.887
 9952TIP3    H229800   3.935   3.289   2.964
 9953TIP3   OH229801   4.614   4.970   3.764
 9953TIP3    H129802   4.669   4.985   3.687
 9953TIP3    H229803   4.525   4.961   3.729
 9954TIP3   OH229804   8.276   5.817   2.379
 9954TIP3    H129805   8.212   5.814   2.309
 9954TIP3    H229806   8.252   5.894   2.431
 9955TIP3   OH229807   4.084   3.254   6.647
 9955TIP3    H129808   4.041   3.172   6.622
 9955TIP3    H229809   4.153   3.228   6.708
 9956TIP3   OH229810   2.326   0.778   2.986
 9956TIP3    H129811   2.393   0.726   3.030
 9956TIP3    H229812   2.325   0.861   3.033
 9957TIP3   OH229813   3.233   7.795   2.885
 9957TIP3    H129814   3.213   7.704   2.908
 9957TIP3    H229815   3.308   7.789   2.826
 9958TIP3   OH229816   0.103   0.202   4.585
 9958TIP3    H129817   0.174   0.240   4.636
 9958TIP3    H229818   0.122   0.227   4.495
 9959TIP3   OH229819   4.996   2.452   2.692
 9959TIP3    H129820   4.977   2.401   2.771
 9959TIP3    H229821   5.080   2.418   2.662
 9960TIP3   OH229822   4.000   0.778   4.493
 9960TIP3    H129823   3.969   0.696   4.532
 9960TIP3    H229824   4.095   0.777   4.507
 9961TIP3   OH229825   3.960   5.465   3.357
 9961TIP3    H129826   3.981   5.448   3.265
 9961TIP3    H229827   4.041   5.502   3.393
 9962TIP3   OH229828   5.720   4.567   2.066
 9962TIP3    H129829   5.635   4.522   2.063
 9962TIP3    H229830   5.778   4.512   2.014
 9963TIP3   OH229831   6.171   3.702   2.289
 9963TIP3    H129832   6.228   3.625   2.292
 9963TIP3    H229833   6.108   3.682   2.220
 9964TIP3   OH229834   6.385   0.790   4.515
 9964TIP3    H129835   6.467   0.740   4.522
 9964TIP3    H229836   6.412   0.876   4.484
 9965TIP3   OH229837   6.201   7.713   2.186
 9965TIP3    H129838   6.242   7.629   2.202
 9965TIP3    H229839   6.267   7.778   2.212
 9966TIP3   OH229840   5.727   4.134   1.774
 9966TIP3    H129841   5.666   4.167   1.707
 9966TIP3    H229842   5.691   4.165   1.857
 9967TIP3   OH229843   1.056   5.985   0.550
 9967TIP3    H129844   1.102   5.909   0.514
 9967TIP3    H229845   1.108   6.060   0.521
 9968TIP3   OH229846   2.983   6.936   1.133
 9968TIP3    H129847   2.887   6.941   1.135
 9968TIP3    H229848   3.003   6.886   1.054
 9969TIP3   OH229849   1.856   4.021   4.961
 9969TIP3    H129850   1.855   4.110   4.995
 9969TIP3    H229851   1.898   4.029   4.875
 9970TIP3   OH229852   3.598   7.594   2.592
 9970TIP3    H129853   3.621   7.566   2.680
 9970TIP3    H229854   3.663   7.552   2.536
 9971TIP3   OH229855   1.764   4.845   1.185
 9971TIP3    H129856   1.856   4.862   1.166
 9971TIP3    H229857   1.731   4.802   1.106
 9972TIP3   OH229858   4.177   7.358   1.289
 9972TIP3    H129859   4.214   7.387   1.373
 9972TIP3    H229860   4.189   7.432   1.230
 9973TIP3   OH229861   7.044   2.441   3.047
 9973TIP3    H129862   7.047   2.412   3.138
 9973TIP3    H229863   7.007   2.529   3.051
 9974TIP3   OH229864   7.056   4.497   5.917
 9974TIP3    H129865   7.096   4.469   5.999
 9974TIP3    H229866   7.047   4.417   5.866
 9975TIP3   OH229867   3.492   1.870   0.006
 9975TIP3    H129868   3.586   1.875   0.018
 9975TIP3    H229869   3.461   1.814   0.078
 9976TIP3   OH229870   5.996   2.599   3.307
 9976TIP3    H129871   6.073   2.622   3.255
 9976TIP3    H229872   5.996   2.504   3.310
 9977TIP3   OH229873   4.306   0.630   3.137
 9977TIP3    H129874   4.268   0.545   3.117
 9977TIP3    H229875   4.319   0.671   3.052
 9978TIP3   OH229876   3.704   3.626   4.472
 9978TIP3    H129877   3.797   3.648   4.466
 9978TIP3    H229878   3.660   3.688   4.414
 9979TIP3   OH229879   6.608   5.092   4.653
 9979TIP3    H129880   6.690   5.138   4.671
 9979TIP3    H229881   6.618   5.007   4.696
 9980TIP3   OH229882   5.244   4.340   4.511
 9980TIP3    H129883   5.159   4.383   4.498
 9980TIP3    H229884   5.295   4.366   4.435
 9981TIP3   OH229885   2.938   3.684   1.796
 9981TIP3    H129886   2.982   3.670   1.880
 9981TIP3    H229887   2.859   3.733   1.819
 9982TIP3   OH229888   7.998   5.371   4.377
 9982TIP3    H129889   7.935   5.440   4.397
 9982TIP3    H229890   8.072   5.416   4.337
 9983TIP3   OH229891   7.183   5.762   6.217
 9983TIP3    H129892   7.128   5.803   6.151
 9983TIP3    H229893   7.175   5.668   6.199
 9984TIP3   OH229894   0.040   2.643   5.446
 9984TIP3    H129895   0.023   2.549   5.457
 9984TIP3    H229896  -0.042   2.685   5.473
 9985TIP3   OH229897   6.227   5.720   5.277
 9985TIP3    H129898   6.194   5.773   5.349
 9985TIP3    H229899   6.150   5.672   5.245
 9986TIP3   OH229900   5.405   4.015   4.005
 9986TIP3    H129901   5.373   3.961   3.932
 9986TIP3    H229902   5.328   4.062   4.036
 9987TIP3   OH229903   3.664   2.543   0.656
 9987TIP3    H129904   3.602   2.483   0.697
 9987TIP3    H229905   3.628   2.630   0.671
 9988TIP3   OH229906   3.596   2.472   6.125
 9988TIP3    H129907   3.544   2.409   6.175
 9988TIP3    H229908   3.531   2.535   6.092
 9989TIP3   OH229909   2.661   6.194   6.168
 9989TIP3    H129910   2.738   6.159   6.123
 9989TIP3    H229911   2.642   6.277   6.122
 9990TIP3   OH229912   0.143   7.631   5.584
 9990TIP3    H129913   0.135   7.565   5.653
 9990TIP3    H229914   0.056   7.670   5.578
 9991TIP3   OH229915   2.006   3.974   4.720
 9991TIP3    H129916   2.098   3.997   4.731
 9991TIP3    H229917   1.965   4.055   4.690
 9992TIP3   OH229918   4.751   3.332   6.079
 9992TIP3    H129919   4.671   3.362   6.036
 9992TIP3    H229920   4.728   3.246   6.114
 9993TIP3   OH229921   4.844   4.508   5.830
 9993TIP3    H129922   4.900   4.524   5.906
 9993TIP3    H229923   4.774   4.574   5.838
 9994TIP3   OH229924   0.294   6.116   0.226
 9994TIP3    H129925   0.273   6.110   0.133
 9994TIP3    H229926   0.357   6.045   0.241
 9995TIP3   OH229927   3.835   2.948   5.864
 9995TIP3    H129928   3.784   2.880   5.820
 9995TIP3    H229929   3.831   3.022   5.804
 9996TIP3   OH229930   2.046   4.491   1.762
 9996TIP3    H129931   2.050   4.498   1.857
 9996TIP3    H229932   1.998   4.410   1.745
 9997TIP3   OH229933   7.848   1.341   5.457
 9997TIP3    H129934   7.892   1.316   5.538
 9997TIP3    H229935   7.824   1.257   5.416
 9998TIP3   OH229936   6.008   1.469   0.153
 9998TIP3    H129937   5.917   1.442   0.142
 9998TIP3    H229938   6.008   1.563   0.135
 9999TIP3   OH229939   6.390   1.026   4.989
 9999TIP3    H129940   6.296   1.040   4.997
 9999TIP3    H229941   6.422   1.102   4.941
10000TIP3   OH229942   1.735   2.181   0.885
10000TIP3    H129943   1.708   2.102   0.933
10000TIP3    H229944   1.829   2.188   0.901
10001TIP3   OH229945   5.807   3.022   5.963
10001TIP3    H129946   5.785   2.941   6.009
10001TIP3    H229947   5.835   2.994   5.876
10002TIP3   OH229948   4.279   3.944   6.336
10002TIP3    H129949   4.354   3.937   6.395
10002TIP3    H229950   4.208   3.979   6.391
10003TIP3   OH229951   2.683   1.059   1.735
10003TIP3    H129952   2.653   1.092   1.820
10003TIP3    H229953   2.766   1.105   1.720
10004TIP3   OH229954   7.117   5.510   5.929
10004TIP3    H129955   7.112   5.580   5.865
10004TIP3    H229956   7.117   5.430   5.877
10005TIP3   OH229957   7.143   5.765   3.799
10005TIP3    H129958   7.222   5.800   3.756
10005TIP3    H229959   7.138   5.813   3.881
10006TIP3   OH229960   7.418   4.129   1.531
10006TIP3    H129961   7.328   4.132   1.562
10006TIP3    H229962   7.458   4.209   1.566
10007TIP3   OH229963   5.246   1.853   2.524
10007TIP3    H129964   5.181   1.843   2.594
10007TIP3    H229965   5.295   1.771   2.525
10008TIP3   OH229966   8.234   7.653   5.972
10008TIP3    H129967   8.306   7.596   5.943
10008TIP3    H229968   8.239   7.652   6.068
10009TIP3   OH229969   1.334   6.849   1.899
10009TIP3    H129970   1.290   6.890   1.973
10009TIP3    H229971   1.302   6.897   1.823
10010TIP3   OH229972   2.294   5.126   5.778
10010TIP3    H129973   2.254   5.080   5.851
10010TIP3    H229974   2.265   5.216   5.787
10011TIP3   OH229975   0.963   0.081   2.526
10011TIP3    H129976   0.929   0.104   2.440
10011TIP3    H229977   0.909   0.131   2.588
10012TIP3   OH229978   6.086   7.078   4.810
10012TIP3    H129979   6.148   7.007   4.828
10012TIP3    H229980   6.047   7.098   4.895
10013TIP3   OH229981   7.702   2.881   3.244
10013TIP3    H129982   7.635   2.854   3.307
10013TIP3    H229983   7.716   2.804   3.189
10014TIP3   OH229984   5.894   1.951   3.491
10014TIP3    H129985   5.935   2.037   3.506
10014TIP3    H229986   5.893   1.942   3.396
10015TIP3   OH229987   6.317   7.491   3.220
10015TIP3    H129988   6.270   7.540   3.154
10015TIP3    H229989   6.369   7.427   3.171
10016TIP3   OH229990   7.815   6.175   4.049
10016TIP3    H129991   7.792   6.140   3.963
10016TIP3    H229992   7.910   6.169   4.054
10017TIP3   OH229993   3.914   3.133   0.575
10017TIP3    H129994   3.873   3.101   0.655
10017TIP3    H229995   3.862   3.096   0.504
10018TIP3   OH229996   7.761   4.388   6.369
10018TIP3    H129997   7.809   4.306   6.374
10018TIP3    H229998   7.730   4.391   6.278
10019TIP3   OH229999   6.075   6.727   2.047
10019TIP3    H130000   6.055   6.780   2.124
10019TIP3    H230001   5.989   6.699   2.014
10020TIP3   OH230002   1.677   7.390   5.383
10020TIP3    H130003   1.741   7.329   5.346
10020TIP3    H230004   1.681   7.466   5.325
10021TIP3   OH230005   2.254   3.709   1.504
10021TIP3    H130006   2.322   3.748   1.449
10021TIP3    H230007   2.177   3.706   1.447
10022TIP3   OH230008   1.389   1.203   5.907
10022TIP3    H130009   1.393   1.280   5.851
10022TIP3    H230010   1.366   1.238   5.993
10023TIP3   OH230011   3.538   6.170   2.583
10023TIP3    H130012   3.533   6.074   2.580
10023TIP3    H230013   3.514   6.192   2.673
10024TIP3   OH230014   6.341   7.425   3.595
10024TIP3    H130015   6.285   7.349   3.588
10024TIP3    H230016   6.428   7.390   3.616
10025TIP3   OH230017   0.577   0.834   0.858
10025TIP3    H130018   0.505   0.887   0.825
10025TIP3    H230019   0.654   0.890   0.849
10026TIP3   OH230020   7.454   7.633   4.106
10026TIP3    H130021   7.504   7.600   4.032
10026TIP3    H230022   7.515   7.689   4.154
10027TIP3   OH230023   5.800   2.321   5.860
10027TIP3    H130024   5.735   2.255   5.885
10027TIP3    H230025   5.832   2.291   5.775
10028TIP3   OH230026   8.201   3.023   5.373
10028TIP3    H130027   8.244   3.071   5.444
10028TIP3    H230028   8.168   2.944   5.414
10029TIP3   OH230029   0.541   7.134   6.725
10029TIP3    H130030   0.558   7.187   6.647
10029TIP3    H230031   0.461   7.171   6.762
10030TIP3   OH230032   7.479   0.047   4.220
10030TIP3    H130033   7.384   0.058   4.213
10030TIP3    H230034   7.494  -0.044   4.192
10031TIP3   OH230035   7.913   1.679   1.641
10031TIP3    H130036   7.940   1.669   1.732
10031TIP3    H230037   7.952   1.604   1.596
10032TIP3   OH230038   8.121   0.879   6.258
10032TIP3    H130039   8.204   0.855   6.218
10032TIP3    H230040   8.144   0.903   6.348
10033TIP3   OH230041   2.096   7.475   6.009
10033TIP3    H130042   2.009   7.494   5.974
10033TIP3    H230043   2.151   7.461   5.932
10034TIP3   OH230044   0.430   6.382   1.435
10034TIP3    H130045   0.422   6.288   1.418
10034TIP3    H230046   0.399   6.423   1.354
10035TIP3   OH230047   4.447   4.993   1.541
10035TIP3    H130048   4.504   5.069   1.531
10035TIP3    H230049   4.507   4.921   1.562
10036TIP3   OH230050   7.175   5.994  -0.048
10036TIP3    H130051   7.211   6.079  -0.073
10036TIP3    H230052   7.216   5.975   0.037
10037TIP3   OH230053   0.141   7.001   0.794
10037TIP3    H130054   0.148   6.925   0.737
10037TIP3    H230055   0.190   6.977   0.873
10038TIP3   OH230056   4.156   0.844   3.219
10038TIP3    H130057   4.102   0.831   3.297
10038TIP3    H230058   4.192   0.757   3.201
10039TIP3   OH230059   2.513   5.814   3.929
10039TIP3    H130060   2.582   5.866   3.889
10039TIP3    H230061   2.549   5.786   4.013
10040TIP3   OH230062   4.974   3.317   3.224
10040TIP3    H130063   5.006   3.268   3.299
10040TIP3    H230064   5.030   3.395   3.220
10041TIP3   OH230065   3.120   3.706   5.046
10041TIP3    H130066   3.043   3.650   5.057
10041TIP3    H230067   3.126   3.721   4.952
10042TIP3   OH230068   4.901   1.750   2.972
10042TIP3    H130069   4.947   1.786   3.049
10042TIP3    H230070   4.908   1.819   2.906
10043TIP3   OH230071   2.759   1.014   6.584
10043TIP3    H130072   2.780   0.923   6.603
10043TIP3    H230073   2.679   1.031   6.634
10044TIP3   OH230074   4.692   6.296   5.862
10044TIP3    H130075   4.745   6.370   5.891
10044TIP3    H230076   4.724   6.275   5.775
10045TIP3   OH230077   1.142   3.039   3.365
10045TIP3    H130078   1.122   3.023   3.273
10045TIP3    H230079   1.237   3.048   3.368
10046TIP3   OH230080   6.221   4.278   4.884
10046TIP3    H130081   6.282   4.209   4.860
10046TIP3    H230082   6.167   4.289   4.806
10047TIP3   OH230083   1.631   6.786   4.114
10047TIP3    H130084   1.623   6.821   4.203
10047TIP3    H230085   1.554   6.819   4.069
10048TIP3   OH230086   0.097   0.471   2.562
10048TIP3    H130087   0.150   0.549   2.545
10048TIP3    H230088   0.006   0.501   2.556
10049TIP3   OH230089   6.247   4.358   4.609
10049TIP3    H130090   6.250   4.440   4.659
10049TIP3    H230091   6.155   4.348   4.586
10050TIP3   OH230092   2.175   5.181   1.305
10050TIP3    H130093   2.156   5.273   1.288
10050TIP3    H230094   2.270   5.172   1.293
10051TIP3   OH230095   7.243   6.033   5.135
10051TIP3    H130096   7.248   6.049   5.229
10051TIP3    H230097   7.250   5.938   5.126
10052TIP3   OH230098   1.621   1.700   2.963
10052TIP3    H130099   1.529   1.720   2.942
10052TIP3    H230100   1.667   1.782   2.946
10053TIP3   OH230101   7.386   3.290   0.743
10053TIP3    H130102   7.321   3.242   0.795
10053TIP3    H230103   7.465   3.235   0.749
10054TIP3   OH230104   4.871   6.133   0.784
10054TIP3    H130105   4.908   6.169   0.864
10054TIP3    H230106   4.942   6.139   0.720
10055TIP3   OH230107   7.321   1.470   5.691
10055TIP3    H130108   7.303   1.550   5.740
10055TIP3    H230109   7.278   1.482   5.607
10056TIP3   OH230110   3.430   4.391   1.840
10056TIP3    H130111   3.507   4.350   1.878
10056TIP3    H230112   3.362   4.382   1.907
10057TIP3   OH230113   1.614   2.384   0.210
10057TIP3    H130114   1.525   2.361   0.184
10057TIP3    H230115   1.668   2.311   0.179
10058TIP3   OH230116   3.394   7.320   3.913
10058TIP3    H130117   3.475   7.272   3.929
10058TIP3    H230118   3.388   7.383   3.985
10059TIP3   OH230119   4.500   6.516   3.604
10059TIP3    H130120   4.460   6.603   3.592
10059TIP3    H230121   4.556   6.505   3.527
10060TIP3   OH230122   4.035   7.178   6.366
10060TIP3    H130123   4.095   7.252   6.354
10060TIP3    H230124   3.948   7.217   6.367
10061TIP3   OH230125   6.239   4.584   6.075
10061TIP3    H130126   6.180   4.531   6.022
10061TIP3    H230127   6.186   4.613   6.148
10062TIP3   OH230128   1.220   3.643   1.720
10062TIP3    H130129   1.146   3.583   1.706
10062TIP3    H230130   1.179   3.729   1.727
10063TIP3   OH230131   5.217   5.030   0.571
10063TIP3    H130132   5.290   5.093   0.574
10063TIP3    H230133   5.144   5.080   0.535
10064TIP3   OH230134   5.477   3.474   2.978
10064TIP3    H130135   5.409   3.411   2.957
10064TIP3    H230136   5.433   3.559   2.976
10065TIP3   OH230137   1.613   6.080   0.896
10065TIP3    H130138   1.566   6.131   0.830
10065TIP3    H230139   1.704   6.109   0.887
10066TIP3   OH230140   1.234   1.844   6.139
10066TIP3    H130141   1.306   1.874   6.195
10066TIP3    H230142   1.247   1.749   6.133
10067TIP3   OH230143   3.343   5.812   3.053
10067TIP3    H130144   3.318   5.729   3.013
10067TIP3    H230145   3.263   5.865   3.048
10068TIP3   OH230146   3.274   4.112   2.453
10068TIP3    H130147   3.213   4.156   2.512
10068TIP3    H230148   3.278   4.022   2.485
10069TIP3   OH230149   3.182   3.594  -0.001
10069TIP3    H130150   3.203   3.503  -0.023
10069TIP3    H230151   3.266   3.639   0.000
10070TIP3   OH230152   6.129   4.657   2.492
10070TIP3    H130153   6.050   4.650   2.438
10070TIP3    H230154   6.139   4.571   2.532
10071TIP3   OH230155   3.080   7.437   0.207
10071TIP3    H130156   2.990   7.451   0.175
10071TIP3    H230157   3.109   7.524   0.235
10072TIP3   OH230158   5.206   7.717   2.163
10072TIP3    H130159   5.221   7.626   2.138
10072TIP3    H230160   5.286   7.744   2.207
10073TIP3   OH230161   4.708   5.777   1.758
10073TIP3    H130162   4.732   5.825   1.837
10073TIP3    H230163   4.651   5.706   1.789
10074TIP3   OH230164   3.955   1.863   3.197
10074TIP3    H130165   3.897   1.924   3.152
10074TIP3    H230166   3.898   1.794   3.229
10075TIP3   OH230167   7.374   7.215   4.710
10075TIP3    H130168   7.370   7.306   4.678
10075TIP3    H230169   7.467   7.201   4.728
10076TIP3   OH230170   7.551   5.843   0.961
10076TIP3    H130171   7.480   5.893   0.922
10076TIP3    H230172   7.571   5.775   0.897
10077TIP3   OH230173   2.706   6.974   0.783
10077TIP3    H130174   2.690   6.944   0.872
10077TIP3    H230175   2.629   7.025   0.760
10078TIP3   OH230176   1.443   6.897   3.357
10078TIP3    H130177   1.538   6.907   3.355
10078TIP3    H230178   1.411   6.964   3.296
10079TIP3   OH230179   0.993   3.142   3.571
10079TIP3    H130180   0.926   3.197   3.530
10079TIP3    H230181   1.047   3.112   3.498
10080TIP3   OH230182   1.964   0.823   6.301
10080TIP3    H130183   1.924   0.835   6.387
10080TIP3    H230184   1.934   0.898   6.250
10081TIP3   OH230185   8.124   3.528   5.251
10081TIP3    H130186   8.092   3.524   5.341
10081TIP3    H230187   8.053   3.572   5.203
10082TIP3   OH230188   3.604   5.037   1.717
10082TIP3    H130189   3.621   4.990   1.635
10082TIP3    H230190   3.683   5.026   1.768
10083TIP3   OH230191   0.803   7.443   4.429
10083TIP3    H130192   0.733   7.455   4.364
10083TIP3    H230193   0.834   7.354   4.416
10084TIP3   OH230194   5.116   5.354   4.292
10084TIP3    H130195   5.112   5.326   4.384
10084TIP3    H230196   5.105   5.449   4.296
10085TIP3   OH230197   3.267   3.732   5.293
10085TIP3    H130198   3.249   3.716   5.201
10085TIP3    H230199   3.181   3.742   5.333
10086TIP3   OH230200   1.786   3.036   1.119
10086TIP3    H130201   1.841   3.025   1.041
10086TIP3    H230202   1.748   3.123   1.110
10087TIP3   OH230203   4.788   6.842   5.330
10087TIP3    H130204   4.842   6.859   5.253
10087TIP3    H230205   4.730   6.917   5.337
10088TIP3   OH230206   6.114   5.722   5.773
10088TIP3    H130207   6.143   5.656   5.835
10088TIP3    H230208   6.054   5.777   5.823
10089TIP3   OH230209   5.070   1.647   2.190
10089TIP3    H130210   5.034   1.559   2.199
10089TIP3    H230211   4.993   1.705   2.195
10090TIP3   OH230212   3.383   3.782   0.303
10090TIP3    H130213   3.307   3.802   0.248
10090TIP3    H230214   3.346   3.738   0.379
10091TIP3   OH230215   5.365   6.794   4.920
10091TIP3    H130216   5.364   6.743   4.840
10091TIP3    H230217   5.317   6.874   4.899
10092TIP3   OH230218   5.026   5.073   0.759
10092TIP3    H130219   4.948   5.088   0.706
10092TIP3    H230220   5.092   5.040   0.698
10093TIP3   OH230221   1.967   1.486   6.772
10093TIP3    H130222   1.936   1.557   6.717
10093TIP3    H230223   2.047   1.456   6.729
10094TIP3   OH230224   4.007   6.999   0.546
10094TIP3    H130225   4.059   6.934   0.500
10094TIP3    H230226   4.033   6.990   0.638
10095TIP3   OH230227   2.646   2.819   0.660
10095TIP3    H130228   2.655   2.914   0.653
10095TIP3    H230229   2.569   2.806   0.716
10096TIP3   OH230230   1.303   5.140   4.347
10096TIP3    H130231   1.273   5.181   4.428
10096TIP3    H230232   1.361   5.204   4.307
10097TIP3   OH230233   4.370   1.711   0.903
10097TIP3    H130234   4.417   1.665   0.973
10097TIP3    H230235   4.440   1.748   0.849
10098TIP3   OH230236   2.173   5.754   6.107
10098TIP3    H130237   2.210   5.731   6.021
10098TIP3    H230238   2.249   5.781   6.159
10099TIP3   OH230239   0.222   0.208   0.068
10099TIP3    H130240   0.275   0.133   0.042
10099TIP3    H230241   0.236   0.272  -0.003
10100TIP3   OH230242   2.421   3.301   2.299
10100TIP3    H130243   2.433   3.317   2.206
10100TIP3    H230244   2.371   3.220   2.304
10101TIP3   OH230245   4.095   5.155   5.820
10101TIP3    H130246   4.106   5.242   5.783
10101TIP3    H230247   4.149   5.154   5.898
10102TIP3   OH230248   1.838   6.945   3.617
10102TIP3    H130249   1.800   6.861   3.644
10102TIP3    H230250   1.882   6.926   3.534
10103TIP3   OH230251   4.400   5.897   5.076
10103TIP3    H130252   4.382   5.973   5.131
10103TIP3    H230253   4.370   5.822   5.128
10104TIP3   OH230254   1.507   7.532   5.036
10104TIP3    H130255   1.548   7.590   4.971
10104TIP3    H230256   1.557   7.547   5.116
10105TIP3   OH230257   3.605   5.396   4.464
10105TIP3    H130258   3.663   5.376   4.538
10105TIP3    H230259   3.647   5.470   4.420
10106TIP3   OH230260   8.043   6.459   0.591
10106TIP3    H130261   8.079   6.388   0.644
10106TIP3    H230262   8.031   6.420   0.504
10107TIP3   OH230263   4.009   0.583   1.447
10107TIP3    H130264   4.076   0.637   1.405
10107TIP3    H230265   3.946   0.565   1.377
10108TIP3   OH230266   1.341   2.332   5.442
10108TIP3    H130267   1.317   2.404   5.500
10108TIP3    H230268   1.313   2.253   5.489
10109TIP3   OH230269   6.602   2.216   4.637
10109TIP3    H130270   6.647   2.210   4.721
10109TIP3    H230271   6.647   2.285   4.590
10110TIP3   OH230272   7.861   2.960   5.204
10110TIP3    H130273   7.816   2.959   5.119
10110TIP3    H230274   7.941   2.910   5.189
10111TIP3   OH230275   7.402   1.310   4.036
10111TIP3    H130276   7.366   1.247   4.099
10111TIP3    H230277   7.357   1.291   3.954
10112TIP3   OH230278   2.231   2.330   1.184
10112TIP3    H130279   2.214   2.257   1.243
10112TIP3    H230280   2.326   2.331   1.173
10113TIP3   OH230281   4.030   1.504   0.461
10113TIP3    H130282   4.014   1.410   0.458
10113TIP3    H230283   4.122   1.514   0.434
10114TIP3   OH230284   5.684   6.292   6.024
10114TIP3    H130285   5.663   6.254   5.939
10114TIP3    H230286   5.768   6.253   6.048
10115TIP3   OH230287   6.579   7.267   5.172
10115TIP3    H130288   6.496   7.232   5.139
10115TIP3    H230289   6.606   7.331   5.106
10116TIP3   OH230290   7.880   3.619   5.085
10116TIP3    H130291   7.955   3.609   5.025
10116TIP3    H230292   7.844   3.531   5.092
10117TIP3   OH230293   1.822   6.691   3.109
10117TIP3    H130294   1.880   6.625   3.072
10117TIP3    H230295   1.827   6.765   3.049
10118TIP3   OH230296   3.706   0.615   3.890
10118TIP3    H130297   3.658   0.583   3.966
10118TIP3    H230298   3.708   0.710   3.901
10119TIP3   OH230299   2.285   2.020   1.325
10119TIP3    H130300   2.249   1.996   1.410
10119TIP3    H230301   2.346   1.950   1.305
10120TIP3   OH230302   3.129   3.412   6.641
10120TIP3    H130303   3.039   3.410   6.675
10120TIP3    H230304   3.164   3.326   6.663
10121TIP3   OH230305   2.550   4.757   0.063
10121TIP3    H130306   2.609   4.821   0.025
10121TIP3    H230307   2.466   4.803   0.071
10122TIP3   OH230308   3.029   3.256   3.157
10122TIP3    H130309   2.976   3.185   3.123
10122TIP3    H230310   3.110   3.213   3.186
10123TIP3   OH230311   5.674   1.604   5.678
10123TIP3    H130312   5.593   1.639   5.638
10123TIP3    H230313   5.687   1.520   5.635
10124TIP3   OH230314   8.243   1.588  -0.045
10124TIP3    H130315   8.192   1.524  -0.095
10124TIP3    H230316   8.218   1.573   0.046
10125TIP3   OH230317   5.080   2.814   6.769
10125TIP3    H130318   4.991   2.828   6.800
10125TIP3    H230319   5.082   2.855   6.682
10126TIP3   OH230320   7.044   3.594   5.755
10126TIP3    H130321   7.043   3.680   5.713
10126TIP3    H230322   7.027   3.612   5.847
10127TIP3   OH230323   7.668   4.793   2.894
10127TIP3    H130324   7.674   4.883   2.862
10127TIP3    H230325   7.579   4.787   2.929
10128TIP3   OH230326   1.322   1.866   0.795
10128TIP3    H130327   1.276   1.905   0.870
10128TIP3    H230328   1.331   1.937   0.732
10129TIP3   OH230329   5.841   0.099   4.254
10129TIP3    H130330   5.852   0.118   4.161
10129TIP3    H230331   5.766   0.152   4.281
10130TIP3   OH230332   2.996   6.074   6.106
10130TIP3    H130333   3.087   6.105   6.102
10130TIP3    H230334   2.955   6.111   6.028
10131TIP3   OH230335   3.992   4.375   6.283
10131TIP3    H130336   4.059   4.372   6.351
10131TIP3    H230337   3.909   4.374   6.331
10132TIP3   OH230338   7.590   5.541   0.061
10132TIP3    H130339   7.627   5.454   0.049
10132TIP3    H230340   7.625   5.571   0.146
10133TIP3   OH230341   6.633   3.981   4.112
10133TIP3    H130342   6.652   3.899   4.067
10133TIP3    H230343   6.690   3.981   4.189
10134TIP3   OH230344   7.474   5.194   6.822
10134TIP3    H130345   7.541   5.137   6.860
10134TIP3    H230346   7.432   5.140   6.755
10135TIP3   OH230347   6.141   6.280   4.574
10135TIP3    H130348   6.204   6.224   4.620
10135TIP3    H230349   6.175   6.368   4.585
10136TIP3   OH230350   0.897   7.269   3.414
10136TIP3    H130351   0.976   7.287   3.364
10136TIP3    H230352   0.903   7.175   3.435
10137TIP3   OH230353   2.100   3.663   5.501
10137TIP3    H130354   2.087   3.680   5.407
10137TIP3    H230355   2.189   3.692   5.519
10138TIP3   OH230356   4.453   6.816   0.542
10138TIP3    H130357   4.365   6.781   0.529
10138TIP3    H230358   4.438   6.909   0.562
10139TIP3   OH230359   8.197   7.704   0.361
10139TIP3    H130360   8.174   7.619   0.325
10139TIP3    H230361   8.203   7.762   0.285
10140TIP3   OH230362   2.004   0.834   3.094
10140TIP3    H130363   2.077   0.773   3.099
10140TIP3    H230364   1.926   0.778   3.094
10141TIP3   OH230365   2.819   7.596   4.173
10141TIP3    H130366   2.914   7.606   4.160
10141TIP3    H230367   2.807   7.606   4.268
10142TIP3   OH230368   5.818   5.144   0.253
10142TIP3    H130369   5.737   5.145   0.202
10142TIP3    H230370   5.887   5.155   0.188
10143TIP3   OH230371   1.830   5.913   5.858
10143TIP3    H130372   1.774   5.951   5.791
10143TIP3    H230373   1.769   5.883   5.926
10144TIP3   OH230374   7.582   4.303   3.273
10144TIP3    H130375   7.545   4.368   3.333
10144TIP3    H230376   7.636   4.247   3.329
10145TIP3   OH230377   0.888   6.973   3.817
10145TIP3    H130378   0.866   6.881   3.800
10145TIP3    H230379   0.928   7.004   3.735
10146TIP3   OH230380   5.412   4.313   0.395
10146TIP3    H130381   5.434   4.241   0.454
10146TIP3    H230382   5.382   4.383   0.452
10147TIP3   OH230383   7.144   4.217   3.151
10147TIP3    H130384   7.156   4.312   3.145
10147TIP3    H230385   7.074   4.206   3.216
10148TIP3   OH230386   0.851   3.900   0.084
10148TIP3    H130387   0.896   3.962   0.142
10148TIP3    H230388   0.906   3.896   0.006
10149TIP3   OH230389   0.409   1.827   4.215
10149TIP3    H130390   0.379   1.737   4.226
10149TIP3    H230391   0.467   1.824   4.139
10150TIP3   OH230392   3.622   3.239   5.605
10150TIP3    H130393   3.717   3.224   5.603
10150TIP3    H230394   3.592   3.210   5.519
10151TIP3   OH230395   7.138   6.204   2.227
10151TIP3    H130396   7.215   6.248   2.264
10151TIP3    H230397   7.096   6.271   2.173
10152TIP3   OH230398   4.338   4.997   3.619
10152TIP3    H130399   4.391   5.076   3.613
10152TIP3    H230400   4.281   5.012   3.695
10153TIP3   OH230401   6.262   3.410   5.869
10153TIP3    H130402   6.326   3.467   5.827
10153TIP3    H230403   6.207   3.469   5.920
10154TIP3   OH230404   1.657   4.037   2.079
10154TIP3    H130405   1.739   4.078   2.054
10154TIP3    H230406   1.664   4.023   2.174
10155TIP3   OH230407   5.819   6.833   5.967
10155TIP3    H130408   5.744   6.784   5.934
10155TIP3    H230409   5.894   6.798   5.919
10156TIP3   OH230410   2.637   1.040   3.573
10156TIP3    H130411   2.576   1.011   3.505
10156TIP3    H230412   2.582   1.091   3.633
10157TIP3   OH230413   4.902   3.494   6.210
10157TIP3    H130414   4.926   3.545   6.133
10157TIP3    H230415   4.862   3.415   6.175
10158TIP3   OH230416   3.760   5.638   0.114
10158TIP3    H130417   3.708   5.697   0.169
10158TIP3    H230418   3.843   5.629   0.160
10159TIP3   OH230419   6.257   2.345   2.958
10159TIP3    H130420   6.333   2.314   2.909
10159TIP3    H230421   6.273   2.317   3.048
10160TIP3   OH230422   4.947   7.668   2.813
10160TIP3    H130423   4.867   7.720   2.802
10160TIP3    H230424   5.015   7.722   2.773
10161TIP3   OH230425   8.229   2.909   2.154
10161TIP3    H130426   8.168   2.836   2.146
10161TIP3    H230427   8.228   2.950   2.068
10162TIP3   OH230428   2.415   6.808   1.452
10162TIP3    H130429   2.368   6.791   1.533
10162TIP3    H230430   2.498   6.848   1.479
10163TIP3   OH230431   3.549   4.751   0.889
10163TIP3    H130432   3.534   4.765   0.982
10163TIP3    H230433   3.463   4.726   0.854
10164TIP3   OH230434   2.729   1.643   6.611
10164TIP3    H130435   2.764   1.695   6.683
10164TIP3    H230436   2.742   1.697   6.533
10165TIP3   OH230437   2.517   4.383   1.637
10165TIP3    H130438   2.443   4.441   1.653
10165TIP3    H230439   2.524   4.378   1.542
10166TIP3   OH230440   2.313   2.785   4.417
10166TIP3    H130441   2.365   2.790   4.497
10166TIP3    H230442   2.223   2.792   4.447
10167TIP3   OH230443   2.736   1.263   2.756
10167TIP3    H130444   2.714   1.170   2.759
10167TIP3    H230445   2.828   1.267   2.781
10168TIP3   OH230446   0.914   7.526   5.887
10168TIP3    H130447   1.000   7.567   5.884
10168TIP3    H230448   0.894   7.518   5.981
10169TIP3   OH230449   7.926   5.946   3.097
10169TIP3    H130450   7.922   5.909   3.185
10169TIP3    H230451   7.884   6.031   3.104
10170TIP3   OH230452   7.010   2.262   4.889
10170TIP3    H130453   7.094   2.220   4.904
10170TIP3    H230454   6.999   2.263   4.794
10171TIP3   OH230455   3.609   5.486   6.388
10171TIP3    H130456   3.593   5.534   6.306
10171TIP3    H230457   3.580   5.397   6.370
10172TIP3   OH230458   2.062   2.849   1.850
10172TIP3    H130459   2.022   2.925   1.808
10172TIP3    H230460   1.990   2.806   1.895
10173TIP3   OH230461   7.019   7.634   5.608
10173TIP3    H130462   7.002   7.720   5.571
10173TIP3    H230463   7.002   7.644   5.702
10174TIP3   OH230464   8.166   0.757   1.955
10174TIP3    H130465   8.166   0.671   1.996
10174TIP3    H230466   8.257   0.772   1.928
10175TIP3   OH230467   4.102   2.478   3.393
10175TIP3    H130468   4.138   2.558   3.431
10175TIP3    H230469   4.070   2.505   3.307
10176TIP3   OH230470   8.182   5.178   2.722
10176TIP3    H130471   8.209   5.115   2.654
10176TIP3    H230472   8.255   5.181   2.783
10177TIP3   OH230473   7.295   2.035   2.212
10177TIP3    H130474   7.238   1.967   2.175
10177TIP3    H230475   7.374   2.032   2.158
10178TIP3   OH230476   4.467   3.864   4.137
10178TIP3    H130477   4.413   3.830   4.065
10178TIP3    H230478   4.546   3.811   4.134
10179TIP3   OH230479   2.243   1.164   1.791
10179TIP3    H130480   2.192   1.098   1.744
10179TIP3    H230481   2.188   1.188   1.865
10180TIP3   OH230482   5.888   6.270   2.874
10180TIP3    H130483   5.881   6.328   2.799
10180TIP3    H230484   5.974   6.289   2.911
10181TIP3   OH230485   6.639   3.152   3.380
10181TIP3    H130486   6.612   3.083   3.440
10181TIP3    H230487   6.565   3.213   3.378
10182TIP3   OH230488   1.098   2.671   4.084
10182TIP3    H130489   1.072   2.583   4.113
10182TIP3    H230490   1.023   2.703   4.035
10183TIP3   OH230491   4.437   2.044   5.269
10183TIP3    H130492   4.518   2.088   5.295
10183TIP3    H230493   4.367   2.096   5.308
10184TIP3   OH230494   8.240   0.556   0.989
10184TIP3    H130495   8.191   0.624   0.944
10184TIP3    H230496   8.182   0.527   1.059
10185TIP3   OH230497   4.332   1.058   2.721
10185TIP3    H130498   4.307   1.047   2.812
10185TIP3    H230499   4.293   0.983   2.676
10186TIP3   OH230500   4.186   3.071   4.319
10186TIP3    H130501   4.199   3.122   4.240
10186TIP3    H230502   4.136   2.995   4.291
10187TIP3   OH230503   0.083   7.506   1.359
10187TIP3    H130504   0.146   7.547   1.418
10187TIP3    H230505   0.025   7.456   1.417
10188TIP3   OH230506   2.492   4.312   4.066
10188TIP3    H130507   2.583   4.343   4.072
10188TIP3    H230508   2.439   4.391   4.078
10189TIP3   OH230509   3.351   3.568   0.805
10189TIP3    H130510   3.368   3.613   0.887
10189TIP3    H230511   3.314   3.483   0.831
10190TIP3   OH230512   3.143   3.058   3.524
10190TIP3    H130513   3.085   2.996   3.566
10190TIP3    H230514   3.157   3.022   3.436
10191TIP3   OH230515   7.127   2.876   0.468
10191TIP3    H130516   7.133   2.967   0.439
10191TIP3    H230517   7.209   2.860   0.514
10192TIP3   OH230518   5.295   1.669   4.332
10192TIP3    H130519   5.275   1.588   4.286
10192TIP3    H230520   5.285   1.737   4.265
10193TIP3   OH230521   0.871   3.116   5.318
10193TIP3    H130522   0.943   3.055   5.300
10193TIP3    H230523   0.829   3.080   5.396
10194TIP3   OH230524   6.545   3.194   1.806
10194TIP3    H130525   6.485   3.130   1.844
10194TIP3    H230526   6.506   3.216   1.721
10195TIP3   OH230527   6.423   1.868   0.203
10195TIP3    H130528   6.373   1.945   0.234
10195TIP3    H230529   6.435   1.815   0.282
10196TIP3   OH230530   0.656   3.720   2.969
10196TIP3    H130531   0.657   3.728   3.065
10196TIP3    H230532   0.665   3.810   2.938
10197TIP3   OH230533   4.208   0.924   0.637
10197TIP3    H130534   4.227   0.831   0.645
10197TIP3    H230535   4.133   0.929   0.578
10198TIP3   OH230536   5.488   2.978   5.561
10198TIP3    H130537   5.457   3.036   5.492
10198TIP3    H230538   5.492   2.892   5.520
10199TIP3   OH230539   8.030   2.581   4.001
10199TIP3    H130540   8.089   2.644   3.959
10199TIP3    H230541   8.081   2.501   4.009
10200TIP3   OH230542   7.282   5.861   3.509
10200TIP3    H130543   7.214   5.798   3.533
10200TIP3    H230544   7.350   5.808   3.467
10201TIP3   OH230545   3.455   3.427   0.609
10201TIP3    H130546   3.426   3.455   0.696
10201TIP3    H230547   3.466   3.509   0.560
10202TIP3   OH230548   0.292   3.376   6.739
10202TIP3    H130549   0.299   3.454   6.794
10202TIP3    H230550   0.267   3.409   6.653
10203TIP3   OH230551   7.361   5.231   1.826
10203TIP3    H130552   7.266   5.236   1.817
10203TIP3    H230553   7.392   5.317   1.798
10204TIP3   OH230554   7.433   2.403   4.679
10204TIP3    H130555   7.414   2.389   4.586
10204TIP3    H230556   7.355   2.446   4.713
10205TIP3   OH230557   0.323   6.178   4.729
10205TIP3    H130558   0.271   6.108   4.689
10205TIP3    H230559   0.293   6.181   4.820
10206TIP3   OH230560   5.975   6.474   6.231
10206TIP3    H130561   5.913   6.402   6.216
10206TIP3    H230562   6.028   6.445   6.305
10207TIP3   OH230563   1.644   0.499   3.775
10207TIP3    H130564   1.651   0.558   3.851
10207TIP3    H230565   1.704   0.428   3.795
10208TIP3   OH230566   4.968   0.495   2.656
10208TIP3    H130567   5.045   0.551   2.666
10208TIP3    H230568   4.893   0.554   2.669
10209TIP3   OH230569   3.484   4.334   1.316
10209TIP3    H130570   3.525   4.363   1.234
10209TIP3    H230571   3.405   4.288   1.288
10210TIP3   OH230572   0.027   5.488   4.510
10210TIP3    H130573   0.001   5.399   4.533
10210TIP3    H230574  -0.023   5.508   4.431
10211TIP3   OH230575   1.804   2.234   4.467
10211TIP3    H130576   1.843   2.244   4.554
10211TIP3    H230577   1.710   2.234   4.483
10212TIP3   OH230578   4.989   5.277   1.694
10212TIP3    H130579   4.974   5.183   1.699
10212TIP3    H230580   4.904   5.315   1.674
10213TIP3   OH230581   1.219   1.087   0.627
10213TIP3    H130582   1.137   1.115   0.586
10213TIP3    H230583   1.227   1.143   0.704
10214TIP3   OH230584   4.451   7.636   0.601
10214TIP3    H130585   4.383   7.694   0.565
10214TIP3    H230586   4.502   7.608   0.525
10215TIP3   OH230587   5.408   1.322   0.046
10215TIP3    H130588   5.387   1.371   0.125
10215TIP3    H230589   5.438   1.388  -0.016
10216TIP3   OH230590   7.705   7.093   2.641
10216TIP3    H130591   7.799   7.106   2.626
10216TIP3    H230592   7.674   7.050   2.561
10217TIP3   OH230593   4.446   1.453   5.201
10217TIP3    H130594   4.493   1.486   5.124
10217TIP3    H230595   4.497   1.486   5.275
10218TIP3   OH230596   3.958   1.579   4.131
10218TIP3    H130597   4.052   1.560   4.131
10218TIP3    H230598   3.951   1.668   4.166
10219TIP3   OH230599   0.687   0.595   2.385
10219TIP3    H130600   0.734   0.547   2.452
10219TIP3    H230601   0.639   0.663   2.432
10220TIP3   OH230602   6.818   6.084   1.758
10220TIP3    H130603   6.740   6.135   1.780
10220TIP3    H230604   6.888   6.125   1.810
10221TIP3   OH230605   7.408   7.159   1.643
10221TIP3    H130606   7.343   7.129   1.707
10221TIP3    H230607   7.470   7.212   1.694
10222TIP3   OH230608   1.895   1.137   0.077
10222TIP3    H130609   1.951   1.215   0.076
10222TIP3    H230610   1.856   1.134  -0.010
10223TIP3   OH230611   3.393   5.846   0.122
10223TIP3    H130612   3.438   5.854   0.206
10223TIP3    H230613   3.349   5.930   0.111
10224TIP3   OH230614   4.514   2.010   3.667
10224TIP3    H130615   4.429   1.968   3.678
10224TIP3    H230616   4.495   2.104   3.670
10225TIP3   OH230617   7.242   6.785   4.632
10225TIP3    H130618   7.328   6.828   4.629
10225TIP3    H230619   7.258   6.697   4.599
10226TIP3   OH230620   7.272   4.983   5.481
10226TIP3    H130621   7.280   5.025   5.567
10226TIP3    H230622   7.310   5.047   5.420
10227TIP3   OH230623   0.220   4.707   5.896
10227TIP3    H130624   0.292   4.770   5.904
10227TIP3    H230625   0.260   4.629   5.858
10228TIP3   OH230626   4.155   4.587   2.446
10228TIP3    H130627   4.169   4.529   2.372
10228TIP3    H230628   4.060   4.595   2.452
10229TIP3   OH230629   4.216   4.275   2.512
10229TIP3    H130630   4.198   4.330   2.437
10229TIP3    H230631   4.279   4.210   2.481
10230TIP3   OH230632   3.806   4.726   1.656
10230TIP3    H130633   3.743   4.674   1.706
10230TIP3    H230634   3.826   4.800   1.713
10231TIP3   OH230635   3.626   2.316   5.888
10231TIP3    H130636   3.639   2.398   5.936
10231TIP3    H230637   3.670   2.249   5.942
10232TIP3   OH230638   8.279   6.666   0.408
10232TIP3    H130639   8.237   6.590   0.366
10232TIP3    H230640   8.222   6.687   0.482
10233TIP3   OH230641   5.511   4.593   5.460
10233TIP3    H130642   5.594   4.579   5.505
10233TIP3    H230643   5.509   4.688   5.442
10234TIP3   OH230644   5.950   2.993   4.905
10234TIP3    H130645   6.023   3.033   4.953
10234TIP3    H230646   5.900   2.946   4.972
10235TIP3   OH230647   2.107   3.881   1.272
10235TIP3    H130648   2.124   3.934   1.194
10235TIP3    H230649   2.111   3.791   1.242
10236TIP3   OH230650   7.604   7.666   3.678
10236TIP3    H130651   7.540   7.641   3.611
10236TIP3    H230652   7.688   7.632   3.645
10237TIP3   OH230653   1.730   1.812   5.297
10237TIP3    H130654   1.715   1.739   5.238
10237TIP3    H230655   1.777   1.774   5.372
10238TIP3   OH230656   1.513   2.066   1.453
10238TIP3    H130657   1.536   2.125   1.381
10238TIP3    H230658   1.510   2.122   1.531
10239TIP3   OH230659   7.734   0.299   1.543
10239TIP3    H130660   7.775   0.317   1.458
10239TIP3    H230661   7.746   0.380   1.593
10240TIP3   OH230662   8.097   5.755   4.923
10240TIP3    H130663   8.005   5.749   4.896
10240TIP3    H230664   8.146   5.725   4.847
10241TIP3   OH230665   0.841   7.720   3.985
10241TIP3    H130666   0.789   7.653   3.940
10241TIP3    H230667   0.838   7.696   4.077
10242TIP3   OH230668   2.323   0.202   2.246
10242TIP3    H130669   2.271   0.154   2.310
10242TIP3    H230670   2.386   0.252   2.299
10243TIP3   OH230671   4.493   0.953   1.366
10243TIP3    H130672   4.412   1.004   1.367
10243TIP3    H230673   4.486   0.896   1.442
10244TIP3   OH230674   6.589   1.564   3.742
10244TIP3    H130675   6.500   1.530   3.731
10244TIP3    H230676   6.607   1.608   3.659
10245TIP3   OH230677   2.406   3.844   4.714
10245TIP3    H130678   2.499   3.869   4.708
10245TIP3    H230679   2.376   3.841   4.624
10246TIP3   OH230680   5.240   5.405   3.817
10246TIP3    H130681   5.319   5.458   3.826
10246TIP3    H230682   5.269   5.321   3.782
10247TIP3   OH230683   6.114   2.234   2.501
10247TIP3    H130684   6.070   2.297   2.560
10247TIP3    H230685   6.135   2.286   2.423
10248TIP3   OH230686   4.754   2.584   4.036
10248TIP3    H130687   4.816   2.517   4.006
10248TIP3    H230688   4.772   2.660   3.981
10249TIP3   OH230689   6.659   7.730   4.369
10249TIP3    H130690   6.652   7.719   4.274
10249TIP3    H230691   6.673   7.823   4.381
10250TIP3   OH230692   1.098   7.133   4.463
10250TIP3    H130693   1.137   7.087   4.389
10250TIP3    H230694   1.030   7.074   4.496
10251TIP3   OH230695   5.865   4.434   6.774
10251TIP3    H130696   5.798   4.501   6.757
10251TIP3    H230697   5.825   4.352   6.744
10252TIP3   OH230698   2.052   1.248   4.931
10252TIP3    H130699   2.053   1.153   4.941
10252TIP3    H230700   2.047   1.281   5.021
10253TIP3   OH230701   0.857   0.163   0.472
10253TIP3    H130702   0.871   0.251   0.505
10253TIP3    H230703   0.923   0.152   0.404
10254TIP3   OH230704   5.703   5.050   6.596
10254TIP3    H130705   5.642   5.062   6.523
10254TIP3    H230706   5.751   5.132   6.601
10255TIP3   OH230707   2.259   3.869   0.695
10255TIP3    H130708   2.194   3.880   0.626
10255TIP3    H230709   2.296   3.957   0.706
10256TIP3   OH230710   1.483   1.130   5.108
10256TIP3    H130711   1.407   1.097   5.156
10256TIP3    H230712   1.462   1.115   5.016
10257TIP3   OH230713   2.228   4.841   1.463
10257TIP3    H130714   2.302   4.900   1.450
10257TIP3    H230715   2.231   4.818   1.556
10258TIP3   OH230716   4.700   7.135   0.535
10258TIP3    H130717   4.721   7.050   0.575
10258TIP3    H230718   4.627   7.117   0.477
10259TIP3   OH230719   1.409   4.761   2.780
10259TIP3    H130720   1.315   4.774   2.796
10259TIP3    H230721   1.434   4.837   2.726
10260TIP3   OH230722   4.750   6.141   4.445
10260TIP3    H130723   4.750   6.213   4.509
10260TIP3    H230724   4.839   6.107   4.448
10261TIP3   OH230725   5.907   2.709   2.490
10261TIP3    H130726   5.932   2.780   2.549
10261TIP3    H230727   5.859   2.648   2.545
10262TIP3   OH230728   6.281   0.173   2.283
10262TIP3    H130729   6.337   0.118   2.336
10262TIP3    H230730   6.312   0.161   2.193
10263TIP3   OH230731   6.825   5.898   1.235
10263TIP3    H130732   6.812   5.904   1.330
10263TIP3    H230733   6.774   5.822   1.209
10264TIP3   OH230734   0.334   3.916   3.972
10264TIP3    H130735   0.319   3.989   4.032
10264TIP3    H230736   0.417   3.936   3.929
10265TIP3   OH230737   5.206   7.474   3.799
10265TIP3    H130738   5.207   7.487   3.705
10265TIP3    H230739   5.227   7.561   3.835
10266TIP3   OH230740   7.713   1.143   3.619
10266TIP3    H130741   7.675   1.149   3.532
10266TIP3    H230742   7.649   1.184   3.677
10267TIP3   OH230743   6.216   5.028   1.143
10267TIP3    H130744   6.267   4.973   1.084
10267TIP3    H230745   6.136   5.048   1.095
10268TIP3   OH230746   2.025   5.398   0.077
10268TIP3    H130747   2.040   5.491   0.061
10268TIP3    H230748   2.071   5.353   0.007
10269TIP3   OH230749   8.065   1.312   4.446
10269TIP3    H130750   8.156   1.282   4.435
10269TIP3    H230751   8.032   1.321   4.356
10270TIP3   OH230752   4.173   3.942   2.330
10270TIP3    H130753   4.196   3.849   2.328
10270TIP3    H230754   4.120   3.956   2.251
10271TIP3   OH230755   0.091   5.306   0.073
10271TIP3    H130756   0.152   5.349   0.133
10271TIP3    H230757   0.136   5.307  -0.012
10272TIP3   OH230758   2.589   3.799   3.824
10272TIP3    H130759   2.505   3.778   3.783
10272TIP3    H230760   2.578   3.889   3.855
10273TIP3   OH230761   0.623   1.882   2.020
10273TIP3    H130762   0.559   1.925   1.963
10273TIP3    H230763   0.646   1.948   2.085
10274TIP3   OH230764  -0.005   1.351   2.704
10274TIP3    H130765  -0.058   1.405   2.762
10274TIP3    H230766  -0.057   1.271   2.691
10275TIP3   OH230767   1.185   4.035   3.004
10275TIP3    H130768   1.129   4.103   2.968
10275TIP3    H230769   1.258   4.082   3.045
10276TIP3   OH230770   4.999   4.437   4.899
10276TIP3    H130771   5.087   4.459   4.869
10276TIP3    H230772   4.978   4.355   4.855
10277TIP3   OH230773   2.199   2.666   5.604
10277TIP3    H130774   2.222   2.617   5.525
10277TIP3    H230775   2.206   2.758   5.578
10278TIP3   OH230776   2.429   7.374   0.233
10278TIP3    H130777   2.342   7.414   0.238
10278TIP3    H230778   2.433   7.315   0.308
10279TIP3   OH230779   4.051   2.761   0.199
10279TIP3    H130780   4.046   2.846   0.156
10279TIP3    H230781   3.961   2.728   0.196
10280TIP3   OH230782   4.371   4.959   5.731
10280TIP3    H130783   4.301   4.987   5.671
10280TIP3    H230784   4.339   4.878   5.769
10281TIP3   OH230785   2.132   7.604   3.259
10281TIP3    H130786   2.110   7.687   3.216
10281TIP3    H230787   2.197   7.629   3.325
10282TIP3   OH230788   1.827   0.888   6.542
10282TIP3    H130789   1.734   0.904   6.522
10282TIP3    H230790   1.849   0.954   6.607
10283TIP3   OH230791   5.658   1.748   4.674
10283TIP3    H130792   5.695   1.798   4.746
10283TIP3    H230793   5.586   1.801   4.641
10284TIP3   OH230794   7.022   2.155   1.625
10284TIP3    H130795   7.112   2.177   1.603
10284TIP3    H230796   6.987   2.235   1.665
10285TIP3   OH230797   7.781   0.849   5.628
10285TIP3    H130798   7.786   0.916   5.696
10285TIP3    H230799   7.851   0.788   5.649
10286TIP3   OH230800   6.082   2.143   5.719
10286TIP3    H130801   6.009   2.084   5.700
10286TIP3    H230802   6.056   2.227   5.682
10287TIP3   OH230803   0.657   5.981   2.062
10287TIP3    H130804   0.562   5.996   2.057
10287TIP3    H230805   0.695   6.069   2.064
10288TIP3   OH230806   0.677   1.778   0.054
10288TIP3    H130807   0.721   1.824   0.125
10288TIP3    H230808   0.635   1.847   0.003
10289TIP3   OH230809   5.244   7.520   6.018
10289TIP3    H130810   5.290   7.517   5.934
10289TIP3    H230811   5.207   7.608   6.022
10290TIP3   OH230812   0.422   3.948   0.824
10290TIP3    H130813   0.378   3.863   0.834
10290TIP3    H230814   0.470   3.960   0.905
10291TIP3   OH230815   2.067   2.035   1.170
10291TIP3    H130816   2.150   2.013   1.214
10291TIP3    H230817   2.094   2.066   1.084
10292TIP3   OH230818   6.314   1.151   3.782
10292TIP3    H130819   6.230   1.115   3.752
10292TIP3    H230820   6.314   1.241   3.749
10293TIP3   OH230821   3.379   0.092   3.914
10293TIP3    H130822   3.298   0.091   3.863
10293TIP3    H230823   3.365   0.026   3.982
10294TIP3   OH230824   0.637   2.795   4.373
10294TIP3    H130825   0.616   2.868   4.316
10294TIP3    H230826   0.563   2.790   4.434
10295TIP3   OH230827   4.949   0.624   6.329
10295TIP3    H130828   5.021   0.598   6.272
10295TIP3    H230829   4.915   0.542   6.364
10296TIP3   OH230830   2.965   2.862   5.640
10296TIP3    H130831   2.956   2.956   5.658
10296TIP3    H230832   3.008   2.858   5.555
10297TIP3   OH230833   5.629   3.202   2.189
10297TIP3    H130834   5.670   3.116   2.175
10297TIP3    H230835   5.570   3.187   2.263
10298TIP3   OH230836   3.931   2.965   5.028
10298TIP3    H130837   3.939   3.058   5.005
10298TIP3    H230838   4.019   2.930   5.020
10299TIP3   OH230839   4.723   4.887   1.094
10299TIP3    H130840   4.724   4.914   1.186
10299TIP3    H230841   4.740   4.968   1.045
10300TIP3   OH230842   2.352   1.964   4.518
10300TIP3    H130843   2.280   2.026   4.523
10300TIP3    H230844   2.428   2.011   4.553
10301TIP3   OH230845   3.760   7.328   5.644
10301TIP3    H130846   3.704   7.251   5.654
10301TIP3    H230847   3.729   7.369   5.563
10302TIP3   OH230848   7.625   2.248   2.705
10302TIP3    H130849   7.718   2.263   2.687
10302TIP3    H230850   7.588   2.219   2.622
10303TIP3   OH230851   4.956   0.085   4.518
10303TIP3    H130852   4.924   0.168   4.483
10303TIP3    H230853   4.883   0.049   4.568
10304TIP3   OH230854   2.312   3.821   3.742
10304TIP3    H130855   2.315   3.914   3.719
10304TIP3    H230856   2.254   3.782   3.676
10305TIP3   OH230857   3.641   7.236   2.078
10305TIP3    H130858   3.673   7.210   1.992
10305TIP3    H230859   3.605   7.156   2.116
10306TIP3   OH230860   0.914   6.871   0.962
10306TIP3    H130861   0.837   6.872   1.019
10306TIP3    H230862   0.926   6.962   0.936
10307TIP3   OH230863   4.884   4.115   0.278
10307TIP3    H130864   4.827   4.084   0.208
10307TIP3    H230865   4.833   4.184   0.321
10308TIP3   OH230866   7.260   5.448   5.323
10308TIP3    H130867   7.308   5.471   5.403
10308TIP3    H230868   7.257   5.529   5.272
10309TIP3   OH230869   6.543   5.502   3.466
10309TIP3    H130870   6.468   5.520   3.409
10309TIP3    H230871   6.611   5.561   3.435
10310TIP3   OH230872   6.113   0.041   5.454
10310TIP3    H130873   6.073  -0.017   5.519
10310TIP3    H230874   6.039   0.070   5.400
10311TIP3   OH230875   1.852   6.529   5.088
10311TIP3    H130876   1.944   6.540   5.063
10311TIP3    H230877   1.840   6.589   5.162
10312TIP3   OH230878   3.544   7.831   3.176
10312TIP3    H130879   3.553   7.738   3.199
10312TIP3    H230880   3.451   7.843   3.162
10313TIP3   OH230881   2.279   7.564   2.822
10313TIP3    H130882   2.227   7.643   2.814
10313TIP3    H230883   2.365   7.594   2.850
10314TIP3   OH230884   4.188   7.640   3.847
10314TIP3    H130885   4.098   7.665   3.867
10314TIP3    H230886   4.230   7.629   3.932
10315TIP3   OH230887   1.860   0.271   3.455
10315TIP3    H130888   1.795   0.276   3.525
10315TIP3    H230889   1.858   0.179   3.427
10316TIP3   OH230890   1.433   2.850   4.497
10316TIP3    H130891   1.395   2.765   4.519
10316TIP3    H230892   1.518   2.850   4.541
10317TIP3   OH230893   4.921   2.118   2.455
10317TIP3    H130894   4.850   2.182   2.460
10317TIP3    H230895   4.978   2.140   2.528
10318TIP3   OH230896   2.642   0.725   4.104
10318TIP3    H130897   2.605   0.809   4.131
10318TIP3    H230898   2.689   0.745   4.023
10319TIP3   OH230899   4.478   1.250   6.407
10319TIP3    H130900   4.446   1.338   6.388
10319TIP3    H230901   4.402   1.203   6.441
10320TIP3   OH230902   1.490   6.607   4.389
10320TIP3    H130903   1.528   6.690   4.359
10320TIP3    H230904   1.400   6.630   4.415
10321TIP3   OH230905   6.275   7.328   5.859
10321TIP3    H130906   6.180   7.315   5.853
10321TIP3    H230907   6.312   7.254   5.812
10322TIP3   OH230908   4.294   3.425   3.791
10322TIP3    H130909   4.230   3.453   3.857
10322TIP3    H230910   4.251   3.353   3.746
10323TIP3   OH230911   2.409   7.103   2.204
10323TIP3    H130912   2.318   7.076   2.214
10323TIP3    H230913   2.416   7.185   2.253
10324TIP3   OH230914   6.649   1.563   6.738
10324TIP3    H130915   6.706   1.549   6.662
10324TIP3    H230916   6.656   1.483   6.789
10325TIP3   OH230917   1.940   2.739   0.020
10325TIP3    H130918   1.894   2.657   0.003
10325TIP3    H230919   1.960   2.773  -0.067
10326TIP3   OH230920   1.066   2.390   2.363
10326TIP3    H130921   1.079   2.296   2.369
10326TIP3    H230922   1.150   2.425   2.334
10327TIP3   OH230923   6.046   0.182   3.094
10327TIP3    H130924   6.017   0.122   3.026
10327TIP3    H230925   6.061   0.126   3.171
10328TIP3   OH230926   8.161   3.653   5.537
10328TIP3    H130927   8.124   3.706   5.608
10328TIP3    H230928   8.166   3.713   5.463
10329TIP3   OH230929   6.370   2.273   4.494
10329TIP3    H130930   6.372   2.365   4.523
10329TIP3    H230931   6.436   2.230   4.548
10330TIP3   OH230932   5.222   7.252   4.608
10330TIP3    H130933   5.156   7.321   4.608
10330TIP3    H230934   5.176   7.176   4.573
10331TIP3   OH230935   3.562   4.229   2.155
10331TIP3    H130936   3.586   4.156   2.212
10331TIP3    H230937   3.583   4.307   2.206
10332TIP3   OH230938   4.491   1.341   2.681
10332TIP3    H130939   4.512   1.382   2.764
10332TIP3    H230940   4.424   1.276   2.702
10333TIP3   OH230941   6.776   5.277   0.281
10333TIP3    H130942   6.810   5.364   0.265
10333TIP3    H230943   6.804   5.226   0.205
10334TIP3   OH230944   0.935   3.806   4.841
10334TIP3    H130945   0.923   3.727   4.789
10334TIP3    H230946   0.871   3.868   4.805
10335TIP3   OH230947   1.176   5.165   1.249
10335TIP3    H130948   1.176   5.185   1.343
10335TIP3    H230949   1.269   5.159   1.227
10336TIP3   OH230950   4.388   2.869   3.119
10336TIP3    H130951   4.469   2.837   3.159
10336TIP3    H230952   4.369   2.806   3.050
10337TIP3   OH230953   7.986   1.607   1.900
10337TIP3    H130954   8.070   1.582   1.938
10337TIP3    H230955   7.928   1.535   1.922
10338TIP3   OH230956   4.882   6.546   0.581
10338TIP3    H130957   4.794   6.575   0.560
10338TIP3    H230958   4.891   6.562   0.675
10339TIP3   OH230959   7.075   5.024   4.659
10339TIP3    H130960   7.032   4.962   4.717
10339TIP3    H230961   7.157   5.045   4.703
10340TIP3   OH230962   1.443   2.477   2.689
10340TIP3    H130963   1.364   2.430   2.715
10340TIP3    H230964   1.510   2.410   2.681
10341TIP3   OH230965   6.622   3.907   4.869
10341TIP3    H130966   6.671   3.825   4.875
10341TIP3    H230967   6.589   3.908   4.779
10342TIP3   OH230968   3.961   1.497   0.145
10342TIP3    H130969   3.910   1.570   0.179
10342TIP3    H230970   4.004   1.459   0.221
10343TIP3   OH230971   6.860   0.283   1.787
10343TIP3    H130972   6.894   0.223   1.721
10343TIP3    H230973   6.766   0.287   1.770
10344TIP3   OH230974   2.379   1.486   1.987
10344TIP3    H130975   2.465   1.517   1.961
10344TIP3    H230976   2.318   1.531   1.930
10345TIP3   OH230977   2.855   2.285   4.199
10345TIP3    H130978   2.770   2.246   4.223
10345TIP3    H230979   2.889   2.228   4.130
10346TIP3   OH230980   5.991   2.504   1.339
10346TIP3    H130981   5.948   2.438   1.284
10346TIP3    H230982   6.074   2.464   1.364
10347TIP3   OH230983   4.268   3.560   2.562
10347TIP3    H130984   4.188   3.559   2.509
10347TIP3    H230985   4.287   3.468   2.579
10348TIP3   OH230986   0.867   5.716   1.217
10348TIP3    H130987   0.785   5.752   1.184
10348TIP3    H230988   0.861   5.727   1.312
10349TIP3   OH230989   1.830   2.766   3.708
10349TIP3    H130990   1.832   2.804   3.620
10349TIP3    H230991   1.737   2.755   3.728
10350TIP3   OH230992   1.731   5.094   2.680
10350TIP3    H130993   1.810   5.145   2.695
10350TIP3    H230994   1.762   5.006   2.662
10351TIP3   OH230995   3.990   1.764   2.785
10351TIP3    H130996   3.936   1.733   2.858
10351TIP3    H230997   3.937   1.747   2.707
10352TIP3   OH230998   5.447   4.585   4.556
10352TIP3    H130999   5.519   4.644   4.530
10352TIP3    H231000   5.368   4.631   4.528
10353TIP3   OH231001   2.824   4.642   4.857
10353TIP3    H131002   2.780   4.653   4.941
10353TIP3    H231003   2.801   4.722   4.808
10354TIP3   OH231004   2.627   3.807   4.473
10354TIP3    H131005   2.703   3.853   4.508
10354TIP3    H231006   2.607   3.741   4.539
10355TIP3   OH231007   1.336   4.307   0.146
10355TIP3    H131008   1.315   4.316   0.053
10355TIP3    H231009   1.337   4.397   0.179
10356TIP3   OH231010   8.115   5.884   0.859
10356TIP3    H131011   8.125   5.822   0.787
10356TIP3    H231012   8.106   5.969   0.817
10357TIP3   OH231013   1.564   0.962   6.516
10357TIP3    H131014   1.550   1.052   6.547
10357TIP3    H231015   1.525   0.961   6.429
10358TIP3   OH231016   0.591   7.379   5.426
10358TIP3    H131017   0.676   7.421   5.420
10358TIP3    H231018   0.534   7.444   5.467
10359TIP3   OH231019   0.715   4.964   0.055
10359TIP3    H131020   0.631   4.953   0.009
10359TIP3    H231021   0.775   4.905   0.010
10360TIP3   OH231022   6.457   1.996   3.922
10360TIP3    H131023   6.366   1.985   3.949
10360TIP3    H231024   6.468   1.940   3.846
10361TIP3   OH231025   8.041   5.284   5.170
10361TIP3    H131026   7.953   5.310   5.144
10361TIP3    H231027   8.081   5.365   5.201
10362TIP3   OH231028   7.090   2.785   0.990
10362TIP3    H131029   7.094   2.722   0.918
10362TIP3    H231030   7.178   2.782   1.029
10363TIP3   OH231031   6.101   2.817   5.150
10363TIP3    H131032   6.159   2.828   5.226
10363TIP3    H231033   6.156   2.839   5.075
10364TIP3   OH231034   7.205   3.390   3.596
10364TIP3    H131035   7.225   3.373   3.504
10364TIP3    H231036   7.196   3.485   3.600
10365TIP3   OH231037   7.604   6.157   4.742
10365TIP3    H131038   7.562   6.117   4.818
10365TIP3    H231039   7.688   6.189   4.776
10366TIP3   OH231040   7.677   7.516   5.372
10366TIP3    H131041   7.632   7.458   5.433
10366TIP3    H231042   7.677   7.467   5.289
10367TIP3   OH231043   7.524   0.510   3.083
10367TIP3    H131044   7.528   0.534   3.176
10367TIP3    H231045   7.438   0.471   3.072
10368TIP3   OH231046   5.808   6.597   1.630
10368TIP3    H131047   5.868   6.652   1.681
10368TIP3    H231048   5.751   6.660   1.585
10369TIP3   OH231049   2.393   7.345   2.330
10369TIP3    H131050   2.363   7.417   2.385
10369TIP3    H231051   2.487   7.358   2.322
10370TIP3   OH231052   1.711   5.432   2.497
10370TIP3    H131053   1.675   5.436   2.586
10370TIP3    H231054   1.786   5.373   2.503
10371TIP3   OH231055   6.711   0.488   5.577
10371TIP3    H131056   6.728   0.404   5.533
10371TIP3    H231057   6.725   0.554   5.508
10372TIP3   OH231058   0.633   0.053   0.552
10372TIP3    H131059   0.592   0.128   0.595
10372TIP3    H231060   0.726   0.074   0.549
10373TIP3   OH231061   2.890   4.850   2.012
10373TIP3    H131062   2.805   4.825   1.976
10373TIP3    H231063   2.895   4.945   1.999
10374TIP3   OH231064   0.928   3.541   3.609
10374TIP3    H131065   0.896   3.612   3.665
10374TIP3    H231066   0.859   3.475   3.611
10375TIP3   OH231067   1.049   3.375   2.983
10375TIP3    H131068   1.136   3.377   2.943
10375TIP3    H231069   0.992   3.419   2.919
10376TIP3   OH231070   8.264   3.477   3.181
10376TIP3    H131071   8.289   3.388   3.204
10376TIP3    H231072   8.175   3.469   3.146
10377TIP3   OH231073   4.233   1.738   6.014
10377TIP3    H131074   4.328   1.726   6.018
10377TIP3    H231075   4.198   1.650   6.025
10378TIP3   OH231076   2.754   7.212   2.318
10378TIP3    H131077   2.738   7.297   2.359
10378TIP3    H231078   2.849   7.207   2.310
10379TIP3   OH231079   3.952   5.987   2.931
10379TIP3    H131080   3.921   6.043   2.859
10379TIP3    H231081   3.956   5.900   2.893
10380TIP3   OH231082   7.721   1.109   0.965
10380TIP3    H131083   7.661   1.169   0.922
10380TIP3    H231084   7.689   1.022   0.942
10381TIP3   OH231085   4.717   1.831   6.187
10381TIP3    H131086   4.712   1.807   6.095
10381TIP3    H231087   4.760   1.757   6.230
10382TIP3   OH231088   3.603   3.279   3.345
10382TIP3    H131089   3.607   3.190   3.311
10382TIP3    H231090   3.527   3.279   3.403
10383TIP3   OH231091   6.482   4.580   2.352
10383TIP3    H131092   6.442   4.496   2.371
10383TIP3    H231093   6.552   4.589   2.416
10384TIP3   OH231094   5.246   4.789   1.899
10384TIP3    H131095   5.210   4.809   1.812
10384TIP3    H231096   5.173   4.807   1.959
10385TIP3   OH231097   3.910   6.292   3.834
10385TIP3    H131098   3.836   6.341   3.869
10385TIP3    H231099   3.889   6.279   3.741
10386TIP3   OH231100   3.122   6.356   6.456
10386TIP3    H131101   3.080   6.272   6.439
10386TIP3    H231102   3.171   6.376   6.376
10387TIP3   OH231103   2.402   6.655   2.069
10387TIP3    H131104   2.459   6.714   2.118
10387TIP3    H231105   2.316   6.668   2.107
10388TIP3   OH231106   6.359   5.291   6.663
10388TIP3    H131107   6.352   5.200   6.634
10388TIP3    H231108   6.449   5.316   6.641
10389TIP3   OH231109   1.671   6.571   2.418
10389TIP3    H131110   1.656   6.532   2.332
10389TIP3    H231111   1.628   6.511   2.480
10390TIP3   OH231112   7.891   0.568   3.217
10390TIP3    H131113   7.959   0.529   3.272
10390TIP3    H231114   7.809   0.552   3.265
10391TIP3   OH231115   7.960   3.730   0.716
10391TIP3    H131116   7.932   3.795   0.652
10391TIP3    H231117   8.010   3.666   0.666
10392TIP3   OH231118   1.937   5.917   6.120
10392TIP3    H131119   1.920   5.904   6.026
10392TIP3    H231120   2.005   5.853   6.141
10393TIP3   OH231121   4.176   5.919   3.675
10393TIP3    H131122   4.153   5.974   3.750
10393TIP3    H231123   4.271   5.910   3.679
10394TIP3   OH231124   0.168   4.359   1.626
10394TIP3    H131125   0.181   4.267   1.650
10394TIP3    H231126   0.148   4.358   1.533
10395TIP3   OH231127   6.004   6.773   3.725
10395TIP3    H131128   5.914   6.787   3.757
10395TIP3    H231129   5.995   6.772   3.629
10396TIP3   OH231130   5.676   2.342   1.429
10396TIP3    H131131   5.693   2.427   1.470
10396TIP3    H231132   5.589   2.317   1.462
10397TIP3   OH231133   0.467   3.044   1.030
10397TIP3    H131134   0.434   3.052   1.120
10397TIP3    H231135   0.560   3.064   1.037
10398TIP3   OH231136   8.159   6.642   3.010
10398TIP3    H131137   8.158   6.721   2.955
10398TIP3    H231138   8.213   6.666   3.085
10399TIP3   OH231139   5.314   3.481   1.219
10399TIP3    H131140   5.348   3.568   1.240
10399TIP3    H231141   5.383   3.441   1.165
10400TIP3   OH231142   5.250   5.630   1.362
10400TIP3    H131143   5.282   5.647   1.450
10400TIP3    H231144   5.244   5.534   1.357
10401TIP3   OH231145   2.569   1.424   2.914
10401TIP3    H131146   2.629   1.367   2.864
10401TIP3    H231147   2.563   1.383   3.000
10402TIP3   OH231148   3.046   6.408   2.077
10402TIP3    H131149   3.101   6.439   2.005
10402TIP3    H231150   3.066   6.315   2.084
10403TIP3   OH231151   2.567   0.151   4.829
10403TIP3    H131152   2.581   0.231   4.778
10403TIP3    H231153   2.481   0.163   4.869
10404TIP3   OH231154   5.367   5.117   4.981
10404TIP3    H131155   5.366   5.184   5.049
10404TIP3    H231156   5.447   5.068   4.996
10405TIP3   OH231157   3.762   6.066   3.442
10405TIP3    H131158   3.787   5.988   3.392
10405TIP3    H231159   3.719   6.033   3.520
10406TIP3   OH231160   5.286   5.837   0.176
10406TIP3    H131161   5.346   5.771   0.210
10406TIP3    H231162   5.199   5.799   0.187
10407TIP3   OH231163   3.644   3.782   2.015
10407TIP3    H131164   3.575   3.781   1.949
10407TIP3    H231165   3.620   3.712   2.075
10408TIP3   OH231166   7.010   1.998   2.932
10408TIP3    H131167   7.071   1.957   2.993
10408TIP3    H231168   6.963   1.925   2.892
10409TIP3   OH231169   5.057   0.131   1.214
10409TIP3    H131170   4.981   0.142   1.272
10409TIP3    H231171   5.133   0.138   1.272
10410TIP3   OH231172   8.088   1.685   2.589
10410TIP3    H131173   8.003   1.645   2.606
10410TIP3    H231174   8.147   1.646   2.654
10411TIP3   OH231175   5.854   1.976   5.694
10411TIP3    H131176   5.806   1.907   5.740
10411TIP3    H231177   5.805   1.991   5.614
10412TIP3   OH231178   1.994   4.913   3.857
10412TIP3    H131179   1.944   4.876   3.783
10412TIP3    H231180   1.961   4.865   3.934
10413TIP3   OH231181   0.719   0.656   5.637
10413TIP3    H131182   0.752   0.693   5.555
10413TIP3    H231183   0.779   0.585   5.657
10414TIP3   OH231184   4.425   0.446   1.261
10414TIP3    H131185   4.384   0.527   1.232
10414TIP3    H231186   4.382   0.425   1.344
10415TIP3   OH231187   4.289   4.723   5.368
10415TIP3    H131188   4.339   4.643   5.380
10415TIP3    H231189   4.249   4.715   5.282
10416TIP3   OH231190   3.307   4.249   1.504
10416TIP3    H131191   3.369   4.305   1.457
10416TIP3    H231192   3.362   4.191   1.557
10417TIP3   OH231193   6.185   7.679   0.208
10417TIP3    H131194   6.095   7.672   0.239
10417TIP3    H231195   6.238   7.676   0.288
10418TIP3   OH231196   8.168   6.984   0.279
10418TIP3    H131197   8.159   6.900   0.233
10418TIP3    H231198   8.160   7.050   0.210
10419TIP3   OH231199   2.473   4.094   2.727
10419TIP3    H131200   2.472   4.042   2.646
10419TIP3    H231201   2.565   4.112   2.742
10420TIP3   OH231202   5.333   1.352   6.726
10420TIP3    H131203   5.332   1.256   6.735
10420TIP3    H231204   5.425   1.376   6.740
10421TIP3   OH231205   6.239   1.729   1.173
10421TIP3    H131206   6.246   1.644   1.129
10421TIP3    H231207   6.252   1.793   1.103
10422TIP3   OH231208   0.238   6.358   5.912
10422TIP3    H131209   0.299   6.428   5.891
10422TIP3    H231210   0.263   6.329   5.999
10423TIP3   OH231211   4.453   5.539   6.418
10423TIP3    H131212   4.385   5.595   6.379
10423TIP3    H231213   4.492   5.593   6.487
10424TIP3   OH231214   5.315   0.289   3.661
10424TIP3    H131215   5.336   0.204   3.623
10424TIP3    H231216   5.317   0.275   3.755
10425TIP3   OH231217   7.922   7.115   4.048
10425TIP3    H131218   7.995   7.054   4.043
10425TIP3    H231219   7.920   7.159   3.963
10426TIP3   OH231220   6.046   2.472   2.634
10426TIP3    H131221   6.114   2.520   2.680
10426TIP3    H231222   5.964   2.514   2.662
10427TIP3   OH231223   1.905   2.840   1.275
10427TIP3    H131224   1.881   2.856   1.367
10427TIP3    H231225   1.909   2.927   1.236
10428TIP3   OH231226   1.282   5.353   6.672
10428TIP3    H131227   1.342   5.290   6.632
10428TIP3    H231228   1.219   5.300   6.720
10429TIP3   OH231229   4.393   6.112   2.524
10429TIP3    H131230   4.459   6.178   2.504
10429TIP3    H231231   4.411   6.087   2.615
10430TIP3   OH231232   2.275   5.909   0.366
10430TIP3    H131233   2.271   5.884   0.458
10430TIP3    H231234   2.369   5.912   0.346
10431TIP3   OH231235   6.814   2.365   5.435
10431TIP3    H131236   6.805   2.438   5.496
10431TIP3    H231237   6.725   2.332   5.422
10432TIP3   OH231238   1.393   3.027   3.886
10432TIP3    H131239   1.419   3.000   3.974
10432TIP3    H231240   1.475   3.031   3.837
10433TIP3   OH231241   6.702   3.949   6.646
10433TIP3    H131242   6.649   4.029   6.641
10433TIP3    H231243   6.691   3.907   6.561
10434TIP3   OH231244   0.556   5.088   2.058
10434TIP3    H131245   0.511   5.165   2.093
10434TIP3    H231246   0.516   5.014   2.103
10435TIP3   OH231247   4.128   6.203   3.303
10435TIP3    H131248   4.192   6.139   3.334
10435TIP3    H231249   4.059   6.150   3.263
10436TIP3   OH231250   2.456   5.136   4.333
10436TIP3    H131251   2.427   5.060   4.383
10436TIP3    H231252   2.547   5.117   4.310
10437TIP3   OH231253   5.031   0.234   0.269
10437TIP3    H131254   5.067   0.174   0.204
10437TIP3    H231255   4.937   0.233   0.254
10438TIP3   OH231256   4.995   1.418   4.160
10438TIP3    H131257   4.912   1.402   4.115
10438TIP3    H231258   4.995   1.512   4.178
10439TIP3   OH231259   1.090   6.952   2.304
10439TIP3    H131260   1.120   7.034   2.343
10439TIP3    H231261   0.995   6.952   2.321
10440TIP3   OH231262   3.232   6.473   4.541
10440TIP3    H131263   3.247   6.500   4.450
10440TIP3    H231264   3.145   6.433   4.540
10441TIP3   OH231265   4.619   7.143   6.206
10441TIP3    H131266   4.561   7.159   6.281
10441TIP3    H231267   4.609   7.221   6.151
10442TIP3   OH231268   0.227   3.308   4.126
10442TIP3    H131269   0.272   3.389   4.149
10442TIP3    H231270   0.283   3.267   4.060
10443TIP3   OH231271   0.150   3.427   6.494
10443TIP3    H131272   0.151   3.494   6.427
10443TIP3    H231273   0.191   3.351   6.453
10444TIP3   OH231274   1.906   3.890   0.220
10444TIP3    H131275   1.891   3.802   0.186
10444TIP3    H231276   1.826   3.911   0.269
10445TIP3   OH231277   6.956   2.863   3.382
10445TIP3    H131278   7.008   2.908   3.316
10445TIP3    H231279   6.960   2.921   3.459
10446TIP3   OH231280   8.288   3.750   6.770
10446TIP3    H131281   8.339   3.758   6.690
10446TIP3    H231282   8.198   3.773   6.744
10447TIP3   OH231283   7.258   1.194   3.486
10447TIP3    H131284   7.183   1.235   3.530
10447TIP3    H231285   7.332   1.252   3.505
10448TIP3   OH231286   0.425   0.001   1.321
10448TIP3    H131287   0.392   0.057   1.251
10448TIP3    H231288   0.409  -0.088   1.291
10449TIP3   OH231289   1.760   5.611   1.420
10449TIP3    H131290   1.839   5.569   1.455
10449TIP3    H231291   1.730   5.669   1.490
10450TIP3   OH231292   4.473   7.585   5.661
10450TIP3    H131293   4.383   7.558   5.678
10450TIP3    H231294   4.523   7.504   5.666
10451TIP3   OH231295   0.182   4.010   1.851
10451TIP3    H131296   0.105   3.996   1.796
10451TIP3    H231297   0.242   3.939   1.827
10452TIP3   OH231298   3.254   2.971   1.581
10452TIP3    H131299   3.167   3.011   1.574
10452TIP3    H231300   3.268   2.931   1.495
10453TIP3   OH231301   3.924   3.550   5.244
10453TIP3    H131302   3.935   3.645   5.251
10453TIP3    H231303   3.857   3.529   5.308
10454TIP3   OH231304   3.716   5.202   5.252
10454TIP3    H131305   3.727   5.296   5.243
10454TIP3    H231306   3.756   5.165   5.172
10455TIP3   OH231307   3.194   0.891   6.571
10455TIP3    H131308   3.192   0.905   6.665
10455TIP3    H231309   3.200   0.979   6.534
10456TIP3   OH231310   7.154   2.219   0.245
10456TIP3    H131311   7.117   2.131   0.236
10456TIP3    H231312   7.226   2.220   0.182
10457TIP3   OH231313   3.762   7.223   0.547
10457TIP3    H131314   3.719   7.221   0.633
10457TIP3    H231315   3.696   7.191   0.486
10458TIP3   OH231316   0.535   2.924   0.279
10458TIP3    H131317   0.525   2.903   0.186
10458TIP3    H231318   0.583   3.008   0.280
10459TIP3   OH231319   2.120   5.539   0.379
10459TIP3    H131320   2.171   5.549   0.298
10459TIP3    H231321   2.066   5.618   0.384
10460TIP3   OH231322   0.788   7.709   1.384
10460TIP3    H131323   0.784   7.803   1.400
10460TIP3    H231324   0.876   7.683   1.410
10461TIP3   OH231325   4.121   1.063   1.692
10461TIP3    H131326   4.066   0.987   1.676
10461TIP3    H231327   4.081   1.133   1.640
10462TIP3   OH231328   4.954   1.674   4.299
10462TIP3    H131329   4.946   1.735   4.372
10462TIP3    H231330   4.871   1.682   4.252
10463TIP3   OH231331   8.214   3.269   5.981
10463TIP3    H131332   8.229   3.193   5.926
10463TIP3    H231333   8.130   3.304   5.951
10464TIP3   OH231334   7.951   0.152   1.982
10464TIP3    H131335   7.973   0.245   1.985
10464TIP3    H231336   8.009   0.111   2.046
10465TIP3   OH231337   5.675   5.369   2.987
10465TIP3    H131338   5.640   5.295   3.037
10465TIP3    H231339   5.703   5.331   2.904
10466TIP3   OH231340   6.916   5.068   6.376
10466TIP3    H131341   6.834   5.043   6.417
10466TIP3    H231342   6.945   5.145   6.425
10467TIP3   OH231343   0.766   4.905   2.128
10467TIP3    H131344   0.713   4.826   2.119
10467TIP3    H231345   0.711   4.966   2.178
10468TIP3   OH231346   3.216   0.290   3.606
10468TIP3    H131347   3.161   0.266   3.532
10468TIP3    H231348   3.297   0.240   3.593
10469TIP3   OH231349   1.575   4.655   2.489
10469TIP3    H131350   1.579   4.628   2.581
10469TIP3    H231351   1.652   4.616   2.449
10470TIP3   OH231352   4.879   4.372   0.859
10470TIP3    H131353   4.855   4.341   0.771
10470TIP3    H231354   4.925   4.298   0.899
10471TIP3   OH231355   4.554   4.582   0.258
10471TIP3    H131356   4.481   4.589   0.320
10471TIP3    H231357   4.514   4.547   0.178
10472TIP3   OH231358   3.028   5.499   5.679
10472TIP3    H131359   2.941   5.494   5.640
10472TIP3    H231360   3.052   5.408   5.696
10473TIP3   OH231361   0.809   6.095   4.009
10473TIP3    H131362   0.804   6.020   3.950
10473TIP3    H231363   0.892   6.137   3.987
10474TIP3   OH231364   5.316   0.714   1.448
10474TIP3    H131365   5.364   0.774   1.391
10474TIP3    H231366   5.254   0.769   1.495
10475TIP3   OH231367   4.791   0.968   0.784
10475TIP3    H131368   4.814   0.951   0.876
10475TIP3    H231369   4.817   1.059   0.770
10476TIP3   OH231370   3.319   7.447   3.674
10476TIP3    H131371   3.243   7.393   3.655
10476TIP3    H231372   3.355   7.409   3.755
10477TIP3   OH231373   5.694   4.479   4.314
10477TIP3    H131374   5.746   4.507   4.389
10477TIP3    H231375   5.676   4.559   4.266
10478TIP3   OH231376   0.123   5.662   5.323
10478TIP3    H131377   0.108   5.720   5.397
10478TIP3    H231378   0.120   5.574   5.361
10479TIP3   OH231379   8.047   6.326   6.119
10479TIP3    H131380   8.091   6.369   6.193
10479TIP3    H231381   8.083   6.237   6.118
10480TIP3   OH231382   0.596   1.139   6.376
10480TIP3    H131383   0.630   1.049   6.369
10480TIP3    H231384   0.610   1.163   6.468
10481TIP3   OH231385   7.323   1.515   1.564
10481TIP3    H131386   7.365   1.551   1.485
10481TIP3    H231387   7.343   1.422   1.561
10482TIP3   OH231388   3.054   2.887   4.915
10482TIP3    H131389   3.002   2.887   4.834
10482TIP3    H231390   3.013   2.955   4.969
10483TIP3   OH231391   0.181   4.468   2.930
10483TIP3    H131392   0.115   4.491   2.865
10483TIP3    H231393   0.147   4.502   3.013
10484TIP3   OH231394   8.001   0.263   3.863
10484TIP3    H131395   7.925   0.319   3.853
10484TIP3    H231396   7.968   0.187   3.911
10485TIP3   OH231397   7.790   1.488   6.080
10485TIP3    H131398   7.774   1.395   6.068
10485TIP3    H231399   7.885   1.496   6.088
10486TIP3   OH231400   0.431   3.840   4.477
10486TIP3    H131401   0.431   3.782   4.553
10486TIP3    H231402   0.510   3.893   4.487
10487TIP3   OH231403   0.217   3.294   5.914
10487TIP3    H131404   0.228   3.315   5.821
10487TIP3    H231405   0.125   3.314   5.932
10488TIP3   OH231406   4.900   5.929   4.182
10488TIP3    H131407   4.832   5.873   4.144
10488TIP3    H231408   4.900   5.906   4.275
10489TIP3   OH231409   5.371   6.544   6.520
10489TIP3    H131410   5.289   6.593   6.506
10489TIP3    H231411   5.440   6.604   6.490
10490TIP3   OH231412   8.306   1.577   4.491
10490TIP3    H131413   8.285   1.537   4.575
10490TIP3    H231414   8.262   1.662   4.493
10491TIP3   OH231415   7.692   5.783   1.200
10491TIP3    H131416   7.640   5.815   1.274
10491TIP3    H231417   7.642   5.807   1.122
10492TIP3   OH231418   6.891   7.168   0.663
10492TIP3    H131419   6.905   7.074   0.676
10492TIP3    H231420   6.942   7.190   0.585
10493TIP3   OH231421   2.571   6.856   2.201
10493TIP3    H131422   2.656   6.883   2.236
10493TIP3    H231423   2.521   6.938   2.196
10494TIP3   OH231424   8.269   4.761   6.287
10494TIP3    H131425   8.205   4.744   6.217
10494TIP3    H231426   8.312   4.677   6.301
10495TIP3   OH231427   5.550   0.784   1.037
10495TIP3    H131428   5.462   0.747   1.047
10495TIP3    H231429   5.606   0.708   1.024
10496TIP3   OH231430   3.035   4.120   3.822
10496TIP3    H131431   3.106   4.068   3.861
10496TIP3    H231432   2.955   4.078   3.854
10497TIP3   OH231433   5.320   4.168   1.267
10497TIP3    H131434   5.235   4.212   1.265
10497TIP3    H231435   5.324   4.128   1.353
10498TIP3   OH231436   1.061   0.938   5.476
10498TIP3    H131437   1.153   0.942   5.503
10498TIP3    H231438   1.047   1.018   5.426
10499TIP3   OH231439   1.092   6.330   1.654
10499TIP3    H131440   1.084   6.426   1.653
10499TIP3    H231441   1.027   6.301   1.717
10500TIP3   OH231442   6.789   1.677   1.939
10500TIP3    H131443   6.703   1.651   1.907
10500TIP3    H231444   6.838   1.700   1.860
10501TIP3   OH231445   2.409   1.679   6.471
10501TIP3    H131446   2.435   1.628   6.395
10501TIP3    H231447   2.473   1.657   6.539
10502TIP3   OH231448   3.357   0.399   5.038
10502TIP3    H131449   3.437   0.390   4.986
10502TIP3    H231450   3.380   0.463   5.106
10503TIP3   OH231451   6.421   5.669   1.747
10503TIP3    H131452   6.335   5.707   1.728
10503TIP3    H231453   6.480   5.744   1.753
10504TIP3   OH231454   0.775   5.755   1.492
10504TIP3    H131455   0.815   5.789   1.573
10504TIP3    H231456   0.697   5.809   1.479
10505TIP3   OH231457   0.113   2.611   2.109
10505TIP3    H131458   0.088   2.670   2.180
10505TIP3    H231459   0.178   2.660   2.059
10506TIP3   OH231460   0.493   4.892   0.560
10506TIP3    H131461   0.405   4.855   0.557
10506TIP3    H231462   0.518   4.903   0.469
10507TIP3   OH231463   7.141   4.854   0.992
10507TIP3    H131464   7.183   4.902   0.921
10507TIP3    H231465   7.060   4.903   1.010
10508TIP3   OH231466   4.266   1.384   1.445
10508TIP3    H131467   4.350   1.362   1.486
10508TIP3    H231468   4.286   1.455   1.384
10509TIP3   OH231469   2.166   3.807   3.996
10509TIP3    H131470   2.168   3.835   3.905
10509TIP3    H231471   2.240   3.851   4.037
10510TIP3   OH231472   3.912   4.383   4.816
10510TIP3    H131473   3.934   4.327   4.741
10510TIP3    H231474   3.850   4.447   4.781
10511TIP3   OH231475   4.966   4.137   4.249
10511TIP3    H131476   4.976   4.232   4.252
10511TIP3    H231477   5.040   4.104   4.301
10512TIP3   OH231478   2.027   6.122   5.823
10512TIP3    H131479   1.959   6.059   5.846
10512TIP3    H231480   2.065   6.088   5.742
10513TIP3   OH231481   3.758   1.109   5.492
10513TIP3    H131482   3.853   1.106   5.481
10513TIP3    H231483   3.733   1.195   5.460
10514TIP3   OH231484   2.868   2.642   2.460
10514TIP3    H131485   2.956   2.605   2.464
10514TIP3    H231486   2.826   2.598   2.387
10515TIP3   OH231487   7.205   4.328   1.126
10515TIP3    H131488   7.172   4.276   1.053
10515TIP3    H231489   7.224   4.414   1.088
10516TIP3   OH231490   7.557   0.221   3.102
10516TIP3    H131491   7.540   0.315   3.099
10516TIP3    H231492   7.630   0.207   3.041
10517TIP3   OH231493   1.728   2.572   0.668
10517TIP3    H131494   1.822   2.558   0.675
10517TIP3    H231495   1.709   2.560   0.575
10518TIP3   OH231496   0.008   4.974   5.017
10518TIP3    H131497  -0.066   4.916   5.033
10518TIP3    H231498   0.012   4.983   4.922
10519TIP3   OH231499   6.205   7.724   1.503
10519TIP3    H131500   6.131   7.721   1.442
10519TIP3    H231501   6.243   7.636   1.499
10520TIP3   OH231502   3.012   1.651   0.513
10520TIP3    H131503   3.070   1.603   0.453
10520TIP3    H231504   2.939   1.592   0.528
10521TIP3   OH231505   5.020   4.547   1.168
10521TIP3    H131506   5.040   4.488   1.241
10521TIP3    H231507   4.986   4.626   1.211
10522TIP3   OH231508   2.771   0.658   5.872
10522TIP3    H131509   2.821   0.695   5.944
10522TIP3    H231510   2.799   0.706   5.794
10523TIP3   OH231511   0.481   6.545   5.988
10523TIP3    H131512   0.505   6.585   6.071
10523TIP3    H231513   0.442   6.616   5.937
10524TIP3   OH231514   3.668   6.865   6.237
10524TIP3    H131515   3.729   6.797   6.264
10524TIP3    H231516   3.628   6.830   6.157
10525TIP3   OH231517  -0.011   2.244   4.344
10525TIP3    H131518   0.041   2.174   4.305
10525TIP3    H231519   0.036   2.324   4.321
10526TIP3   OH231520   0.733   1.036   1.880
10526TIP3    H131521   0.696   0.978   1.946
10526TIP3    H231522   0.749   0.980   1.804
10527TIP3   OH231523   5.582   7.591   2.451
10527TIP3    H131524   5.606   7.546   2.371
10527TIP3    H231525   5.664   7.597   2.501
10528TIP3   OH231526   3.476   3.458   4.180
10528TIP3    H131527   3.425   3.530   4.142
10528TIP3    H231528   3.414   3.385   4.185
10529TIP3   OH231529   7.055   3.442   4.049
10529TIP3    H131530   7.113   3.371   4.020
10529TIP3    H231531   7.063   3.442   4.144
10530TIP3   OH231532   3.723   0.814   2.368
10530TIP3    H131533   3.773   0.833   2.448
10530TIP3    H231534   3.717   0.898   2.323
10531TIP3   OH231535   1.522   2.270   6.586
10531TIP3    H131536   1.441   2.247   6.540
10531TIP3    H231537   1.585   2.286   6.515
10532TIP3   OH231538   2.296   4.129   1.655
10532TIP3    H131539   2.332   4.155   1.570
10532TIP3    H231540   2.293   4.210   1.706
10533TIP3   OH231541   0.950   0.973   5.175
10533TIP3    H131542   0.995   0.989   5.092
10533TIP3    H231543   0.934   0.878   5.175
10534TIP3   OH231544   2.611   4.052   1.616
10534TIP3    H131545   2.516   4.060   1.612
10534TIP3    H231546   2.637   4.111   1.687
10535TIP3   OH231547   4.769   4.002   5.913
10535TIP3    H131548   4.747   4.094   5.928
10535TIP3    H231549   4.701   3.953   5.960
10536TIP3   OH231550   2.335   1.825   3.350
10536TIP3    H131551   2.240   1.832   3.344
10536TIP3    H231552   2.359   1.763   3.281
10537TIP3   OH231553   6.818   6.525   4.708
10537TIP3    H131554   6.880   6.468   4.663
10537TIP3    H231555   6.826   6.610   4.665
10538TIP3   OH231556   0.736   0.854   1.635
10538TIP3    H131557   0.643   0.837   1.620
10538TIP3    H231558   0.770   0.771   1.668
10539TIP3   OH231559   6.792   5.510   5.756
10539TIP3    H131560   6.855   5.524   5.686
10539TIP3    H231561   6.714   5.558   5.729
10540TIP3   OH231562   0.789   5.952   4.271
10540TIP3    H131563   0.827   6.016   4.211
10540TIP3    H231564   0.864   5.904   4.305
10541TIP3   OH231565   5.693   3.240   1.815
10541TIP3    H131566   5.712   3.292   1.737
10541TIP3    H231567   5.625   3.290   1.861
10542TIP3   OH231568   0.367   6.769   3.049
10542TIP3    H131569   0.435   6.782   3.115
10542TIP3    H231570   0.319   6.852   3.048
10543TIP3   OH231571   3.708   3.877   3.673
10543TIP3    H131572   3.794   3.839   3.656
10543TIP3    H231573   3.647   3.819   3.627
10544TIP3   OH231574   0.461   7.700   4.030
10544TIP3    H131575   0.429   7.636   4.095
10544TIP3    H231576   0.398   7.694   3.958
10545TIP3   OH231577   3.144   4.784   1.105
10545TIP3    H131578   3.070   4.769   1.164
10545TIP3    H231579   3.220   4.748   1.152
10546TIP3   OH231580   4.140   7.755   3.033
10546TIP3    H131581   4.169   7.758   3.124
10546TIP3    H231582   4.105   7.842   3.015
10547TIP3   OH231583   6.129   1.025   2.014
10547TIP3    H131584   6.180   1.047   1.936
10547TIP3    H231585   6.130   0.929   2.017
10548TIP3   OH231586   5.772   0.164   3.936
10548TIP3    H131587   5.731   0.183   3.852
10548TIP3    H231588   5.715   0.099   3.976
10549TIP3   OH231589   7.110   3.335   0.161
10549TIP3    H131590   7.035   3.359   0.107
10549TIP3    H231591   7.169   3.289   0.102
10550TIP3   OH231592   7.705   7.029   1.623
10550TIP3    H131593   7.696   7.016   1.718
10550TIP3    H231594   7.632   6.980   1.586
10551TIP3   OH231595   6.153   0.835   3.170
10551TIP3    H131596   6.172   0.868   3.258
10551TIP3    H231597   6.193   0.748   3.168
10552TIP3   OH231598   3.773   6.010   5.249
10552TIP3    H131599   3.758   6.100   5.277
10552TIP3    H231600   3.690   5.983   5.210
10553TIP3   OH231601   4.303   7.786   0.879
10553TIP3    H131602   4.358   7.707   0.883
10553TIP3    H231603   4.225   7.758   0.830
10554TIP3   OH231604   6.638   5.485   1.950
10554TIP3    H131605   6.605   5.563   1.995
10554TIP3    H231606   6.651   5.420   2.019
10555TIP3   OH231607   8.001   0.441   5.725
10555TIP3    H131608   7.963   0.527   5.708
10555TIP3    H231609   7.938   0.379   5.687
10556TIP3   OH231610   5.906   1.890   0.512
10556TIP3    H131611   5.811   1.876   0.511
10556TIP3    H231612   5.940   1.827   0.449
10557TIP3   OH231613   3.559   3.187   1.806
10557TIP3    H131614   3.637   3.177   1.751
10557TIP3    H231615   3.493   3.224   1.748
10558TIP3   OH231616   5.731   3.664   0.347
10558TIP3    H131617   5.704   3.699   0.262
10558TIP3    H231618   5.795   3.596   0.326
10559TIP3   OH231619   8.015   0.146   4.436
10559TIP3    H131620   8.038   0.237   4.451
10559TIP3    H231621   8.007   0.139   4.341
10560TIP3   OH231622   0.337   5.459   5.809
10560TIP3    H131623   0.360   5.369   5.784
10560TIP3    H231624   0.395   5.479   5.882
10561TIP3   OH231625   4.431   7.785   5.278
10561TIP3    H131626   4.526   7.772   5.281
10561TIP3    H231627   4.416   7.829   5.195
10562TIP3   OH231628   3.483   4.409   4.923
10562TIP3    H131629   3.545   4.355   4.874
10562TIP3    H231630   3.501   4.499   4.894
10563TIP3   OH231631   6.768   1.628   4.375
10563TIP3    H131632   6.840   1.604   4.316
10563TIP3    H231633   6.807   1.622   4.463
10564TIP3   OH231634   5.890   3.563   5.482
10564TIP3    H131635   5.894   3.476   5.522
10564TIP3    H231636   5.800   3.571   5.451
10565TIP3   OH231637   4.286   3.565   6.633
10565TIP3    H131638   4.284   3.661   6.627
10565TIP3    H231639   4.260   3.546   6.723
10566TIP3   OH231640   5.275   4.321   3.190
10566TIP3    H131641   5.272   4.265   3.113
10566TIP3    H231642   5.184   4.346   3.206
10567TIP3   OH231643   5.072   7.720   5.109
10567TIP3    H131644   5.113   7.806   5.097
10567TIP3    H231645   5.022   7.729   5.190
10568TIP3   OH231646   7.059   1.756   6.416
10568TIP3    H131647   6.977   1.764   6.464
10568TIP3    H231648   7.119   1.714   6.478
10569TIP3   OH231649   3.985   1.884   1.680
10569TIP3    H131650   3.957   1.894   1.589
10569TIP3    H231651   4.013   1.972   1.707
10570TIP3   OH231652   1.044   7.317   3.875
10570TIP3    H131653   1.030   7.260   3.950
10570TIP3    H231654   1.108   7.381   3.905
10571TIP3   OH231655   2.528   3.763   5.453
10571TIP3    H131656   2.598   3.826   5.470
10571TIP3    H231657   2.452   3.818   5.430
10572TIP3   OH231658   3.246   0.653   2.084
10572TIP3    H131659   3.244   0.657   2.180
10572TIP3    H231660   3.290   0.570   2.065
10573TIP3   OH231661   3.042   0.321   0.796
10573TIP3    H131662   2.997   0.370   0.864
10573TIP3    H231663   3.038   0.377   0.719
10574TIP3   OH231664   1.211   4.760   4.354
10574TIP3    H131665   1.297   4.725   4.327
10574TIP3    H231666   1.199   4.838   4.300
10575TIP3   OH231667   6.634   2.655   1.595
10575TIP3    H131668   6.614   2.677   1.686
10575TIP3    H231669   6.552   2.619   1.561
10576TIP3   OH231670   7.019   4.174   5.847
10576TIP3    H131671   6.936   4.218   5.829
10576TIP3    H231672   7.045   4.208   5.933
10577TIP3   OH231673   6.917   0.299   5.723
10577TIP3    H131674   6.936   0.271   5.812
10577TIP3    H231675   6.822   0.312   5.722
10578TIP3   OH231676   0.203   1.196   0.514
10578TIP3    H131677   0.275   1.254   0.537
10578TIP3    H231678   0.165   1.170   0.598
10579TIP3   OH231679   7.866   3.504   2.629
10579TIP3    H131680   7.783   3.463   2.605
10579TIP3    H231681   7.851   3.598   2.618
10580TIP3   OH231682   2.090   2.880   5.106
10580TIP3    H131683   2.146   2.801   5.105
10580TIP3    H231684   2.152   2.952   5.095
10581TIP3   OH231685   7.228   4.118   4.287
10581TIP3    H131686   7.152   4.158   4.245
10581TIP3    H231687   7.293   4.110   4.217
10582TIP3   OH231688   6.319   4.334   2.950
10582TIP3    H131689   6.400   4.384   2.946
10582TIP3    H231690   6.270   4.373   3.023
10583TIP3   OH231691   2.546   0.289   6.251
10583TIP3    H131692   2.582   0.292   6.340
10583TIP3    H231693   2.514   0.377   6.235
10584TIP3   OH231694   0.221   3.551   4.352
10584TIP3    H131695   0.267   3.610   4.293
10584TIP3    H231696   0.130   3.555   4.324
10585TIP3   OH231697   0.039   7.478   4.809
10585TIP3    H131698   0.132   7.457   4.822
10585TIP3    H231699   0.027   7.475   4.714
10586TIP3   OH231700   6.201   0.460   1.679
10586TIP3    H131701   6.218   0.485   1.770
10586TIP3    H231702   6.267   0.394   1.659
10587TIP3   OH231703   4.372   7.639   2.169
10587TIP3    H131704   4.406   7.550   2.158
10587TIP3    H231705   4.449   7.692   2.187
10588TIP3   OH231706   2.518   4.081   0.200
10588TIP3    H131707   2.491   4.017   0.135
10588TIP3    H231708   2.610   4.062   0.216
10589TIP3   OH231709   6.713   6.793   0.679
10589TIP3    H131710   6.658   6.719   0.654
10589TIP3    H231711   6.720   6.788   0.774
10590TIP3   OH231712   1.870   1.896   2.040
10590TIP3    H131713   1.919   1.828   2.087
10590TIP3    H231714   1.896   1.977   2.083
10591TIP3   OH231715   0.033   5.429   5.074
10591TIP3    H131716  -0.041   5.484   5.101
10591TIP3    H231717   0.025   5.350   5.128
10592TIP3   OH231718   6.441   5.925   2.371
10592TIP3    H131719   6.491   5.976   2.436
10592TIP3    H231720   6.374   5.880   2.422
10593TIP3   OH231721   2.462   0.772   6.309
10593TIP3    H131722   2.424   0.714   6.243
10593TIP3    H231723   2.512   0.837   6.258
10594TIP3   OH231724   5.674   4.799   5.300
10594TIP3    H131725   5.722   4.863   5.247
10594TIP3    H231726   5.636   4.739   5.236
10595TIP3   OH231727   7.025   4.388   0.772
10595TIP3    H131728   7.022   4.481   0.751
10595TIP3    H231729   7.099   4.355   0.721
10596TIP3   OH231730   4.955   1.688   1.470
10596TIP3    H131731   5.048   1.691   1.448
10596TIP3    H231732   4.952   1.703   1.565
10597TIP3   OH231733   5.993   3.239   5.913
10597TIP3    H131734   5.966   3.149   5.896
10597TIP3    H231735   6.077   3.231   5.957
10598TIP3   OH231736   7.689   1.998   2.266
10598TIP3    H131737   7.620   1.932   2.264
10598TIP3    H231738   7.735   1.986   2.182
10599TIP3   OH231739   5.245   4.368   3.494
10599TIP3    H131740   5.232   4.399   3.404
10599TIP3    H231741   5.190   4.290   3.500
10600TIP3   OH231742   6.524   2.358   5.249
10600TIP3    H131743   6.509   2.451   5.267
10600TIP3    H231744   6.550   2.355   5.157
10601TIP3   OH231745   4.748   1.896   1.828
10601TIP3    H131746   4.669   1.863   1.786
10601TIP3    H231747   4.731   1.989   1.842
10602TIP3   OH231748   1.667   1.053   1.007
10602TIP3    H131749   1.660   0.965   0.970
10602TIP3    H231750   1.757   1.080   0.989
10603TIP3   OH231751   4.638   2.279   2.960
10603TIP3    H131752   4.601   2.233   3.036
10603TIP3    H231753   4.731   2.287   2.981
10604TIP3   OH231754   3.173   3.927   5.856
10604TIP3    H131755   3.146   3.836   5.843
10604TIP3    H231756   3.230   3.924   5.932
10605TIP3   OH231757   3.149   2.485   0.774
10605TIP3    H131758   3.184   2.468   0.861
10605TIP3    H231759   3.062   2.523   0.790
10606TIP3   OH231760   6.527   7.647   1.574
10606TIP3    H131761   6.541   7.741   1.562
10606TIP3    H231762   6.603   7.617   1.623
10607TIP3   OH231763  -0.043   5.902   5.752
10607TIP3    H131764   0.010   5.911   5.673
10607TIP3    H231765   0.004   5.952   5.819
10608TIP3   OH231766   7.533   2.412   1.580
10608TIP3    H131767   7.442   2.413   1.612
10608TIP3    H231768   7.582   2.368   1.650
10609TIP3   OH231769   5.000   0.190   1.490
10609TIP3    H131770   4.958   0.106   1.473
10609TIP3    H231771   5.089   0.179   1.458
10610TIP3   OH231772   7.200   7.097   4.404
10610TIP3    H131773   7.287   7.081   4.369
10610TIP3    H231774   7.190   7.032   4.474
10611TIP3   OH231775   3.363   2.695   3.252
10611TIP3    H131776   3.425   2.673   3.323
10611TIP3    H231777   3.355   2.615   3.201
10612TIP3   OH231778   3.120   5.593   2.492
10612TIP3    H131779   3.208   5.567   2.465
10612TIP3    H231780   3.117   5.573   2.586
10613TIP3   OH231781   6.758   7.123   1.842
10613TIP3    H131782   6.748   7.207   1.886
10613TIP3    H231783   6.728   7.059   1.906
10614TIP3   OH231784   7.447   0.005   3.557
10614TIP3    H131785   7.475   0.084   3.511
10614TIP3    H231786   7.514  -0.007   3.625
10615TIP3   OH231787   7.710   6.996   6.531
10615TIP3    H131788   7.720   6.968   6.440
10615TIP3    H231789   7.696   6.915   6.580
10616TIP3   OH231790   1.851   7.681   1.394
10616TIP3    H131791   1.856   7.586   1.380
10616TIP3    H231792   1.889   7.719   1.315
10617TIP3   OH231793   3.086   1.820   4.269
10617TIP3    H131794   3.111   1.740   4.316
10617TIP3    H231795   3.025   1.791   4.202
10618TIP3   OH231796   3.412   1.040   4.137
10618TIP3    H131797   3.378   1.012   4.222
10618TIP3    H231798   3.507   1.032   4.145
10619TIP3   OH231799   0.922   1.187   3.892
10619TIP3    H131800   0.976   1.123   3.937
10619TIP3    H231801   0.834   1.173   3.926
10620TIP3   OH231802   3.241   4.408   2.016
10620TIP3    H131803   3.238   4.486   2.071
10620TIP3    H231804   3.251   4.335   2.078
10621TIP3   OH231805   2.786   5.229   4.566
10621TIP3    H131806   2.833   5.287   4.625
10621TIP3    H231807   2.757   5.285   4.494
10622TIP3   OH231808   2.770   6.039   2.077
10622TIP3    H131809   2.716   6.098   2.129
10622TIP3    H231810   2.733   6.045   1.988
10623TIP3   OH231811   0.058   3.631   3.376
10623TIP3    H131812   0.060   3.607   3.283
10623TIP3    H231813  -0.013   3.578   3.412
10624TIP3   OH231814   7.547   6.537   5.170
10624TIP3    H131815   7.479   6.583   5.221
10624TIP3    H231816   7.500   6.503   5.094
10625TIP3   OH231817   2.423   4.602   5.817
10625TIP3    H131818   2.350   4.664   5.808
10625TIP3    H231819   2.500   4.658   5.828
10626TIP3   OH231820   7.982   2.644   6.304
10626TIP3    H131821   8.064   2.687   6.326
10626TIP3    H231822   7.977   2.651   6.208
10627TIP3   OH231823   8.294   6.003   4.941
10627TIP3    H131824   8.201   5.984   4.949
10627TIP3    H231825   8.337   5.935   4.993
10628TIP3   OH231826   6.572   1.591   3.415
10628TIP3    H131827   6.483   1.568   3.444
10628TIP3    H231828   6.604   1.512   3.372
10629TIP3   OH231829   2.621   6.702   1.244
10629TIP3    H131830   2.559   6.642   1.203
10629TIP3    H231831   2.584   6.719   1.331
10630TIP3   OH231832   0.746   1.552   6.108
10630TIP3    H131833   0.836   1.580   6.093
10630TIP3    H231834   0.725   1.586   6.195
10631TIP3   OH231835   0.501   6.879   4.599
10631TIP3    H131836   0.559   6.883   4.675
10631TIP3    H231837   0.541   6.938   4.535
10632TIP3   OH231838   8.119   2.428   5.002
10632TIP3    H131839   8.111   2.373   4.924
10632TIP3    H231840   8.212   2.451   5.005
10633TIP3   OH231841   0.574   2.726   3.034
10633TIP3    H131842   0.593   2.728   2.940
10633TIP3    H231843   0.535   2.812   3.052
10634TIP3   OH231844   6.736   5.615   4.907
10634TIP3    H131845   6.728   5.612   4.811
10634TIP3    H231846   6.680   5.688   4.933
10635TIP3   OH231847   0.163   5.823   5.108
10635TIP3    H131848   0.252   5.828   5.142
10635TIP3    H231849   0.115   5.774   5.175
10636TIP3   OH231850   7.987   3.287   1.765
10636TIP3    H131851   7.968   3.209   1.712
10636TIP3    H231852   8.068   3.322   1.728
10637TIP3   OH231853   7.957   4.442   5.393
10637TIP3    H131854   7.884   4.496   5.422
10637TIP3    H231855   7.985   4.395   5.471
10638TIP3   OH231856   7.051   5.934   6.604
10638TIP3    H131857   7.001   6.011   6.631
10638TIP3    H231858   7.044   5.874   6.678
10639TIP3   OH231859   6.317   1.437   0.484
10639TIP3    H131860   6.363   1.370   0.434
10639TIP3    H231861   6.224   1.418   0.469
10640TIP3   OH231862   4.224   2.750   4.003
10640TIP3    H131863   4.180   2.668   4.024
10640TIP3    H231864   4.299   2.724   3.949
10641TIP3   OH231865   2.645   7.470   2.378
10641TIP3    H131866   2.618   7.492   2.468
10641TIP3    H231867   2.663   7.554   2.337
10642TIP3   OH231868   5.431   4.903   4.208
10642TIP3    H131869   5.464   4.817   4.182
10642TIP3    H231870   5.507   4.948   4.244
10643TIP3   OH231871   6.070   7.244   6.759
10643TIP3    H131872   6.143   7.221   6.701
10643TIP3    H231873   6.097   7.210   6.844
10644TIP3   OH231874   5.630   0.648   3.946
10644TIP3    H131875   5.643   0.587   4.019
10644TIP3    H231876   5.624   0.734   3.987
10645TIP3   OH231877   7.447   3.160   3.079
10645TIP3    H131878   7.382   3.230   3.077
10645TIP3    H231879   7.438   3.121   3.166
10646TIP3   OH231880   0.274   2.741   5.952
10646TIP3    H131881   0.328   2.665   5.929
10646TIP3    H231882   0.269   2.792   5.872
10647TIP3   OH231883   2.943   5.307   4.774
10647TIP3    H131884   2.947   5.277   4.865
10647TIP3    H231885   2.948   5.402   4.780
10648TIP3   OH231886   3.489   3.515   1.868
10648TIP3    H131887   3.476   3.607   1.891
10648TIP3    H231888   3.404   3.474   1.880
10649TIP3   OH231889   2.277   3.614   6.590
10649TIP3    H131890   2.292   3.687   6.650
10649TIP3    H231891   2.186   3.623   6.563
10650TIP3   OH231892   7.356   3.247   2.422
10650TIP3    H131893   7.401   3.224   2.341
10650TIP3    H231894   7.263   3.233   2.403
10651TIP3   OH231895   0.513   2.096   3.435
10651TIP3    H131896   0.443   2.035   3.457
10651TIP3    H231897   0.483   2.180   3.470
10652TIP3   OH231898   5.910   3.255   4.731
10652TIP3    H131899   5.927   3.164   4.755
10652TIP3    H231900   5.933   3.305   4.809
10653TIP3   OH231901   0.292   7.704   1.269
10653TIP3    H131902   0.251   7.618   1.255
10653TIP3    H231903   0.220   7.766   1.266
10654TIP3   OH231904   3.492   1.200   6.515
10654TIP3    H131905   3.412   1.242   6.546
10654TIP3    H231906   3.528   1.156   6.593
10655TIP3   OH231907   1.652   0.694   3.999
10655TIP3    H131908   1.572   0.745   4.012
10655TIP3    H231909   1.686   0.681   4.088
10656TIP3   OH231910   3.034   4.122   3.230
10656TIP3    H131911   3.123   4.157   3.239
10656TIP3    H231912   2.979   4.187   3.274
10657TIP3   OH231913   5.291   1.853   4.081
10657TIP3    H131914   5.259   1.942   4.091
10657TIP3    H231915   5.360   1.860   4.015
10658TIP3   OH231916   2.926   0.965   0.489
10658TIP3    H131917   2.896   1.014   0.566
10658TIP3    H231918   3.016   0.994   0.475
10659TIP3   OH231919   4.371   6.764   6.109
10659TIP3    H131920   4.451   6.793   6.066
10659TIP3    H231921   4.394   6.760   6.202
10660TIP3   OH231922   0.006   7.511   2.644
10660TIP3    H131923   0.094   7.475   2.643
10660TIP3    H231924  -0.013   7.526   2.737
10661TIP3   OH231925   1.582   3.264   1.372
10661TIP3    H131926   1.556   3.339   1.426
10661TIP3    H231927   1.511   3.254   1.309
10662TIP3   OH231928   7.533   3.938   3.421
10662TIP3    H131929   7.445   3.975   3.417
10662TIP3    H231930   7.562   3.932   3.330
10663TIP3   OH231931   2.086   7.316   0.535
10663TIP3    H131932   2.048   7.283   0.617
10663TIP3    H231933   2.078   7.411   0.541
10664TIP3   OH231934   3.961   0.764   1.665
10664TIP3    H131935   3.876   0.722   1.674
10664TIP3    H231936   4.004   0.716   1.594
10665TIP3   OH231937   4.401   5.259   6.719
10665TIP3    H131938   4.453   5.255   6.638
10665TIP3    H231939   4.356   5.175   6.724
10666TIP3   OH231940   1.756   0.097   5.840
10666TIP3    H131941   1.781   0.125   5.928
10666TIP3    H231942   1.824   0.132   5.783
10667TIP3   OH231943   3.461   5.602   4.028
10667TIP3    H131944   3.499   5.526   4.073
10667TIP3    H231945   3.413   5.649   4.096
10668TIP3   OH231946   0.834   1.621   3.656
10668TIP3    H131947   0.740   1.633   3.643
10668TIP3    H231948   0.873   1.704   3.627
10669TIP3   OH231949   8.298   5.314   3.183
10669TIP3    H131950   8.230   5.251   3.206
10669TIP3    H231951   8.262   5.399   3.205
10670TIP3   OH231952   0.428   0.024   5.120
10670TIP3    H131953   0.404   0.030   5.028
10670TIP3    H231954   0.484  -0.054   5.126
10671TIP3   OH231955   0.873   7.433   4.944
10671TIP3    H131956   0.846   7.461   4.857
10671TIP3    H231957   0.812   7.477   5.004
10672TIP3   OH231958   5.983   4.484   4.186
10672TIP3    H131959   5.922   4.417   4.219
10672TIP3    H231960   5.941   4.567   4.207
10673TIP3   OH231961   2.198   7.732   1.732
10673TIP3    H131962   2.264   7.721   1.663
10673TIP3    H231963   2.249   7.733   1.813
10674TIP3   OH231964   3.502   1.600   5.406
10674TIP3    H131965   3.479   1.632   5.318
10674TIP3    H231966   3.595   1.621   5.415
10675TIP3   OH231967   7.411   2.004   2.931
10675TIP3    H131968   7.495   1.980   2.971
10675TIP3    H231969   7.378   2.075   2.987
10676TIP3   OH231970   2.678   3.071   0.621
10676TIP3    H131971   2.765   3.107   0.602
10676TIP3    H231972   2.629   3.082   0.539
10677TIP3   OH231973   0.476   2.671   1.443
10677TIP3    H131974   0.451   2.588   1.402
10677TIP3    H231975   0.485   2.649   1.536
10678TIP3   OH231976   6.410   6.856   5.264
10678TIP3    H131977   6.468   6.854   5.188
10678TIP3    H231978   6.467   6.833   5.338
10679TIP3   OH231979   5.365   1.623   3.188
10679TIP3    H131980   5.449   1.645   3.148
10679TIP3    H231981   5.325   1.561   3.127
10680TIP3   OH231982   7.584   6.066   0.571
10680TIP3    H131983   7.666   6.026   0.541
10680TIP3    H231984   7.586   6.053   0.666
10681TIP3   OH231985   4.810   0.055   2.519
10681TIP3    H131986   4.780   0.122   2.457
10681TIP3    H231987   4.904   0.048   2.502
10682TIP3   OH231988   7.288   5.706   4.423
10682TIP3    H131989   7.246   5.744   4.346
10682TIP3    H231990   7.243   5.746   4.498
10683TIP3   OH231991   5.371   1.511   0.247
10683TIP3    H131992   5.338   1.522   0.336
10683TIP3    H231993   5.465   1.526   0.254
10684TIP3   OH231994   7.491   6.673   2.085
10684TIP3    H131995   7.411   6.702   2.129
10684TIP3    H231996   7.461   6.639   2.001
10685TIP3   OH231997   2.155   5.448   4.342
10685TIP3    H131998   2.223   5.476   4.280
10685TIP3    H231999   2.127   5.362   4.310
10686TIP3   OH232000   3.746   6.615   0.597
10686TIP3    H132001   3.756   6.533   0.548
10686TIP3    H232002   3.660   6.607   0.638
10687TIP3   OH232003   7.914   3.070   1.595
10687TIP3    H132004   7.841   3.106   1.544
10687TIP3    H232005   7.950   3.001   1.539
10688TIP3   OH232006   3.713   1.588   2.257
10688TIP3    H132007   3.713   1.683   2.244
10688TIP3    H232008   3.635   1.572   2.311
10689TIP3   OH232009   1.671   5.026   6.464
10689TIP3    H132010   1.765   5.035   6.445
10689TIP3    H232011   1.645   4.948   6.416
10690TIP3   OH232012   5.614   4.990   4.976
10690TIP3    H132013   5.617   4.896   4.960
10690TIP3    H232014   5.682   5.027   4.919
10691TIP3   OH232015   7.879   1.964   6.777
10691TIP3    H132016   7.792   1.983   6.813
10691TIP3    H232017   7.903   2.044   6.731
10692TIP3   OH232018   3.881   3.155   3.832
10692TIP3    H132019   3.798   3.137   3.874
10692TIP3    H232020   3.930   3.073   3.838
10693TIP3   OH232021   5.424   3.102   3.949
10693TIP3    H132022   5.401   3.191   3.922
10693TIP3    H232023   5.460   3.061   3.871
10694TIP3   OH232024   2.013   0.547   2.342
10694TIP3    H132025   1.972   0.476   2.391
10694TIP3    H232026   2.026   0.511   2.254
10695TIP3   OH232027   1.262   1.308   4.512
10695TIP3    H132028   1.349   1.345   4.531
10695TIP3    H232029   1.239   1.345   4.427
10696TIP3   OH232030   3.569   3.762   2.559
10696TIP3    H132031   3.635   3.824   2.591
10696TIP3    H232032   3.598   3.678   2.593
10697TIP3   OH232033   2.135   2.762   6.414
10697TIP3    H132034   2.196   2.818   6.462
10697TIP3    H232035   2.110   2.814   6.337
10698TIP3   OH232036   7.205   0.496   5.700
10698TIP3    H132037   7.159   0.436   5.641
10698TIP3    H232038   7.136   0.550   5.738
10699TIP3   OH232039   8.198   4.901   1.645
10699TIP3    H132040   8.157   4.855   1.718
10699TIP3    H232041   8.264   4.957   1.686
10700TIP3   OH232042   4.760   3.280   6.741
10700TIP3    H132043   4.737   3.242   6.826
10700TIP3    H232044   4.681   3.326   6.713
10701TIP3   OH232045   0.720   4.810   4.117
10701TIP3    H132046   0.676   4.849   4.193
10701TIP3    H232047   0.717   4.879   4.050
10702TIP3   OH232048   1.898   3.760   4.027
10702TIP3    H132049   1.859   3.745   3.941
10702TIP3    H232050   1.992   3.752   4.012
10703TIP3   OH232051   3.620   2.662   6.739
10703TIP3    H132052   3.569   2.717   6.798
10703TIP3    H232053   3.560   2.590   6.717
10704TIP3   OH232054   6.059   2.849   2.713
10704TIP3    H132055   6.063   2.762   2.752
10704TIP3    H232056   5.979   2.888   2.749
10705TIP3   OH232057   7.557   2.941   2.039
10705TIP3    H132058   7.555   2.853   2.000
10705TIP3    H232059   7.558   3.000   1.963
10706TIP3   OH232060   5.474   0.477   1.513
10706TIP3    H132061   5.541   0.519   1.566
10706TIP3    H232062   5.413   0.547   1.491
10707TIP3   OH232063   8.264   6.267   2.532
10707TIP3    H132064   8.196   6.335   2.536
10707TIP3    H232065   8.260   6.234   2.443
10708TIP3   OH232066   2.109   4.862   3.332
10708TIP3    H132067   2.062   4.922   3.389
10708TIP3    H232068   2.113   4.907   3.248
10709TIP3   OH232069   7.539   2.130   4.918
10709TIP3    H132070   7.597   2.115   4.843
10709TIP3    H232071   7.551   2.053   4.974
10710TIP3   OH232072   1.270   1.191   1.051
10710TIP3    H132073   1.243   1.121   1.110
10710TIP3    H232074   1.339   1.153   0.998
10711TIP3   OH232075   2.118   0.674   5.481
10711TIP3    H132076   2.056   0.746   5.472
10711TIP3    H232077   2.064   0.595   5.476
10712TIP3   OH232078   5.062   2.786   5.971
10712TIP3    H132079   5.113   2.780   5.890
10712TIP3    H232080   4.995   2.852   5.952
10713TIP3   OH232081   4.410   5.274   5.159
10713TIP3    H132082   4.377   5.202   5.213
10713TIP3    H232083   4.332   5.324   5.136
10714TIP3   OH232084   4.091   5.563   1.997
10714TIP3    H132085   4.145   5.642   1.998
10714TIP3    H232086   4.013   5.588   1.948
10715TIP3   OH232087   8.026   1.316   6.253
10715TIP3    H132088   8.083   1.281   6.322
10715TIP3    H232089   7.939   1.316   6.292
10716TIP3   OH232090   6.976   1.321   2.812
10716TIP3    H132091   6.967   1.228   2.796
10716TIP3    H232092   7.061   1.330   2.856
10717TIP3   OH232093   7.026   6.079   4.411
10717TIP3    H132094   7.092   6.135   4.453
10717TIP3    H232095   7.021   6.112   4.322
10718TIP3   OH232096   0.687   0.319   2.859
10718TIP3    H132097   0.706   0.237   2.905
10718TIP3    H232098   0.688   0.386   2.927
10719TIP3   OH232099   2.200   1.024   0.147
10719TIP3    H132100   2.130   0.959   0.138
10719TIP3    H232101   2.171   1.098   0.093
10720TIP3   OH232102   0.061   6.044   1.754
10720TIP3    H132103   0.101   5.990   1.686
10720TIP3    H232104  -0.012   5.992   1.787
10721TIP3   OH232105   7.205   4.626   3.930
10721TIP3    H132106   7.291   4.666   3.921
10721TIP3    H232107   7.189   4.582   3.847
10722TIP3   OH232108   1.371   1.586   6.154
10722TIP3    H132109   1.365   1.491   6.156
10722TIP3    H232110   1.352   1.614   6.244
10723TIP3   OH232111   1.599   2.063   3.328
10723TIP3    H132112   1.679   2.091   3.372
10723TIP3    H232113   1.529   2.109   3.374
10724TIP3   OH232114   6.112   4.026   4.174
10724TIP3    H132115   6.120   4.105   4.227
10724TIP3    H232116   6.170   4.041   4.099
10725TIP3   OH232117   6.157   2.566   0.687
10725TIP3    H132118   6.195   2.584   0.601
10725TIP3    H232119   6.066   2.592   0.679
10726TIP3   OH232120   4.820   5.393   4.696
10726TIP3    H132121   4.725   5.401   4.690
10726TIP3    H232122   4.851   5.396   4.605
10727TIP3   OH232123   1.064   1.324  -0.091
10727TIP3    H132124   1.124   1.398  -0.092
10727TIP3    H232125   1.003   1.343  -0.020
10728TIP3   OH232126   2.052   3.301   2.192
10728TIP3    H132127   1.999   3.329   2.267
10728TIP3    H232128   2.123   3.365   2.187
10729TIP3   OH232129   6.444   4.972   3.520
10729TIP3    H132130   6.484   5.053   3.490
10729TIP3    H232131   6.354   4.997   3.541
10730TIP3   OH232132   8.063   1.305   3.570
10730TIP3    H132133   8.107   1.359   3.636
10730TIP3    H232134   8.119   1.312   3.493
10731TIP3   OH232135   7.809   0.429   0.627
10731TIP3    H132136   7.758   0.452   0.705
10731TIP3    H232137   7.747   0.386   0.569
10732TIP3   OH232138   4.955   1.758   1.724
10732TIP3    H132139   4.885   1.811   1.763
10732TIP3    H232140   4.945   1.672   1.766
10733TIP3   OH232141   1.802   7.742   2.307
10733TIP3    H132142   1.824   7.668   2.364
10733TIP3    H232143   1.771   7.810   2.367
10734TIP3   OH232144   0.636   3.026   6.326
10734TIP3    H132145   0.636   2.966   6.400
10734TIP3    H232146   0.625   3.113   6.366
10735TIP3   OH232147   7.929   5.823   1.376
10735TIP3    H132148   7.925   5.741   1.424
10735TIP3    H232149   7.888   5.804   1.292
10736TIP3   OH232150   6.860   7.038   5.702
10736TIP3    H132151   6.827   6.975   5.766
10736TIP3    H232152   6.954   7.045   5.722
10737TIP3   OH232153   7.626   6.651   3.357
10737TIP3    H132154   7.720   6.637   3.360
10737TIP3    H232155   7.615   6.738   3.318
10738TIP3   OH232156   1.179   1.581   0.878
10738TIP3    H132157   1.268   1.556   0.905
10738TIP3    H232158   1.191   1.664   0.833
10739TIP3   OH232159   0.307   7.362   1.676
10739TIP3    H132160   0.346   7.318   1.600
10739TIP3    H232161   0.376   7.360   1.742
10740TIP3   OH232162   3.804   7.236   3.139
10740TIP3    H132163   3.793   7.215   3.232
10740TIP3    H232164   3.844   7.323   3.139
10741TIP3   OH232165   3.290   5.782   0.422
10741TIP3    H132166   3.282   5.748   0.511
10741TIP3    H232167   3.200   5.798   0.394
10742TIP3   OH232168   2.393   5.748   0.574
10742TIP3    H132169   2.390   5.657   0.604
10742TIP3    H232170   2.435   5.795   0.646
10743TIP3   OH232171   0.944   2.109   1.890
10743TIP3    H132172   0.869   2.166   1.902
10743TIP3    H232173   1.015   2.150   1.940
10744TIP3   OH232174   2.547   1.973   6.485
10744TIP3    H132175   2.576   2.045   6.542
10744TIP3    H232176   2.623   1.915   6.481
10745TIP3   OH232177   5.997   3.858   3.132
10745TIP3    H132178   6.081   3.898   3.152
10745TIP3    H232179   6.018   3.766   3.113
10746TIP3   OH232180   4.824   0.976   4.370
10746TIP3    H132181   4.783   1.057   4.340
10746TIP3    H232182   4.873   1.002   4.448
10747TIP3   OH232183   0.963   1.994   4.644
10747TIP3    H132184   1.054   1.999   4.614
10747TIP3    H232185   0.947   1.901   4.660
10748TIP3   OH232186   1.996   5.538   6.133
10748TIP3    H132187   2.056   5.613   6.136
10748TIP3    H232188   1.909   5.578   6.130
10749TIP3   OH232189   4.849   6.464   2.672
10749TIP3    H132190   4.834   6.405   2.598
10749TIP3    H232191   4.924   6.518   2.646
10750TIP3   OH232192   7.428   0.775   1.089
10750TIP3    H132193   7.419   0.828   1.169
10750TIP3    H232194   7.346   0.790   1.042
10751TIP3   OH232195   3.235   6.928   5.355
10751TIP3    H132196   3.202   6.940   5.444
10751TIP3    H232197   3.156   6.917   5.301
10752TIP3   OH232198   3.850   2.267   3.653
10752TIP3    H132199   3.905   2.189   3.663
10752TIP3    H232200   3.801   2.273   3.735
10753TIP3   OH232201   5.867   7.165   1.810
10753TIP3    H132202   5.962   7.169   1.826
10753TIP3    H232203   5.859   7.150   1.716
10754TIP3   OH232204   6.430   6.204   4.489
10754TIP3    H132205   6.500   6.256   4.527
10754TIP3    H232206   6.417   6.239   4.401
10755TIP3   OH232207   6.797   1.997   4.662
10755TIP3    H132208   6.838   2.006   4.576
10755TIP3    H232209   6.765   1.907   4.664
10756TIP3   OH232210   2.248   6.134   4.290
10756TIP3    H132211   2.243   6.043   4.319
10756TIP3    H232212   2.293   6.179   4.362
10757TIP3   OH232213   7.224   7.252   0.126
10757TIP3    H132214   7.133   7.278   0.114
10757TIP3    H232215   7.257   7.311   0.194
10758TIP3   OH232216   7.381   6.193   5.845
10758TIP3    H132217   7.346   6.210   5.757
10758TIP3    H232218   7.311   6.221   5.904
10759TIP3   OH232219   1.297   6.904   0.814
10759TIP3    H132220   1.288   6.992   0.852
10759TIP3    H232221   1.210   6.884   0.780
10760TIP3   OH232222   1.658   3.383   2.130
10760TIP3    H132223   1.611   3.463   2.105
10760TIP3    H232224   1.720   3.368   2.058
10761TIP3   OH232225   0.262   2.613   4.248
10761TIP3    H132226   0.305   2.582   4.169
10761TIP3    H232227   0.317   2.583   4.320
10762TIP3   OH232228   6.394   7.586   0.015
10762TIP3    H132229   6.381   7.495   0.042
10762TIP3    H232230   6.318   7.632   0.050
10763TIP3   OH232231   4.346   7.147   0.042
10763TIP3    H132232   4.430   7.101   0.047
10763TIP3    H232233   4.328   7.174   0.132
10764TIP3   OH232234   0.231   0.867   6.752
10764TIP3    H132235   0.258   0.807   6.682
10764TIP3    H232236   0.306   0.870   6.811
10765TIP3   OH232237   4.107   2.112   1.784
10765TIP3    H132238   4.086   2.204   1.769
10765TIP3    H232239   4.203   2.108   1.778
10766TIP3   OH232240   2.700   1.335   0.773
10766TIP3    H132241   2.665   1.341   0.862
10766TIP3    H232242   2.634   1.377   0.718
10767TIP3   OH232243   5.186   7.482   1.946
10767TIP3    H132244   5.194   7.573   1.918
10767TIP3    H232245   5.199   7.431   1.865
10768TIP3   OH232246   5.309   5.400   5.524
10768TIP3    H132247   5.356   5.355   5.595
10768TIP3    H232248   5.307   5.336   5.453
10769TIP3   OH232249   0.375   1.668   6.711
10769TIP3    H132250   0.408   1.603   6.773
10769TIP3    H232251   0.441   1.736   6.710
10770TIP3   OH232252   1.262   0.393   3.792
10770TIP3    H132253   1.202   0.467   3.794
10770TIP3    H232254   1.343   0.426   3.829
10771TIP3   OH232255   4.341   2.192   4.643
10771TIP3    H132256   4.404   2.253   4.680
10771TIP3    H232257   4.385   2.107   4.646
10772TIP3   OH232258   3.415   3.081   0.052
10772TIP3    H132259   3.412   3.067  -0.042
10772TIP3    H232260   3.509   3.084   0.073
10773TIP3   OH232261   0.004   2.833   1.454
10773TIP3    H132262  -0.019   2.908   1.509
10773TIP3    H232263   0.099   2.842   1.441
10774TIP3   OH232264   4.668   6.936   3.115
10774TIP3    H132265   4.666   6.984   3.198
10774TIP3    H232266   4.761   6.930   3.092
10775TIP3   OH232267   7.557   0.874   6.649
10775TIP3    H132268   7.601   0.886   6.564
10775TIP3    H232269   7.626   0.839   6.706
10776TIP3   OH232270   2.660   3.455   3.704
10776TIP3    H132271   2.668   3.516   3.631
10776TIP3    H232272   2.566   3.454   3.723
10777TIP3   OH232273   3.669   4.579   2.042
10777TIP3    H132274   3.607   4.612   1.976
10777TIP3    H232275   3.739   4.538   1.991
10778TIP3   OH232276   8.125   1.210   2.075
10778TIP3    H132277   8.096   1.123   2.103
10778TIP3    H232278   8.205   1.193   2.026
10779TIP3   OH232279   4.196   3.735   5.083
10779TIP3    H132280   4.213   3.729   5.177
10779TIP3    H232281   4.195   3.829   5.064
10780TIP3   OH232282   2.620   2.508   3.580
10780TIP3    H132283   2.687   2.569   3.612
10780TIP3    H232284   2.557   2.563   3.534
10781TIP3   OH232285   0.959   4.055   5.239
10781TIP3    H132286   0.940   3.977   5.291
10781TIP3    H232287   1.030   4.028   5.180
10782TIP3   OH232288   6.365   4.832   6.046
10782TIP3    H132289   6.343   4.739   6.058
10782TIP3    H232290   6.404   4.836   5.959
10783TIP3   OH232291   3.357   1.099   6.298
10783TIP3    H132292   3.397   1.133   6.377
10783TIP3    H232293   3.414   1.027   6.271
10784TIP3   OH232294   3.284   5.473   5.466
10784TIP3    H132295   3.222   5.405   5.492
10784TIP3    H232296   3.365   5.452   5.514
10785TIP3   OH232297   6.512   2.903   2.013
10785TIP3    H132298   6.517   2.820   1.966
10785TIP3    H232299   6.598   2.914   2.052
10786TIP3   OH232300   7.034   5.984   0.433
10786TIP3    H132301   7.070   6.006   0.519
10786TIP3    H232302   7.034   6.066   0.384
10787TIP3   OH232303   2.355   0.273   4.626
10787TIP3    H132304   2.379   0.254   4.535
10787TIP3    H232305   2.310   0.194   4.656
10788TIP3   OH232306   0.046   5.067   2.960
10788TIP3    H132307  -0.029   5.008   2.956
10788TIP3    H232308   0.063   5.077   3.053
10789TIP3   OH232309   3.540   5.739   4.342
10789TIP3    H132310   3.548   5.832   4.364
10789TIP3    H232311   3.446   5.722   4.348
10790TIP3   OH232312   7.802   4.951   1.460
10790TIP3    H132313   7.731   4.900   1.420
10790TIP3    H232314   7.838   5.002   1.388
10791TIP3   OH232315   2.481   1.145   4.832
10791TIP3    H132316   2.569   1.136   4.870
10791TIP3    H232317   2.455   1.055   4.812
10792TIP3   OH232318   6.864   0.175   2.745
10792TIP3    H132319   6.805   0.239   2.703
10792TIP3    H232320   6.869   0.204   2.836
10793TIP3   OH232321   0.822   3.501   1.214
10793TIP3    H132322   0.749   3.461   1.261
10793TIP3    H232323   0.818   3.463   1.126
10794TIP3   OH232324   6.827   4.466   2.208
10794TIP3    H132325   6.920   4.482   2.225
10794TIP3    H232326   6.823   4.377   2.174
10795TIP3   OH232327   4.003   5.824   1.818
10795TIP3    H132328   4.042   5.886   1.756
10795TIP3    H232329   3.943   5.876   1.871
10796TIP3   OH232330   8.041   0.101   5.022
10796TIP3    H132331   8.110   0.152   4.979
10796TIP3    H232332   8.086   0.023   5.054
10797TIP3   OH232333   3.389   6.427   3.244
10797TIP3    H132334   3.452   6.373   3.292
10797TIP3    H232335   3.326   6.364   3.207
10798TIP3   OH232336   4.261   5.067   4.133
10798TIP3    H132337   4.186   5.081   4.191
10798TIP3    H232338   4.267   4.972   4.124
10799TIP3   OH232339   2.919   6.246   0.251
10799TIP3    H132340   2.960   6.163   0.228
10799TIP3    H232341   2.876   6.275   0.170
10800TIP3   OH232342   7.085   6.980   0.731
10800TIP3    H132343   7.064   6.892   0.697
10800TIP3    H232344   7.150   7.014   0.669
10801TIP3   OH232345   5.171   6.321   3.846
10801TIP3    H132346   5.237   6.286   3.906
10801TIP3    H232347   5.168   6.258   3.774
10802TIP3   OH232348   3.820   6.298   3.560
10802TIP3    H132349   3.728   6.309   3.585
10802TIP3    H232350   3.820   6.217   3.510
10803TIP3   OH232351   4.399   2.309   6.048
10803TIP3    H132352   4.418   2.343   6.135
10803TIP3    H232353   4.459   2.356   5.990
10804TIP3   OH232354   5.019   5.214   0.489
10804TIP3    H132355   4.990   5.276   0.556
10804TIP3    H232356   4.939   5.193   0.440
10805TIP3   OH232357   5.358   4.070   5.119
10805TIP3    H132358   5.350   4.158   5.156
10805TIP3    H232359   5.399   4.083   5.034
10806TIP3   OH232360   1.454   2.235   5.717
10806TIP3    H132361   1.407   2.166   5.670
10806TIP3    H232362   1.406   2.315   5.697
10807TIP3   OH232363   7.189   7.265   6.720
10807TIP3    H132364   7.198   7.188   6.777
10807TIP3    H232365   7.144   7.232   6.642
10808TIP3   OH232366   5.889   5.018   4.302
10808TIP3    H132367   5.901   4.923   4.304
10808TIP3    H232368   5.970   5.053   4.338
10809TIP3   OH232369   2.063   2.210   3.897
10809TIP3    H132370   2.008   2.264   3.953
10809TIP3    H232371   2.152   2.238   3.918
10810TIP3   OH232372   1.746   3.962   4.184
10810TIP3    H132373   1.690   4.008   4.122
10810TIP3    H232374   1.797   3.902   4.130
10811TIP3   OH232375   5.008   5.508   2.424
10811TIP3    H132376   5.039   5.595   2.451
10811TIP3    H232377   5.045   5.448   2.489
10812TIP3   OH232378   7.178   1.191   0.616
10812TIP3    H132379   7.245   1.251   0.583
10812TIP3    H232380   7.210   1.165   0.703
10813TIP3   OH232381   4.546   6.061   1.884
10813TIP3    H132382   4.575   6.152   1.872
10813TIP3    H232383   4.627   6.012   1.897
10814TIP3   OH232384   3.617   4.176   4.818
10814TIP3    H132385   3.680   4.129   4.762
10814TIP3    H232386   3.536   4.126   4.811
10815TIP3   OH232387   3.231   6.253   4.158
10815TIP3    H132388   3.156   6.255   4.099
10815TIP3    H232389   3.197   6.213   4.238
10816TIP3   OH232390   3.008   0.156   0.399
10816TIP3    H132391   3.088   0.208   0.387
10816TIP3    H232392   2.952   0.181   0.325
10817TIP3   OH232393   7.530   6.931   3.539
10817TIP3    H132394   7.461   6.950   3.475
10817TIP3    H232395   7.526   7.004   3.601
10818TIP3   OH232396   7.595   1.177   5.231
10818TIP3    H132397   7.663   1.109   5.237
10818TIP3    H232398   7.567   1.175   5.139
10819TIP3   OH232399   4.832   7.032   0.100
10819TIP3    H132400   4.866   6.950   0.134
10819TIP3    H232401   4.907   7.091   0.095
10820TIP3   OH232402   5.193   2.630   2.317
10820TIP3    H132403   5.180   2.567   2.245
10820TIP3    H232404   5.262   2.591   2.371
10821TIP3   OH232405   5.113   5.695   1.111
10821TIP3    H132406   5.111   5.789   1.130
10821TIP3    H232407   5.148   5.656   1.191
10822TIP3   OH232408   5.484   0.813   6.118
10822TIP3    H132409   5.460   0.892   6.069
10822TIP3    H232410   5.539   0.763   6.058
10823TIP3   OH232411   1.841   1.030   5.141
10823TIP3    H132412   1.802   0.947   5.168
10823TIP3    H232413   1.788   1.058   5.066
10824TIP3   OH232414   6.227   6.717   5.428
10824TIP3    H132415   6.284   6.765   5.367
10824TIP3    H232416   6.281   6.643   5.457
10825TIP3   OH232417   3.144   4.727   5.162
10825TIP3    H132418   3.103   4.657   5.213
10825TIP3    H232419   3.145   4.694   5.072
10826TIP3   OH232420   6.013   3.980   0.498
10826TIP3    H132421   5.918   3.994   0.494
10826TIP3    H232422   6.025   3.921   0.573
10827TIP3   OH232423   5.779   1.001   5.042
10827TIP3    H132424   5.786   1.065   4.971
10827TIP3    H232425   5.712   1.037   5.100
10828TIP3   OH232426   5.868   3.549   3.767
10828TIP3    H132427   5.901   3.583   3.851
10828TIP3    H232428   5.946   3.538   3.714
10829TIP3   OH232429   2.168   5.322   3.754
10829TIP3    H132430   2.206   5.253   3.699
10829TIP3    H232431   2.157   5.396   3.694
10830TIP3   OH232432   5.646   4.099   3.658
10830TIP3    H132433   5.710   4.060   3.718
10830TIP3    H232434   5.597   4.024   3.623
10831TIP3   OH232435   7.685   4.392   6.089
10831TIP3    H132436   7.751   4.374   6.022
10831TIP3    H232437   7.662   4.484   6.077
10832TIP3   OH232438   7.073   4.042   0.658
10832TIP3    H132439   7.008   4.040   0.728
10832TIP3    H232440   7.048   4.115   0.603
10833TIP3   OH232441   2.977   0.921   2.018
10833TIP3    H132442   3.007   1.001   1.975
10833TIP3    H232443   2.881   0.928   2.016
10834TIP3   OH232444   1.907   7.436   2.744
10834TIP3    H132445   1.896   7.512   2.687
10834TIP3    H232446   1.929   7.473   2.829
10835TIP3   OH232447   3.334   0.105   0.600
10835TIP3    H132448   3.331   0.195   0.567
10835TIP3    H232449   3.378   0.112   0.685
10836TIP3   OH232450   1.385   6.150   3.300
10836TIP3    H132451   1.366   6.199   3.220
10836TIP3    H232452   1.303   6.153   3.350
10837TIP3   OH232453   4.177   6.326   4.537
10837TIP3    H132454   4.260   6.330   4.584
10837TIP3    H232455   4.201   6.334   4.445
10838TIP3   OH232456   1.228   3.754   0.861
10838TIP3    H132457   1.251   3.779   0.950
10838TIP3    H232458   1.256   3.828   0.807
10839TIP3   OH232459   0.632   7.508   6.698
10839TIP3    H132460   0.613   7.601   6.684
10839TIP3    H232461   0.650   7.501   6.792
10840TIP3   OH232462   3.278   7.270   0.274
10840TIP3    H132463   3.215   7.340   0.254
10840TIP3    H232464   3.359   7.297   0.230
10841TIP3   OH232465   2.091   7.110   4.546
10841TIP3    H132466   2.135   7.035   4.588
10841TIP3    H232467   2.013   7.125   4.601
10842TIP3   OH232468   5.528   2.509   5.046
10842TIP3    H132469   5.555   2.519   5.137
10842TIP3    H232470   5.542   2.595   5.007
10843TIP3   OH232471   0.579   0.503   0.413
10843TIP3    H132472   0.526   0.582   0.402
10843TIP3    H232473   0.546   0.443   0.346
10844TIP3   OH232474   0.447   6.288   3.974
10844TIP3    H132475   0.468   6.205   3.931
10844TIP3    H232476   0.352   6.285   3.987
10845TIP3   OH232477   4.736   0.825   4.762
10845TIP3    H132478   4.784   0.835   4.679
10845TIP3    H232479   4.792   0.769   4.815
10846TIP3   OH232480   4.351   3.055   0.437
10846TIP3    H132481   4.280   3.112   0.410
10846TIP3    H232482   4.308   2.978   0.474
10847TIP3   OH232483   4.303   1.052   0.022
10847TIP3    H132484   4.361   1.024   0.093
10847TIP3    H232485   4.234   0.986   0.020
10848TIP3   OH232486   4.493   4.538   4.747
10848TIP3    H132487   4.453   4.605   4.802
10848TIP3    H232488   4.582   4.530   4.780
10849TIP3   OH232489   5.833   0.055   6.562
10849TIP3    H132490   5.921   0.018   6.564
10849TIP3    H232491   5.836   0.120   6.491
10850TIP3   OH232492   7.234   3.899   4.015
10850TIP3    H132493   7.182   3.827   3.980
10850TIP3    H232494   7.205   3.976   3.966
10851TIP3   OH232495   5.162   7.509   3.517
10851TIP3    H132496   5.069   7.501   3.539
10851TIP3    H232497   5.169   7.469   3.430
10852TIP3   OH232498   0.703   4.375   2.727
10852TIP3    H132499   0.681   4.461   2.765
10852TIP3    H232500   0.693   4.314   2.801
10853TIP3   OH232501   2.620   4.539   2.387
10853TIP3    H132502   2.653   4.503   2.304
10853TIP3    H232503   2.541   4.487   2.405
10854TIP3   OH232504   5.209   4.785   1.209
10854TIP3    H132505   5.176   4.703   1.173
10854TIP3    H232506   5.191   4.779   1.303
10855TIP3   OH232507   3.882   4.581   0.544
10855TIP3    H132508   3.957   4.605   0.597
10855TIP3    H232509   3.819   4.544   0.606
10856TIP3   OH232510   6.217   5.794   1.608
10856TIP3    H132511   6.194   5.875   1.653
10856TIP3    H232512   6.165   5.796   1.528
10857TIP3   OH232513   1.182   0.133   5.263
10857TIP3    H132514   1.255   0.133   5.201
10857TIP3    H232515   1.138   0.217   5.248
10858TIP3   OH232516   4.845   6.328   6.482
10858TIP3    H132517   4.839   6.364   6.394
10858TIP3    H232518   4.884   6.398   6.534
10859TIP3   OH232519   3.365   3.482   5.025
10859TIP3    H132520   3.435   3.445   5.079
10859TIP3    H232521   3.399   3.568   4.998
10860TIP3   OH232522   3.907   1.837   1.410
10860TIP3    H132523   3.858   1.915   1.383
10860TIP3    H232524   3.924   1.790   1.328
10861TIP3   OH232525   6.371   1.573   6.714
10861TIP3    H132526   6.466   1.574   6.724
10861TIP3    H232527   6.340   1.514   6.782
10862TIP3   OH232528   5.358   5.740   3.345
10862TIP3    H132529   5.335   5.728   3.437
10862TIP3    H232530   5.448   5.772   3.347
10863TIP3   OH232531   1.828   7.356   6.666
10863TIP3    H132532   1.849   7.449   6.680
10863TIP3    H232533   1.749   7.358   6.611
10864TIP3   OH232534   7.038   7.824   2.173
10864TIP3    H132535   7.101   7.895   2.176
10864TIP3    H232536   7.088   7.749   2.141
10865TIP3   OH232537   2.509   2.937   5.284
10865TIP3    H132538   2.454   2.965   5.211
10865TIP3    H232539   2.518   3.016   5.339
10866TIP3   OH232540   2.550   3.473   4.836
10866TIP3    H132541   2.575   3.506   4.750
10866TIP3    H232542   2.482   3.534   4.866
10867TIP3   OH232543   1.878   3.149   4.552
10867TIP3    H132544   1.863   3.093   4.475
10867TIP3    H232545   1.902   3.234   4.515
10868TIP3   OH232546   6.036   6.909   0.313
10868TIP3    H132547   6.052   6.828   0.360
10868TIP3    H232548   6.009   6.881   0.225
10869TIP3   OH232549   1.115   2.957   2.070
10869TIP3    H132550   1.180   3.005   2.123
10869TIP3    H232551   1.155   2.872   2.055
10870TIP3   OH232552   7.313   2.294   6.585
10870TIP3    H132553   7.239   2.330   6.536
10870TIP3    H232554   7.292   2.201   6.595
10871TIP3   OH232555   8.136   2.998   1.261
10871TIP3    H132556   8.206   2.983   1.197
10871TIP3    H232557   8.174   3.058   1.325
10872TIP3   OH232558   1.638   1.687   4.473
10872TIP3    H132559   1.610   1.757   4.414
10872TIP3    H232560   1.569   1.620   4.465
10873TIP3   OH232561   4.561   0.641   3.294
10873TIP3    H132562   4.509   0.658   3.215
10873TIP3    H232563   4.613   0.720   3.306
10874TIP3   OH232564   4.091   6.737   4.007
10874TIP3    H132565   4.170   6.736   4.061
10874TIP3    H232566   4.111   6.677   3.935
10875TIP3   OH232567   4.053   0.096   3.780
10875TIP3    H132568   4.081   0.155   3.710
10875TIP3    H232569   4.097   0.014   3.762
10876TIP3   OH232570   6.489   7.020   5.785
10876TIP3    H132571   6.480   7.073   5.706
10876TIP3    H232572   6.559   6.958   5.763
10877TIP3   OH232573   0.461   0.703   6.695
10877TIP3    H132574   0.403   0.676   6.624
10877TIP3    H232575   0.464   0.628   6.753
10878TIP3   OH232576   6.917   6.127   3.786
10878TIP3    H132577   6.978   6.189   3.827
10878TIP3    H232578   6.934   6.136   3.693
10879TIP3   OH232579   6.408   5.582   6.432
10879TIP3    H132580   6.488   5.602   6.383
10879TIP3    H232581   6.382   5.495   6.402
10880TIP3   OH232582   6.326   6.337   0.478
10880TIP3    H132583   6.248   6.282   0.480
10880TIP3    H232584   6.345   6.349   0.385
10881TIP3   OH232585   5.315   0.288   3.928
10881TIP3    H132586   5.242   0.349   3.937
10881TIP3    H232587   5.335   0.262   4.018
10882TIP3   OH232588   6.210   0.014   3.711
10882TIP3    H132589   6.150  -0.049   3.751
10882TIP3    H232590   6.202  -0.001   3.617
10883TIP3   OH232591   4.724   1.805   1.275
10883TIP3    H132592   4.650   1.775   1.329
10883TIP3    H232593   4.795   1.745   1.297
10884TIP3   OH232594   1.765   2.339   3.781
10884TIP3    H132595   1.758   2.244   3.790
10884TIP3    H232596   1.674   2.370   3.782
10885TIP3   OH232597   4.082   6.355   0.614
10885TIP3    H132598   4.154   6.400   0.570
10885TIP3    H232599   4.003   6.389   0.571
10886TIP3   OH232600   4.547   5.378   4.788
10886TIP3    H132601   4.524   5.305   4.731
10886TIP3    H232602   4.465   5.402   4.832
10887TIP3   OH232603   2.411   7.696   5.868
10887TIP3    H132604   2.386   7.694   5.776
10887TIP3    H232605   2.391   7.785   5.897
10888TIP3   OH232606   0.118   4.645   5.190
10888TIP3    H132607   0.106   4.733   5.225
10888TIP3    H232608   0.131   4.657   5.096
10889TIP3   OH232609   1.355   3.364   1.944
10889TIP3    H132610   1.415   3.434   1.969
10889TIP3    H232611   1.294   3.356   2.017
10890TIP3   OH232612   3.052   5.185   1.500
10890TIP3    H132613   3.133   5.193   1.551
10890TIP3    H232614   3.046   5.091   1.481
10891TIP3   OH232615   3.001   7.207   5.225
10891TIP3    H132616   3.093   7.232   5.226
10891TIP3    H232617   2.998   7.130   5.168
10892TIP3   OH232618   1.374   2.669   6.184
10892TIP3    H132619   1.438   2.712   6.241
10892TIP3    H232620   1.424   2.643   6.107
10893TIP3   OH232621   3.779   2.042   4.427
10893TIP3    H132622   3.705   2.052   4.368
10893TIP3    H232623   3.825   2.126   4.422
10894TIP3   OH232624   2.881   5.003   6.512
10894TIP3    H132625   2.813   5.016   6.578
10894TIP3    H232626   2.948   5.069   6.532
10895TIP3   OH232627   4.502   7.371   5.186
10895TIP3    H132628   4.581   7.364   5.239
10895TIP3    H232629   4.527   7.425   5.111
10896TIP3   OH232630   3.827   6.394   1.051
10896TIP3    H132631   3.888   6.467   1.057
10896TIP3    H232632   3.759   6.425   0.990
10897TIP3   OH232633   1.007   3.629   2.003
10897TIP3    H132634   1.090   3.590   2.030
10897TIP3    H232635   1.021   3.724   2.011
10898TIP3   OH232636   2.545   0.449   4.699
10898TIP3    H132637   2.616   0.446   4.635
10898TIP3    H232638   2.487   0.376   4.676
10899TIP3   OH232639   7.823   5.921   0.863
10899TIP3    H132640   7.760   5.867   0.910
10899TIP3    H232641   7.847   5.868   0.786
10900TIP3   OH232642   4.201   0.003   1.920
10900TIP3    H132643   4.230   0.091   1.944
10900TIP3    H232644   4.142   0.017   1.846
10901TIP3   OH232645   1.120   1.852   2.897
10901TIP3    H132646   1.036   1.884   2.931
10901TIP3    H232647   1.148   1.921   2.836
10902TIP3   OH232648   4.129   4.669   0.174
10902TIP3    H132649   4.045   4.658   0.130
10902TIP3    H232650   4.192   4.679   0.103
10903TIP3   OH232651   6.657   6.791   5.764
10903TIP3    H132652   6.738   6.751   5.732
10903TIP3    H232653   6.631   6.738   5.839
10904TIP3   OH232654   5.580   2.168   0.212
10904TIP3    H132655   5.576   2.187   0.306
10904TIP3    H232656   5.639   2.234   0.176
10905TIP3   OH232657   2.893   1.055   3.682
10905TIP3    H132658   2.815   1.045   3.629
10905TIP3    H232659   2.862   1.054   3.772
10906TIP3   OH232660   2.079   1.058   5.674
10906TIP3    H132661   2.082   1.058   5.579
10906TIP3    H232662   1.992   1.024   5.695
10907TIP3   OH232663   3.846   5.357   4.006
10907TIP3    H132664   3.835   5.437   4.056
10907TIP3    H232665   3.940   5.351   3.989
10908TIP3   OH232666   2.900   1.081   5.163
10908TIP3    H132667   2.844   1.069   5.240
10908TIP3    H232668   2.927   0.993   5.139
10909TIP3   OH232669   3.620   6.429   6.610
10909TIP3    H132670   3.598   6.412   6.702
10909TIP3    H232671   3.682   6.501   6.613
10910TIP3   OH232672   6.866   4.886   3.370
10910TIP3    H132673   6.887   4.979   3.378
10910TIP3    H232674   6.770   4.883   3.361
10911TIP3   OH232675   1.125   4.319   5.379
10911TIP3    H132676   1.084   4.304   5.294
10911TIP3    H232677   1.056   4.299   5.442
10912TIP3   OH232678   4.501   5.215   3.598
10912TIP3    H132679   4.559   5.278   3.555
10912TIP3    H232680   4.458   5.266   3.667
10913TIP3   OH232681   4.597   1.179   0.437
10913TIP3    H132682   4.504   1.172   0.458
10913TIP3    H232683   4.610   1.122   0.361
10914TIP3   OH232684   6.098   6.542   3.796
10914TIP3    H132685   6.157   6.533   3.721
10914TIP3    H232686   6.048   6.622   3.777
10915TIP3   OH232687   1.283   7.001   6.548
10915TIP3    H132688   1.251   6.914   6.524
10915TIP3    H232689   1.368   6.984   6.590
10916TIP3   OH232690   7.806   2.649   2.072
10916TIP3    H132691   7.729   2.598   2.046
10916TIP3    H232692   7.864   2.645   1.996
10917TIP3   OH232693   2.795   4.039   0.749
10917TIP3    H132694   2.850   4.117   0.742
10917TIP3    H232695   2.718   4.058   0.695
10918TIP3   OH232696   7.847   6.306   6.530
10918TIP3    H132697   7.824   6.354   6.610
10918TIP3    H232698   7.793   6.227   6.534
10919TIP3   OH232699   5.482   2.909   3.218
10919TIP3    H132700   5.569   2.926   3.182
10919TIP3    H232701   5.443   2.995   3.229
10920TIP3   OH232702   4.417   7.070   3.579
10920TIP3    H132703   4.500   7.053   3.535
10920TIP3    H232704   4.442   7.100   3.666
10921TIP3   OH232705   7.017   1.646   1.287
10921TIP3    H132706   6.971   1.729   1.302
10921TIP3    H232707   7.010   1.631   1.193
10922TIP3   OH232708   3.896   3.778   0.730
10922TIP3    H132709   3.958   3.735   0.789
10922TIP3    H232710   3.900   3.870   0.754
10923TIP3   OH232711   7.708   1.545   2.539
10923TIP3    H132712   7.695   1.562   2.446
10923TIP3    H232713   7.621   1.556   2.577
10924TIP3   OH232714   1.224   3.158   0.601
10924TIP3    H132715   1.193   3.067   0.607
10924TIP3    H232716   1.181   3.203   0.674
10925TIP3   OH232717   3.976   0.080   4.992
10925TIP3    H132718   4.056   0.034   5.020
10925TIP3    H232719   3.948   0.033   4.913
10926TIP3   OH232720   0.986   7.527   0.515
10926TIP3    H132721   0.928   7.598   0.545
10926TIP3    H232722   0.926   7.458   0.486
10927TIP3   OH232723   5.087   7.470   5.654
10927TIP3    H132724   5.150   7.469   5.726
10927TIP3    H232725   5.081   7.378   5.627
10928TIP3   OH232726   5.405   5.274   6.553
10928TIP3    H132727   5.444   5.357   6.525
10928TIP3    H232728   5.390   5.284   6.646
10929TIP3   OH232729   5.092   4.701   2.596
10929TIP3    H132730   5.018   4.682   2.654
10929TIP3    H232731   5.081   4.793   2.571
10930TIP3   OH232732   5.453   2.769   0.071
10930TIP3    H132733   5.427   2.712  -0.001
10930TIP3    H232734   5.535   2.730   0.103
10931TIP3   OH232735   3.957   1.292   4.878
10931TIP3    H132736   3.884   1.272   4.819
10931TIP3    H232737   3.932   1.253   4.962
10932TIP3   OH232738   3.137   3.363   2.909
10932TIP3    H132739   3.181   3.415   2.976
10932TIP3    H232740   3.188   3.283   2.903
10933TIP3   OH232741   2.816   2.162   0.557
10933TIP3    H132742   2.805   2.211   0.476
10933TIP3    H232743   2.761   2.085   0.547
10934TIP3   OH232744   6.926   2.100   4.426
10934TIP3    H132745   6.860   2.079   4.360
10934TIP3    H232746   7.000   2.132   4.376
10935TIP3   OH232747   8.082   5.410   6.191
10935TIP3    H132748   8.107   5.320   6.210
10935TIP3    H232749   8.150   5.464   6.232
10936TIP3   OH232750   5.579   2.830   2.639
10936TIP3    H132751   5.492   2.824   2.599
10936TIP3    H232752   5.564   2.816   2.732
10937TIP3   OH232753   0.020   4.322   4.603
10937TIP3    H132754   0.024   4.332   4.508
10937TIP3    H232755   0.074   4.393   4.637
10938TIP3   OH232756   8.180   5.176   0.258
10938TIP3    H132757   8.209   5.205   0.344
10938TIP3    H232758   8.254   5.197   0.200
10939TIP3   OH232759   2.879   2.009   2.199
10939TIP3    H132760   2.928   2.061   2.136
10939TIP3    H232761   2.790   2.008   2.165
10940TIP3   OH232762   6.011   4.462   3.354
10940TIP3    H132763   6.001   4.370   3.379
10940TIP3    H232764   6.090   4.491   3.399
10941TIP3   OH232765   4.668   2.798   6.153
10941TIP3    H132766   4.756   2.768   6.176
10941TIP3    H232767   4.628   2.820   6.237
10942TIP3   OH232768   3.676   0.240   2.398
10942TIP3    H132769   3.664   0.335   2.403
10942TIP3    H232770   3.588   0.204   2.404
10943TIP3   OH232771   2.433   5.235   3.423
10943TIP3    H132772   2.459   5.156   3.375
10943TIP3    H232773   2.360   5.207   3.477
10944TIP3   OH232774   7.063   1.502   6.250
10944TIP3    H132775   7.071   1.587   6.295
10944TIP3    H232776   6.969   1.483   6.252
10945TIP3   OH232777   3.912   3.966   4.282
10945TIP3    H132778   3.844   4.002   4.337
10945TIP3    H232779   3.865   3.912   4.218
10946TIP3   OH232780   4.478   6.705   4.436
10946TIP3    H132781   4.495   6.799   4.425
10946TIP3    H232782   4.521   6.664   4.362
10947TIP3   OH232783   3.942   2.231   2.892
10947TIP3    H132784   3.937   2.163   2.825
10947TIP3    H232785   3.928   2.313   2.845
10948TIP3   OH232786   6.893   3.397   1.420
10948TIP3    H132787   6.869   3.462   1.354
10948TIP3    H232788   6.821   3.334   1.418
10949TIP3   OH232789   2.751   3.926   0.194
10949TIP3    H132790   2.680   3.875   0.233
10949TIP3    H232791   2.828   3.906   0.247
10950TIP3   OH232792   2.313   0.848   6.692
10950TIP3    H132793   2.235   0.857   6.639
10950TIP3    H232794   2.373   0.796   6.638
10951TIP3   OH232795   7.561   4.014   4.938
10951TIP3    H132796   7.610   3.936   4.911
10951TIP3    H232797   7.472   3.999   4.905
10952TIP3   OH232798   2.777   3.091   6.510
10952TIP3    H132799   2.744   3.028   6.445
10952TIP3    H232800   2.802   3.168   6.458
10953TIP3   OH232801   7.855   6.824   3.128
10953TIP3    H132802   7.834   6.734   3.105
10953TIP3    H232803   7.786   6.850   3.189
10954TIP3   OH232804   4.821   5.085   0.342
10954TIP3    H132805   4.788   5.168   0.308
10954TIP3    H232806   4.857   5.041   0.265
10955TIP3   OH232807   0.551   6.286   5.922
10955TIP3    H132808   0.531   6.377   5.942
10955TIP3    H232809   0.488   6.262   5.854
10956TIP3   OH232810   5.751   5.672   0.140
10956TIP3    H132811   5.705   5.738   0.191
10956TIP3    H232812   5.698   5.593   0.148
10957TIP3   OH232813   4.872   7.162   6.309
10957TIP3    H132814   4.790   7.131   6.269
10957TIP3    H232815   4.855   7.253   6.330
10958TIP3   OH232816   6.782   0.558   2.150
10958TIP3    H132817   6.852   0.502   2.185
10958TIP3    H232818   6.702   0.507   2.165
10959TIP3   OH232819   0.134   3.479   2.875
10959TIP3    H132820   0.119   3.433   2.792
10959TIP3    H232821   0.227   3.464   2.893
10960TIP3   OH232822   2.273   1.636   2.219
10960TIP3    H132823   2.347   1.626   2.279
10960TIP3    H232824   2.293   1.579   2.145
10961TIP3   OH232825   1.533   5.203   1.651
10961TIP3    H132826   1.571   5.246   1.575
10961TIP3    H232827   1.607   5.160   1.695
10962TIP3   OH232828   7.787   3.186   1.929
10962TIP3    H132829   7.869   3.220   1.893
10962TIP3    H232830   7.811   3.101   1.965
10963TIP3   OH232831   7.308   5.019   6.662
10963TIP3    H132832   7.213   5.018   6.667
10963TIP3    H232833   7.330   4.949   6.600
10964TIP3   OH232834   5.732   1.304   2.711
10964TIP3    H132835   5.680   1.334   2.637
10964TIP3    H232836   5.755   1.214   2.690
10965TIP3   OH232837   1.018   4.101   2.659
10965TIP3    H132838   1.079   4.128   2.729
10965TIP3    H232839   0.992   4.182   2.617
10966TIP3   OH232840   7.959   7.668   0.986
10966TIP3    H132841   7.960   7.723   1.064
10966TIP3    H232842   7.943   7.579   1.019
10967TIP3   OH232843   1.900   4.251   2.418
10967TIP3    H132844   1.816   4.248   2.462
10967TIP3    H232845   1.921   4.160   2.399
10968TIP3   OH232846   0.940   3.864   4.073
10968TIP3    H132847   0.847   3.844   4.078
10968TIP3    H232848   0.946   3.931   4.005
10969TIP3   OH232849   2.886   3.618   0.849
10969TIP3    H132850   2.844   3.605   0.764
10969TIP3    H232851   2.897   3.530   0.884
10970TIP3   OH232852   5.887   7.111   6.522
10970TIP3    H132853   5.954   7.043   6.515
10970TIP3    H232854   5.921   7.172   6.588
10971TIP3   OH232855   4.610   0.247   0.474
10971TIP3    H132856   4.563   0.166   0.495
10971TIP3    H232857   4.698   0.233   0.510
10972TIP3   OH232858   6.059   6.146   2.470
10972TIP3    H132859   6.052   6.056   2.437
10972TIP3    H232860   5.981   6.190   2.436
10973TIP3   OH232861   6.602   0.942   4.784
10973TIP3    H132862   6.648   0.924   4.866
10973TIP3    H232863   6.525   0.993   4.810
10974TIP3   OH232864   1.521   7.201   1.215
10974TIP3    H132865   1.439   7.250   1.219
10974TIP3    H232866   1.518   7.142   1.290
10975TIP3   OH232867   8.038   0.251   6.309
10975TIP3    H132868   8.034   0.275   6.402
10975TIP3    H232869   7.998   0.325   6.264
10976TIP3   OH232870   5.420   7.262   3.807
10976TIP3    H132871   5.483   7.257   3.735
10976TIP3    H232872   5.371   7.343   3.791
10977TIP3   OH232873   4.842   3.030   5.002
10977TIP3    H132874   4.765   2.977   5.020
10977TIP3    H232875   4.916   2.974   5.026
10978TIP3   OH232876   5.503   2.706   6.436
10978TIP3    H132877   5.542   2.721   6.350
10978TIP3    H232878   5.576   2.677   6.490
10979TIP3   OH232879   5.453   5.147   2.582
10979TIP3    H132880   5.427   5.057   2.600
10979TIP3    H232881   5.399   5.173   2.507
10980TIP3   OH232882   1.353   7.206   5.319
10980TIP3    H132883   1.317   7.229   5.233
10980TIP3    H232884   1.431   7.155   5.299
10981TIP3   OH232885   0.428   7.631   3.164
10981TIP3    H132886   0.396   7.547   3.198
10981TIP3    H232887   0.437   7.616   3.069
10982TIP3   OH232888   2.859   2.595   1.767
10982TIP3    H132889   2.765   2.613   1.766
10982TIP3    H232890   2.900   2.678   1.744
10983TIP3   OH232891   5.603   7.452   5.014
10983TIP3    H132892   5.654   7.378   5.047
10983TIP3    H232893   5.635   7.528   5.063
10984TIP3   OH232894   7.849   2.006   1.173
10984TIP3    H132895   7.869   2.099   1.180
10984TIP3    H232896   7.913   1.972   1.112
10985TIP3   OH232897   3.702   4.357   4.488
10985TIP3    H132898   3.680   4.326   4.400
10985TIP3    H232899   3.716   4.277   4.538
10986TIP3   OH232900   5.089   1.307   1.979
10986TIP3    H132901   5.093   1.215   1.955
10986TIP3    H232902   5.158   1.318   2.044
10987TIP3   OH232903   2.048   7.486   5.483
10987TIP3    H132904   2.043   7.400   5.526
10987TIP3    H232905   1.976   7.536   5.522
10988TIP3   OH232906   3.809   5.212   4.647
10988TIP3    H132907   3.803   5.175   4.735
10988TIP3    H232908   3.791   5.305   4.658
10989TIP3   OH232909   2.490   2.254   1.165
10989TIP3    H132910   2.524   2.224   1.249
10989TIP3    H232911   2.568   2.283   1.117
10990TIP3   OH232912   5.077   4.785   6.269
10990TIP3    H132913   5.085   4.775   6.364
10990TIP3    H232914   5.166   4.770   6.237
10991TIP3   OH232915   6.072   0.697   0.187
10991TIP3    H132916   6.143   0.746   0.146
10991TIP3    H232917   6.100   0.606   0.183
10992TIP3   OH232918   1.605   0.487   4.674
10992TIP3    H132919   1.679   0.528   4.719
10992TIP3    H232920   1.615   0.514   4.583
10993TIP3   OH232921   4.835   4.441   3.532
10993TIP3    H132922   4.871   4.370   3.585
10993TIP3    H232923   4.746   4.414   3.512
10994TIP3   OH232924   2.883   6.508   0.597
10994TIP3    H132925   2.958   6.452   0.617
10994TIP3    H232926   2.920   6.596   0.592
10995TIP3   OH232927   7.926   2.267   1.225
10995TIP3    H132928   7.841   2.304   1.248
10995TIP3    H232929   7.982   2.289   1.300
10996TIP3   OH232930   1.878   7.834   5.999
10996TIP3    H132931   1.886   7.923   6.033
10996TIP3    H232932   1.796   7.801   6.037
10997TIP3   OH232933   7.273   3.856   1.504
10997TIP3    H132934   7.368   3.862   1.494
10997TIP3    H232935   7.242   3.946   1.493
10998TIP3   OH232936   7.044   4.513   5.541
10998TIP3    H132937   6.989   4.575   5.589
10998TIP3    H232938   7.023   4.527   5.449
10999TIP3   OH232939   3.829   1.297   4.160
10999TIP3    H132940   3.889   1.236   4.118
10999TIP3    H232941   3.852   1.383   4.124
11000TIP3   OH232942   3.293   0.838   5.145
11000TIP3    H132943   3.305   0.764   5.205
11000TIP3    H232944   3.296   0.799   5.058
11001TIP3   OH232945   5.173   2.172   2.171
11001TIP3    H132946   5.124   2.099   2.132
11001TIP3    H232947   5.158   2.245   2.112
11002TIP3   OH232948   0.697   4.170   2.985
11002TIP3    H132949   0.629   4.169   3.052
11002TIP3    H232950   0.671   4.102   2.922
11003TIP3   OH232951   5.556   1.900   0.213
11003TIP3    H132952   5.583   1.990   0.196
11003TIP3    H232953   5.600   1.849   0.145
11004TIP3   OH232954   3.147   3.832   6.729
11004TIP3    H132955   3.060   3.830   6.690
11004TIP3    H232956   3.134   3.801   6.819
11005TIP3   OH232957   0.469   6.078   3.805
11005TIP3    H132958   0.551   6.054   3.763
11005TIP3    H232959   0.406   6.011   3.779
11006TIP3   OH232960   6.991   6.450   0.514
11006TIP3    H132961   6.974   6.392   0.588
11006TIP3    H232962   6.905   6.464   0.475
11007TIP3   OH232963   2.993   7.161   3.886
11007TIP3    H132964   2.936   7.232   3.919
11007TIP3    H232965   2.935   7.085   3.882
11008TIP3   OH232966   2.940   1.013   0.154
11008TIP3    H132967   3.024   0.967   0.155
11008TIP3    H232968   2.878   0.950   0.191
11009TIP3   OH232969   4.574   6.753   1.552
11009TIP3    H132970   4.596   6.843   1.530
11009TIP3    H232971   4.501   6.731   1.494
11010TIP3   OH232972   0.132   7.432   6.142
11010TIP3    H132973   0.051   7.383   6.159
11010TIP3    H232974   0.196   7.364   6.120
11011TIP3   OH232975   5.051   3.087   2.291
11011TIP3    H132976   5.130   3.065   2.339
11011TIP3    H232977   4.981   3.081   2.356
11012TIP3   OH232978   6.713   4.878   5.855
11012TIP3    H132979   6.793   4.834   5.885
11012TIP3    H232980   6.642   4.830   5.899
11013TIP3   OH232981   0.509   0.143   4.481
11013TIP3    H132982   0.600   0.116   4.463
11013TIP3    H232983   0.518   0.221   4.536
11014TIP3   OH232984   3.236   3.418   1.893
11014TIP3    H132985   3.283   3.335   1.901
11014TIP3    H232986   3.212   3.440   1.983
11015TIP3   OH232987   2.741   1.869   1.831
11015TIP3    H132988   2.810   1.804   1.818
11015TIP3    H232989   2.712   1.891   1.742
11016TIP3   OH232990   2.892   5.516   4.284
11016TIP3    H132991   2.953   5.585   4.259
11016TIP3    H232992   2.947   5.446   4.317
11017TIP3   OH232993   1.769   1.460   4.935
11017TIP3    H132994   1.856   1.492   4.912
11017TIP3    H232995   1.757   1.383   4.879
11018TIP3   OH232996   7.472   1.877   0.101
11018TIP3    H132997   7.535   1.879   0.029
11018TIP3    H232998   7.453   1.784   0.114
11019TIP3   OH232999   8.230   7.235   5.406
11019TIP3    H133000   8.309   7.284   5.383
11019TIP3    H233001   8.211   7.262   5.496
11020TIP3   OH233002   1.129   3.857   1.425
11020TIP3    H133003   1.200   3.916   1.451
11020TIP3    H233004   1.170   3.797   1.362
11021TIP3   OH233005   3.587   6.210   4.336
11021TIP3    H133006   3.560   6.227   4.246
11021TIP3    H233007   3.537   6.132   4.361
11022TIP3   OH233008   6.480   6.282   4.821
11022TIP3    H133009   6.472   6.189   4.840
11022TIP3    H233010   6.551   6.288   4.757
11023TIP3   OH233011   6.249   1.192   4.050
11023TIP3    H133012   6.177   1.131   4.065
11023TIP3    H233013   6.273   1.178   3.958
11024TIP3   OH233014   7.877   3.600   0.090
11024TIP3    H133015   7.879   3.507   0.115
11024TIP3    H233016   7.943   3.641   0.146
11025TIP3   OH233017   5.970   7.675   3.864
11025TIP3    H133018   5.974   7.771   3.866
11025TIP3    H233019   6.059   7.648   3.841
11026TIP3   OH233020   2.386   0.076   3.749
11026TIP3    H133021   2.340   0.145   3.702
11026TIP3    H233022   2.321   0.041   3.810
11027TIP3   OH233023   2.294   3.281   5.325
11027TIP3    H133024   2.363   3.230   5.367
11027TIP3    H233025   2.335   3.367   5.309
11028TIP3   OH233026   1.998   0.966   2.857
11028TIP3    H133027   2.000   0.912   2.936
11028TIP3    H233028   1.965   1.051   2.886
11029TIP3   OH233029   5.071   7.031   3.792
11029TIP3    H133030   5.117   7.018   3.875
11029TIP3    H233031   5.086   6.950   3.743
11030TIP3   OH233032   7.566   2.577   5.945
11030TIP3    H133033   7.626   2.649   5.963
11030TIP3    H233034   7.536   2.547   6.031
11031TIP3   OH233035   8.229   3.282   5.196
11031TIP3    H133036   8.188   3.368   5.197
11031TIP3    H233037   8.181   3.232   5.262
11032TIP3   OH233038   0.713   4.183   0.619
11032TIP3    H133039   0.742   4.105   0.572
11032TIP3    H233040   0.725   4.254   0.556
11033TIP3   OH233041   2.925   5.568   0.847
11033TIP3    H133042   3.017   5.576   0.869
11033TIP3    H233043   2.910   5.474   0.836
11034TIP3   OH233044   6.235   1.647   4.421
11034TIP3    H133045   6.223   1.735   4.457
11034TIP3    H233046   6.316   1.653   4.371
11035TIP3   OH233047   3.668   2.733   3.150
11035TIP3    H133048   3.621   2.713   3.231
11035TIP3    H233049   3.600   2.760   3.089
11036TIP3   OH233050   0.706   6.376   0.254
11036TIP3    H133051   0.770   6.305   0.248
11036TIP3    H233052   0.713   6.422   0.170
11037TIP3   OH233053   1.667   4.696   0.980
11037TIP3    H133054   1.673   4.734   0.892
11037TIP3    H233055   1.582   4.651   0.980
11038TIP3   OH233056   3.420   0.016   4.954
11038TIP3    H133057   3.408   0.110   4.939
11038TIP3    H233058   3.348  -0.026   4.908
11039TIP3   OH233059   4.063   3.126   6.010
11039TIP3    H133060   3.990   3.086   5.964
11039TIP3    H233061   4.097   3.192   5.950
11040TIP3   OH233062   7.383   6.155   1.169
11040TIP3    H133063   7.389   6.216   1.094
11040TIP3    H233064   7.466   6.167   1.215
11041TIP3   OH233065   2.844   3.712   4.833
11041TIP3    H133066   2.782   3.725   4.762
11041TIP3    H233067   2.831   3.787   4.891
11042TIP3   OH233068   5.287   4.019   3.347
11042TIP3    H133069   5.319   3.972   3.424
11042TIP3    H233070   5.329   3.975   3.273
11043TIP3   OH233071   7.533   2.535   3.725
11043TIP3    H133072   7.605   2.515   3.786
11043TIP3    H233073   7.518   2.629   3.736
11044TIP3   OH233074   3.737   7.546   0.768
11044TIP3    H133075   3.827   7.516   0.752
11044TIP3    H233076   3.737   7.576   0.859
11045TIP3   OH233077   2.477   1.797   4.334
11045TIP3    H133078   2.569   1.808   4.357
11045TIP3    H233079   2.430   1.847   4.401
11046TIP3   OH233080   2.547   0.966   0.621
11046TIP3    H133081   2.570   1.015   0.700
11046TIP3    H233082   2.561   0.874   0.645
11047TIP3   OH233083   5.694   1.640   2.750
11047TIP3    H133084   5.741   1.579   2.807
11047TIP3    H233085   5.734   1.725   2.768
11048TIP3   OH233086   0.486   2.450   0.183
11048TIP3    H133087   0.418   2.384   0.176
11048TIP3    H233088   0.511   2.449   0.276
11049TIP3   OH233089   1.537   4.250   0.523
11049TIP3    H133090   1.581   4.178   0.568
11049TIP3    H233091   1.451   4.214   0.500
11050TIP3   OH233092   1.053   7.588   5.263
11050TIP3    H133093   1.096   7.593   5.177
11050TIP3    H233094   0.997   7.665   5.267
11051TIP3   OH233095   5.044   2.580   4.537
11051TIP3    H133096   5.031   2.523   4.461
11051TIP3    H233097   5.109   2.535   4.590
11052TIP3   OH233098   6.568   3.290   1.342
11052TIP3    H133099   6.558   3.202   1.379
11052TIP3    H233100   6.585   3.275   1.249
11053TIP3   OH233101   6.821   4.626   5.662
11053TIP3    H133102   6.841   4.692   5.728
11053TIP3    H233103   6.742   4.583   5.694
11054TIP3   OH233104   7.430   1.616   0.156
11054TIP3    H133105   7.346   1.590   0.117
11054TIP3    H233106   7.495   1.563   0.112
11055TIP3   OH233107   7.967   0.331   0.896
11055TIP3    H133108   7.883   0.366   0.865
11055TIP3    H233109   7.995   0.272   0.826
11056TIP3   OH233110   6.526   1.118   6.530
11056TIP3    H133111   6.487   1.205   6.538
11056TIP3    H233112   6.594   1.116   6.598
11057TIP3   OH233113   4.541   5.706   0.356
11057TIP3    H133114   4.603   5.770   0.323
11057TIP3    H233115   4.477   5.758   0.406
11058TIP3   OH233116   5.377   6.099   6.016
11058TIP3    H133117   5.401   6.046   6.092
11058TIP3    H233118   5.411   6.051   5.941
11059TIP3   OH233119   4.919   0.404   2.139
11059TIP3    H133120   4.989   0.469   2.130
11059TIP3    H233121   4.847   0.440   2.086
11060TIP3   OH233122   7.072   0.570   3.279
11060TIP3    H133123   6.998   0.627   3.298
11060TIP3    H233124   7.046   0.484   3.311
11061TIP3   OH233125   7.960   6.720   6.531
11061TIP3    H133126   7.999   6.667   6.601
11061TIP3    H233127   8.033   6.739   6.473
11062TIP3   OH233128   0.421   2.114   5.522
11062TIP3    H133129   0.451   2.199   5.553
11062TIP3    H233130   0.489   2.086   5.460
11063TIP3   OH233131   6.054   5.404   1.570
11063TIP3    H133132   6.149   5.401   1.561
11063TIP3    H233133   6.025   5.465   1.502
11064TIP3   OH233134   2.804   4.239   5.882
11064TIP3    H133135   2.811   4.167   5.946
11064TIP3    H233136   2.710   4.253   5.873
11065TIP3   OH233137   3.350   2.413   4.450
11065TIP3    H133138   3.400   2.488   4.418
11065TIP3    H233139   3.410   2.368   4.510
11066TIP3   OH233140   7.207   6.136   0.930
11066TIP3    H133141   7.217   6.086   1.011
11066TIP3    H233142   7.186   6.225   0.960
11067TIP3   OH233143   4.818   4.929   4.935
11067TIP3    H133144   4.891   4.916   4.874
11067TIP3    H233145   4.741   4.937   4.880
11068TIP3   OH233146   1.883   1.147   1.249
11068TIP3    H133147   1.843   1.063   1.224
11068TIP3    H233148   1.902   1.190   1.165
11069TIP3   OH233149   3.927   4.968   0.429
11069TIP3    H133150   3.943   4.964   0.524
11069TIP3    H233151   3.994   5.029   0.397
11070TIP3   OH233152   7.483   7.172   3.974
11070TIP3    H133153   7.525   7.257   3.963
11070TIP3    H233154   7.403   7.179   3.922
11071TIP3   OH233155   3.502   0.320   3.735
11071TIP3    H133156   3.442   0.337   3.662
11071TIP3    H233157   3.572   0.385   3.724
11072TIP3   OH233158   4.673   6.848   0.379
11072TIP3    H133159   4.598   6.810   0.424
11072TIP3    H233160   4.643   6.935   0.350
11073TIP3   OH233161   2.407   7.629   2.213
11073TIP3    H133162   2.428   7.568   2.142
11073TIP3    H233163   2.489   7.674   2.231
11074TIP3   OH233164   5.589   4.092   1.230
11074TIP3    H133165   5.496   4.114   1.231
11074TIP3    H233166   5.594   4.011   1.181
11075TIP3   OH233167   5.693   5.965   2.525
11075TIP3    H133168   5.710   5.914   2.446
11075TIP3    H233169   5.680   5.900   2.594
11076TIP3   OH233170   5.142   3.976   5.970
11076TIP3    H133171   5.200   3.947   5.899
11076TIP3    H233172   5.075   4.029   5.926
11077TIP3   OH233173   6.870   7.708  -0.081
11077TIP3    H133174   6.822   7.625  -0.088
11077TIP3    H233175   6.835   7.749  -0.002
11078TIP3   OH233176   2.956   4.035   2.400
11078TIP3    H133177   2.882   4.092   2.382
11078TIP3    H233178   2.991   4.067   2.483
11079TIP3   OH233179   7.896   4.911   4.082
11079TIP3    H133180   7.859   4.945   4.000
11079TIP3    H233181   7.951   4.838   4.055
11080TIP3   OH233182   5.305   6.925   3.950
11080TIP3    H133183   5.303   6.830   3.943
11080TIP3    H233184   5.389   6.944   3.990
11081TIP3   OH233185   3.825   6.597   5.550
11081TIP3    H133186   3.878   6.585   5.629
11081TIP3    H233187   3.888   6.607   5.479
11082TIP3   OH233188   1.213   5.872   3.147
11082TIP3    H133189   1.183   5.963   3.145
11082TIP3    H233190   1.236   5.856   3.239
11083TIP3   OH233191   2.382   6.323   5.424
11083TIP3    H133192   2.331   6.244   5.406
11083TIP3    H233193   2.436   6.300   5.500
11084TIP3   OH233194   1.791   0.435   4.071
11084TIP3    H133195   1.850   0.459   4.142
11084TIP3    H233196   1.707   0.418   4.114
11085TIP3   OH233197   3.992   0.360   4.179
11085TIP3    H133198   3.950   0.355   4.093
11085TIP3    H233199   4.020   0.452   4.186
11086TIP3   OH233200   0.724   4.890   0.334
11086TIP3    H133201   0.691   4.844   0.256
11086TIP3    H233202   0.758   4.973   0.300
11087TIP3   OH233203   0.901   0.072   1.513
11087TIP3    H133204   0.875   0.108   1.428
11087TIP3    H233205   0.832   0.010   1.534
11088TIP3   OH233206   4.822   7.385   4.734
11088TIP3    H133207   4.901   7.424   4.696
11088TIP3    H233208   4.798   7.315   4.673
11089TIP3   OH233209   6.959   4.212   3.709
11089TIP3    H133210   7.027   4.220   3.641
11089TIP3    H233211   6.993   4.264   3.782
11090TIP3   OH233212   1.924   6.556   5.459
11090TIP3    H133213   1.943   6.610   5.536
11090TIP3    H233214   1.828   6.552   5.456
11091TIP3   OH233215   0.710   2.521   3.515
11091TIP3    H133216   0.684   2.472   3.593
11091TIP3    H233217   0.638   2.582   3.499
11092TIP3   OH233218   6.579   0.393   2.993
11092TIP3    H133219   6.639   0.421   2.924
11092TIP3    H233220   6.518   0.465   3.003
11093TIP3   OH233221   3.613   1.837   5.020
11093TIP3    H133222   3.575   1.904   5.076
11093TIP3    H233223   3.568   1.847   4.936
11094TIP3   OH233224   1.422   3.376   0.170
11094TIP3    H133225   1.361   3.363   0.244
11094TIP3    H233226   1.366   3.376   0.093
11095TIP3   OH233227   3.232   5.185   3.250
11095TIP3    H133228   3.226   5.098   3.211
11095TIP3    H233229   3.326   5.199   3.260
11096TIP3   OH233230   1.448   1.004   6.252
11096TIP3    H133231   1.414   0.931   6.201
11096TIP3    H233232   1.376   1.067   6.255
11097TIP3   OH233233   3.617   7.151   3.948
11097TIP3    H133234   3.683   7.142   3.878
11097TIP3    H233235   3.669   7.165   4.028
11098TIP3   OH233236   7.289   6.781   2.272
11098TIP3    H133237   7.342   6.860   2.282
11098TIP3    H233238   7.283   6.744   2.360
11099TIP3   OH233239   6.114   4.018   1.008
11099TIP3    H133240   6.054   4.045   1.078
11099TIP3    H233241   6.115   3.923   1.013
11100TIP3   OH233242   5.345   6.644   4.137
11100TIP3    H133243   5.295   6.575   4.180
11100TIP3    H233244   5.407   6.674   4.203
11101TIP3   OH233245   4.050   7.670   0.547
11101TIP3    H133246   4.028   7.577   0.559
11101TIP3    H233247   4.023   7.712   0.629
11102TIP3   OH233248   0.663   1.068   1.385
11102TIP3    H133249   0.629   1.001   1.444
11102TIP3    H233250   0.620   1.149   1.414
11103TIP3   OH233251   7.259   7.287   0.653
11103TIP3    H133252   7.295   7.241   0.729
11103TIP3    H233253   7.330   7.284   0.588
11104TIP3   OH233254   2.500   3.158   5.453
11104TIP3    H133255   2.495   3.134   5.545
11104TIP3    H233256   2.551   3.239   5.452
11105TIP3   OH233257   3.122   0.859   6.022
11105TIP3    H133258   3.160   0.863   5.934
11105TIP3    H233259   3.195   0.838   6.079
11106TIP3   OH233260   6.054   7.233   2.546
11106TIP3    H133261   6.080   7.142   2.532
11106TIP3    H233262   6.133   7.276   2.579
11107TIP3   OH233263   3.902   1.637   2.066
11107TIP3    H133264   3.853   1.616   1.986
11107TIP3    H233265   3.840   1.622   2.137
11108TIP3   OH233266   3.362   2.539   0.974
11108TIP3    H133267   3.319   2.494   1.047
11108TIP3    H233268   3.319   2.624   0.970
11109TIP3   OH233269   0.150   3.183   1.358
11109TIP3    H133270   0.197   3.194   1.441
11109TIP3    H233271   0.218   3.157   1.295
11110TIP3   OH233272   4.049   6.864   2.819
11110TIP3    H133273   3.996   6.789   2.848
11110TIP3    H233274   4.100   6.888   2.897
11111TIP3   OH233275   4.229   7.355   0.819
11111TIP3    H133276   4.145   7.353   0.773
11111TIP3    H233277   4.208   7.391   0.905
11112TIP3   OH233278   6.003   1.241   4.715
11112TIP3    H133279   6.006   1.146   4.723
11112TIP3    H233280   6.023   1.273   4.802
11113TIP3   OH233281   2.183   5.798   4.744
11113TIP3    H133282   2.141   5.717   4.715
11113TIP3    H233283   2.273   5.792   4.712
11114TIP3   OH233284   1.114   3.197   5.815
11114TIP3    H133285   1.103   3.194   5.720
11114TIP3    H233286   1.209   3.203   5.828
11115TIP3   OH233287   5.188   0.475   1.326
11115TIP3    H133288   5.232   0.398   1.361
11115TIP3    H233289   5.250   0.547   1.338
11116TIP3   OH233290   0.629   3.384   3.706
11116TIP3    H133291   0.654   3.292   3.713
11116TIP3    H233292   0.554   3.384   3.646
11117TIP3   OH233293   4.685   6.390   4.968
11117TIP3    H133294   4.607   6.382   4.913
11117TIP3    H233295   4.652   6.378   5.057
11118TIP3   OH233296   0.561   4.143   3.291
11118TIP3    H133297   0.494   4.165   3.356
11118TIP3    H233298   0.633   4.107   3.342
11119TIP3   OH233299   8.176   4.092   1.309
11119TIP3    H133300   8.094   4.078   1.262
11119TIP3    H233301   8.181   4.187   1.321
11120TIP3   OH233302   3.654   0.708   3.460
11120TIP3    H133303   3.559   0.694   3.454
11120TIP3    H233304   3.663   0.795   3.499
11121TIP3   OH233305   5.039   4.792   1.733
11121TIP3    H133306   5.070   4.729   1.667
11121TIP3    H233307   4.971   4.745   1.781
11122TIP3   OH233308   4.938   3.739   6.032
11122TIP3    H133309   4.877   3.734   5.958
11122TIP3    H233310   5.015   3.782   5.995
11123TIP3   OH233311   4.552   0.121   1.826
11123TIP3    H133312   4.549   0.076   1.911
11123TIP3    H233313   4.628   0.084   1.782
11124TIP3   OH233314   5.666   6.632   6.186
11124TIP3    H133315   5.742   6.677   6.222
11124TIP3    H233316   5.683   6.627   6.092
11125TIP3   OH233317   2.754   2.840   2.621
11125TIP3    H133318   2.712   2.784   2.687
11125TIP3    H233319   2.788   2.779   2.556
11126TIP3   OH233320   3.086   7.672   6.173
11126TIP3    H133321   3.023   7.717   6.117
11126TIP3    H233322   3.172   7.700   6.142
11127TIP3   OH233323   6.891   7.116   4.789
11127TIP3    H133324   6.817   7.079   4.837
11127TIP3    H233325   6.933   7.040   4.749
11128TIP3   OH233326   3.152   0.944   1.589
11128TIP3    H133327   3.120   0.865   1.632
11128TIP3    H233328   3.206   0.912   1.517
11129TIP3   OH233329   5.150   2.388   1.393
11129TIP3    H133330   5.170   2.353   1.480
11129TIP3    H233331   5.107   2.316   1.347
11130TIP3   OH233332   0.195   0.838   2.112
11130TIP3    H133333   0.206   0.821   2.018
11130TIP3    H233334   0.140   0.766   2.143
11131TIP3   OH233335   1.311   7.360   5.090
11131TIP3    H133336   1.387   7.391   5.040
11131TIP3    H233337   1.245   7.428   5.077
11132TIP3   OH233338   2.845   5.807   0.976
11132TIP3    H133339   2.833   5.752   0.898
11132TIP3    H233340   2.821   5.751   1.049
11133TIP3   OH233341   1.507   6.507   0.651
11133TIP3    H133342   1.458   6.575   0.605
11133TIP3    H233343   1.582   6.554   0.689
11134TIP3   OH233344   6.810   1.514   4.725
11134TIP3    H133345   6.812   1.441   4.663
11134TIP3    H233346   6.819   1.473   4.811
11135TIP3   OH233347   0.330   2.999   2.109
11135TIP3    H133348   0.305   3.010   2.201
11135TIP3    H233349   0.358   2.908   2.103
11136TIP3   OH233350   6.492   7.608   6.468
11136TIP3    H133351   6.584   7.613   6.443
11136TIP3    H233352   6.488   7.648   6.555
11137TIP3   OH233353   3.605   1.278   6.108
11137TIP3    H133354   3.601   1.369   6.079
11137TIP3    H233355   3.588   1.226   6.030
11138TIP3   OH233356   6.097   0.276   2.045
11138TIP3    H133357   6.074   0.214   2.114
11138TIP3    H233358   6.091   0.362   2.086
11139TIP3   OH233359   6.292   6.463   4.742
11139TIP3    H133360   6.365   6.412   4.776
11139TIP3    H233361   6.334   6.537   4.697
11140TIP3   OH233362   4.663   5.511   6.083
11140TIP3    H133363   4.675   5.479   6.173
11140TIP3    H233364   4.706   5.445   6.028
11141TIP3   OH233365   3.665   6.007   4.158
11141TIP3    H133366   3.712   5.998   4.075
11141TIP3    H233367   3.731   6.039   4.219
11142TIP3   OH233368   0.770   5.411   1.344
11142TIP3    H133369   0.799   5.414   1.435
11142TIP3    H233370   0.847   5.380   1.296
11143TIP3   OH233371   1.998   7.068   6.030
11143TIP3    H133372   1.940   7.144   6.035
11143TIP3    H233373   1.944   6.999   5.990
11144TIP3   OH233374   5.700   4.890   0.168
11144TIP3    H133375   5.655   4.942   0.101
11144TIP3    H233376   5.706   4.948   0.243
11145TIP3   OH233377   7.198   7.417   3.553
11145TIP3    H133378   7.171   7.433   3.643
11145TIP3    H233379   7.124   7.447   3.500
11146TIP3   OH233380   7.808   5.500   1.943
11146TIP3    H133381   7.818   5.420   1.892
11146TIP3    H233382   7.726   5.488   1.991
11147TIP3   OH233383   5.704   7.508   4.661
11147TIP3    H133384   5.676   7.575   4.723
11147TIP3    H233385   5.676   7.426   4.701
11148TIP3   OH233386   1.878   2.065   5.792
11148TIP3    H133387   1.924   1.986   5.820
11148TIP3    H233388   1.925   2.137   5.834
11149TIP3   OH233389   3.818   7.765   0.055
11149TIP3    H133390   3.803   7.860   0.060
11149TIP3    H233391   3.844   7.741   0.144
11150TIP3   OH233392   7.086   4.598   5.269
11150TIP3    H133393   7.127   4.685   5.274
11150TIP3    H233394   6.999   4.615   5.233
11151TIP3   OH233395   2.851   0.049   4.872
11151TIP3    H133396   2.804   0.117   4.824
11151TIP3    H233397   2.914   0.096   4.926
11152TIP3   OH233398   3.307   6.449   0.872
11152TIP3    H133399   3.234   6.460   0.811
11152TIP3    H233400   3.386   6.460   0.819
11153TIP3   OH233401   6.397   7.047   4.693
11153TIP3    H133402   6.456   7.107   4.740
11153TIP3    H233403   6.317   7.098   4.681
11154TIP3   OH233404   6.798   5.232   0.726
11154TIP3    H133405   6.848   5.212   0.647
11154TIP3    H233406   6.728   5.167   0.728
11155TIP3   OH233407   6.022   7.422   6.287
11155TIP3    H133408   6.070   7.458   6.361
11155TIP3    H233409   6.042   7.482   6.214
11156TIP3   OH233410   3.664   6.725   1.307
11156TIP3    H133411   3.740   6.714   1.250
11156TIP3    H233412   3.662   6.818   1.327
11157TIP3   OH233413   6.455   4.877   2.735
11157TIP3    H133414   6.463   4.816   2.808
11157TIP3    H233415   6.535   4.863   2.684
11158TIP3   OH233416   2.737   2.642   4.314
11158TIP3    H133417   2.661   2.690   4.345
11158TIP3    H233418   2.811   2.701   4.329
11159TIP3   OH233419   0.413   6.593   3.914
11159TIP3    H133420   0.477   6.522   3.925
11159TIP3    H233421   0.369   6.598   3.999
11160TIP3   OH233422   5.958   5.853   2.664
11160TIP3    H133423   5.953   5.769   2.711
11160TIP3    H233424   5.893   5.908   2.707
11161TIP3   OH233425   7.557   1.383   5.776
11161TIP3    H133426   7.600   1.427   5.702
11161TIP3    H233427   7.464   1.384   5.753
11162TIP3   OH233428   6.483   0.489   4.942
11162TIP3    H133429   6.442   0.557   4.995
11162TIP3    H233430   6.574   0.486   4.972
11163TIP3   OH233431   3.372   6.624   2.798
11163TIP3    H133432   3.435   6.593   2.863
11163TIP3    H233433   3.375   6.719   2.806
11164TIP3   OH233434   2.717   3.984   5.499
11164TIP3    H133435   2.645   4.038   5.533
11164TIP3    H233436   2.787   4.046   5.481
11165TIP3   OH233437   6.842   3.447   5.034
11165TIP3    H133438   6.892   3.492   5.101
11165TIP3    H233439   6.904   3.387   4.993
11166TIP3   OH233440   2.856   5.291   3.449
11166TIP3    H133441   2.825   5.224   3.388
11166TIP3    H233442   2.951   5.292   3.437
11167TIP3   OH233443   6.997   3.074   1.259
11167TIP3    H133444   6.948   3.131   1.199
11167TIP3    H233445   7.088   3.101   1.249
11168TIP3   OH233446   1.481   4.223   4.088
11168TIP3    H133447   1.534   4.301   4.074
11168TIP3    H233448   1.392   4.256   4.095
11169TIP3   OH233449   8.055   0.530   3.421
11169TIP3    H133450   8.146   0.509   3.400
11169TIP3    H233451   8.062   0.597   3.489
11170TIP3   OH233452   0.210   0.588   1.606
11170TIP3    H133453   0.188   0.500   1.634
11170TIP3    H233454   0.153   0.605   1.531
11171TIP3   OH233455   3.853   7.675   5.465
11171TIP3    H133456   3.868   7.589   5.425
11171TIP3    H233457   3.827   7.731   5.392
11172TIP3   OH233458   6.717   3.033   0.583
11172TIP3    H133459   6.682   2.947   0.561
11172TIP3    H233460   6.798   3.014   0.630
11173TIP3   OH233461   0.186   6.423   1.543
11173TIP3    H133462   0.108   6.370   1.524
11173TIP3    H233463   0.242   6.411   1.466
11174TIP3   OH233464   5.736   6.732   3.869
11174TIP3    H133465   5.755   6.642   3.843
11174TIP3    H233466   5.640   6.735   3.877
11175TIP3   OH233467   2.269   0.650   2.444
11175TIP3    H133468   2.184   0.619   2.414
11175TIP3    H233469   2.296   0.714   2.377
11176TIP3   OH233470   1.625   3.234   3.146
11176TIP3    H133471   1.555   3.289   3.109
11176TIP3    H233472   1.694   3.295   3.170
11177TIP3   OH233473   2.332   6.259   2.420
11177TIP3    H133474   2.407   6.293   2.469
11177TIP3    H233475   2.337   6.164   2.431
11178TIP3   OH233476   0.854   4.540   4.265
11178TIP3    H133477   0.939   4.565   4.227
11178TIP3    H233478   0.795   4.533   4.190
11179TIP3   OH233479   5.083   2.379   4.335
11179TIP3    H133480   5.142   2.434   4.283
11179TIP3    H233481   5.131   2.296   4.344
11180TIP3   OH233482   6.827   3.170   6.785
11180TIP3    H133483   6.905   3.198   6.738
11180TIP3    H233484   6.760   3.234   6.760
11181TIP3   OH233485   5.977   1.550   4.366
11181TIP3    H133486   5.965   1.555   4.271
11181TIP3    H233487   6.072   1.562   4.378
11182TIP3   OH233488   6.445   0.256   5.459
11182TIP3    H133489   6.394   0.250   5.378
11182TIP3    H233490   6.385   0.294   5.523
11183TIP3   OH233491   7.392   4.993   2.546
11183TIP3    H133492   7.446   5.052   2.493
11183TIP3    H233493   7.307   5.037   2.552
11184TIP3   OH233494   2.447   1.904   6.244
11184TIP3    H133495   2.429   1.811   6.254
11184TIP3    H233496   2.491   1.928   6.326
11185TIP3   OH233497   7.762   5.759   6.392
11185TIP3    H133498   7.692   5.772   6.328
11185TIP3    H233499   7.771   5.664   6.398
11186TIP3   OH233500   4.791   5.663   1.149
11186TIP3    H133501   4.812   5.749   1.113
11186TIP3    H233502   4.713   5.678   1.203
11187TIP3   OH233503   3.233   2.750   3.609
11187TIP3    H133504   3.316   2.721   3.647
11187TIP3    H233505   3.216   2.687   3.539
11188TIP3   OH233506   4.350   7.250   4.086
11188TIP3    H133507   4.276   7.226   4.030
11188TIP3    H233508   4.361   7.176   4.145
11189TIP3   OH233509   6.493   6.498   5.837
11189TIP3    H133510   6.516   6.546   5.916
11189TIP3    H233511   6.555   6.425   5.834
11190TIP3   OH233512   2.321   4.590   1.152
11190TIP3    H133513   2.331   4.657   1.084
11190TIP3    H233514   2.340   4.637   1.234
11191TIP3   OH233515   2.900   6.850   4.966
11191TIP3    H133516   2.856   6.876   4.885
11191TIP3    H233517   2.962   6.782   4.939
11192TIP3   OH233518   3.552   3.588   6.514
11192TIP3    H133519   3.548   3.538   6.596
11192TIP3    H233520   3.608   3.663   6.535
11193TIP3   OH233521   3.229   6.180   6.051
11193TIP3    H133522   3.272   6.175   5.966
11193TIP3    H233523   3.300   6.201   6.112
11194TIP3   OH233524   5.514   0.076   5.769
11194TIP3    H133525   5.575   0.009   5.740
11194TIP3    H233526   5.453   0.087   5.696
11195TIP3   OH233527   7.729   7.653   1.284
11195TIP3    H133528   7.719   7.590   1.214
11195TIP3    H233529   7.756   7.734   1.240
11196TIP3   OH233530   5.897   1.361   2.071
11196TIP3    H133531   5.987   1.382   2.045
11196TIP3    H233532   5.889   1.396   2.160
11197TIP3   OH233533   5.030   1.023   5.577
11197TIP3    H133534   4.972   0.955   5.611
11197TIP3    H233535   5.073   0.983   5.502
11198TIP3   OH233536   6.427   3.908   6.450
11198TIP3    H133537   6.520   3.902   6.429
11198TIP3    H233538   6.412   4.001   6.467
11199TIP3   OH233539   2.997   5.670   5.105
11199TIP3    H133540   2.987   5.740   5.170
11199TIP3    H233541   3.005   5.590   5.157
11200TIP3   OH233542   6.336   6.919   1.581
11200TIP3    H133543   6.270   6.925   1.512
11200TIP3    H233544   6.388   6.999   1.570
11201TIP3   OH233545   4.765   6.803   6.501
11201TIP3    H133546   4.829   6.853   6.451
11201TIP3    H233547   4.720   6.750   6.435
11202TIP3   OH233548   0.802   1.363   2.842
11202TIP3    H133549   0.804   1.271   2.815
11202TIP3    H233550   0.894   1.385   2.858
11203TIP3   OH233551   7.964   1.484   4.935
11203TIP3    H133552   8.007   1.567   4.953
11203TIP3    H233553   7.879   1.489   4.979
11204TIP3   OH233554   1.791   6.747   0.914
11204TIP3    H133555   1.715   6.791   0.952
11204TIP3    H233556   1.817   6.683   0.981
11205TIP3   OH233557   2.309   2.968   2.789
11205TIP3    H133558   2.282   3.035   2.726
11205TIP3    H233559   2.256   2.891   2.767
11206TIP3   OH233560   4.730   7.250   1.605
11206TIP3    H133561   4.755   7.322   1.662
11206TIP3    H233562   4.663   7.287   1.547
11207TIP3   OH233563   6.644   5.044   4.383
11207TIP3    H133564   6.738   5.057   4.388
11207TIP3    H233565   6.610   5.083   4.464
11208TIP3   OH233566   1.468   5.788   0.648
11208TIP3    H133567   1.495   5.704   0.611
11208TIP3    H233568   1.490   5.853   0.581
11209TIP3   OH233569   0.684   3.280   6.058
11209TIP3    H133570   0.696   3.296   6.152
11209TIP3    H233571   0.593   3.307   6.041
11210TIP3   OH233572   7.459   7.782   5.269
11210TIP3    H133573   7.445   7.858   5.212
11210TIP3    H233574   7.476   7.710   5.208
11211TIP3   OH233575   1.057   3.769   4.410
11211TIP3    H133576   0.979   3.812   4.375
11211TIP3    H233577   1.098   3.834   4.467
11212TIP3   OH233578   0.913   6.984   3.428
11212TIP3    H133579   0.848   6.986   3.358
11212TIP3    H233580   0.985   6.932   3.392
11213TIP3   OH233581   4.435   6.020   2.180
11213TIP3    H133582   4.387   6.057   2.106
11213TIP3    H233583   4.460   5.932   2.151
11214TIP3   OH233584   5.422   4.105   0.179
11214TIP3    H133585   5.371   4.167   0.127
11214TIP3    H233586   5.457   4.158   0.250
11215TIP3   OH233587   0.966   2.653   2.825
11215TIP3    H133588   0.989   2.591   2.756
11215TIP3    H233589   0.881   2.688   2.798
11216TIP3   OH233590   7.947   1.746   3.191
11216TIP3    H133591   7.967   1.726   3.282
11216TIP3    H233592   7.898   1.670   3.160
11217TIP3   OH233593   6.607   7.051   0.169
11217TIP3    H133594   6.642   7.118   0.227
11217TIP3    H233595   6.683   7.021   0.119
11218TIP3   OH233596   7.486   5.584   1.467
11218TIP3    H133597   7.570   5.539   1.456
11218TIP3    H233598   7.443   5.538   1.539
11219TIP3   OH233599   8.027   2.762   3.139
11219TIP3    H133600   8.069   2.845   3.115
11219TIP3    H233601   8.100   2.703   3.156
11220TIP3   OH233602   1.347   7.613   2.109
11220TIP3    H133603   1.419   7.554   2.130
11220TIP3    H233604   1.389   7.687   2.065
11221TIP3   OH233605   3.530   6.522   3.003
11221TIP3    H133606   3.569   6.590   3.058
11221TIP3    H233607   3.489   6.462   3.066
11222TIP3   OH233608   3.549   2.159   2.839
11222TIP3    H133609   3.576   2.245   2.807
11222TIP3    H233610   3.486   2.177   2.909
11223TIP3   OH233611   8.126   3.790   0.130
11223TIP3    H133612   8.128   3.747   0.045
11223TIP3    H233613   8.183   3.866   0.121
11224TIP3   OH233614   2.114  -0.005   0.552
11224TIP3    H133615   2.180   0.051   0.511
11224TIP3    H233616   2.059   0.056   0.602
11225TIP3   OH233617   8.216   6.863   2.211
11225TIP3    H133618   8.277   6.896   2.277
11225TIP3    H233619   8.140   6.920   2.218
11226TIP3   OH233620   0.019   4.451   1.007
11226TIP3    H133621   0.029   4.356   1.014
11226TIP3    H233622   0.108   4.485   1.020
11227TIP3   OH233623   6.177   5.002   6.087
11227TIP3    H133624   6.227   4.936   6.040
11227TIP3    H233625   6.150   5.065   6.020
11228TIP3   OH233626   2.492   2.872   1.936
11228TIP3    H133627   2.520   2.822   1.859
11228TIP3    H233628   2.542   2.834   2.008
11229TIP3   OH233629   4.991   2.674   2.520
11229TIP3    H133630   5.062   2.671   2.457
11229TIP3    H233631   5.004   2.597   2.575
11230TIP3   OH233632   4.410   6.757   3.452
11230TIP3    H133633   4.348   6.827   3.431
11230TIP3    H233634   4.438   6.724   3.366
11231TIP3   OH233635   1.990   2.534   0.706
11231TIP3    H133636   2.005   2.599   0.774
11231TIP3    H233637   2.070   2.535   0.654
11232TIP3   OH233638   5.898   2.507   4.540
11232TIP3    H133639   5.853   2.461   4.469
11232TIP3    H233640   5.884   2.450   4.617
11233TIP3   OH233641   8.126   6.020   1.525
11233TIP3    H133642   8.114   5.952   1.592
11233TIP3    H233643   8.110   5.976   1.442
11234TIP3   OH233644   6.472   7.215   5.611
11234TIP3    H133645   6.395   7.265   5.581
11234TIP3    H233646   6.546   7.271   5.587
11235TIP3   OH233647   2.896   4.793   5.859
11235TIP3    H133648   2.928   4.735   5.790
11235TIP3    H233649   2.976   4.830   5.898
11236TIP3   OH233650   6.707   5.430   4.016
11236TIP3    H133651   6.712   5.394   3.928
11236TIP3    H233652   6.615   5.421   4.041
11237TIP3   OH233653   1.214   3.579   5.752
11237TIP3    H133654   1.135   3.580   5.806
11237TIP3    H233655   1.282   3.546   5.811
11238TIP3   OH233656   7.795   4.103   5.760
11238TIP3    H133657   7.890   4.110   5.754
11238TIP3    H233658   7.765   4.193   5.769
11239TIP3   OH233659   1.136   3.488   0.815
11239TIP3    H133660   1.113   3.491   0.722
11239TIP3    H233661   1.174   3.574   0.834
11240TIP3   OH233662  -0.021   5.205   4.532
11240TIP3    H133663  -0.100   5.161   4.500
11240TIP3    H233664   0.051   5.145   4.512
11241TIP3   OH233665   6.819   5.918   0.303
11241TIP3    H133666   6.775   6.003   0.301
11241TIP3    H233667   6.897   5.932   0.356
11242TIP3   OH233668   6.709   1.768   6.388
11242TIP3    H133669   6.631   1.749   6.335
11242TIP3    H233670   6.732   1.683   6.426
11243TIP3   OH233671   3.351   6.216   3.723
11243TIP3    H133672   3.388   6.143   3.773
11243TIP3    H233673   3.334   6.179   3.636
11244TIP3   OH233674   0.120   4.569   1.308
11244TIP3    H133675   0.112   4.634   1.377
11244TIP3    H233676   0.139   4.487   1.354
11245TIP3   OH233677   0.834   2.098   0.823
11245TIP3    H133678   0.791   2.027   0.872
11245TIP3    H233679   0.927   2.086   0.841
11246TIP3   OH233680   5.425   7.793   5.575
11246TIP3    H133681   5.422   7.884   5.544
11246TIP3    H233682   5.337   7.760   5.560
11247TIP3   OH233683   6.134   0.596   0.560
11247TIP3    H133684   6.159   0.662   0.494
11247TIP3    H233685   6.046   0.570   0.535
11248TIP3   OH233686   4.377   5.522   6.771
11248TIP3    H133687   4.326   5.566   6.703
11248TIP3    H233688   4.386   5.432   6.740
11249TIP3   OH233689   7.625   1.861   1.230
11249TIP3    H133690   7.691   1.930   1.223
11249TIP3    H233691   7.673   1.780   1.215
11250TIP3   OH233692   0.866   5.913   2.470
11250TIP3    H133693   0.933   5.965   2.515
11250TIP3    H233694   0.880   5.931   2.377
11251TIP3   OH233695   1.738   2.263   2.370
11251TIP3    H133696   1.696   2.269   2.455
11251TIP3    H233697   1.824   2.224   2.389
11252TIP3   OH233698   6.969   6.730   0.885
11252TIP3    H133699   6.905   6.783   0.933
11252TIP3    H233700   7.051   6.742   0.935
11253TIP3   OH233701   4.519   2.101   3.177
11253TIP3    H133702   4.507   2.175   3.236
11253TIP3    H233703   4.432   2.083   3.142
11254TIP3   OH233704   2.996   2.606   3.309
11254TIP3    H133705   2.990   2.617   3.403
11254TIP3    H233706   3.019   2.513   3.297
11255TIP3   OH233707   1.364   7.233   2.152
11255TIP3    H133708   1.392   7.265   2.066
11255TIP3    H233709   1.384   7.305   2.212
11256TIP3   OH233710   0.415   2.913   6.633
11256TIP3    H133711   0.507   2.888   6.627
11256TIP3    H233712   0.407   2.989   6.575
11257TIP3   OH233713   5.571   6.761   2.459
11257TIP3    H133714   5.532   6.767   2.547
11257TIP3    H233715   5.517   6.818   2.405
11258TIP3   OH233716   2.335   0.581   4.860
11258TIP3    H133717   2.396   0.557   4.790
11258TIP3    H233718   2.352   0.518   4.930
11259TIP3   OH233719   4.415   0.325   5.584
11259TIP3    H133720   4.433   0.412   5.620
11259TIP3    H233721   4.500   0.293   5.554
11260TIP3   OH233722   2.816   3.249   3.756
11260TIP3    H133723   2.748   3.312   3.733
11260TIP3    H233724   2.768   3.170   3.781
11261TIP3   OH233725   0.845   3.623   0.157
11261TIP3    H133726   0.863   3.715   0.136
11261TIP3    H233727   0.792   3.627   0.237
11262TIP3   OH233728   0.372   1.316   3.429
11262TIP3    H133729   0.325   1.319   3.513
11262TIP3    H233730   0.346   1.232   3.392
11263TIP3   OH233731   4.225   7.432   6.047
11263TIP3    H133732   4.206   7.492   5.975
11263TIP3    H233733   4.258   7.352   6.004
11264TIP3   OH233734   0.159   0.522   2.224
11264TIP3    H133735   0.162   0.426   2.221
11264TIP3    H233736   0.228   0.545   2.286
11265TIP3   OH233737   3.035   7.102   5.522
11265TIP3    H133738   3.003   7.137   5.439
11265TIP3    H233739   3.116   7.150   5.538
11266TIP3   OH233740   7.185   7.603   2.063
11266TIP3    H133741   7.129   7.535   2.026
11266TIP3    H233742   7.187   7.585   2.157
11267TIP3   OH233743   0.910   2.567   6.401
11267TIP3    H133744   0.995   2.606   6.383
11267TIP3    H233745   0.905   2.563   6.497
11268TIP3   OH233746   4.862   3.806   0.307
11268TIP3    H133747   4.803   3.871   0.268
11268TIP3    H233748   4.832   3.722   0.273
11269TIP3   OH233749   0.093   5.018   1.829
11269TIP3    H133750   0.038   5.081   1.875
11269TIP3    H233751   0.083   4.937   1.878
11270TIP3   OH233752   2.973   7.076   1.397
11270TIP3    H133753   2.979   7.157   1.348
11270TIP3    H233754   2.946   7.010   1.333
11271TIP3   OH233755   1.491   0.887   0.151
11271TIP3    H133756   1.450   0.800   0.154
11271TIP3    H233757   1.578   0.871   0.115
11272TIP3   OH233758   6.590   4.279   6.284
11272TIP3    H133759   6.530   4.212   6.317
11272TIP3    H233760   6.670   4.231   6.261
11273TIP3   OH233761   1.889   6.719   4.255
11273TIP3    H133762   1.961   6.738   4.195
11273TIP3    H233763   1.810   6.721   4.201
11274TIP3   OH233764   3.532   4.594   4.525
11274TIP3    H133765   3.617   4.552   4.542
11274TIP3    H233766   3.513   4.642   4.605
11275TIP3   OH233767   0.940   4.352   5.583
11275TIP3    H133768   0.944   4.334   5.677
11275TIP3    H233769   0.860   4.403   5.573
11276TIP3   OH233770   6.349   0.068   4.552
11276TIP3    H133771   6.431   0.078   4.504
11276TIP3    H233772   6.372   0.084   4.644
11277TIP3   OH233773   0.212   1.933   2.650
11277TIP3    H133774   0.269   1.960   2.579
11277TIP3    H233775   0.269   1.928   2.727
11278TIP3   OH233776   6.682   0.897   3.623
11278TIP3    H133777   6.725   0.977   3.592
11278TIP3    H233778   6.753   0.839   3.650
11279TIP3   OH233779   4.905   1.078   0.205
11279TIP3    H133780   4.928   1.120   0.122
11279TIP3    H233781   4.955   1.128   0.270
11280TIP3   OH233782   4.584   1.033   2.823
11280TIP3    H133783   4.503   1.041   2.772
11280TIP3    H233784   4.646   1.091   2.778
11281TIP3   OH233785   5.128   6.330   0.943
11281TIP3    H133786   5.046   6.310   0.988
11281TIP3    H233787   5.196   6.298   1.002
11282TIP3   OH233788   7.294   1.070   1.787
11282TIP3    H133789   7.337   1.012   1.850
11282TIP3    H233790   7.224   1.112   1.837
11283TIP3   OH233791   0.465   6.837   5.115
11283TIP3    H133792   0.443   6.815   5.206
11283TIP3    H233793   0.380   6.851   5.073
11284TIP3   OH233794   6.743   3.086   2.352
11284TIP3    H133795   6.833   3.054   2.351
11284TIP3    H233796   6.701   3.041   2.278
11285TIP3   OH233797   3.595   0.380   0.667
11285TIP3    H133798   3.522   0.360   0.608
11285TIP3    H233799   3.672   0.382   0.611
11286TIP3   OH233800   2.273   3.759   1.009
11286TIP3    H133801   2.197   3.809   0.980
11286TIP3    H233802   2.325   3.821   1.060
11287TIP3   OH233803   2.689   0.846   4.626
11287TIP3    H133804   2.754   0.890   4.682
11287TIP3    H233805   2.606   0.888   4.647
11288TIP3   OH233806   6.614   7.794   6.038
11288TIP3    H133807   6.655   7.710   6.056
11288TIP3    H233808   6.546   7.774   5.973
11289TIP3   OH233809   0.477   0.377   2.686
11289TIP3    H133810   0.534   0.354   2.759
11289TIP3    H233811   0.469   0.472   2.690
11290TIP3   OH233812   0.501   7.784   2.462
11290TIP3    H133813   0.510   7.696   2.427
11290TIP3    H233814   0.407   7.797   2.473
11291TIP3   OH233815   0.460   5.243   2.245
11291TIP3    H133816   0.532   5.301   2.273
11291TIP3    H233817   0.382   5.283   2.283
11292TIP3   OH233818   3.510   5.821   0.862
11292TIP3    H133819   3.520   5.916   0.870
11292TIP3    H233820   3.474   5.794   0.946
11293TIP3   OH233821   1.893   4.769   6.688
11293TIP3    H133822   1.954   4.842   6.676
11293TIP3    H233823   1.807   4.808   6.676
11294TIP3   OH233824   3.595   7.527   3.219
11294TIP3    H133825   3.572   7.472   3.294
11294TIP3    H233826   3.537   7.497   3.148
11295TIP3   OH233827   5.024   5.530   6.210
11295TIP3    H133828   5.109   5.514   6.170
11295TIP3    H233829   4.961   5.492   6.149
11296TIP3   OH233830   1.688   5.036   3.434
11296TIP3    H133831   1.665   5.026   3.526
11296TIP3    H233832   1.682   5.130   3.418
11297TIP3   OH233833   4.862   3.674   4.531
11297TIP3    H133834   4.953   3.648   4.521
11297TIP3    H233835   4.864   3.739   4.602
11298TIP3   OH233836   2.533   2.895   2.435
11298TIP3    H133837   2.468   2.833   2.467
11298TIP3    H233838   2.599   2.899   2.504
11299TIP3   OH233839   0.546   2.042   5.015
11299TIP3    H133840   0.524   2.097   5.090
11299TIP3    H233841   0.463   2.001   4.990
11300TIP3   OH233842   6.693   1.144   3.055
11300TIP3    H133843   6.760   1.190   3.105
11300TIP3    H233844   6.667   1.206   2.986
11301TIP3   OH233845   4.435   3.166   0.131
11301TIP3    H133846   4.443   3.072   0.111
11301TIP3    H233847   4.353   3.172   0.180
11302TIP3   OH233848   2.499   7.180   6.008
11302TIP3    H133849   2.514   7.163   5.915
11302TIP3    H233850   2.404   7.187   6.016
11303TIP3   OH233851   1.011   2.988   4.938
11303TIP3    H133852   1.045   2.966   5.024
11303TIP3    H233853   1.048   2.922   4.879
11304TIP3   OH233854   5.568   3.122   2.663
11304TIP3    H133855   5.618   3.199   2.691
11304TIP3    H233856   5.534   3.085   2.744
11305TIP3   OH233857   0.732   1.528   1.423
11305TIP3    H133858   0.747   1.495   1.511
11305TIP3    H233859   0.716   1.450   1.370
11306TIP3   OH233860   3.107   5.623   3.357
11306TIP3    H133861   3.134   5.695   3.414
11306TIP3    H233862   3.031   5.585   3.400
11307TIP3   OH233863   7.901   6.523   1.330
11307TIP3    H133864   7.816   6.524   1.374
11307TIP3    H233865   7.907   6.436   1.291
11308TIP3   OH233866   2.594   6.135   1.326
11308TIP3    H133867   2.578   6.227   1.348
11308TIP3    H233868   2.583   6.131   1.231
11309TIP3   OH233869   1.314   2.063   2.850
11309TIP3    H133870   1.399   2.059   2.806
11309TIP3    H233871   1.335   2.082   2.942
11310TIP3   OH233872   5.506   2.484   4.639
11310TIP3    H133873   5.527   2.430   4.564
11310TIP3    H233874   5.578   2.470   4.700
11311TIP3   OH233875   4.623   0.479   5.882
11311TIP3    H133876   4.673   0.489   5.801
11311TIP3    H233877   4.621   0.385   5.898
11312TIP3   OH233878   6.154   3.248   2.170
11312TIP3    H133879   6.177   3.157   2.151
11312TIP3    H233880   6.076   3.242   2.227
11313TIP3   OH233881   5.851   3.692   4.013
11313TIP3    H133882   5.923   3.734   3.966
11313TIP3    H233883   5.779   3.756   4.008
11314TIP3   OH233884   2.848   6.909   5.552
11314TIP3    H133885   2.755   6.931   5.553
11314TIP3    H233886   2.892   6.993   5.564
11315TIP3   OH233887   7.027   4.081   5.036
11315TIP3    H133888   6.972   4.150   5.073
11315TIP3    H233889   7.013   4.087   4.941
11316TIP3   OH233890   6.919   3.763   2.578
11316TIP3    H133891   6.977   3.817   2.524
11316TIP3    H233892   6.861   3.720   2.515
11317TIP3   OH233893   3.151   3.990   1.543
11317TIP3    H133894   3.108   3.905   1.553
11317TIP3    H233895   3.087   4.054   1.576
11318TIP3   OH233896   8.060   7.051   1.846
11318TIP3    H133897   7.982   7.085   1.890
11318TIP3    H233898   8.049   6.956   1.848
11319TIP3   OH233899   8.254   4.742   1.895
11319TIP3    H133900   8.340   4.743   1.937
11319TIP3    H233901   8.258   4.669   1.833
11320TIP3   OH233902   8.014   4.960   6.366
11320TIP3    H133903   8.104   4.928   6.359
11320TIP3    H233904   7.977   4.949   6.278
11321TIP3   OH233905   3.962   6.823   0.057
11321TIP3    H133906   3.908   6.764   0.110
11321TIP3    H233907   4.012   6.764   0.000
11322TIP3   OH233908   2.105   7.580   4.564
11322TIP3    H133909   2.106   7.608   4.656
11322TIP3    H233910   2.038   7.636   4.523
11323TIP3   OH233911   3.239   2.523   5.171
11323TIP3    H133912   3.299   2.524   5.097
11323TIP3    H233913   3.294   2.534   5.248
11324TIP3   OH233914   6.979   3.609   5.205
11324TIP3    H133915   7.038   3.669   5.160
11324TIP3    H233916   7.028   3.582   5.283
11325TIP3   OH233917   5.155   4.888   4.274
11325TIP3    H133918   5.160   4.977   4.310
11325TIP3    H233919   5.241   4.873   4.236
11326TIP3   OH233920   7.603   4.149   3.988
11326TIP3    H133921   7.651   4.072   4.017
11326TIP3    H233922   7.556   4.120   3.909
11327TIP3   OH233923   2.821   0.734   3.886
11327TIP3    H133924   2.804   0.646   3.853
11327TIP3    H233925   2.907   0.757   3.851
11328TIP3   OH233926   0.425   2.480   4.465
11328TIP3    H133927   0.437   2.423   4.390
11328TIP3    H233928   0.353   2.441   4.514
11329TIP3   OH233929   7.216   2.543   6.747
11329TIP3    H133930   7.306   2.522   6.775
11329TIP3    H233931   7.202   2.489   6.670
11330TIP3   OH233932   3.223   0.577   5.338
11330TIP3    H133933   3.138   0.561   5.298
11330TIP3    H233934   3.203   0.608   5.426
11331TIP3   OH233935   4.981   1.498   1.813
11331TIP3    H133936   5.027   1.469   1.734
11331TIP3    H233937   4.986   1.423   1.873
11332TIP3   OH233938   7.877   6.168   5.309
11332TIP3    H133939   7.884   6.175   5.404
11332TIP3    H233940   7.789   6.132   5.295
11333TIP3   OH233941   4.843   1.861   5.583
11333TIP3    H133942   4.801   1.820   5.508
11333TIP3    H233943   4.861   1.789   5.643
11334TIP3   OH233944   4.567   3.318   3.604
11334TIP3    H133945   4.500   3.336   3.537
11334TIP3    H233946   4.548   3.380   3.674
11335TIP3   OH233947   5.143   0.872   1.233
11335TIP3    H133948   5.230   0.834   1.231
11335TIP3    H233949   5.088   0.808   1.187
11336TIP3   OH233950   5.942   7.418   4.010
11336TIP3    H133951   5.909   7.468   4.084
11336TIP3    H233952   5.937   7.478   3.936
11337TIP3   OH233953   3.841   5.971   0.819
11337TIP3    H133954   3.914   5.961   0.879
11337TIP3    H233955   3.810   5.881   0.803
11338TIP3   OH233956   5.454   7.149   5.243
11338TIP3    H133957   5.414   7.236   5.239
11338TIP3    H233958   5.394   7.093   5.194
11339TIP3   OH233959   4.814   7.188   4.570
11339TIP3    H133960   4.887   7.131   4.547
11339TIP3    H233961   4.743   7.127   4.594
11340TIP3   OH233962   1.132   6.772   0.377
11340TIP3    H133963   1.073   6.713   0.330
11340TIP3    H233964   1.174   6.824   0.307
11341TIP3   OH233965   0.780   0.859   3.155
11341TIP3    H133966   0.785   0.786   3.094
11341TIP3    H233967   0.782   0.818   3.242
11342TIP3   OH233968   4.156   5.671   5.688
11342TIP3    H133969   4.139   5.691   5.596
11342TIP3    H233970   4.243   5.631   5.688
11343TIP3   OH233971   6.173   2.611   4.419
11343TIP3    H133972   6.242   2.633   4.482
11343TIP3    H233973   6.123   2.541   4.461
11344TIP3   OH233974   7.787   3.502   1.762
11344TIP3    H133975   7.707   3.467   1.722
11344TIP3    H233976   7.838   3.424   1.786
11345TIP3   OH233977   8.202   4.148   2.319
11345TIP3    H133978   8.260   4.111   2.253
11345TIP3    H233979   8.173   4.073   2.371
11346TIP3   OH233980   4.834   2.465   3.724
11346TIP3    H133981   4.920   2.431   3.749
11346TIP3    H233982   4.849   2.509   3.640
11347TIP3   OH233983   1.128   3.055   1.638
11347TIP3    H133984   1.079   3.091   1.712
11347TIP3    H233985   1.074   2.982   1.608
11348TIP3   OH233986   7.607   6.180   1.306
11348TIP3    H133987   7.620   6.271   1.333
11348TIP3    H233988   7.688   6.136   1.330
11349TIP3   OH233989   4.287   5.743   1.909
11349TIP3    H133990   4.258   5.800   1.838
11349TIP3    H233991   4.354   5.794   1.955
11350TIP3   OH233992   6.342   3.344   6.381
11350TIP3    H133993   6.423   3.293   6.390
11350TIP3    H233994   6.274   3.278   6.365
11351TIP3   OH233995   1.822   6.926   2.923
11351TIP3    H133996   1.910   6.925   2.886
11351TIP3    H233997   1.767   6.964   2.854
11352TIP3   OH233998   2.736   4.843   4.701
11352TIP3    H133999   2.685   4.867   4.624
11352TIP3    H234000   2.788   4.921   4.720
11353TIP3   OH234001   4.711   6.169   0.024
11353TIP3    H134002   4.736   6.141  -0.065
11353TIP3    H234003   4.790   6.210   0.058
11354TIP3   OH234004   1.661   1.946   0.980
11354TIP3    H134005   1.685   1.925   1.070
11354TIP3    H234006   1.674   1.864   0.933
11355TIP3   OH234007   1.669   3.699   3.454
11355TIP3    H134008   1.587   3.727   3.495
11355TIP3    H234009   1.643   3.673   3.365
11356TIP3   OH234010   0.959   3.453   3.247
11356TIP3    H134011   0.918   3.533   3.213
11356TIP3    H234012   1.004   3.415   3.172
11357TIP3   OH234013   0.822   3.836   3.467
11357TIP3    H134014   0.842   3.796   3.552
11357TIP3    H234015   0.809   3.928   3.487
11358TIP3   OH234016   5.814   0.949   6.100
11358TIP3    H134017   5.770   0.928   6.182
11358TIP3    H234018   5.796   0.874   6.043
11359TIP3   OH234019   6.554   1.988   3.282
11359TIP3    H134020   6.604   2.063   3.249
11359TIP3    H234021   6.612   1.913   3.270
11360TIP3   OH234022   0.196   0.328   3.688
11360TIP3    H134023   0.252   0.253   3.709
11360TIP3    H234024   0.107   0.295   3.696
11361TIP3   OH234025   2.987   7.298   1.851
11361TIP3    H134026   2.949   7.343   1.776
11361TIP3    H234027   2.987   7.205   1.826
11362TIP3   OH234028   1.603   1.331   2.625
11362TIP3    H134029   1.615   1.364   2.537
11362TIP3    H234030   1.523   1.374   2.657
11363TIP3   OH234031   7.087   4.759   2.825
11363TIP3    H134032   7.007   4.711   2.804
11363TIP3    H234033   7.088   4.764   2.921
11364TIP3   OH234034   5.565   3.617   4.201
11364TIP3    H134035   5.592   3.537   4.156
11364TIP3    H234036   5.621   3.685   4.164
11365TIP3   OH234037   3.092   7.286   1.536
11365TIP3    H134038   3.054   7.198   1.532
11365TIP3    H234039   3.096   7.314   1.444
11366TIP3   OH234040   3.665   5.820   1.206
11366TIP3    H134041   3.646   5.767   1.284
11366TIP3    H234042   3.608   5.783   1.138
11367TIP3   OH234043   1.420   1.062   1.834
11367TIP3    H134044   1.362   1.103   1.769
11367TIP3    H234045   1.389   1.095   1.918
11368TIP3   OH234046   7.874   1.491   3.113
11368TIP3    H134047   7.822   1.444   3.048
11368TIP3    H234048   7.844   1.457   3.198
11369TIP3   OH234049   0.367   4.298   4.643
11369TIP3    H134050   0.304   4.267   4.708
11369TIP3    H234051   0.371   4.228   4.578
11370TIP3   OH234052   7.119   1.611   2.472
11370TIP3    H134053   7.168   1.643   2.395
11370TIP3    H234054   7.078   1.690   2.508
11371TIP3   OH234055   0.518   3.942   3.782
11371TIP3    H134056   0.444   3.973   3.729
11371TIP3    H234057   0.565   3.882   3.724
11372TIP3   OH234058   5.162   6.997   2.005
11372TIP3    H134059   5.218   7.071   2.028
11372TIP3    H234060   5.190   6.973   1.916
11373TIP3   OH234061   2.119   3.072   3.082
11373TIP3    H134062   2.145   2.982   3.064
11373TIP3    H234063   2.200   3.115   3.110
11374TIP3   OH234064   4.611   3.989   3.544
11374TIP3    H134065   4.667   4.066   3.530
11374TIP3    H234066   4.540   4.021   3.599
11375TIP3   OH234067   5.145   3.002   4.751
11375TIP3    H134068   5.092   3.070   4.707
11375TIP3    H234069   5.161   2.937   4.683
11376TIP3   OH234070   0.425   6.898   0.116
11376TIP3    H134071   0.403   6.904   0.023
11376TIP3    H234072   0.421   6.804   0.135
11377TIP3   OH234073   4.934   1.976   2.801
11377TIP3    H134074   5.017   2.003   2.840
11377TIP3    H234075   4.892   2.057   2.774
11378TIP3   OH234076   6.124   2.106   2.749
11378TIP3    H134077   6.193   2.170   2.763
11378TIP3    H234078   6.107   2.109   2.655
11379TIP3   OH234079   8.175   5.187   0.700
11379TIP3    H134080   8.161   5.146   0.786
11379TIP3    H234081   8.241   5.132   0.658
11380TIP3   OH234082   4.318   6.360   0.889
11380TIP3    H134083   4.335   6.333   0.799
11380TIP3    H234084   4.236   6.318   0.912
11381TIP3   OH234085   7.801   3.025   2.445
11381TIP3    H134086   7.803   2.932   2.423
11381TIP3    H234087   7.883   3.060   2.408
11382TIP3   OH234088   6.543   4.958   3.814
11382TIP3    H134089   6.490   4.982   3.738
11382TIP3    H234090   6.617   4.910   3.777
11383TIP3   OH234091   4.456   1.648   0.207
11383TIP3    H134092   4.486   1.735   0.180
11383TIP3    H234093   4.509   1.587   0.156
11384TIP3   OH234094   1.103   4.252   4.533
11384TIP3    H134095   1.167   4.238   4.603
11384TIP3    H234096   1.080   4.344   4.539
11385TIP3   OH234097   5.687   4.009   0.198
11385TIP3    H134098   5.595   4.035   0.192
11385TIP3    H234099   5.707   4.011   0.292
11386TIP3   OH234100   2.056   4.769   6.068
11386TIP3    H134101   2.084   4.777   6.159
11386TIP3    H234102   1.962   4.783   6.070
11387TIP3   OH234103   3.096   2.467   3.892
11387TIP3    H134104   3.069   2.402   3.828
11387TIP3    H234105   3.066   2.434   3.976
11388TIP3   OH234106   4.766   0.800   3.348
11388TIP3    H134107   4.853   0.766   3.327
11388TIP3    H234108   4.782   0.865   3.417
11389TIP3   OH234109   1.150   6.764   5.334
11389TIP3    H134110   1.246   6.771   5.338
11389TIP3    H234111   1.134   6.693   5.272
11390TIP3   OH234112   7.549   6.282   5.295
11390TIP3    H134113   7.504   6.277   5.379
11390TIP3    H234114   7.549   6.376   5.274
11391TIP3   OH234115   4.031   1.631   3.745
11391TIP3    H134116   4.081   1.659   3.822
11391TIP3    H234117   4.064   1.686   3.674
11392TIP3   OH234118   7.092   5.116   2.652
11392TIP3    H134119   7.136   5.200   2.661
11392TIP3    H234120   7.113   5.069   2.732
11393TIP3   OH234121   0.691   5.520   5.698
11393TIP3    H134122   0.718   5.495   5.786
11393TIP3    H234123   0.762   5.577   5.666
11394TIP3   OH234124   3.400   5.184   2.392
11394TIP3    H134125   3.418   5.129   2.316
11394TIP3    H234126   3.341   5.132   2.446
11395TIP3   OH234127   5.463   0.472   3.069
11395TIP3    H134128   5.528   0.482   3.000
11395TIP3    H234129   5.450   0.560   3.104
11396TIP3   OH234130   0.631   7.061   2.573
11396TIP3    H134131   0.649   7.153   2.590
11396TIP3    H234132   0.714   7.027   2.539
11397TIP3   OH234133   7.455   2.703   0.334
11397TIP3    H134134   7.403   2.623   0.334
11397TIP3    H234135   7.438   2.742   0.420
11398TIP3   OH234136   6.141   4.501   3.105
11398TIP3    H134137   6.105   4.476   3.190
11398TIP3    H234138   6.064   4.517   3.050
11399TIP3   OH234139   2.971   4.129   1.959
11399TIP3    H134140   2.990   4.205   2.013
11399TIP3    H234141   2.977   4.055   2.019
11400TIP3   OH234142   3.036   4.813   4.076
11400TIP3    H134143   3.003   4.823   3.986
11400TIP3    H234144   3.084   4.731   4.075
11401TIP3   OH234145   2.266   2.665   5.112
11401TIP3    H134146   2.231   2.588   5.068
11401TIP3    H234147   2.322   2.707   5.046
11402TIP3   OH234148   0.435   4.011   3.090
11402TIP3    H134149   0.357   4.065   3.076
11402TIP3    H234150   0.480   4.051   3.164
11403TIP3   OH234151   2.062   3.082   0.587
11403TIP3    H134152   1.997   3.129   0.536
11403TIP3    H234153   2.114   3.150   0.629
11404TIP3   OH234154   3.146   5.203   3.502
11404TIP3    H134155   3.167   5.122   3.548
11404TIP3    H234156   3.168   5.186   3.411
11405TIP3   OH234157   1.965   0.642   3.891
11405TIP3    H134158   1.898   0.599   3.944
11405TIP3    H234159   1.925   0.724   3.862
11406TIP3   OH234160   5.683   5.039   1.757
11406TIP3    H134161   5.763   5.034   1.809
11406TIP3    H234162   5.653   4.948   1.749
11407TIP3   OH234163   1.979   4.367   6.692
11407TIP3    H134164   1.952   4.399   6.778
11407TIP3    H234165   1.991   4.445   6.639
11408TIP3   OH234166   4.201   6.904   0.258
11408TIP3    H134167   4.110   6.878   0.247
11408TIP3    H234168   4.208   6.988   0.213
11409TIP3   OH234169   0.866   1.724   2.750
11409TIP3    H134170   0.864   1.722   2.846
11409TIP3    H234171   0.805   1.795   2.727
11410TIP3   OH234172   5.327   6.531   4.731
11410TIP3    H134173   5.395   6.537   4.799
11410TIP3    H234174   5.362   6.468   4.668
11411TIP3   OH234175   2.824   0.179   6.664
11411TIP3    H134176   2.872   0.130   6.597
11411TIP3    H234177   2.842   0.133   6.745
11412TIP3   OH234178   4.184   3.120   0.816
11412TIP3    H134179   4.218   3.113   0.905
11412TIP3    H234180   4.121   3.191   0.820
11413TIP3   OH234181   4.322   1.825   3.355
11413TIP3    H134182   4.246   1.796   3.405
11413TIP3    H234183   4.296   1.911   3.320
11414TIP3   OH234184   1.611   4.288   4.581
11414TIP3    H134185   1.596   4.375   4.545
11414TIP3    H234186   1.630   4.233   4.505
11415TIP3   OH234187   1.761   0.077   0.079
11415TIP3    H134188   1.848   0.041   0.059
11415TIP3    H234189   1.701   0.024   0.027
11416TIP3   OH234190   1.749   0.464   5.764
11416TIP3    H134191   1.754   0.398   5.695
11416TIP3    H234192   1.767   0.546   5.719
11417TIP3   OH234193   2.039   6.478   2.494
11417TIP3    H134194   2.068   6.566   2.516
11417TIP3    H234195   2.006   6.485   2.404
11418TIP3   OH234196   8.284   2.395   3.586
11418TIP3    H134197   8.212   2.374   3.645
11418TIP3    H234198   8.363   2.370   3.634
11419TIP3   OH234199   7.395   0.276   2.172
11419TIP3    H134200   7.416   0.353   2.120
11419TIP3    H234201   7.476   0.253   2.216
11420TIP3   OH234202   6.896   3.419   6.320
11420TIP3    H134203   6.922   3.338   6.363
11420TIP3    H234204   6.976   3.449   6.276
11421TIP3   OH234205   5.735   2.789   5.509
11421TIP3    H134206   5.718   2.737   5.587
11421TIP3    H234207   5.662   2.770   5.451
11422TIP3   OH234208   0.293   1.983   4.396
11422TIP3    H134209   0.323   1.905   4.349
11422TIP3    H234210   0.371   2.038   4.402
11423TIP3   OH234211   4.259   5.707   0.610
11423TIP3    H134212   4.185   5.735   0.664
11423TIP3    H234213   4.310   5.649   0.666
11424TIP3   OH234214   7.651   7.658   5.874
11424TIP3    H134215   7.672   7.669   5.781
11424TIP3    H234216   7.717   7.710   5.920
11425TIP3   OH234217   1.106   1.441   0.365
11425TIP3    H134218   1.069   1.488   0.290
11425TIP3    H234219   1.071   1.486   0.442
11426TIP3   OH234220   7.752   2.990   1.000
11426TIP3    H134221   7.791   3.061   1.052
11426TIP3    H234222   7.764   3.018   0.909
11427TIP3   OH234223   7.644   1.142   1.256
11427TIP3    H134224   7.628   1.233   1.231
11427TIP3    H234225   7.692   1.105   1.182
11428TIP3   OH234226   7.304   3.559   2.505
11428TIP3    H134227   7.330   3.601   2.423
11428TIP3    H234228   7.380   3.505   2.530
11429TIP3   OH234229   5.034   6.510   5.744
11429TIP3    H134230   4.944   6.503   5.775
11429TIP3    H234231   5.074   6.426   5.768
11430TIP3   OH234232   5.768   7.068   3.382
11430TIP3    H134233   5.850   7.081   3.429
11430TIP3    H234234   5.736   7.156   3.363
11431TIP3   OH234235   0.144   6.203   3.986
11431TIP3    H134236   0.101   6.126   3.947
11431TIP3    H234237   0.142   6.185   4.080
11432TIP3   OH234238   4.927   3.613   5.364
11432TIP3    H134239   4.922   3.571   5.278
11432TIP3    H234240   5.020   3.630   5.378
11433TIP3   OH234241   2.889   5.310   1.767
11433TIP3    H134242   2.933   5.363   1.700
11433TIP3    H234243   2.954   5.245   1.792
11434TIP3   OH234244   6.490   6.199   6.456
11434TIP3    H134245   6.476   6.143   6.532
11434TIP3    H234246   6.402   6.231   6.434
11435TIP3   OH234247   4.266   5.195   6.024
11435TIP3    H134248   4.345   5.187   6.077
11435TIP3    H234249   4.208   5.126   6.056
11436TIP3   OH234250   6.520   3.445   2.967
11436TIP3    H134251   6.490   3.449   3.058
11436TIP3    H234252   6.527   3.537   2.940
11437TIP3   OH234253   2.228   4.614   0.777
11437TIP3    H134254   2.172   4.655   0.711
11437TIP3    H234255   2.176   4.617   0.857
11438TIP3   OH234256   3.887   3.318   2.455
11438TIP3    H134257   3.929   3.314   2.370
11438TIP3    H234258   3.793   3.316   2.436
11439TIP3   OH234259   8.139   6.076   0.638
11439TIP3    H134260   8.163   6.016   0.568
11439TIP3    H234261   8.164   6.163   0.605
11440TIP3   OH234262   1.213   0.236   3.040
11440TIP3    H134263   1.295   0.224   2.992
11440TIP3    H234264   1.200   0.330   3.041
11441TIP3   OH234265   6.609   5.693   6.310
11441TIP3    H134266   6.616   5.774   6.360
11441TIP3    H234267   6.669   5.705   6.236
11442TIP3   OH234268   5.658   6.428   1.834
11442TIP3    H134269   5.574   6.406   1.793
11442TIP3    H234270   5.695   6.496   1.778
11443TIP3   OH234271   2.204   2.370   6.127
11443TIP3    H134272   2.277   2.310   6.110
11443TIP3    H234273   2.172   2.394   6.041
11444TIP3   OH234274   3.156   3.982   0.763
11444TIP3    H134275   3.172   3.945   0.677
11444TIP3    H234276   3.135   3.906   0.818
11445TIP3   OH234277   7.148   2.177   4.274
11445TIP3    H134278   7.222   2.135   4.231
11445TIP3    H234279   7.149   2.267   4.242
11446TIP3   OH234280   0.993   4.919   5.855
11446TIP3    H134281   0.946   5.001   5.868
11446TIP3    H234282   1.020   4.922   5.763
11447TIP3   OH234283   4.037   1.257   1.486
11447TIP3    H134284   4.119   1.305   1.478
11447TIP3    H234285   3.990   1.275   1.405
11448TIP3   OH234286   0.976   2.452   3.821
11448TIP3    H134287   1.061   2.493   3.839
11448TIP3    H234288   0.915   2.497   3.880
11449TIP3   OH234289   5.277   1.030   2.995
11449TIP3    H134290   5.219   0.966   2.954
11449TIP3    H234291   5.363   0.989   2.994
11450TIP3   OH234292   4.184   4.210   0.778
11450TIP3    H134293   4.269   4.201   0.821
11450TIP3    H234294   4.184   4.141   0.711
11451TIP3   OH234295   2.806   4.747   0.523
11451TIP3    H134296   2.788   4.681   0.591
11451TIP3    H234297   2.721   4.790   0.509
11452TIP3   OH234298   5.328   3.343   6.103
11452TIP3    H134299   5.277   3.281   6.051
11452TIP3    H234300   5.412   3.300   6.118
11453TIP3   OH234301   4.295   4.441   5.865
11453TIP3    H134302   4.229   4.387   5.821
11453TIP3    H234303   4.350   4.473   5.793
11454TIP3   OH234304   0.668   0.562   1.968
11454TIP3    H134305   0.575   0.540   1.961
11454TIP3    H234306   0.695   0.584   1.878
11455TIP3   OH234307   4.548   5.756   1.268
11455TIP3    H134308   4.579   5.808   1.342
11455TIP3    H234309   4.464   5.720   1.297
11456TIP3   OH234310   4.560   0.169   6.741
11456TIP3    H134311   4.549   0.263   6.726
11456TIP3    H234312   4.633   0.144   6.684
11457TIP3   OH234313   1.881   3.376   5.271
11457TIP3    H134314   1.799   3.350   5.313
11457TIP3    H234315   1.949   3.354   5.336
11458TIP3   OH234316   7.854   7.661   4.416
11458TIP3    H134317   7.930   7.713   4.389
11458TIP3    H234318   7.884   7.612   4.492
11459TIP3   OH234319   5.461   2.053   3.070
11459TIP3    H134320   5.367   2.071   3.079
11459TIP3    H234321   5.500   2.089   3.149
11460TIP3   OH234322   5.012   1.187   2.973
11460TIP3    H134323   4.978   1.211   2.887
11460TIP3    H234324   5.090   1.134   2.955
11461TIP3   OH234325   5.779   7.414   0.319
11461TIP3    H134326   5.795   7.320   0.330
11461TIP3    H234327   5.858   7.456   0.351
11462TIP3   OH234328   1.503   2.071   4.483
11462TIP3    H134329   1.554   2.029   4.552
11462TIP3    H234330   1.528   2.024   4.403
11463TIP3   OH234331   4.447   2.595   1.432
11463TIP3    H134332   4.392   2.539   1.377
11463TIP3    H234333   4.522   2.540   1.454
11464TIP3   OH234334   2.655   2.861   2.182
11464TIP3    H134335   2.693   2.946   2.160
11464TIP3    H234336   2.594   2.879   2.253
11465TIP3   OH234337   2.683   7.515   5.638
11465TIP3    H134338   2.663   7.503   5.731
11465TIP3    H234339   2.683   7.427   5.601
11466TIP3   OH234340   5.721   0.811   3.316
11466TIP3    H134341   5.779   0.873   3.271
11466TIP3    H234342   5.749   0.814   3.408
11467TIP3   OH234343   0.666   2.837   6.558
11467TIP3    H134344   0.760   2.857   6.562
11467TIP3    H234345   0.664   2.746   6.525
11468TIP3   OH234346   6.977   3.031   3.617
11468TIP3    H134347   6.990   3.005   3.708
11468TIP3    H234348   6.964   3.126   3.620
11469TIP3   OH234349   1.540   1.252   6.600
11469TIP3    H134350   1.630   1.284   6.597
11469TIP3    H234351   1.487   1.330   6.611
11470TIP3   OH234352   3.881   5.311   6.136
11470TIP3    H134353   3.968   5.350   6.140
11470TIP3    H234354   3.842   5.329   6.221
11471TIP3   OH234355   1.350   1.727   1.819
11471TIP3    H134356   1.376   1.764   1.735
11471TIP3    H234357   1.261   1.760   1.833
11472TIP3   OH234358   5.716   0.136   5.065
11472TIP3    H134359   5.796   0.140   5.013
11472TIP3    H234360   5.710   0.045   5.094
11473TIP3   OH234361   2.938   3.435   1.679
11473TIP3    H134362   2.960   3.425   1.587
11473TIP3    H234363   2.935   3.529   1.694
11474TIP3   OH234364   4.254   6.253   4.940
11474TIP3    H134365   4.241   6.300   5.022
11474TIP3    H234366   4.190   6.182   4.943
11475TIP3   OH234367   3.293   0.967   1.996
11475TIP3    H134368   3.381   0.944   2.025
11475TIP3    H234369   3.246   0.884   1.997
11476TIP3   OH234370   2.009   3.944   6.038
11476TIP3    H134371   1.974   4.030   6.015
11476TIP3    H234372   1.984   3.888   5.965
11477TIP3   OH234373   3.388   7.211   1.676
11477TIP3    H134374   3.376   7.253   1.590
11477TIP3    H234375   3.307   7.162   1.690
11478TIP3   OH234376   6.820   5.069   2.317
11478TIP3    H134377   6.787   5.069   2.406
11478TIP3    H234378   6.743   5.052   2.262
11479TIP3   OH234379   0.268   3.058   0.846
11479TIP3    H134380   0.304   3.135   0.803
11479TIP3    H234381   0.330   3.038   0.916
11480TIP3   OH234382   2.057   6.333   4.372
11480TIP3    H134383   1.978   6.292   4.337
11480TIP3    H234384   2.129   6.278   4.340
11481TIP3   OH234385   7.992   7.215   3.791
11481TIP3    H134386   8.005   7.137   3.737
11481TIP3    H234387   8.080   7.245   3.811
11482TIP3   OH234388   4.951   2.780   3.651
11482TIP3    H134389   5.036   2.811   3.621
11482TIP3    H234390   4.906   2.753   3.570
11483TIP3   OH234391   2.289   6.352   5.922
11483TIP3    H134392   2.372   6.311   5.945
11483TIP3    H234393   2.223   6.302   5.970
11484TIP3   OH234394   7.040   6.995   3.522
11484TIP3    H134395   6.991   7.026   3.598
11484TIP3    H234396   6.973   6.975   3.457
11485TIP3   OH234397   6.654   2.400   2.891
11485TIP3    H134398   6.731   2.346   2.872
11485TIP3    H234399   6.679   2.487   2.860
11486TIP3   OH234400   3.384   4.243   6.177
11486TIP3    H134401   3.460   4.300   6.169
11486TIP3    H234402   3.308   4.301   6.165
11487TIP3   OH234403   4.330   2.945   3.729
11487TIP3    H134404   4.407   2.899   3.762
11487TIP3    H234405   4.360   2.987   3.649
11488TIP3   OH234406   6.469   4.764   4.066
11488TIP3    H134407   6.473   4.689   4.006
11488TIP3    H234408   6.498   4.838   4.014
11489TIP3   OH234409   7.731   7.227   3.761
11489TIP3    H134410   7.824   7.238   3.780
11489TIP3    H234411   7.728   7.204   3.668
11490TIP3   OH234412   7.530   4.278   4.806
11490TIP3    H134413   7.532   4.289   4.711
11490TIP3    H234414   7.485   4.195   4.820
11491TIP3   OH234415   7.270   1.990   6.584
11491TIP3    H134416   7.285   1.974   6.491
11491TIP3    H234417   7.356   1.986   6.624
11492TIP3   OH234418   7.146   0.769   1.004
11492TIP3    H134419   7.105   0.851   1.032
11492TIP3    H234420   7.170   0.785   0.913
11493TIP3   OH234421   2.922   0.109   6.019
11493TIP3    H134422   2.933   0.204   6.007
11493TIP3    H234423   3.008   0.078   6.044
11494TIP3   OH234424   8.208   2.414   6.064
11494TIP3    H134425   8.264   2.390   6.138
11494TIP3    H234426   8.230   2.505   6.045
11495TIP3   OH234427   3.383   4.892   2.038
11495TIP3    H134428   3.471   4.888   2.076
11495TIP3    H234429   3.356   4.983   2.050
11496TIP3   OH234430   0.418   1.481   2.607
11496TIP3    H134431   0.472   1.486   2.529
11496TIP3    H234432   0.475   1.511   2.678
11497TIP3   OH234433   6.093   5.132   4.408
11497TIP3    H134434   6.132   5.205   4.359
11497TIP3    H234435   6.164   5.070   4.418
11498TIP3   OH234436   3.751   1.907   5.715
11498TIP3    H134437   3.801   1.959   5.778
11498TIP3    H234438   3.660   1.928   5.733
11499TIP3   OH234439   5.851   1.442   2.913
11499TIP3    H134440   5.817   1.379   2.850
11499TIP3    H234441   5.842   1.398   2.998
11500TIP3   OH234442   7.979   5.075   4.993
11500TIP3    H134443   8.008   5.149   5.046
11500TIP3    H234444   8.008   4.998   5.042
11501TIP3   OH234445   6.575   1.496   0.574
11501TIP3    H134446   6.480   1.505   0.582
11501TIP3    H234447   6.588   1.405   0.549
11502TIP3   OH234448   2.000   5.311   0.488
11502TIP3    H134449   2.026   5.387   0.436
11502TIP3    H234450   1.910   5.330   0.515
11503TIP3   OH234451   4.442   5.037   2.278
11503TIP3    H134452   4.525   4.989   2.270
11503TIP3    H234453   4.463   5.113   2.331
11504TIP3   OH234454   4.283   0.524   3.615
11504TIP3    H134455   4.359   0.577   3.593
11504TIP3    H234456   4.239   0.571   3.685
11505TIP3   OH234457   1.275   2.815   3.755
11505TIP3    H134458   1.181   2.816   3.742
11505TIP3    H234459   1.291   2.886   3.818
11506TIP3   OH234460   4.252   2.070   6.118
11506TIP3    H134461   4.273   2.154   6.078
11506TIP3    H234462   4.320   2.010   6.086
11507TIP3   OH234463   3.121   2.561   2.383
11507TIP3    H134464   3.147   2.546   2.292
11507TIP3    H234465   3.190   2.521   2.435
11508TIP3   OH234466   4.114   2.049   2.052
11508TIP3    H134467   4.069   2.131   2.074
11508TIP3    H234468   4.166   2.070   1.975
11509TIP3   OH234469   4.274   0.980   5.081
11509TIP3    H134470   4.184   1.006   5.101
11509TIP3    H234471   4.293   1.020   4.996
11510TIP3   OH234472   4.280   4.210   2.937
11510TIP3    H134473   4.240   4.224   2.851
11510TIP3    H234474   4.373   4.198   2.918
11511TIP3   OH234475   3.866   2.217   0.462
11511TIP3    H134476   3.831   2.179   0.542
11511TIP3    H234477   3.851   2.151   0.395
11512TIP3   OH234478   6.707   2.446   4.486
11512TIP3    H134479   6.711   2.390   4.408
11512TIP3    H234480   6.665   2.526   4.456
11513TIP3   OH234481   5.168   0.007   3.716
11513TIP3    H134482   5.220   0.021   3.637
11513TIP3    H234483   5.233  -0.004   3.786
11514TIP3   OH234484   4.480   5.596   2.560
11514TIP3    H134485   4.409   5.532   2.566
11514TIP3    H234486   4.482   5.623   2.469
11515TIP3   OH234487   4.835   1.637   3.979
11515TIP3    H134488   4.778   1.646   4.056
11515TIP3    H234489   4.789   1.686   3.910
11516TIP3   OH234490   1.211   4.137   4.911
11516TIP3    H134491   1.243   4.143   4.822
11516TIP3    H234492   1.139   4.074   4.907
11517TIP3   OH234493   2.279   6.747   0.359
11517TIP3    H134494   2.370   6.726   0.382
11517TIP3    H234495   2.272   6.841   0.374
11518TIP3   OH234496   0.389   0.308   0.276
11518TIP3    H134497   0.468   0.264   0.246
11518TIP3    H234498   0.326   0.295   0.205
11519TIP3   OH234499   0.438   2.724   6.249
11519TIP3    H134500   0.414   2.805   6.205
11519TIP3    H234501   0.498   2.681   6.188
11520TIP3   OH234502   3.384   6.889   2.821
11520TIP3    H134503   3.439   6.961   2.791
11520TIP3    H234504   3.297   6.927   2.832
11521TIP3   OH234505   8.114   2.886   2.427
11521TIP3    H134506   8.077   2.808   2.468
11521TIP3    H234507   8.143   2.857   2.341
11522TIP3   OH234508   3.308   1.005   3.870
11522TIP3    H134509   3.322   1.015   3.964
11522TIP3    H234510   3.381   0.952   3.839
11523TIP3   OH234511   7.753   7.271   4.550
11523TIP3    H134512   7.715   7.323   4.479
11523TIP3    H234513   7.824   7.223   4.508
11524TIP3   OH234514   4.249   3.376   0.621
11524TIP3    H134515   4.165   3.387   0.666
11524TIP3    H234516   4.229   3.319   0.547
11525TIP3   OH234517   2.095   6.718   5.658
11525TIP3    H134518   2.158   6.652   5.685
11525TIP3    H234519   2.028   6.717   5.725
11526TIP3   OH234520   3.506   2.674   5.817
11526TIP3    H134521   3.444   2.604   5.798
11526TIP3    H234522   3.589   2.629   5.831
11527TIP3   OH234523   4.906   6.683   4.308
11527TIP3    H134524   4.894   6.590   4.292
11527TIP3    H234525   4.943   6.717   4.226
11528TIP3   OH234526   2.242   5.589   4.120
11528TIP3    H134527   2.277   5.665   4.073
11528TIP3    H234528   2.225   5.524   4.052
11529TIP3   OH234529   5.534   4.123   4.289
11529TIP3    H134530   5.582   4.087   4.214
11529TIP3    H234531   5.603   4.152   4.349
11530TIP3   OH234532   2.282   5.326   1.634
11530TIP3    H134533   2.356   5.289   1.585
11530TIP3    H234534   2.260   5.406   1.586
11531TIP3   OH234535   4.419   3.114   4.557
11531TIP3    H134536   4.458   3.197   4.529
11531TIP3    H234537   4.479   3.047   4.524
11532TIP3   OH234538   7.846   7.483   0.395
11532TIP3    H134539   7.857   7.532   0.477
11532TIP3    H234540   7.935   7.469   0.364
11533TIP3   OH234541   0.793   6.730   3.116
11533TIP3    H134542   0.717   6.784   3.138
11533TIP3    H234543   0.763   6.640   3.129
11534TIP3   OH234544   7.464   2.517   6.453
11534TIP3    H134545   7.464   2.422   6.469
11534TIP3    H234546   7.517   2.554   6.523
11535TIP3   OH234547   8.043   5.704   1.069
11535TIP3    H134548   7.958   5.664   1.056
11535TIP3    H234549   8.044   5.779   1.010
11536TIP3   OH234550   4.110   6.886   3.569
11536TIP3    H134551   4.135   6.876   3.477
11536TIP3    H234552   4.040   6.950   3.568
11537TIP3   OH234553   7.464   2.175   5.305
11537TIP3    H134554   7.536   2.229   5.335
11537TIP3    H234555   7.426   2.224   5.231
11538TIP3   OH234556   7.503   4.314   5.844
11538TIP3    H134557   7.416   4.276   5.854
11538TIP3    H234558   7.525   4.301   5.752
11539TIP3   OH234559   5.538   6.606   2.037
11539TIP3    H134560   5.510   6.684   1.990
11539TIP3    H234561   5.558   6.543   1.967
11540TIP3   OH234562   1.772   4.148   4.366
11540TIP3    H134563   1.748   4.090   4.294
11540TIP3    H234564   1.853   4.111   4.401
11541TIP3   OH234565   3.429   5.894   3.310
11541TIP3    H134566   3.425   5.854   3.223
11541TIP3    H234567   3.445   5.986   3.293
11542TIP3   OH234568   4.299   3.784   3.916
11542TIP3    H134569   4.207   3.783   3.889
11542TIP3    H234570   4.340   3.713   3.866
11543TIP3   OH234571   3.899   1.845   4.213
11543TIP3    H134572   3.890   1.815   4.304
11543TIP3    H234573   3.878   1.938   4.216
11544TIP3   OH234574   7.254   1.517   1.905
11544TIP3    H134575   7.223   1.495   1.817
11544TIP3    H234576   7.174   1.530   1.956
11545TIP3   OH234577   2.343   4.128   0.561
11545TIP3    H134578   2.361   4.219   0.538
11545TIP3    H234579   2.370   4.120   0.652
11546TIP3   OH234580   7.187   5.353   2.986
11546TIP3    H134581   7.127   5.411   3.033
11546TIP3    H234582   7.265   5.407   2.971
11547TIP3   OH234583   1.257   1.603   4.075
11547TIP3    H134584   1.181   1.650   4.109
11547TIP3    H234585   1.224   1.516   4.055
11548TIP3   OH234586   5.769   7.651   2.147
11548TIP3    H134587   5.729   7.638   2.061
11548TIP3    H234588   5.765   7.565   2.189
11549TIP3   OH234589   7.266   2.205   3.489
11549TIP3    H134590   7.354   2.191   3.453
11549TIP3    H234591   7.281   2.228   3.581
11550TIP3   OH234592   8.150   1.144   6.470
11550TIP3    H134593   8.228   1.195   6.490
11550TIP3    H234594   8.176   1.053   6.485
11551TIP3   OH234595   7.527   6.312   2.961
11551TIP3    H134596   7.445   6.332   2.918
11551TIP3    H234597   7.541   6.384   3.023
11552TIP3   OH234598   2.318   5.976   2.490
11552TIP3    H134599   2.238   5.951   2.444
11552TIP3    H234600   2.373   5.898   2.487
11553TIP3   OH234601   5.463   3.312   1.946
11553TIP3    H134602   5.381   3.338   1.905
11553TIP3    H234603   5.442   3.304   2.039
11554TIP3   OH234604   2.892   4.460   1.857
11554TIP3    H134605   2.886   4.524   1.787
11554TIP3    H234606   2.956   4.396   1.827
11555TIP3   OH234607   4.426   1.151   4.577
11555TIP3    H134608   4.392   1.062   4.563
11555TIP3    H234609   4.487   1.142   4.650
11556TIP3   OH234610   3.975   4.853   5.682
11556TIP3    H134611   4.021   4.823   5.760
11556TIP3    H234612   3.889   4.881   5.714
11557TIP3   OH234613   6.367   7.302   2.410
11557TIP3    H134614   6.379   7.259   2.495
11557TIP3    H234615   6.453   7.340   2.389
11558TIP3   OH234616   2.129   6.298   5.580
11558TIP3    H134617   2.145   6.349   5.501
11558TIP3    H234618   2.038   6.320   5.604
11559TIP3   OH234619   6.065   1.933   2.983
11559TIP3    H134620   6.145   1.883   2.997
11559TIP3    H234621   6.086   1.991   2.910
11560TIP3   OH234622   5.077   5.637   0.128
11560TIP3    H134623   5.062   5.616   0.220
11560TIP3    H234624   5.123   5.561   0.094
11561TIP3   OH234625   1.607   3.654   3.040
11561TIP3    H134626   1.697   3.685   3.055
11561TIP3    H234627   1.567   3.654   3.127
11562TIP3   OH234628   4.474   5.513   5.374
11562TIP3    H134629   4.521   5.431   5.357
11562TIP3    H234630   4.433   5.534   5.290
11563TIP3   OH234631   3.445   5.334   1.818
11563TIP3    H134632   3.510   5.290   1.763
11563TIP3    H234633   3.450   5.290   1.903
11564TIP3   OH234634   3.406   2.341   1.590
11564TIP3    H134635   3.361   2.282   1.651
11564TIP3    H234636   3.498   2.332   1.612
11565TIP3   OH234637   4.441   5.907   6.007
11565TIP3    H134638   4.511   5.970   5.989
11565TIP3    H234639   4.477   5.822   5.980
11566TIP3   OH234640   7.144   1.926   1.740
11566TIP3    H134641   7.107   1.996   1.686
11566TIP3    H234642   7.181   1.864   1.677
11567TIP3   OH234643   2.023   2.152   0.608
11567TIP3    H134644   2.064   2.212   0.545
11567TIP3    H234645   2.011   2.071   0.559
11568TIP3   OH234646   1.745   4.457   6.367
11568TIP3    H134647   1.693   4.490   6.294
11568TIP3    H234648   1.781   4.374   6.336
11569TIP3   OH234649   0.258   2.175   6.152
11569TIP3    H134650   0.206   2.253   6.168
11569TIP3    H234651   0.311   2.196   6.075
11570TIP3   OH234652   6.071   0.086   6.304
11570TIP3    H134653   6.120   0.006   6.323
11570TIP3    H234654   6.097   0.147   6.374
11571TIP3   OH234655   0.214   7.108   5.111
11571TIP3    H134656   0.212   7.064   5.196
11571TIP3    H234657   0.265   7.049   5.055
11572TIP3   OH234658   1.611   4.617   3.391
11572TIP3    H134659   1.661   4.633   3.471
11572TIP3    H234660   1.611   4.701   3.345
11573TIP3   OH234661   2.992   2.760   6.398
11573TIP3    H134662   2.941   2.827   6.353
11573TIP3    H234663   2.987   2.684   6.340
11574TIP3   OH234664   3.545   2.584   0.172
11574TIP3    H134665   3.540   2.676   0.196
11574TIP3    H234666   3.500   2.538   0.242
11575TIP3   OH234667   6.999   3.321   0.591
11575TIP3    H134668   7.092   3.318   0.567
11575TIP3    H234669   6.965   3.397   0.544
11576TIP3   OH234670   7.598   3.623   0.094
11576TIP3    H134671   7.687   3.588   0.093
11576TIP3    H234672   7.601   3.699   0.037
11577TIP3   OH234673   3.746   4.746   3.311
11577TIP3    H134674   3.788   4.664   3.339
11577TIP3    H234675   3.678   4.761   3.375
11578TIP3   OH234676   4.437   2.673   4.594
11578TIP3    H134677   4.381   2.596   4.583
11578TIP3    H234678   4.418   2.703   4.683
11579TIP3   OH234679   1.017   1.699   4.192
11579TIP3    H134680   0.943   1.719   4.249
11579TIP3    H234681   0.978   1.651   4.118
11580TIP3   OH234682   6.570   5.073   0.669
11580TIP3    H134683   6.533   5.016   0.601
11580TIP3    H234684   6.512   5.149   0.670
11581TIP3   OH234685   0.974   6.542   2.751
11581TIP3    H134686   0.937   6.628   2.773
11581TIP3    H234687   1.014   6.512   2.833
11582TIP3   OH234688   6.171   6.754   1.698
11582TIP3    H134689   6.233   6.820   1.668
11582TIP3    H234690   6.199   6.734   1.788
11583TIP3   OH234691   1.274   4.732   0.661
11583TIP3    H134692   1.248   4.802   0.721
11583TIP3    H234693   1.353   4.695   0.700
11584TIP3   OH234694   4.497   6.118   4.854
11584TIP3    H134695   4.454   6.203   4.867
11584TIP3    H234696   4.527   6.093   4.942
11585TIP3   OH234697   7.751   3.335   2.351
11585TIP3    H134698   7.776   3.243   2.361
11585TIP3    H234699   7.684   3.350   2.418
11586TIP3   OH234700   5.242   2.208   1.894
11586TIP3    H134701   5.307   2.205   1.964
11586TIP3    H234702   5.236   2.118   1.864
11587TIP3   OH234703   7.113   6.466   5.931
11587TIP3    H134704   7.019   6.479   5.942
11587TIP3    H234705   7.132   6.386   5.979
11588TIP3   OH234706   1.097   1.773   0.322
11588TIP3    H134707   1.113   1.867   0.331
11588TIP3    H234708   1.156   1.733   0.386
11589TIP3   OH234709   7.102   5.504   6.217
11589TIP3    H134710   7.063   5.425   6.253
11589TIP3    H234711   7.111   5.485   6.123
11590TIP3   OH234712   3.452   6.694   4.113
11590TIP3    H134713   3.490   6.763   4.059
11590TIP3    H234714   3.441   6.620   4.053
11591TIP3   OH234715   0.079   2.214   4.672
11591TIP3    H134716   0.174   2.215   4.666
11591TIP3    H234717   0.050   2.189   4.584
11592TIP3   OH234718   1.122   6.298   1.971
11592TIP3    H134719   1.111   6.391   1.951
11592TIP3    H234720   1.032   6.267   1.986
11593TIP3   OH234721   7.733   0.908   1.403
11593TIP3    H134722   7.720   0.886   1.496
11593TIP3    H234723   7.787   0.987   1.405
11594TIP3   OH234724   2.972   2.589   2.771
11594TIP3    H134725   2.961   2.672   2.726
11594TIP3    H234726   2.956   2.609   2.864
11595TIP3   OH234727   3.545   4.445   1.080
11595TIP3    H134728   3.588   4.374   1.033
11595TIP3    H234729   3.462   4.458   1.034
11596TIP3   OH234730   6.512   0.575   5.979
11596TIP3    H134731   6.488   0.663   5.948
11596TIP3    H234732   6.604   0.583   6.003
11597TIP3   OH234733   1.955   1.120   3.903
11597TIP3    H134734   1.933   1.144   3.994
11597TIP3    H234735   1.904   1.040   3.888
11598TIP3   OH234736   4.963   0.778   1.969
11598TIP3    H134737   4.895   0.771   2.035
11598TIP3    H234738   5.023   0.705   1.989
11599TIP3   OH234739   5.582   1.717   1.701
11599TIP3    H134740   5.505   1.661   1.695
11599TIP3    H234741   5.644   1.679   1.639
11600TIP3   OH234742   4.257   5.791   0.873
11600TIP3    H134743   4.198   5.858   0.909
11600TIP3    H234744   4.338   5.838   0.854
11601TIP3   OH234745   7.588   6.917   0.769
11601TIP3    H134746   7.674   6.954   0.791
11601TIP3    H234747   7.582   6.837   0.822
11602TIP3   OH234748   4.727   3.626   2.157
11602TIP3    H134749   4.713   3.706   2.208
11602TIP3    H234750   4.660   3.629   2.089
11603TIP3   OH234751   2.183   7.242   3.341
11603TIP3    H134752   2.154   7.320   3.387
11603TIP3    H234753   2.202   7.179   3.411
11604TIP3   OH234754   4.485   2.107   4.993
11604TIP3    H134755   4.565   2.094   4.942
11604TIP3    H234756   4.503   2.065   5.077
11605TIP3   OH234757   5.284   4.598   2.790
11605TIP3    H134758   5.214   4.631   2.733
11605TIP3    H234759   5.247   4.519   2.829
11606TIP3   OH234760   5.338   7.588   2.738
11606TIP3    H134761   5.425   7.562   2.708
11606TIP3    H234762   5.280   7.517   2.710
11607TIP3   OH234763   3.788   1.298   0.360
11607TIP3    H134764   3.755   1.243   0.431
11607TIP3    H234765   3.878   1.269   0.347
11608TIP3   OH234766   5.016   6.810   0.460
11608TIP3    H134767   5.082   6.743   0.439
11608TIP3    H234768   4.996   6.851   0.375
11609TIP3   OH234769   4.440   0.567   4.946
11609TIP3    H134770   4.472   0.534   5.030
11609TIP3    H234771   4.441   0.490   4.889
11610TIP3   OH234772   7.008   7.463   6.735
11610TIP3    H134773   6.930   7.408   6.730
11610TIP3    H234774   7.082   7.403   6.726
11611TIP3   OH234775   3.029   6.777   1.703
11611TIP3    H134776   2.974   6.706   1.671
11611TIP3    H234777   3.108   6.734   1.735
11612TIP3   OH234778   6.731   5.135   4.949
11612TIP3    H134779   6.730   5.052   4.900
11612TIP3    H234780   6.744   5.202   4.882
11613TIP3   OH234781   5.243   6.429   3.278
11613TIP3    H134782   5.313   6.376   3.240
11613TIP3    H234783   5.162   6.391   3.243
11614TIP3   OH234784   6.736   5.614   1.674
11614TIP3    H134785   6.668   5.610   1.741
11614TIP3    H234786   6.815   5.584   1.718
11615TIP3   OH234787   1.572   1.678   5.972
11615TIP3    H134788   1.542   1.737   5.903
11615TIP3    H234789   1.494   1.660   6.024
11616TIP3   OH234790   6.868   1.166   5.356
11616TIP3    H134791   6.812   1.175   5.433
11616TIP3    H234792   6.843   1.239   5.299
11617TIP3   OH234793   1.226   3.883   5.300
11617TIP3    H134794   1.268   3.941   5.236
11617TIP3    H234795   1.211   3.802   5.252
11618TIP3   OH234796   8.062   6.850   2.840
11618TIP3    H134797   7.987   6.902   2.871
11618TIP3    H234798   8.028   6.803   2.764
11619TIP3   OH234799   3.769   6.009   1.611
11619TIP3    H134800   3.694   6.054   1.573
11619TIP3    H234801   3.769   5.923   1.568
11620TIP3   OH234802   2.828   0.078   2.398
11620TIP3    H134803   2.775   0.129   2.337
11620TIP3    H234804   2.802  -0.013   2.383
11621TIP3   OH234805   7.329   1.992   6.320
11621TIP3    H134806   7.285   1.953   6.245
11621TIP3    H234807   7.415   1.951   6.322
11622TIP3   OH234808   5.270   3.591   5.670
11622TIP3    H134809   5.325   3.514   5.653
11622TIP3    H234810   5.327   3.650   5.721
11623TIP3   OH234811   0.656   0.191   4.912
11623TIP3    H134812   0.583   0.131   4.930
11623TIP3    H234813   0.686   0.167   4.825
11624TIP3   OH234814   7.238   6.433   4.853
11624TIP3    H134815   7.327   6.403   4.872
11624TIP3    H234816   7.223   6.505   4.914
11625TIP3   OH234817   3.188   7.732   4.441
11625TIP3    H134818   3.094   7.747   4.429
11625TIP3    H234819   3.199   7.638   4.427
11626TIP3   OH234820   0.846   0.637   3.633
11626TIP3    H134821   0.767   0.637   3.687
11626TIP3    H234822   0.906   0.577   3.677
11627TIP3   OH234823   1.945   0.895   4.429
11627TIP3    H134824   1.987   0.972   4.467
11627TIP3    H234825   1.986   0.821   4.474
11628TIP3   OH234826   5.563   7.568   5.481
11628TIP3    H134827   5.492   7.515   5.443
11628TIP3    H234828   5.528   7.599   5.564
11629TIP3   OH234829   3.036   2.366   2.922
11629TIP3    H134830   3.018   2.427   2.850
11629TIP3    H234831   3.115   2.400   2.964
11630TIP3   OH234832   3.122   6.403   3.680
11630TIP3    H134833   3.082   6.377   3.597
11630TIP3    H234834   3.200   6.349   3.688
11631TIP3   OH234835   2.032   3.051   4.766
11631TIP3    H134836   2.016   3.095   4.682
11631TIP3    H234837   1.960   3.081   4.822
11632TIP3   OH234838   8.050   4.485   5.119
11632TIP3    H134839   8.051   4.391   5.133
11632TIP3    H234840   8.028   4.522   5.205
11633TIP3   OH234841   1.551   7.093   0.774
11633TIP3    H134842   1.608   7.054   0.708
11633TIP3    H234843   1.610   7.142   0.832
11634TIP3   OH234844   6.085   2.219   0.629
11634TIP3    H134845   6.068   2.227   0.535
11634TIP3    H234846   6.179   2.236   0.638
11635TIP3   OH234847   1.828   4.253   3.830
11635TIP3    H134848   1.831   4.199   3.910
11635TIP3    H234849   1.855   4.193   3.760
11636TIP3   OH234850   1.383   1.025   3.283
11636TIP3    H134851   1.297   1.066   3.293
11636TIP3    H234852   1.364   0.935   3.258
11637TIP3   OH234853   0.341   5.640   0.148
11637TIP3    H134854   0.423   5.591   0.147
11637TIP3    H234855   0.363   5.724   0.107
11638TIP3   OH234856   5.547   5.086   6.158
11638TIP3    H134857   5.464   5.060   6.196
11638TIP3    H234858   5.565   5.172   6.196
11639TIP3   OH234859   8.153   0.718   4.746
11639TIP3    H134860   8.125   0.801   4.709
11639TIP3    H234861   8.149   0.732   4.841
11640TIP3   OH234862   3.933   4.161   1.859
11640TIP3    H134863   3.913   4.091   1.796
11640TIP3    H234864   3.972   4.230   1.805
11641TIP3   OH234865   6.817   7.084   5.439
11641TIP3    H134866   6.827   7.000   5.393
11641TIP3    H234867   6.832   7.062   5.531
11642TIP3   OH234868   3.220   7.564   6.392
11642TIP3    H134869   3.162   7.570   6.315
11642TIP3    H234870   3.306   7.593   6.359
11643TIP3   OH234871   7.693   1.884   0.739
11643TIP3    H134872   7.693   1.950   0.669
11643TIP3    H234873   7.649   1.927   0.812
11644TIP3   OH234874   0.984   6.288   4.129
11644TIP3    H134875   1.048   6.340   4.178
11644TIP3    H234876   1.012   6.297   4.038
11645TIP3   OH234877   7.067   5.309   5.194
11645TIP3    H134878   6.998   5.367   5.161
11645TIP3    H234879   7.131   5.368   5.234
11646TIP3   OH234880   3.822   0.979   2.026
11646TIP3    H134881   3.807   1.007   2.117
11646TIP3    H234882   3.735   0.968   1.989
11647TIP3   OH234883   6.499   0.848   5.868
11647TIP3    H134884   6.561   0.836   5.797
11647TIP3    H234885   6.524   0.931   5.909
11648TIP3   OH234886   4.497   1.294   3.492
11648TIP3    H134887   4.425   1.352   3.465
11648TIP3    H234888   4.568   1.354   3.513
11649TIP3   OH234889   7.368   1.848   1.032
11649TIP3    H134890   7.451   1.896   1.028
11649TIP3    H234891   7.355   1.830   1.125
11650TIP3   OH234892   7.891   5.847   3.575
11650TIP3    H134893   7.803   5.820   3.601
11650TIP3    H234894   7.895   5.830   3.480
11651TIP3   OH234895   3.993   1.163   3.995
11651TIP3    H134896   4.065   1.189   4.052
11651TIP3    H234897   4.020   1.190   3.907
11652TIP3   OH234898   7.539   4.656   3.325
11652TIP3    H134899   7.500   4.739   3.297
11652TIP3    H234900   7.491   4.590   3.274
11653TIP3   OH234901   2.543   3.147   1.965
11653TIP3    H134902   2.485   3.211   1.924
11653TIP3    H234903   2.515   3.063   1.929
11654TIP3   OH234904   2.260   0.715   4.343
11654TIP3    H134905   2.306   0.786   4.388
11654TIP3    H234906   2.202   0.759   4.282
11655TIP3   OH234907   6.458   1.089   4.430
11655TIP3    H134908   6.551   1.070   4.424
11655TIP3    H234909   6.421   1.053   4.348
11656TIP3   OH234910   5.589   7.059   3.895
11656TIP3    H134911   5.508   7.106   3.911
11656TIP3    H234912   5.601   7.064   3.800
11657TIP3   OH234913   3.349   5.892   5.921
11657TIP3    H134914   3.401   5.937   5.989
11657TIP3    H234915   3.400   5.814   5.900
11658TIP3   OH234916   6.513   5.631   5.957
11658TIP3    H134917   6.600   5.614   5.995
11658TIP3    H234918   6.515   5.587   5.872
11659TIP3   OH234919   0.857   1.102   2.127
11659TIP3    H134920   0.829   1.010   2.126
11659TIP3    H234921   0.937   1.103   2.075
11660TIP3   OH234922   2.542   3.746   5.784
11660TIP3    H134923   2.547   3.824   5.728
11660TIP3    H234924   2.503   3.679   5.728
11661TIP3   OH234925   7.304   6.029   6.427
11661TIP3    H134926   7.276   6.120   6.434
11661TIP3    H234927   7.360   6.027   6.349
11662TIP3   OH234928   2.999   2.782   1.571
11662TIP3    H134929   2.994   2.873   1.543
11662TIP3    H234930   2.923   2.739   1.530
11663TIP3   OH234931   1.104   0.217   0.620
11663TIP3    H134932   1.149   0.270   0.555
11663TIP3    H234933   1.107   0.127   0.586
11664TIP3   OH234934   3.187   2.319   6.098
11664TIP3    H134935   3.201   2.286   6.187
11664TIP3    H234936   3.093   2.336   6.094
11665TIP3   OH234937   5.990   1.938   5.372
11665TIP3    H134938   5.920   1.992   5.411
11665TIP3    H234939   6.011   1.983   5.290
11666TIP3   OH234940   5.810   4.512   0.212
11666TIP3    H134941   5.823   4.516   0.306
11666TIP3    H234942   5.836   4.424   0.187
11667TIP3   OH234943   4.163   3.509   4.215
11667TIP3    H134944   4.171   3.521   4.120
11667TIP3    H234945   4.251   3.524   4.248
11668TIP3   OH234946   2.558   7.299   3.479
11668TIP3    H134947   2.536   7.389   3.502
11668TIP3    H234948   2.548   7.295   3.384
11669TIP3   OH234949   5.527   7.757   6.173
11669TIP3    H134950   5.560   7.667   6.180
11669TIP3    H234951   5.580   7.797   6.105
11670TIP3   OH234952   1.379   1.690   1.328
11670TIP3    H134953   1.398   1.673   1.236
11670TIP3    H234954   1.361   1.604   1.365
11671TIP3   OH234955   2.405   6.613   3.022
11671TIP3    H134956   2.360   6.684   2.977
11671TIP3    H234957   2.339   6.573   3.078
11672TIP3   OH234958   0.561   3.329   4.227
11672TIP3    H134959   0.550   3.391   4.300
11672TIP3    H234960   0.547   3.382   4.148
11673TIP3   OH234961   2.488   1.594   5.937
11673TIP3    H134962   2.523   1.507   5.919
11673TIP3    H234963   2.501   1.642   5.855
11674TIP3   OH234964   1.778   1.741   5.633
11674TIP3    H134965   1.766   1.781   5.719
11674TIP3    H234966   1.871   1.753   5.613
11675TIP3   OH234967   3.322   0.219   1.872
11675TIP3    H134968   3.291   0.251   1.787
11675TIP3    H234969   3.411   0.187   1.854
11676TIP3   OH234970   4.055   4.254   1.058
11676TIP3    H134971   4.113   4.194   1.106
11676TIP3    H234972   4.089   4.252   0.969
11677TIP3   OH234973   3.444   5.673   3.450
11677TIP3    H134974   3.422   5.616   3.376
11677TIP3    H234975   3.475   5.754   3.409
11678TIP3   OH234976   4.944   1.381   2.737
11678TIP3    H134977   5.011   1.391   2.669
11678TIP3    H234978   4.925   1.471   2.765
11679TIP3   OH234979   4.456   4.624   6.010
11679TIP3    H134980   4.442   4.718   6.020
11679TIP3    H234981   4.368   4.588   5.997
11680TIP3   OH234982   2.896   1.016   5.832
11680TIP3    H134983   2.846   1.068   5.894
11680TIP3    H234984   2.968   0.979   5.884
11681TIP3   OH234985   4.497   6.509   2.958
11681TIP3    H134986   4.579   6.460   2.953
11681TIP3    H234987   4.488   6.529   3.051
11682TIP3   OH234988   2.189   1.436   6.304
11682TIP3    H134989   2.099   1.465   6.294
11682TIP3    H234990   2.186   1.341   6.298
11683TIP3   OH234991   4.045   5.408   5.738
11683TIP3    H134992   3.977   5.390   5.673
11683TIP3    H234993   4.083   5.491   5.710
11684TIP3   OH234994   6.404   1.676   0.810
11684TIP3    H134995   6.346   1.739   0.854
11684TIP3    H234996   6.460   1.730   0.754
11685TIP3   OH234997   2.923   4.910   5.186
11685TIP3    H134998   3.003   4.859   5.177
11685TIP3    H234999   2.863   4.854   5.235
11686TIP3   OH235000   7.563   4.376   0.040
11686TIP3    H135001   7.473   4.354   0.019
11686TIP3    H235002   7.562   4.471   0.054
11687TIP3   OH235003   0.161   4.939   1.159
11687TIP3    H135004   0.154   4.977   1.247
11687TIP3    H235005   0.254   4.946   1.137
11688TIP3   OH235006   4.727   0.980   6.465
11688TIP3    H135007   4.707   0.892   6.498
11688TIP3    H235008   4.642   1.023   6.457
11689TIP3   OH235009   1.037   4.726   3.332
11689TIP3    H135010   0.972   4.786   3.368
11689TIP3    H235011   1.023   4.729   3.237
11690TIP3   OH235012   3.914   5.632   3.835
11690TIP3    H135013   3.940   5.659   3.747
11690TIP3    H235014   3.970   5.556   3.854
11691TIP3   OH235015   5.828   5.196   4.113
11691TIP3    H135016   5.865   5.151   4.188
11691TIP3    H235017   5.862   5.285   4.119
11692TIP3   OH235018   1.283   7.493   3.938
11692TIP3    H135019   1.352   7.479   3.872
11692TIP3    H235020   1.246   7.578   3.916
11693TIP3   OH235021   0.790   1.250   5.996
11693TIP3    H135022   0.697   1.246   6.017
11693TIP3    H235023   0.793   1.292   5.910
11694TIP3   OH235024   5.147   2.936   6.514
11694TIP3    H135025   5.138   2.928   6.419
11694TIP3    H235026   5.222   2.994   6.526
11695TIP3   OH235027   3.610   6.069   0.904
11695TIP3    H135028   3.693   6.029   0.880
11695TIP3    H235029   3.603   6.146   0.847
11696TIP3   OH235030   7.004   0.736   4.236
11696TIP3    H135031   6.932   0.687   4.195
11696TIP3    H235032   7.078   0.724   4.176
11697TIP3   OH235033   0.301   3.123   3.354
11697TIP3    H135034   0.312   3.215   3.333
11697TIP3    H235035   0.277   3.082   3.271
11698TIP3   OH235036   6.585   6.793   5.473
11698TIP3    H135037   6.672   6.825   5.449
11698TIP3    H235038   6.592   6.770   5.565
11699TIP3   OH235039   6.127   0.525   0.839
11699TIP3    H135040   6.219   0.499   0.841
11699TIP3    H235041   6.108   0.538   0.746
11700TIP3   OH235042   3.962   4.348   1.439
11700TIP3    H135043   3.999   4.414   1.381
11700TIP3    H235044   3.868   4.367   1.442
11701TIP3   OH235045   4.473   7.358   0.235
11701TIP3    H135046   4.386   7.352   0.274
11701TIP3    H235047   4.513   7.435   0.276
11702TIP3   OH235048   2.262   0.164   1.875
11702TIP3    H135049   2.177   0.123   1.858
11702TIP3    H235050   2.325   0.093   1.870
11703TIP3   OH235051   1.589   2.843   5.642
11703TIP3    H135052   1.640   2.777   5.594
11703TIP3    H235053   1.498   2.821   5.622
11704TIP3   OH235054   4.296   5.014   3.347
11704TIP3    H135055   4.204   4.990   3.339
11704TIP3    H235056   4.317   4.995   3.438
11705TIP3   OH235057   7.376   4.486   3.201
11705TIP3    H135058   7.381   4.415   3.266
11705TIP3    H235059   7.282   4.504   3.193
11706TIP3   OH235060   2.139   1.416   3.642
11706TIP3    H135061   2.122   1.407   3.548
11706TIP3    H235062   2.056   1.391   3.684
11707TIP3   OH235063   3.251   5.066   5.347
11707TIP3    H135064   3.308   5.104   5.280
11707TIP3    H235065   3.239   4.975   5.319
11708TIP3   OH235066   4.130   7.226   3.899
11708TIP3    H135067   4.094   7.138   3.889
11708TIP3    H235068   4.062   7.284   3.863
11709TIP3   OH235069   3.115   5.800   6.059
11709TIP3    H135070   3.181   5.857   6.019
11709TIP3    H235071   3.060   5.858   6.110
11710TIP3   OH235072   1.147   7.689   5.873
11710TIP3    H135073   1.177   7.606   5.835
11710TIP3    H235074   1.208   7.754   5.839
11711TIP3   OH235075   7.128   2.559   1.152
11711TIP3    H135076   7.199   2.581   1.092
11711TIP3    H235077   7.107   2.642   1.196
11712TIP3   OH235078   3.637   7.525   5.772
11712TIP3    H135079   3.551   7.489   5.748
11712TIP3    H235080   3.691   7.447   5.786
11713TIP3   OH235081   1.640   0.253   2.237
11713TIP3    H135082   1.716   0.205   2.269
11713TIP3    H235083   1.676   0.335   2.203
11714TIP3   OH235084   3.758   2.960   5.277
11714TIP3    H135085   3.787   3.044   5.242
11714TIP3    H235086   3.760   2.901   5.202
11715TIP3   OH235087   2.989   6.031   2.517
11715TIP3    H135088   3.077   6.066   2.527
11715TIP3    H235089   2.951   6.037   2.605
11716TIP3   OH235090   3.213   2.762   4.204
11716TIP3    H135091   3.199   2.760   4.109
11716TIP3    H235092   3.287   2.704   4.219
11717TIP3   OH235093   5.712   0.388   1.409
11717TIP3    H135094   5.744   0.478   1.415
11717TIP3    H235095   5.617   0.396   1.415
11718TIP3   OH235096   6.150   6.200   6.179
11718TIP3    H135097   6.159   6.282   6.226
11718TIP3    H235098   6.221   6.201   6.114
11719TIP3   OH235099   0.550   0.793   1.154
11719TIP3    H135100   0.517   0.809   1.066
11719TIP3    H235101   0.641   0.765   1.142
11720TIP3   OH235102   2.265   6.644   3.542
11720TIP3    H135103   2.207   6.659   3.616
11720TIP3    H235104   2.209   6.655   3.465
11721TIP3   OH235105   7.124   6.388   1.124
11721TIP3    H135106   7.095   6.314   1.179
11721TIP3    H235107   7.077   6.463   1.158
11722TIP3   OH235108   3.536   5.703   5.849
11722TIP3    H135109   3.601   5.686   5.917
11722TIP3    H235110   3.587   5.705   5.767
11723TIP3   OH235111   1.911   6.645   0.633
11723TIP3    H135112   1.884   6.687   0.551
11723TIP3    H235113   1.855   6.686   0.699
11724TIP3   OH235114   6.012   0.393   2.446
11724TIP3    H135115   5.968   0.357   2.523
11724TIP3    H235116   6.105   0.383   2.466
11725TIP3   OH235117   8.153   6.662   4.211
11725TIP3    H135118   8.230   6.712   4.237
11725TIP3    H235119   8.164   6.577   4.254
11726TIP3   OH235120   2.848   0.439   1.446
11726TIP3    H135121   2.764   0.456   1.489
11726TIP3    H235122   2.860   0.344   1.453
11727TIP3   OH235123   2.793   7.423   0.168
11727TIP3    H135124   2.767   7.499   0.117
11727TIP3    H235125   2.779   7.348   0.110
11728TIP3   OH235126   3.295   5.201   0.406
11728TIP3    H135127   3.242   5.179   0.483
11728TIP3    H235128   3.341   5.280   0.431
11729TIP3   OH235129   7.878   6.555   3.341
11729TIP3    H135130   7.848   6.473   3.300
11729TIP3    H235131   7.969   6.537   3.365
11730TIP3   OH235132   3.311   4.721   2.431
11730TIP3    H135133   3.246   4.664   2.471
11730TIP3    H235134   3.377   4.661   2.396
11731TIP3   OH235135   3.342   0.083   3.001
11731TIP3    H135136   3.431   0.083   2.965
11731TIP3    H235137   3.286   0.085   2.924
11732TIP3   OH235138   4.115   1.894   5.660
11732TIP3    H135139   4.061   1.950   5.604
11732TIP3    H235140   4.082   1.912   5.749
11733TIP3   OH235141   1.591   1.915   4.030
11733TIP3    H135142   1.648   1.840   4.011
11733TIP3    H235143   1.566   1.949   3.944
11734TIP3   OH235144   6.534   4.400   6.049
11734TIP3    H135145   6.440   4.413   6.043
11734TIP3    H235146   6.548   4.364   6.136
11735TIP3   OH235147   1.771   5.184   5.257
11735TIP3    H135148   1.718   5.200   5.178
11735TIP3    H235149   1.738   5.247   5.321
11736TIP3   OH235150   8.103   3.540   1.453
11736TIP3    H135151   8.175   3.598   1.427
11736TIP3    H235152   8.125   3.514   1.542
11737TIP3   OH235153   3.029   6.452   0.030
11737TIP3    H135154   3.066   6.533  -0.005
11737TIP3    H235155   2.967   6.424  -0.036
11738TIP3   OH235156   5.052   7.570   4.320
11738TIP3    H135157   5.027   7.662   4.331
11738TIP3    H235158   5.147   7.570   4.331
11739TIP3   OH235159   6.247   4.381   6.632
11739TIP3    H135160   6.235   4.304   6.687
11739TIP3    H235161   6.178   4.442   6.660
11740TIP3   OH235162   8.310   5.993   3.038
11740TIP3    H135163   8.236   6.047   3.010
11740TIP3    H235164   8.300   5.911   2.991
11741TIP3   OH235165   6.414   4.113   4.231
11741TIP3    H135166   6.478   4.062   4.181
11741TIP3    H235167   6.466   4.161   4.295
11742TIP3   OH235168   1.121   4.455   1.422
11742TIP3    H135169   1.027   4.472   1.434
11742TIP3    H235170   1.161   4.542   1.425
11743TIP3   OH235171   0.227   7.379   5.038
11743TIP3    H135172   0.214   7.285   5.043
11743TIP3    H235173   0.322   7.390   5.032
11744TIP3   OH235174   1.889   6.157   6.508
11744TIP3    H135175   1.889   6.236   6.454
11744TIP3    H235176   1.966   6.108   6.478
11745TIP3   OH235177   5.167   1.065   3.659
11745TIP3    H135178   5.222   1.135   3.694
11745TIP3    H235179   5.081   1.105   3.648
11746TIP3   OH235180   7.021   6.178   4.159
11746TIP3    H135181   7.100   6.221   4.126
11746TIP3    H235182   6.949   6.232   4.126
11747TIP3   OH235183   1.359   5.637   0.031
11747TIP3    H135184   1.399   5.703  -0.025
11747TIP3    H235185   1.363   5.674   0.119
11748TIP3   OH235186   5.072   3.153   3.823
11748TIP3    H135187   5.064   3.058   3.828
11748TIP3    H235188   5.150   3.167   3.770
11749TIP3   OH235189   0.960   2.019   0.246
11749TIP3    H135190   0.948   2.008   0.152
11749TIP3    H235191   0.908   2.096   0.268
11750TIP3   OH235192   7.603   3.677   3.639
11750TIP3    H135193   7.558   3.654   3.721
11750TIP3    H235194   7.538   3.661   3.571
11751TIP3   OH235195   0.974   2.905   1.841
11751TIP3    H135196   0.988   2.916   1.936
11751TIP3    H235197   1.048   2.852   1.812
11752TIP3   OH235198   4.899   3.808   4.253
11752TIP3    H135199   4.946   3.855   4.185
11752TIP3    H235200   4.967   3.776   4.312
11753TIP3   OH235201   3.357   5.962   5.411
11753TIP3    H135202   3.293   5.895   5.433
11753TIP3    H235203   3.413   5.968   5.488
11754TIP3   OH235204   2.187   6.702   2.575
11754TIP3    H135205   2.216   6.638   2.640
11754TIP3    H235206   2.159   6.778   2.626
11755TIP3   OH235207   0.740   6.721   5.271
11755TIP3    H135208   0.787   6.723   5.354
11755TIP3    H235209   0.763   6.803   5.228
11756TIP3   OH235210   0.200   6.277   2.688
11756TIP3    H135211   0.145   6.296   2.764
11756TIP3    H235212   0.137   6.259   2.617
11757TIP3   OH235213   4.654   7.565   2.595
11757TIP3    H135214   4.636   7.557   2.689
11757TIP3    H235215   4.681   7.656   2.583
11758TIP3   OH235216   3.448   0.399   3.324
11758TIP3    H135217   3.373   0.458   3.311
11758TIP3    H235218   3.424   0.319   3.277
11759TIP3   OH235219   4.334   5.348   3.772
11759TIP3    H135220   4.245   5.379   3.752
11759TIP3    H235221   4.332   5.331   3.866
11760TIP3   OH235222   7.531   3.300   5.266
11760TIP3    H135223   7.493   3.388   5.264
11760TIP3    H235224   7.579   3.297   5.349
11761TIP3   OH235225   1.342   4.686   0.185
11761TIP3    H135226   1.294   4.702   0.104
11761TIP3    H235227   1.432   4.668   0.157
11762TIP3   OH235228   5.916   6.787   0.962
11762TIP3    H135229   5.884   6.831   1.041
11762TIP3    H235230   5.865   6.707   0.956
11763TIP3   OH235231   4.754   5.078   5.226
11763TIP3    H135232   4.662   5.058   5.206
11763TIP3    H235233   4.771   5.161   5.182
11764TIP3   OH235234   6.998   3.471   2.932
11764TIP3    H135235   6.948   3.417   2.870
11764TIP3    H235236   7.055   3.524   2.877
11765TIP3   OH235237   4.752   0.714   0.128
11765TIP3    H135238   4.710   0.634   0.096
11765TIP3    H235239   4.783   0.758   0.048
11766TIP3   OH235240   1.932   7.171   6.355
11766TIP3    H135241   1.849   7.134   6.386
11766TIP3    H235242   1.978   7.097   6.315
11767TIP3   OH235243   5.970   7.264   2.825
11767TIP3    H135244   6.021   7.344   2.821
11767TIP3    H235245   5.968   7.232   2.734
11768TIP3   OH235246   5.034   5.620   4.298
11768TIP3    H135247   5.056   5.689   4.361
11768TIP3    H235248   4.945   5.641   4.269
11769TIP3   OH235249   2.711   7.049   0.068
11769TIP3    H135250   2.763   6.970   0.053
11769TIP3    H235251   2.627   7.017   0.100
11770TIP3   OH235252   7.422   1.075   0.256
11770TIP3    H135253   7.460   0.998   0.214
11770TIP3    H235254   7.462   1.149   0.211
11771TIP3   OH235255   8.250   4.956   4.018
11771TIP3    H135256   8.329   4.998   4.052
11771TIP3    H235257   8.249   4.977   3.925
11772TIP3   OH235258   4.772   2.769   6.590
11772TIP3    H135259   4.818   2.850   6.568
11772TIP3    H235260   4.837   2.700   6.576
11773TIP3   OH235261   4.076   5.843   6.422
11773TIP3    H135262   4.171   5.843   6.431
11773TIP3    H235263   4.052   5.935   6.410
11774TIP3   OH235264   7.562   0.034   5.056
11774TIP3    H135265   7.519   0.078   5.130
11774TIP3    H235266   7.651   0.069   5.055
11775TIP3   OH235267   2.562   1.994   5.488
11775TIP3    H135268   2.629   1.940   5.530
11775TIP3    H235269   2.534   1.944   5.412
11776TIP3   OH235270   4.193   6.951   1.099
11776TIP3    H135271   4.257   6.975   1.031
11776TIP3    H235272   4.156   6.868   1.068
11777TIP3   OH235273   1.036   0.435   0.277
11777TIP3    H135274   1.024   0.519   0.233
11777TIP3    H235275   0.987   0.442   0.358
11778TIP3   OH235276   7.371   3.767   6.540
11778TIP3    H135277   7.386   3.753   6.447
11778TIP3    H235278   7.350   3.681   6.575
11779TIP3   OH235279   2.745   2.082   5.018
11779TIP3    H135280   2.734   2.153   5.082
11779TIP3    H235281   2.794   2.015   5.066
11780TIP3   OH235282   4.573   3.016   0.981
11780TIP3    H135283   4.620   2.955   1.037
11780TIP3    H235284   4.636   3.087   0.964
11781TIP3   OH235285   3.787   3.790   1.297
11781TIP3    H135286   3.710   3.847   1.285
11781TIP3    H235287   3.776   3.754   1.385
11782TIP3   OH235288   4.760   4.860   2.931
11782TIP3    H135289   4.669   4.867   2.960
11782TIP3    H235290   4.795   4.949   2.939
11783TIP3   OH235291   6.552   6.221   0.824
11783TIP3    H135292   6.586   6.138   0.856
11783TIP3    H235293   6.529   6.203   0.732
11784TIP3   OH235294   1.013   6.612   2.150
11784TIP3    H135295   1.011   6.701   2.186
11784TIP3    H235296   1.098   6.605   2.107
11785TIP3   OH235297   4.344   0.326   6.295
11785TIP3    H135298   4.357   0.238   6.329
11785TIP3    H235299   4.378   0.384   6.363
11786TIP3   OH235300  -0.013   6.481   5.911
11786TIP3    H135301  -0.075   6.414   5.883
11786TIP3    H235302   0.073   6.445   5.889
11787TIP3   OH235303   6.204   5.059   0.491
11787TIP3    H135304   6.297   5.036   0.497
11787TIP3    H235305   6.203   5.138   0.438
11788TIP3   OH235306   6.516   0.350   2.683
11788TIP3    H135307   6.585   0.372   2.621
11788TIP3    H235308   6.540   0.263   2.715
11789TIP3   OH235309   0.197   5.083   3.229
11789TIP3    H135310   0.112   5.044   3.253
11789TIP3    H235311   0.183   5.178   3.239
11790TIP3   OH235312   7.325   1.458   6.162
11790TIP3    H135313   7.248   1.457   6.218
11790TIP3    H235314   7.305   1.398   6.091
11791TIP3   OH235315   1.123   3.397   1.119
11791TIP3    H135316   1.062   3.414   1.048
11791TIP3    H235317   1.197   3.455   1.102
11792TIP3   OH235318   2.874   2.353   6.072
11792TIP3    H135319   2.842   2.394   5.992
11792TIP3    H235320   2.805   2.291   6.095
11793TIP3   OH235321   2.931   7.010   6.303
11793TIP3    H135322   2.852   6.967   6.270
11793TIP3    H235323   2.899   7.088   6.349
11794TIP3   OH235324   5.054   3.191   0.808
11794TIP3    H135325   5.127   3.146   0.767
11794TIP3    H235326   4.976   3.154   0.766
11795TIP3   OH235327   7.732   5.396   0.598
11795TIP3    H135328   7.801   5.411   0.663
11795TIP3    H235329   7.779   5.373   0.518
11796TIP3   OH235330   3.452   6.349   5.321
11796TIP3    H135331   3.517   6.331   5.390
11796TIP3    H235332   3.374   6.301   5.349
11797TIP3   OH235333   5.476   7.365   4.479
11797TIP3    H135334   5.383   7.351   4.495
11797TIP3    H235335   5.520   7.321   4.553
11798TIP3   OH235336   1.192   5.012   4.761
11798TIP3    H135337   1.191   4.920   4.788
11798TIP3    H235338   1.103   5.028   4.728
11799TIP3   OH235339   7.198   2.549   4.780
11799TIP3    H135340   7.203   2.546   4.875
11799TIP3    H235341   7.105   2.533   4.760
11800TIP3   OH235342   7.650   3.006   5.374
11800TIP3    H135343   7.588   2.939   5.346
11800TIP3    H235344   7.718   3.006   5.306
11801TIP3   OH235345   4.275   4.353   3.363
11801TIP3    H135346   4.279   4.427   3.301
11801TIP3    H235347   4.288   4.276   3.308
11802TIP3   OH235348   5.631   7.269   2.810
11802TIP3    H135349   5.717   7.264   2.850
11802TIP3    H235350   5.640   7.224   2.727
11803TIP3   OH235351   6.312   2.547   3.293
11803TIP3    H135352   6.272   2.561   3.379
11803TIP3    H235353   6.354   2.461   3.301
11804TIP3   OH235354   2.759   1.503   0.488
11804TIP3    H135355   2.683   1.506   0.546
11804TIP3    H235356   2.782   1.410   0.483
11805TIP3   OH235357   2.959   2.968   3.709
11805TIP3    H135358   2.971   2.907   3.782
11805TIP3    H235359   2.897   3.032   3.742
11806TIP3   OH235360   5.985   3.609   2.125
11806TIP3    H135361   5.926   3.534   2.115
11806TIP3    H235362   5.930   3.678   2.163
11807TIP3   OH235363   7.809   2.807   3.677
11807TIP3    H135364   7.720   2.833   3.701
11807TIP3    H235365   7.866   2.863   3.730
11808TIP3   OH235366   4.038   0.818   6.379
11808TIP3    H135367   4.014   0.742   6.431
11808TIP3    H235368   4.012   0.894   6.431
11809TIP3   OH235369   3.044   1.895   1.413
11809TIP3    H135370   2.975   1.938   1.363
11809TIP3    H235371   3.125   1.922   1.370
11810TIP3   OH235372   2.136   5.487   4.603
11810TIP3    H135373   2.149   5.496   4.509
11810TIP3    H235374   2.188   5.410   4.627
11811TIP3   OH235375   8.093   5.664   0.324
11811TIP3    H135376   8.093   5.578   0.367
11811TIP3    H235377   8.131   5.647   0.238
11812TIP3   OH235378   6.275   2.910   1.149
11812TIP3    H135379   6.277   2.820   1.183
11812TIP3    H235380   6.366   2.938   1.150
11813TIP3   OH235381   3.268   5.619   3.732
11813TIP3    H135382   3.251   5.681   3.661
11813TIP3    H235383   3.317   5.671   3.797
11814TIP3   OH235384   3.220   4.055   1.874
11814TIP3    H135385   3.125   4.067   1.886
11814TIP3    H235386   3.259   4.128   1.922
11815TIP3   OH235387   0.556   5.595   3.023
11815TIP3    H135388   0.540   5.531   2.954
11815TIP3    H235389   0.556   5.680   2.979
11816TIP3   OH235390   6.471   4.252   4.446
11816TIP3    H135391   6.512   4.324   4.493
11816TIP3    H235392   6.382   4.283   4.428
11817TIP3   OH235393   3.005   7.614   3.892
11817TIP3    H135394   2.943   7.541   3.899
11817TIP3    H235395   3.042   7.623   3.980
11818TIP3   OH235396   6.947   7.687   4.025
11818TIP3    H135397   6.864   7.736   4.030
11818TIP3    H235398   6.984   7.710   3.940
11819TIP3   OH235399   0.468   0.972   1.600
11819TIP3    H135400   0.424   0.905   1.653
11819TIP3    H235401   0.462   1.052   1.652
11820TIP3   OH235402   0.089   4.701   4.064
11820TIP3    H135403   0.044   4.785   4.070
11820TIP3    H235404   0.101   4.686   3.970
11821TIP3   OH235405   5.908   1.346   5.796
11821TIP3    H135406   5.856   1.325   5.719
11821TIP3    H235407   5.866   1.296   5.867
11822TIP3   OH235408   7.884   1.735   5.661
11822TIP3    H135409   7.870   1.752   5.568
11822TIP3    H235410   7.796   1.734   5.699
11823TIP3   OH235411   5.690   1.139   1.837
11823TIP3    H135412   5.649   1.056   1.861
11823TIP3    H235413   5.775   1.114   1.800
11824TIP3   OH235414   0.520   3.134   0.608
11824TIP3    H135415   0.493   3.183   0.530
11824TIP3    H235416   0.494   3.043   0.590
11825TIP3   OH235417   0.651   4.227   4.179
11825TIP3    H135418   0.684   4.315   4.198
11825TIP3    H235419   0.691   4.172   4.247
11826TIP3   OH235420   2.149   4.423   6.208
11826TIP3    H135421   2.242   4.439   6.189
11826TIP3    H235422   2.113   4.509   6.228
11827TIP3   OH235423   4.533   7.486   4.947
11827TIP3    H135424   4.618   7.452   4.919
11827TIP3    H235425   4.478   7.480   4.868
11828TIP3   OH235426   1.932   7.416   4.779
11828TIP3    H135427   1.886   7.454   4.705
11828TIP3    H235428   1.971   7.491   4.824
11829TIP3   OH235429   0.156   1.594   1.103
11829TIP3    H135430   0.190   1.678   1.135
11829TIP3    H235431   0.194   1.529   1.162
11830TIP3   OH235432   3.620   7.223   1.810
11830TIP3    H135433   3.536   7.225   1.763
11830TIP3    H235434   3.671   7.156   1.765
11831TIP3   OH235435   6.079   3.802   3.927
11831TIP3    H135436   6.134   3.880   3.934
11831TIP3    H235437   6.102   3.763   3.843
11832TIP3   OH235438   1.373   4.140   0.964
11832TIP3    H135439   1.355   4.051   0.994
11832TIP3    H235440   1.469   4.143   0.955
11833TIP3   OH235441   2.903   1.663   1.011
11833TIP3    H135442   2.919   1.723   0.938
11833TIP3    H235443   2.809   1.644   1.006
11834TIP3   OH235444   1.963   6.362   0.651
11834TIP3    H135445   1.971   6.316   0.568
11834TIP3    H235446   1.973   6.454   0.628
11835TIP3   OH235447   1.446   3.066   1.523
11835TIP3    H135448   1.470   3.096   1.611
11835TIP3    H235449   1.525   3.079   1.471
11836TIP3   OH235450   1.060   6.655   1.606
11836TIP3    H135451   0.986   6.710   1.580
11836TIP3    H235452   1.048   6.640   1.699
11837TIP3   OH235453   2.702   4.573   6.443
11837TIP3    H135454   2.708   4.568   6.538
11837TIP3    H235455   2.628   4.516   6.421
11838TIP3   OH235456   7.015   6.934   1.971
11838TIP3    H135457   7.022   6.950   2.066
11838TIP3    H235458   6.923   6.911   1.957
11839TIP3   OH235459   4.470   5.585   3.553
11839TIP3    H135460   4.555   5.559   3.517
11839TIP3    H235461   4.444   5.662   3.501
11840TIP3   OH235462   0.372   7.488   4.196
11840TIP3    H135463   0.341   7.398   4.188
11840TIP3    H235464   0.363   7.508   4.289
11841TIP3   OH235465   5.076   6.193   5.502
11841TIP3    H135466   5.118   6.209   5.586
11841TIP3    H235467   5.071   6.098   5.494
11842TIP3   OH235468   7.862   4.492   4.614
11842TIP3    H135469   7.794   4.499   4.681
11842TIP3    H235470   7.918   4.421   4.645
11843TIP3   OH235471   6.665   3.362   6.676
11843TIP3    H135472   6.734   3.418   6.711
11843TIP3    H235473   6.595   3.422   6.651
11844TIP3   OH235474   3.727   1.394   4.407
11844TIP3    H135475   3.769   1.336   4.344
11844TIP3    H235476   3.773   1.477   4.399
11845TIP3   OH235477   2.882   2.676   0.818
11845TIP3    H135478   2.874   2.770   0.805
11845TIP3    H235479   2.885   2.665   0.913
11846TIP3   OH235480   5.915   2.595   5.091
11846TIP3    H135481   5.851   2.601   5.021
11846TIP3    H235482   5.952   2.683   5.096
11847TIP3   OH235483   0.915   0.595   0.936
11847TIP3    H135484   0.881   0.641   1.012
11847TIP3    H235485   0.950   0.513   0.970
11848TIP3   OH235486   7.292   4.253   2.491
11848TIP3    H135487   7.300   4.282   2.400
11848TIP3    H235488   7.239   4.320   2.533
11849TIP3   OH235489   5.822   4.766   1.012
11849TIP3    H135490   5.895   4.823   0.992
11849TIP3    H235491   5.778   4.753   0.928
11850TIP3   OH235492   1.759   0.816   4.672
11850TIP3    H135493   1.819   0.801   4.745
11850TIP3    H235494   1.811   0.863   4.607
11851TIP3   OH235495   3.207   7.141   0.856
11851TIP3    H135496   3.207   7.059   0.904
11851TIP3    H235497   3.117   7.153   0.828
11852TIP3   OH235498   2.669   1.268   3.370
11852TIP3    H135499   2.740   1.212   3.401
11852TIP3    H235500   2.663   1.337   3.435
11853TIP3   OH235501   8.263   7.814   3.122
11853TIP3    H135502   8.180   7.805   3.076
11853TIP3    H235503   8.328   7.821   3.053
11854TIP3   OH235504   1.640   3.824   4.413
11854TIP3    H135505   1.558   3.819   4.363
11854TIP3    H235506   1.700   3.871   4.355
11855TIP3   OH235507   7.685   5.852   1.666
11855TIP3    H135508   7.629   5.830   1.592
11855TIP3    H235509   7.698   5.946   1.660
11856TIP3   OH235510   3.950   0.197   6.610
11856TIP3    H135511   3.863   0.168   6.582
11856TIP3    H235512   4.006   0.120   6.601
11857TIP3   OH235513   2.247   1.900   5.709
11857TIP3    H135514   2.197   1.922   5.787
11857TIP3    H235515   2.189   1.921   5.636
11858TIP3   OH235516   1.594   4.849   1.695
11858TIP3    H135517   1.674   4.902   1.690
11858TIP3    H235518   1.574   4.826   1.605
11859TIP3   OH235519   4.182   6.896   5.801
11859TIP3    H135520   4.255   6.933   5.850
11859TIP3    H235521   4.218   6.819   5.758
11860TIP3   OH235522   5.431   0.244   1.181
11860TIP3    H135523   5.463   0.192   1.107
11860TIP3    H235524   5.447   0.335   1.154
11861TIP3   OH235525   3.352   0.967   4.386
11861TIP3    H135526   3.343   0.921   4.469
11861TIP3    H235527   3.273   1.021   4.380
11862TIP3   OH235528   4.431   5.418   2.948
11862TIP3    H135529   4.524   5.435   2.932
11862TIP3    H235530   4.428   5.378   3.034
11863TIP3   OH235531   4.776   3.425   0.402
11863TIP3    H135532   4.720   3.374   0.344
11863TIP3    H235533   4.808   3.497   0.347
11864TIP3   OH235534   1.624   0.841   0.463
11864TIP3    H135535   1.554   0.833   0.527
11864TIP3    H235536   1.605   0.923   0.417
11865TIP3   OH235537   0.483   6.894   1.153
11865TIP3    H135538   0.518   6.973   1.195
11865TIP3    H235539   0.527   6.822   1.198
11866TIP3   OH235540   0.845   3.517   2.853
11866TIP3    H135541   0.791   3.578   2.904
11866TIP3    H235542   0.839   3.549   2.763
11867TIP3   OH235543   6.225   4.066   3.918
11867TIP3    H135544   6.188   4.153   3.930
11867TIP3    H235545   6.317   4.081   3.898
11868TIP3   OH235546   0.954   0.982   4.719
11868TIP3    H135547   1.001   1.065   4.723
11868TIP3    H235548   0.862   1.005   4.732
11869TIP3   OH235549   0.093   0.211   0.322
11869TIP3    H135550   0.179   0.174   0.341
11869TIP3    H235551   0.078   0.189   0.230
11870TIP3   OH235552   4.465   6.836   2.432
11870TIP3    H135553   4.431   6.770   2.372
11870TIP3    H235554   4.426   6.813   2.517
11871TIP3   OH235555   0.728   4.995   0.657
11871TIP3    H135556   0.676   5.059   0.608
11871TIP3    H235557   0.695   4.910   0.626
11872TIP3   OH235558   1.519   4.925   4.253
11872TIP3    H135559   1.542   4.882   4.336
11872TIP3    H235560   1.451   4.988   4.277
11873TIP3   OH235561   4.218   1.932   4.197
11873TIP3    H135562   4.167   1.922   4.278
11873TIP3    H235563   4.303   1.966   4.227
11874TIP3   OH235564   3.946   3.509   3.302
11874TIP3    H135565   3.859   3.527   3.266
11874TIP3    H235566   3.929   3.484   3.393
11875TIP3   OH235567   2.423   7.693   1.569
11875TIP3    H135568   2.440   7.608   1.526
11875TIP3    H235569   2.505   7.741   1.560
11876TIP3   OH235570   5.598   2.841   5.025
11876TIP3    H135571   5.547   2.917   5.052
11876TIP3    H235572   5.666   2.833   5.092
11877TIP3   OH235573   0.844   1.861   6.505
11877TIP3    H135574   0.771   1.912   6.469
11877TIP3    H235575   0.918   1.880   6.448
11878TIP3   OH235576   6.315   6.515   4.042
11878TIP3    H135577   6.302   6.439   3.985
11878TIP3    H235578   6.269   6.586   3.998
11879TIP3   OH235579   5.269   6.300   0.090
11879TIP3    H135580   5.229   6.215   0.108
11879TIP3    H235581   5.235   6.325   0.004
11880TIP3   OH235582   4.224   6.346   6.290
11880TIP3    H135583   4.255   6.386   6.209
11880TIP3    H235584   4.301   6.303   6.328
11881TIP3   OH235585   6.636   0.212   6.696
11881TIP3    H135586   6.664   0.127   6.662
11881TIP3    H235587   6.715   0.266   6.695
11882TIP3   OH235588   2.796   1.528   5.939
11882TIP3    H135589   2.741   1.451   5.928
11882TIP3    H235590   2.886   1.495   5.932
11883TIP3   OH235591   1.559   7.434   3.867
11883TIP3    H135592   1.644   7.397   3.891
11883TIP3    H235593   1.571   7.528   3.872
11884TIP3   OH235594   1.204   2.455   1.558
11884TIP3    H135595   1.280   2.399   1.542
11884TIP3    H235596   1.196   2.458   1.654
11885TIP3   OH235597   3.337   4.130   0.520
11885TIP3    H135598   3.279   4.171   0.456
11885TIP3    H235599   3.424   4.135   0.480
11886TIP3   OH235600   8.276   2.191   1.718
11886TIP3    H135601   8.361   2.171   1.758
11886TIP3    H235602   8.288   2.175   1.625
11887TIP3   OH235603   1.133   0.848   3.724
11887TIP3    H135604   1.173   0.933   3.741
11887TIP3    H235605   1.110   0.850   3.631
11888TIP3   OH235606   3.523   3.021   3.259
11888TIP3    H135607   3.543   2.984   3.173
11888TIP3    H235608   3.590   2.987   3.317
11889TIP3   OH235609   5.866   5.050   1.527
11889TIP3    H135610   5.806   5.077   1.596
11889TIP3    H235611   5.810   5.012   1.459
11890TIP3   OH235612   0.060   1.312   6.565
11890TIP3    H135613   0.087   1.311   6.657
11890TIP3    H235614   0.142   1.304   6.516
11891TIP3   OH235615   0.044   2.920   2.840
11891TIP3    H135616   0.094   2.992   2.879
11891TIP3    H235617   0.021   2.864   2.914
11892TIP3   OH235618   1.478   6.295   5.903
11892TIP3    H135619   1.523   6.235   5.844
11892TIP3    H235620   1.471   6.377   5.853
11893TIP3   OH235621   3.255   3.693   3.825
11893TIP3    H135622   3.240   3.604   3.793
11893TIP3    H235623   3.167   3.731   3.832
11894TIP3   OH235624   7.024   1.525   4.282
11894TIP3    H135625   7.053   1.503   4.370
11894TIP3    H235626   7.006   1.440   4.241
11895TIP3   OH235627   8.217   7.378   4.280
11895TIP3    H135628   8.223   7.472   4.292
11895TIP3    H235629   8.156   7.367   4.206
11896TIP3   OH235630   6.349   7.505   5.157
11896TIP3    H135631   6.275   7.555   5.122
11896TIP3    H235632   6.422   7.566   5.155
11897TIP3   OH235633   4.605   4.357   5.048
11897TIP3    H135634   4.523   4.312   5.027
11897TIP3    H235635   4.666   4.328   4.981
11898TIP3   OH235636   1.976   4.585   2.038
11898TIP3    H135637   1.965   4.661   1.981
11898TIP3    H235638   1.891   4.577   2.083
11899TIP3   OH235639   5.970   5.138   3.033
11899TIP3    H135640   5.901   5.145   3.099
11899TIP3    H235641   5.951   5.056   2.987
11900TIP3   OH235642   4.473   1.968   4.302
11900TIP3    H135643   4.461   1.931   4.389
11900TIP3    H235644   4.557   1.934   4.272
11901TIP3   OH235645   7.563   1.103   3.362
11901TIP3    H135646   7.515   1.045   3.422
11901TIP3    H235647   7.509   1.108   3.284
11902TIP3   OH235648   6.576   3.407   5.074
11902TIP3    H135649   6.550   3.453   4.995
11902TIP3    H235650   6.671   3.400   5.067
11903TIP3   OH235651   7.458   2.876   6.225
11903TIP3    H135652   7.526   2.822   6.266
11903TIP3    H235653   7.495   2.901   6.141
11904TIP3   OH235654   4.411   6.359   5.186
11904TIP3    H135655   4.416   6.411   5.266
11904TIP3    H235656   4.387   6.423   5.118
11905TIP3   OH235657   2.339   0.115   5.662
11905TIP3    H135658   2.336   0.019   5.655
11905TIP3    H235659   2.372   0.131   5.751
11906TIP3   OH235660   4.553   2.184   0.871
11906TIP3    H135661   4.571   2.277   0.880
11906TIP3    H235662   4.619   2.141   0.926
11907TIP3   OH235663   1.095   1.429   3.535
11907TIP3    H135664   1.007   1.417   3.497
11907TIP3    H235665   1.136   1.495   3.479
11908TIP3   OH235666   6.075   3.427   0.651
11908TIP3    H135667   6.092   3.369   0.726
11908TIP3    H235668   6.051   3.368   0.580
11909TIP3   OH235669   7.791   7.254   5.682
11909TIP3    H135670   7.723   7.300   5.633
11909TIP3    H235671   7.852   7.222   5.615
11910TIP3   OH235672   7.798   2.066   5.397
11910TIP3    H135673   7.886   2.102   5.401
11910TIP3    H235674   7.740   2.142   5.391
11911TIP3   OH235675   7.312   0.032   5.527
11911TIP3    H135676   7.293  -0.004   5.440
11911TIP3    H235677   7.290  -0.039   5.587
11912TIP3   OH235678   1.210   5.905   4.056
11912TIP3    H135679   1.116   5.889   4.053
11912TIP3    H235680   1.242   5.878   3.970
11913TIP3   OH235681   6.877   3.308   3.385
11913TIP3    H135682   6.806   3.253   3.419
11913TIP3    H235683   6.841   3.345   3.304
11914TIP3   OH235684   4.564   5.436   1.498
11914TIP3    H135685   4.596   5.348   1.516
11914TIP3    H235686   4.643   5.487   1.479
11915TIP3   OH235687   1.782   1.209   4.824
11915TIP3    H135688   1.779   1.114   4.835
11915TIP3    H235689   1.869   1.234   4.854
11916TIP3   OH235690   3.654   5.967   3.672
11916TIP3    H135691   3.710   5.919   3.732
11916TIP3    H235692   3.566   5.955   3.707
11917TIP3   OH235693   7.559   3.120   5.616
11917TIP3    H135694   7.614   3.193   5.646
11917TIP3    H235695   7.588   3.104   5.526
11918TIP3   OH235696   4.206   1.520   3.369
11918TIP3    H135697   4.270   1.521   3.440
11918TIP3    H235698   4.225   1.439   3.321
11919TIP3   OH235699   3.692   3.298   4.223
11919TIP3    H135700   3.602   3.327   4.241
11919TIP3    H235701   3.745   3.376   4.237
11920TIP3   OH235702   7.066   2.912   3.878
11920TIP3    H135703   7.104   2.976   3.938
11920TIP3    H235704   6.998   2.868   3.929
11921TIP3   OH235705   2.334   4.618   4.598
11921TIP3    H135706   2.306   4.603   4.688
11921TIP3    H235707   2.372   4.706   4.600
11922TIP3   OH235708   2.039   6.627   6.626
11922TIP3    H135709   2.067   6.715   6.654
11922TIP3    H235710   2.120   6.577   6.622
11923TIP3   OH235711   1.153   4.295   3.190
11923TIP3    H135712   1.120   4.237   3.122
11923TIP3    H235713   1.176   4.376   3.144
11924TIP3   OH235714   5.987   5.425   2.130
11924TIP3    H135715   5.953   5.467   2.052
11924TIP3    H235716   5.910   5.384   2.170
11925TIP3   OH235717   0.257   0.770   0.844
11925TIP3    H135718   0.274   0.763   0.750
11925TIP3    H235719   0.272   0.681   0.877
11926TIP3   OH235720   1.494   2.277   4.232
11926TIP3    H135721   1.483   2.367   4.262
11926TIP3    H235722   1.405   2.248   4.211
11927TIP3   OH235723   7.569   4.570   1.537
11927TIP3    H135724   7.616   4.612   1.610
11927TIP3    H235725   7.507   4.636   1.507
11928TIP3   OH235726   4.820   6.182   1.608
11928TIP3    H135727   4.853   6.215   1.692
11928TIP3    H235728   4.898   6.169   1.555
11929TIP3   OH235729   5.754   6.045   3.378
11929TIP3    H135730   5.838   6.087   3.362
11929TIP3    H235731   5.689   6.115   3.373
11930TIP3   OH235732   4.670   0.949   0.271
11930TIP3    H135733   4.680   0.862   0.233
11930TIP3    H235734   4.746   0.998   0.239
11931TIP3   OH235735   2.125   7.071   2.562
11931TIP3    H135736   2.042   7.048   2.521
11931TIP3    H235737   2.106   7.073   2.656
11932TIP3   OH235738   6.795   5.844   5.673
11932TIP3    H135739   6.875   5.836   5.726
11932TIP3    H235740   6.785   5.757   5.634
11933TIP3   OH235741   1.083   6.009   3.571
11933TIP3    H135742   1.130   5.978   3.648
11933TIP3    H235743   1.101   5.943   3.504
11934TIP3   OH235744   2.649   2.684   3.324
11934TIP3    H135745   2.656   2.734   3.405
11934TIP3    H235746   2.632   2.749   3.256
11935TIP3   OH235747   0.804   2.547   2.192
11935TIP3    H135748   0.836   2.573   2.278
11935TIP3    H235749   0.743   2.475   2.210
11936TIP3   OH235750   8.322   4.503   2.668
11936TIP3    H135751   8.378   4.479   2.595
11936TIP3    H235752   8.250   4.440   2.666
11937TIP3   OH235753   1.632   1.515   1.831
11937TIP3    H135754   1.537   1.503   1.827
11937TIP3    H235755   1.646   1.566   1.910
11938TIP3   OH235756   2.243   4.356   0.110
11938TIP3    H135757   2.226   4.395   0.195
11938TIP3    H235758   2.187   4.279   0.106
11939TIP3   OH235759   4.761   0.688   2.152
11939TIP3    H135760   4.675   0.719   2.179
11939TIP3    H235761   4.804   0.662   2.234
11940TIP3   OH235762   5.575   3.526   5.867
11940TIP3    H135763   5.552   3.616   5.844
11940TIP3    H235764   5.506   3.473   5.829
11941TIP3   OH235765   1.534   5.948   3.725
11941TIP3    H135766   1.519   5.871   3.779
11941TIP3    H235767   1.548   6.019   3.787
11942TIP3   OH235768   7.427   0.505   0.755
11942TIP3    H135769   7.491   0.554   0.807
11942TIP3    H235770   7.386   0.445   0.817
11943TIP3   OH235771   0.668   2.099   3.956
11943TIP3    H135772   0.575   2.120   3.944
11943TIP3    H235773   0.708   2.183   3.979
11944TIP3   OH235774   0.007   4.278   0.711
11944TIP3    H135775   0.064   4.212   0.673
11944TIP3    H235776   0.018   4.269   0.806
11945TIP3   OH235777   0.903   3.264   0.580
11945TIP3    H135778   0.921   3.174   0.553
11945TIP3    H235779   0.823   3.258   0.632
11946TIP3   OH235780   4.762   6.060   2.229
11946TIP3    H135781   4.801   6.136   2.272
11946TIP3    H235782   4.668   6.067   2.248
11947TIP3   OH235783   1.301   2.295   4.510
11947TIP3    H135784   1.348   2.375   4.537
11947TIP3    H235785   1.369   2.228   4.505
11948TIP3   OH235786   1.487   5.037   2.530
11948TIP3    H135787   1.554   5.038   2.599
11948TIP3    H235788   1.404   5.036   2.578
11949TIP3   OH235789   5.436   3.165   2.429
11949TIP3    H135790   5.488   3.169   2.509
11949TIP3    H235791   5.360   3.220   2.446
11950TIP3   OH235792   7.434   2.815   1.440
11950TIP3    H135793   7.362   2.805   1.378
11950TIP3    H235794   7.395   2.798   1.526
11951TIP3   OH235795   6.828   1.405   3.819
11951TIP3    H135796   6.802   1.474   3.758
11951TIP3    H235797   6.746   1.361   3.841
11952TIP3   OH235798   2.201   6.348   1.791
11952TIP3    H135799   2.257   6.308   1.723
11952TIP3    H235800   2.220   6.297   1.869
11953TIP3   OH235801   5.045   4.134   5.776
11953TIP3    H135802   5.118   4.091   5.731
11953TIP3    H235803   4.967   4.089   5.743
11954TIP3   OH235804   1.076   2.908   5.569
11954TIP3    H135805   1.059   2.895   5.476
11954TIP3    H235806   1.065   3.002   5.583
11955TIP3   OH235807   5.898   0.961   6.467
11955TIP3    H135808   5.834   1.023   6.432
11955TIP3    H235809   5.885   0.881   6.415
11956TIP3   OH235810   7.044   0.007   0.506
11956TIP3    H135811   7.013   0.094   0.483
11956TIP3    H235812   6.964  -0.047   0.508
11957TIP3   OH235813   3.346   6.944   3.701
11957TIP3    H135814   3.317   6.884   3.632
11957TIP3    H235815   3.302   6.913   3.780
11958TIP3   OH235816   3.760   1.041   3.329
11958TIP3    H135817   3.725   1.082   3.250
11958TIP3    H235818   3.855   1.045   3.319
11959TIP3   OH235819   6.447   7.056   1.185
11959TIP3    H135820   6.522   6.997   1.174
11959TIP3    H235821   6.374   7.011   1.144
11960TIP3   OH235822   4.111   1.500   4.402
11960TIP3    H135823   4.182   1.436   4.398
11960TIP3    H235824   4.154   1.584   4.414
11961TIP3   OH235825   2.217   0.525   1.759
11961TIP3    H135826   2.146   0.584   1.783
11961TIP3    H235827   2.173   0.446   1.727
11962TIP3   OH235828   7.582   3.342   2.566
11962TIP3    H135829   7.547   3.357   2.654
11962TIP3    H235830   7.513   3.294   2.521
11963TIP3   OH235831   2.494   5.301   4.899
11963TIP3    H135832   2.416   5.247   4.912
11963TIP3    H235833   2.471   5.359   4.827
11964TIP3   OH235834   2.382   0.969   3.353
11964TIP3    H135835   2.365   0.969   3.259
11964TIP3    H235836   2.344   1.051   3.385
11965TIP3   OH235837   5.702   7.067   4.901
11965TIP3    H135838   5.751   7.027   4.828
11965TIP3    H235839   5.687   6.995   4.962
11966TIP3   OH235840   0.549   1.480   2.346
11966TIP3    H135841   0.589   1.551   2.295
11966TIP3    H235842   0.602   1.403   2.325
11967TIP3   OH235843   5.233   0.024   6.192
11967TIP3    H135844   5.230   0.056   6.102
11967TIP3    H235845   5.309   0.068   6.231
11968TIP3   OH235846   2.710   1.182   4.984
11968TIP3    H135847   2.789   1.158   5.033
11968TIP3    H235848   2.736   1.258   4.932
11969TIP3   OH235849   2.960   5.000   5.586
11969TIP3    H135850   2.949   4.907   5.605
11969TIP3    H235851   2.952   5.006   5.491
11970TIP3   OH235852   1.090   5.727   3.783
11970TIP3    H135853   1.037   5.806   3.790
11970TIP3    H235854   1.165   5.753   3.729
11971TIP3   OH235855   5.399   1.340   6.378
11971TIP3    H135856   5.314   1.352   6.335
11971TIP3    H235857   5.440   1.269   6.329
11972TIP3   OH235858   4.588   1.114   4.798
11972TIP3    H135859   4.561   1.040   4.853
11972TIP3    H235860   4.683   1.108   4.793
11973TIP3   OH235861   1.885   5.599   3.675
11973TIP3    H135862   1.942   5.603   3.752
11973TIP3    H235863   1.846   5.687   3.670
11974TIP3   OH235864   4.656   4.946   6.304
11974TIP3    H135865   4.741   4.954   6.260
11974TIP3    H235866   4.649   4.853   6.325
11975TIP3   OH235867   3.412   5.340   4.188
11975TIP3    H135868   3.456   5.339   4.273
11975TIP3    H235869   3.413   5.249   4.159
11976TIP3   OH235870   7.851   5.767   5.288
11976TIP3    H135871   7.804   5.704   5.233
11976TIP3    H235872   7.783   5.813   5.336
11977TIP3   OH235873   3.930   5.608   2.576
11977TIP3    H135874   3.955   5.597   2.484
11977TIP3    H235875   3.962   5.695   2.600
11978TIP3   OH235876   0.455   2.746   1.002
11978TIP3    H135877   0.443   2.831   0.961
11978TIP3    H235878   0.371   2.726   1.044
11979TIP3   OH235879   0.769   1.400   2.555
11979TIP3    H135880   0.746   1.465   2.621
11979TIP3    H235881   0.753   1.315   2.597
11980TIP3   OH235882   1.221   4.030   5.548
11980TIP3    H135883   1.173   3.976   5.486
11980TIP3    H235884   1.177   4.015   5.632
11981TIP3   OH235885   1.472   4.524   1.541
11981TIP3    H135886   1.389   4.572   1.543
11981TIP3    H235887   1.482   4.498   1.449
11982TIP3   OH235888   7.978   1.187   1.001
11982TIP3    H135889   7.887   1.156   1.004
11982TIP3    H235890   7.994   1.207   0.909
11983TIP3   OH235891   3.719   0.962   4.964
11983TIP3    H135892   3.800   0.957   4.913
11983TIP3    H235893   3.748   0.982   5.053
11984TIP3   OH235894   7.207   4.779   1.814
11984TIP3    H135895   7.301   4.796   1.826
11984TIP3    H235896   7.164   4.858   1.848
11985TIP3   OH235897   2.687   3.615   1.952
11985TIP3    H135898   2.678   3.637   2.045
11985TIP3    H235899   2.663   3.696   1.906
11986TIP3   OH235900   1.451   0.115   4.406
11986TIP3    H135901   1.450   0.020   4.392
11986TIP3    H235902   1.359   0.138   4.419
11987TIP3   OH235903   1.522   2.465   3.823
11987TIP3    H135904   1.426   2.470   3.822
11987TIP3    H235905   1.550   2.545   3.867
11988TIP3   OH235906   0.932   6.802   4.378
11988TIP3    H135907   0.942   6.722   4.327
11988TIP3    H235908   0.924   6.871   4.313
11989TIP3   OH235909   7.859   3.215   3.969
11989TIP3    H135910   7.952   3.237   3.980
11989TIP3    H235911   7.813   3.287   4.012
11990TIP3   OH235912   7.483   4.274   0.722
11990TIP3    H135913   7.466   4.328   0.799
11990TIP3    H235914   7.578   4.266   0.719
11991TIP3   OH235915   6.860   0.706   3.665
11991TIP3    H135916   6.900   0.624   3.695
11991TIP3    H235917   6.845   0.692   3.572
11992TIP3   OH235918   2.823   1.800   3.651
11992TIP3    H135919   2.735   1.772   3.677
11992TIP3    H235920   2.882   1.752   3.708
11993TIP3   OH235921   8.180   3.518   1.717
11993TIP3    H135922   8.250   3.506   1.780
11993TIP3    H235923   8.141   3.602   1.740
11994TIP3   OH235924   7.778   3.997   0.713
11994TIP3    H135925   7.747   3.995   0.804
11994TIP3    H235926   7.712   3.948   0.664
11995TIP3   OH235927   5.271   0.173   2.595
11995TIP3    H135928   5.355   0.156   2.638
11995TIP3    H235929   5.207   0.175   2.667
11996TIP3   OH235930   7.380   3.365   6.056
11996TIP3    H135931   7.436   3.368   5.978
11996TIP3    H235932   7.364   3.272   6.071
11997TIP3   OH235933   5.196   7.239   6.149
11997TIP3    H135934   5.279   7.213   6.109
11997TIP3    H235935   5.220   7.307   6.212
11998TIP3   OH235936   2.570   7.397   6.196
11998TIP3    H135937   2.486   7.443   6.200
11998TIP3    H235938   2.553   7.322   6.139
11999TIP3   OH235939   5.606   7.018   6.327
11999TIP3    H135940   5.664   6.948   6.297
11999TIP3    H235941   5.534   7.018   6.264
12000TIP3   OH235942   6.779   0.329   4.910
12000TIP3    H135943   6.706   0.299   4.855
12000TIP3    H235944   6.815   0.404   4.862
12001TIP3   OH235945   0.845   4.288   5.123
12001TIP3    H135946   0.914   4.324   5.067
12001TIP3    H235947   0.881   4.206   5.156
12002TIP3   OH235948   3.385   1.340   1.105
12002TIP3    H135949   3.398   1.432   1.081
12002TIP3    H235950   3.372   1.295   1.022
12003TIP3   OH235951   7.090   6.864   3.809
12003TIP3    H135952   7.014   6.812   3.783
12003TIP3    H235953   7.062   6.955   3.799
12004TIP3   OH235954   1.673   4.241   0.123
12004TIP3    H135955   1.696   4.168   0.066
12004TIP3    H235956   1.581   4.226   0.145
12005TIP3   OH235957   3.253   4.194   5.782
12005TIP3    H135958   3.172   4.192   5.731
12005TIP3    H235959   3.246   4.119   5.841
12006TIP3   OH235960   6.732   5.916   2.458
12006TIP3    H135961   6.772   5.890   2.375
12006TIP3    H235962   6.778   5.997   2.483
12007TIP3   OH235963   1.574   0.820   5.632
12007TIP3    H135964   1.665   0.794   5.644
12007TIP3    H235965   1.532   0.804   5.717
12008TIP3   OH235966   5.980   3.335   3.509
12008TIP3    H135967   6.036   3.318   3.585
12008TIP3    H235968   6.039   3.376   3.445
12009TIP3   OH235969   6.931   2.524   5.034
12009TIP3    H135970   7.011   2.501   5.082
12009TIP3    H235971   6.881   2.443   5.033
12010TIP3   OH235972   2.876   2.664   1.086
12010TIP3    H135973   2.908   2.639   1.173
12010TIP3    H235974   2.781   2.658   1.093
12011TIP3   OH235975   7.063   3.816   5.071
12011TIP3    H135976   7.048   3.908   5.051
12011TIP3    H235977   7.037   3.770   4.991
12012TIP3   OH235978   2.464   5.663   4.267
12012TIP3    H135979   2.435   5.585   4.219
12012TIP3    H235980   2.527   5.630   4.331
12013TIP3   OH235981   7.587   4.764   6.678
12013TIP3    H135982   7.531   4.774   6.601
12013TIP3    H235983   7.656   4.829   6.667
12014TIP3   OH235984   1.653   3.160   3.804
12014TIP3    H135985   1.671   3.192   3.715
12014TIP3    H235986   1.728   3.106   3.826
12015TIP3   OH235987   0.320   1.232   6.445
12015TIP3    H135988   0.391   1.231   6.381
12015TIP3    H235989   0.365   1.230   6.530
12016TIP3   OH235990   1.660   3.607   3.803
12016TIP3    H135991   1.613   3.661   3.866
12016TIP3    H235992   1.594   3.547   3.769
12017TIP3   OH235993   0.117   0.416   4.782
12017TIP3    H135994   0.203   0.407   4.823
12017TIP3    H235995   0.121   0.499   4.734
12018TIP3   OH235996   0.909   7.698   2.592
12018TIP3    H135997   0.948   7.765   2.648
12018TIP3    H235998   0.929   7.726   2.503
12019TIP3   OH235999   5.864   6.641   6.467
12019TIP3    H136000   5.889   6.672   6.380
12019TIP3    H236001   5.833   6.552   6.453
12020TIP3   OH236002   4.349   5.976   2.757
12020TIP3    H136003   4.362   5.900   2.813
12020TIP3    H236004   4.267   5.958   2.710
12021TIP3   OH236005   6.423   4.342   0.668
12021TIP3    H136006   6.434   4.333   0.573
12021TIP3    H236007   6.330   4.364   0.679
12022TIP3   OH236008   1.847   2.028   6.599
12022TIP3    H136009   1.850   1.981   6.682
12022TIP3    H236010   1.838   2.120   6.624
12023TIP3   OH236011   0.714   5.012   0.927
12023TIP3    H136012   0.698   4.975   0.840
12023TIP3    H236013   0.742   4.937   0.979
12024TIP3   OH236014   5.078   5.915   5.423
12024TIP3    H136015   5.161   5.867   5.427
12024TIP3    H236016   5.039   5.887   5.340
12025TIP3   OH236017   0.862   4.997   4.977
12025TIP3    H136018   0.865   4.952   4.892
12025TIP3    H236019   0.812   5.077   4.960
12026TIP3   OH236020   6.778   0.490   4.310
12026TIP3    H136021   6.705   0.460   4.364
12026TIP3    H236022   6.828   0.411   4.291
12027TIP3   OH236023   5.096   5.769   2.556
12027TIP3    H136024   5.045   5.849   2.559
12027TIP3    H236025   5.187   5.798   2.551
12028TIP3   OH236026   3.147   5.892   2.839
12028TIP3    H136027   3.192   5.971   2.811
12028TIP3    H236028   3.070   5.923   2.886
12029TIP3   OH236029   5.988   6.237   3.636
12029TIP3    H136030   6.071   6.280   3.617
12029TIP3    H236031   5.959   6.204   3.551
12030TIP3   OH236032   4.818   6.242   3.692
12030TIP3    H136033   4.839   6.333   3.668
12030TIP3    H236034   4.726   6.244   3.717
12031TIP3   OH236035   4.928   3.566   2.492
12031TIP3    H136036   4.841   3.592   2.526
12031TIP3    H236037   4.909   3.506   2.420
12032TIP3   OH236038   3.057   3.167   1.028
12032TIP3    H136039   3.113   3.149   1.104
12032TIP3    H236040   2.988   3.102   1.033
12033TIP3   OH236041   0.010   7.118   5.996
12033TIP3    H136042  -0.031   7.203   5.979
12033TIP3    H236043   0.017   7.113   6.091
12034TIP3   OH236044   6.501   1.248   1.284
12034TIP3    H136045   6.580   1.228   1.334
12034TIP3    H236046   6.522   1.329   1.238
12035TIP3   OH236047   3.565   0.470   5.987
12035TIP3    H136048   3.610   0.407   6.043
12035TIP3    H236049   3.510   0.416   5.930
12036TIP3   OH236050   0.591   0.355   4.616
12036TIP3    H136051   0.586   0.439   4.571
12036TIP3    H236052   0.681   0.349   4.646
12037TIP3   OH236053   4.551   3.428   2.240
12037TIP3    H136054   4.532   3.343   2.202
12037TIP3    H236055   4.618   3.466   2.183
12038TIP3   OH236056   7.592   1.433   6.296
12038TIP3    H136057   7.670   1.428   6.240
12038TIP3    H236058   7.522   1.459   6.236
12039TIP3   OH236059   6.296   1.307   2.686
12039TIP3    H136060   6.223   1.318   2.625
12039TIP3    H236061   6.340   1.391   2.686
12040TIP3   OH236062   5.056   4.338   0.414
12040TIP3    H136063   5.064   4.431   0.391
12040TIP3    H236064   4.972   4.311   0.378
12041TIP3   OH236065   0.883   4.311   2.541
12041TIP3    H136066   0.829   4.302   2.619
12041TIP3    H236067   0.920   4.399   2.548
12042TIP3   OH236068   0.494   1.691   2.988
12042TIP3    H136069   0.452   1.605   2.981
12042TIP3    H236070   0.571   1.685   2.933
12043TIP3   OH236071   5.167   7.672   5.491
12043TIP3    H136072   5.089   7.693   5.439
12043TIP3    H236073   5.133   7.625   5.567
12044TIP3   OH236074   2.575   6.613   6.621
12044TIP3    H136075   2.618   6.697   6.635
12044TIP3    H236076   2.612   6.555   6.688
12045TIP3   OH236077   8.289   6.936   1.227
12045TIP3    H136078   8.334   7.004   1.278
12045TIP3    H236079   8.198   6.964   1.225
12046TIP3   OH236080   8.052   2.003   3.548
12046TIP3    H136081   8.065   2.047   3.463
12046TIP3    H236082   7.979   1.943   3.532
12047TIP3   OH236083   0.903   0.831   1.400
12047TIP3    H136084   0.961   0.756   1.415
12047TIP3    H236085   0.904   0.878   1.484
12048TIP3   OH236086   7.905   0.370   6.542
12048TIP3    H136087   7.956   0.406   6.615
12048TIP3    H236088   7.840   0.314   6.584
12049TIP3   OH236089   7.293   6.283   5.576
12049TIP3    H136090   7.357   6.343   5.613
12049TIP3    H236091   7.224   6.339   5.541
12050TIP3   OH236092   0.530   5.475   4.621
12050TIP3    H136093   0.516   5.570   4.624
12050TIP3    H236094   0.451   5.438   4.659
12051TIP3   OH236095   3.598   4.677   1.296
12051TIP3    H136096   3.590   4.740   1.224
12051TIP3    H236097   3.682   4.698   1.336
12052TIP3   OH236098   2.086   1.108   6.578
12052TIP3    H136099   2.026   1.095   6.651
12052TIP3    H236100   2.095   1.203   6.571
12053TIP3   OH236101   5.264   3.849   4.448
12053TIP3    H136102   5.234   3.771   4.401
12053TIP3    H236103   5.258   3.920   4.384
12054TIP3   OH236104   0.028   5.667   5.885
12054TIP3    H136105   0.029   5.751   5.840
12054TIP3    H236106   0.078   5.609   5.828
12055TIP3   OH236107   7.376   2.394   4.390
12055TIP3    H136108   7.445   2.444   4.346
12055TIP3    H236109   7.304   2.391   4.327
12056TIP3   OH236110   7.355   5.422   2.360
12056TIP3    H136111   7.281   5.470   2.324
12056TIP3    H236112   7.382   5.363   2.290
12057TIP3   OH236113   6.730   7.097   5.018
12057TIP3    H136114   6.722   7.008   5.052
12057TIP3    H236115   6.687   7.152   5.084
12058TIP3   OH236116   6.287   2.386   1.391
12058TIP3    H136117   6.281   2.322   1.321
12058TIP3    H236118   6.231   2.352   1.460
12059TIP3   OH236119   6.676   1.266   0.069
12059TIP3    H136120   6.731   1.225   0.135
12059TIP3    H236121   6.649   1.193   0.012
12060TIP3   OH236122   4.673   4.691   6.361
12060TIP3    H136123   4.709   4.638   6.290
12060TIP3    H236124   4.583   4.659   6.372
12061TIP3   OH236125   6.972   3.577   3.538
12061TIP3    H136126   6.990   3.600   3.447
12061TIP3    H236127   6.942   3.486   3.534
12062TIP3   OH236128   7.662   1.072   2.768
12062TIP3    H136129   7.620   1.114   2.693
12062TIP3    H236130   7.751   1.052   2.738
12063TIP3   OH236131   7.138   4.984   5.916
12063TIP3    H136132   7.184   4.940   5.845
12063TIP3    H236133   7.183   5.068   5.926
12064TIP3   OH236134   0.898   2.942   1.245
12064TIP3    H136135   0.833   2.877   1.217
12064TIP3    H236136   0.965   2.891   1.291
12065TIP3   OH236137   0.934   2.488   6.128
12065TIP3    H136138   0.946   2.536   6.210
12065TIP3    H236139   1.020   2.490   6.086
12066TIP3   OH236140   0.665   0.115   6.744
12066TIP3    H136141   0.679   0.070   6.661
12066TIP3    H236142   0.715   0.196   6.736
12067TIP3   OH236143   5.526   7.300   2.501
12067TIP3    H136144   5.511   7.277   2.410
12067TIP3    H236145   5.569   7.385   2.498
12068TIP3   OH236146   1.436   5.529   3.057
12068TIP3    H136147   1.491   5.595   3.015
12068TIP3    H236148   1.454   5.538   3.150
12069TIP3   OH236149   7.388   0.891   5.484
12069TIP3    H136150   7.419   0.979   5.509
12069TIP3    H236151   7.377   0.897   5.389
12070TIP3   OH236152   1.989   0.519   1.559
12070TIP3    H136153   2.077   0.481   1.561
12070TIP3    H236154   2.003   0.611   1.536
12071TIP3   OH236155   7.833   4.476   1.843
12071TIP3    H136156   7.761   4.420   1.873
12071TIP3    H236157   7.872   4.509   1.924
12072TIP3   OH236158   1.477   6.492   0.152
12072TIP3    H136159   1.391   6.451   0.138
12072TIP3    H236160   1.536   6.442   0.096
12073TIP3   OH236161   6.546   2.458   1.326
12073TIP3    H136162   6.461   2.429   1.359
12073TIP3    H236163   6.528   2.488   1.237
12074TIP3   OH236164   1.296   6.570   2.111
12074TIP3    H136165   1.369   6.516   2.080
12074TIP3    H236166   1.338   6.644   2.156
12075TIP3   OH236167   2.143   3.966   3.319
12075TIP3    H136168   2.181   3.878   3.320
12075TIP3    H236169   2.080   3.964   3.247
12076TIP3   OH236170   4.768   1.223   1.850
12076TIP3    H136171   4.795   1.264   1.768
12076TIP3    H236172   4.708   1.154   1.824
12077TIP3   OH236173   6.696   4.727   5.440
12077TIP3    H136174   6.735   4.683   5.515
12077TIP3    H236175   6.750   4.806   5.427
12078TIP3   OH236176   5.496   3.498   0.508
12078TIP3    H136177   5.537   3.583   0.489
12078TIP3    H236178   5.433   3.485   0.437
12079TIP3   OH236179   1.246   3.339   2.222
12079TIP3    H136180   1.277   3.252   2.197
12079TIP3    H236181   1.188   3.323   2.297
12080TIP3   OH236182   2.917   6.591   3.144
12080TIP3    H136183   2.825   6.592   3.118
12080TIP3    H236184   2.963   6.637   3.073
12081TIP3   OH236185   6.164   6.932   2.227
12081TIP3    H136186   6.252   6.894   2.234
12081TIP3    H236187   6.145   6.964   2.315
12082TIP3   OH236188   0.941   4.986   4.104
12082TIP3    H136189   0.900   4.928   4.169
12082TIP3    H236190   0.869   5.041   4.073
12083TIP3   OH236191   5.251   5.844   5.815
12083TIP3    H136192   5.203   5.797   5.747
12083TIP3    H236193   5.187   5.856   5.886
12084TIP3   OH236194   0.310   6.890   5.833
12084TIP3    H136195   0.227   6.909   5.876
12084TIP3    H236196   0.371   6.872   5.905
12085TIP3   OH236197   7.345   1.368   4.681
12085TIP3    H136198   7.402   1.423   4.735
12085TIP3    H236199   7.405   1.322   4.622
12086TIP3   OH236200   1.930   1.125   1.652
12086TIP3    H136201   1.983   1.114   1.573
12086TIP3    H236202   1.914   1.219   1.658
12087TIP3   OH236203   3.363   2.045   2.614
12087TIP3    H136204   3.446   2.063   2.658
12087TIP3    H236205   3.317   2.129   2.615
12088TIP3   OH236206   4.362   4.737   3.527
12088TIP3    H136207   4.299   4.698   3.587
12088TIP3    H236208   4.354   4.831   3.542
12089TIP3   OH236209   4.187   1.565   2.748
12089TIP3    H136210   4.105   1.611   2.734
12089TIP3    H236211   4.180   1.530   2.836
12090TIP3   OH236212   4.697   2.801   3.529
12090TIP3    H136213   4.741   2.859   3.466
12090TIP3    H236214   4.631   2.856   3.571
12091TIP3   OH236215   1.084   1.178   3.661
12091TIP3    H136216   1.018   1.189   3.729
12091TIP3    H236217   1.090   1.264   3.619
12092TIP3   OH236218   7.916   7.365   4.954
12092TIP3    H136219   8.007   7.371   4.983
12092TIP3    H236220   7.917   7.299   4.885
12093TIP3   OH236221   4.696   3.214   2.954
12093TIP3    H136222   4.688   3.279   3.025
12093TIP3    H236223   4.607   3.203   2.921
12094TIP3   OH236224   5.660   0.646   1.635
12094TIP3    H136225   5.664   0.739   1.613
12094TIP3    H236226   5.731   0.633   1.698
12095TIP3   OH236227   1.975   6.183   4.589
12095TIP3    H136228   2.028   6.251   4.548
12095TIP3    H236229   1.897   6.229   4.619
12096TIP3   OH236230   2.054   2.830   0.711
12096TIP3    H136231   2.010   2.847   0.795
12096TIP3    H236232   2.041   2.910   0.661
12097TIP3   OH236233   3.298   4.246   2.983
12097TIP3    H136234   3.352   4.169   2.963
12097TIP3    H236235   3.361   4.317   2.995
12098TIP3   OH236236   5.951   0.819   3.516
12098TIP3    H136237   5.945   0.915   3.512
12098TIP3    H236238   6.002   0.802   3.595
12099TIP3   OH236239   0.304   7.258   2.967
12099TIP3    H136240   0.242   7.321   3.003
12099TIP3    H236241   0.316   7.194   3.037
12100TIP3   OH236242   1.413   3.818   4.251
12100TIP3    H136243   1.320   3.805   4.230
12100TIP3    H236244   1.428   3.911   4.238
12101TIP3   OH236245   1.442   0.786   5.889
12101TIP3    H136246   1.374   0.848   5.918
12101TIP3    H236247   1.497   0.773   5.966
12102TIP3   OH236248   6.435   3.372   3.546
12102TIP3    H136249   6.504   3.387   3.612
12102TIP3    H236250   6.395   3.289   3.572
12103TIP3   OH236251   0.293   1.445   5.659
12103TIP3    H136252   0.346   1.383   5.708
12103TIP3    H236253   0.332   1.531   5.678
12104TIP3   OH236254   2.973   5.602   1.837
12104TIP3    H136255   3.022   5.623   1.917
12104TIP3    H236256   3.038   5.609   1.767
12105TIP3   OH236257   7.471   5.212   0.115
12105TIP3    H136258   7.532   5.255   0.054
12105TIP3    H236259   7.385   5.245   0.090
12106TIP3   OH236260   4.391   2.245   4.013
12106TIP3    H136261   4.468   2.299   3.998
12106TIP3    H236262   4.424   2.156   4.014
12107TIP3   OH236263   1.729   3.781   6.612
12107TIP3    H136264   1.751   3.860   6.562
12107TIP3    H236265   1.656   3.741   6.565
12108TIP3   OH236266   6.447   4.893   0.959
12108TIP3    H136267   6.471   4.845   1.038
12108TIP3    H236268   6.418   4.826   0.898
12109TIP3   OH236269   3.820   1.853   2.303
12109TIP3    H136270   3.905   1.824   2.269
12109TIP3    H236271   3.807   1.939   2.264
12110TIP3   OH236272   3.683   5.526   1.369
12110TIP3    H136273   3.640   5.445   1.398
12110TIP3    H236274   3.765   5.496   1.329
12111TIP3   OH236275   3.594   4.733   0.451
12111TIP3    H136276   3.668   4.742   0.390
12111TIP3    H236277   3.628   4.765   0.534
12112TIP3   OH236278   0.609   7.339   6.492
12112TIP3    H136279   0.620   7.399   6.566
12112TIP3    H236280   0.522   7.360   6.457
12113TIP3   OH236281   5.010   1.768   2.644
12113TIP3    H136282   4.943   1.705   2.618
12113TIP3    H236283   4.960   1.842   2.679
12114TIP3   OH236284   0.563   6.257   4.663
12114TIP3    H136285   0.480   6.251   4.712
12114TIP3    H236286   0.553   6.194   4.592
12115TIP3   OH236287   1.221   2.218   4.053
12115TIP3    H136288   1.228   2.234   3.959
12115TIP3    H236289   1.258   2.130   4.065
12116TIP3   OH236290   1.310   2.127   3.126
12116TIP3    H136291   1.386   2.069   3.130
12116TIP3    H236292   1.271   2.121   3.213
12117TIP3   OH236293   8.129   2.729   0.468
12117TIP3    H136294   8.067   2.669   0.510
12117TIP3    H236295   8.211   2.716   0.515
12118TIP3   OH236296   6.510   4.448   1.352
12118TIP3    H136297   6.502   4.531   1.397
12118TIP3    H236298   6.528   4.384   1.421
12119TIP3   OH236299   1.065   3.016   2.527
12119TIP3    H136300   1.121   2.950   2.570
12119TIP3    H236301   1.122   3.092   2.517
12120TIP3   OH236302   0.542   6.502   5.454
12120TIP3    H136303   0.452   6.504   5.485
12120TIP3    H236304   0.565   6.594   5.441
12121TIP3   OH236305   7.295   4.804   3.610
12121TIP3    H136306   7.264   4.844   3.529
12121TIP3    H236307   7.349   4.871   3.652
12122TIP3   OH236308   6.878   5.131   1.951
12122TIP3    H136309   6.798   5.121   2.001
12122TIP3    H236310   6.932   5.056   1.975
12123TIP3   OH236311   7.853   4.142   2.384
12123TIP3    H136312   7.925   4.107   2.437
12123TIP3    H236313   7.819   4.216   2.435
12124TIP3   OH236314   6.348   5.919   1.280
12124TIP3    H136315   6.354   5.872   1.197
12124TIP3    H236316   6.418   5.881   1.334
12125TIP3   OH236317   0.677   6.452   4.374
12125TIP3    H136318   0.676   6.419   4.284
12125TIP3    H236319   0.757   6.414   4.412
12126TIP3   OH236320   7.389   6.542   5.688
12126TIP3    H136321   7.462   6.550   5.749
12126TIP3    H236322   7.427   6.563   5.603
12127TIP3   OH236323   3.960   5.190   3.700
12127TIP3    H136324   4.012   5.237   3.636
12127TIP3    H236325   3.877   5.238   3.703
12128TIP3   OH236326   6.159   0.791   3.684
12128TIP3    H136327   6.191   0.714   3.732
12128TIP3    H236328   6.124   0.848   3.753
12129TIP3   OH236329   6.204   6.430   2.663
12129TIP3    H136330   6.179   6.473   2.745
12129TIP3    H236331   6.123   6.390   2.631
12130TIP3   OH236332   3.092   2.086   0.598
12130TIP3    H136333   3.003   2.106   0.569
12130TIP3    H236334   3.120   2.014   0.541
12131TIP3   OH236335   3.931   4.746   2.741
12131TIP3    H136336   4.007   4.688   2.732
12131TIP3    H236337   3.857   4.692   2.715
12132TIP3   OH236338   5.517   4.914   1.226
12132TIP3    H136339   5.460   4.979   1.183
12132TIP3    H236340   5.494   4.831   1.185
12133TIP3   OH236341   1.106   0.645   5.290
12133TIP3    H136342   1.177   0.698   5.326
12133TIP3    H236343   1.069   0.699   5.220
12134TIP3   OH236344   7.556   3.044   2.758
12134TIP3    H136345   7.564   2.991   2.838
12134TIP3    H236346   7.647   3.065   2.734
12135TIP3   OH236347   7.249   2.119   2.732
12135TIP3    H136348   7.167   2.141   2.778
12135TIP3    H236349   7.305   2.083   2.800
12136TIP3   OH236350   1.891   7.234   5.282
12136TIP3    H136351   1.911   7.255   5.191
12136TIP3    H236352   1.956   7.169   5.307
12137TIP3   OH236353   6.339   4.143   1.861
12137TIP3    H136354   6.410   4.204   1.880
12137TIP3    H236355   6.381   4.072   1.812
12138TIP3   OH236356   8.243   6.987   3.026
12138TIP3    H136357   8.245   7.040   2.947
12138TIP3    H236358   8.152   6.960   3.035
12139TIP3   OH236359   4.585   4.636   3.378
12139TIP3    H136360   4.511   4.664   3.432
12139TIP3    H236361   4.579   4.540   3.379
12140TIP3   OH236362   0.979   2.773   1.462
12140TIP3    H136363   1.036   2.697   1.453
12140TIP3    H236364   0.890   2.736   1.463
12141TIP3   OH236365   4.784   2.541   4.670
12141TIP3    H136366   4.874   2.570   4.689
12141TIP3    H236367   4.737   2.555   4.752
12142TIP3   OH236368   3.045   0.607   5.572
12142TIP3    H136369   2.988   0.552   5.519
12142TIP3    H236370   2.991   0.682   5.596
12143TIP3   OH236371   0.484   5.453   2.808
12143TIP3    H136372   0.427   5.477   2.735
12143TIP3    H236373   0.481   5.357   2.810
12144TIP3   OH236374   3.444   2.659   3.782
12144TIP3    H136375   3.482   2.613   3.856
12144TIP3    H236376   3.519   2.701   3.738
12145TIP3   OH236377   5.548   0.953   3.061
12145TIP3    H136378   5.628   0.991   3.097
12145TIP3    H236379   5.552   0.861   3.085
12146TIP3   OH236380   8.178   4.677   4.596
12146TIP3    H136381   8.154   4.768   4.609
12146TIP3    H236382   8.161   4.635   4.680
12147TIP3   OH236383   1.130   3.382   5.135
12147TIP3    H136384   1.175   3.338   5.063
12147TIP3    H236385   1.037   3.366   5.117
12148TIP3   OH236386   6.439   1.866   5.702
12148TIP3    H136387   6.508   1.912   5.653
12148TIP3    H236388   6.483   1.789   5.737
12149TIP3   OH236389   6.944   0.795   2.306
12149TIP3    H136390   7.010   0.755   2.363
12149TIP3    H236391   6.869   0.736   2.312
12150TIP3   OH236392   5.334   7.480   5.384
12150TIP3    H136393   5.268   7.416   5.356
12150TIP3    H236394   5.284   7.558   5.406
12151TIP3   OH236395   6.556   4.765   3.363
12151TIP3    H136396   6.491   4.716   3.312
12151TIP3    H236397   6.507   4.836   3.404
12152TIP3   OH236398   8.005   2.531   5.400
12152TIP3    H136399   7.984   2.507   5.490
12152TIP3    H236400   8.015   2.447   5.355
12153TIP3   OH236401   6.531   5.187   5.099
12153TIP3    H136402   6.468   5.228   5.040
12153TIP3    H236403   6.602   5.159   5.041
12154TIP3   OH236404   7.483   1.771   3.707
12154TIP3    H136405   7.400   1.736   3.740
12154TIP3    H236406   7.541   1.695   3.701
12155TIP3   OH236407   6.159   4.389   2.006
12155TIP3    H136408   6.188   4.304   1.975
12155TIP3    H236409   6.185   4.450   1.937
12156TIP3   OH236410   2.921   5.594   6.553
12156TIP3    H136411   3.000   5.611   6.604
12156TIP3    H236412   2.852   5.582   6.618
12157TIP3   OH236413   3.490   5.185   0.040
12157TIP3    H136414   3.467   5.264  -0.009
12157TIP3    H236415   3.546   5.216   0.111
12158TIP3   OH236416   7.114   1.838   2.637
12158TIP3    H136417   7.059   1.915   2.646
12158TIP3    H236418   7.203   1.872   2.623
12159TIP3   OH236419   1.345   7.816   0.812
12159TIP3    H136420   1.393   7.898   0.807
12159TIP3    H236421   1.360   7.784   0.901
12160TIP3   OH236422   2.169   1.353   5.509
12160TIP3    H136423   2.179   1.263   5.480
12160TIP3    H236424   2.252   1.395   5.486
12161TIP3   OH236425   7.604   5.264   6.044
12161TIP3    H136426   7.651   5.251   5.962
12161TIP3    H236427   7.648   5.206   6.106
12162TIP3   OH236428   3.456   7.184   1.033
12162TIP3    H136429   3.515   7.197   0.959
12162TIP3    H236430   3.471   7.094   1.061
12163TIP3   OH236431   1.247   0.358   2.716
12163TIP3    H136432   1.236   0.384   2.625
12163TIP3    H236433   1.189   0.416   2.765
12164TIP3   OH236434   5.703   4.094   3.369
12164TIP3    H136435   5.697   4.066   3.460
12164TIP3    H236436   5.634   4.160   3.361
12165TIP3   OH236437   1.033   0.363   2.186
12165TIP3    H136438   0.987   0.310   2.122
12165TIP3    H236439   0.981   0.443   2.192
12166TIP3   OH236440   7.407   6.209   2.491
12166TIP3    H136441   7.471   6.237   2.556
12166TIP3    H236442   7.379   6.291   2.449
12167TIP3   OH236443   2.911   7.506   1.550
12167TIP3    H136444   2.978   7.438   1.548
12167TIP3    H236445   2.829   7.459   1.558
12168TIP3   OH236446   7.390   6.070   6.170
12168TIP3    H136447   7.417   6.128   6.099
12168TIP3    H236448   7.295   6.064   6.163
12169TIP3   OH236449   1.298   4.994   6.440
12169TIP3    H136450   1.353   5.065   6.472
12169TIP3    H236451   1.315   4.921   6.500
12170TIP3   OH236452   7.983   1.110   5.185
12170TIP3    H136453   7.913   1.080   5.127
12170TIP3    H236454   7.948   1.096   5.274
12171TIP3   OH236455   4.123   6.919   3.077
12171TIP3    H136456   4.211   6.897   3.108
12171TIP3    H236457   4.065   6.889   3.146
12172TIP3   OH236458   1.827   5.297   4.391
12172TIP3    H136459   1.823   5.373   4.334
12172TIP3    H236460   1.912   5.257   4.372
12173TIP3   OH236461   2.071   0.269   0.979
12173TIP3    H136462   2.117   0.325   0.916
12173TIP3    H236463   2.119   0.282   1.061
12174TIP3   OH236464   8.045   2.694   2.224
12174TIP3    H136465   8.014   2.644   2.300
12174TIP3    H236466   7.983   2.672   2.154
12175TIP3   OH236467   5.947   6.662   4.678
12175TIP3    H136468   5.853   6.649   4.675
12175TIP3    H236469   5.977   6.610   4.752
12176TIP3   OH236470   3.963   5.057   0.710
12176TIP3    H136471   4.023   5.116   0.756
12176TIP3    H236472   3.979   4.971   0.749
12177TIP3   OH236473   1.362   2.708   4.145
12177TIP3    H136474   1.391   2.633   4.197
12177TIP3    H236475   1.276   2.681   4.111
12178TIP3   OH236476   4.083   1.461   6.350
12178TIP3    H136477   4.157   1.458   6.289
12178TIP3    H236478   4.089   1.379   6.399
12179TIP3   OH236479   4.310   1.435   3.819
12179TIP3    H136480   4.297   1.355   3.869
12179TIP3    H236481   4.276   1.505   3.874
12180TIP3   OH236482   1.033   5.018   3.134
12180TIP3    H136483   1.010   4.990   3.223
12180TIP3    H236484   0.969   5.086   3.113
12181TIP3   OH236485   1.082   0.707   5.821
12181TIP3    H136486   1.161   0.754   5.791
12181TIP3    H236487   1.025   0.776   5.854
12182TIP3   OH236488   8.002   4.144   1.888
12182TIP3    H136489   8.060   4.169   1.816
12182TIP3    H236490   7.915   4.140   1.848
12183TIP3   OH236491   6.140   5.338   1.191
12183TIP3    H136492   6.149   5.405   1.259
12183TIP3    H236493   6.080   5.274   1.228
12184TIP3   OH236494   6.288   2.242   3.817
12184TIP3    H136495   6.296   2.148   3.801
12184TIP3    H236496   6.355   2.282   3.762
12185TIP3   OH236497   6.854   6.731   1.463
12185TIP3    H136498   6.942   6.693   1.469
12185TIP3    H236499   6.799   6.658   1.435
12186TIP3   OH236500   3.860   6.686   6.357
12186TIP3    H136501   3.901   6.612   6.313
12186TIP3    H236502   3.926   6.715   6.421
12187TIP3   OH236503   5.052   6.590   3.845
12187TIP3    H136504   5.073   6.639   3.766
12187TIP3    H236505   5.105   6.511   3.839
12188TIP3   OH236506   6.447   7.171   2.643
12188TIP3    H136507   6.537   7.140   2.648
12188TIP3    H236508   6.394   7.096   2.668
12189TIP3   OH236509   7.078   3.477   2.423
12189TIP3    H136510   7.038   3.557   2.389
12189TIP3    H236511   7.167   3.502   2.446
12190TIP3   OH236512   0.871   1.730   1.805
12190TIP3    H136513   0.856   1.644   1.766
12190TIP3    H236514   0.823   1.790   1.748
12191TIP3   OH236515   8.195   2.548   3.111
12191TIP3    H136516   8.201   2.475   3.049
12191TIP3    H236517   8.170   2.507   3.194
12192TIP3   OH236518   5.906   6.700   3.446
12192TIP3    H136519   5.888   6.606   3.450
12192TIP3    H236520   5.820   6.741   3.438
12193TIP3   OH236521   4.032   2.847   5.321
12193TIP3    H136522   3.951   2.886   5.290
12193TIP3    H236523   4.044   2.768   5.268
12194TIP3   OH236524   2.509   2.946   3.186
12194TIP3    H136525   2.564   2.916   3.113
12194TIP3    H236526   2.465   3.023   3.152
12195TIP3   OH236527   3.624   0.112   3.001
12195TIP3    H136528   3.668   0.105   2.916
12195TIP3    H236529   3.685   0.073   3.063
12196TIP3   OH236530   2.104   4.316   0.795
12196TIP3    H136531   2.055   4.253   0.742
12196TIP3    H236532   2.099   4.397   0.745
12197TIP3   OH236533   7.785   5.157   6.231
12197TIP3    H136534   7.877   5.130   6.228
12197TIP3    H236535   7.740   5.084   6.274
12198TIP3   OH236536   4.339   5.300   4.036
12198TIP3    H136537   4.408   5.348   4.082
12198TIP3    H236538   4.334   5.215   4.080
12199TIP3   OH236539   0.986   5.097   1.074
12199TIP3    H136540   1.066   5.098   1.125
12199TIP3    H236541   0.924   5.047   1.126
12200TIP3   OH236542   6.207   5.364   0.478
12200TIP3    H136543   6.113   5.368   0.494
12200TIP3    H236544   6.220   5.415   0.398
12201TIP3   OH236545   5.654   3.601   1.635
12201TIP3    H136546   5.701   3.530   1.591
12201TIP3    H236547   5.647   3.572   1.726
12202TIP3   OH236548   0.523   6.853   2.229
12202TIP3    H136549   0.483   6.899   2.303
12202TIP3    H236550   0.506   6.760   2.247
12203TIP3   OH236551   4.453   4.246   4.219
12203TIP3    H136552   4.382   4.195   4.259
12203TIP3    H236553   4.515   4.260   4.291
12204TIP3   OH236554   7.116   2.664   0.710
12204TIP3    H136555   7.099   2.583   0.662
12204TIP3    H236556   7.033   2.711   0.709
12205TIP3   OH236557   5.714   1.734   4.313
12205TIP3    H136558   5.655   1.675   4.266
12205TIP3    H236559   5.764   1.778   4.244
12206TIP3   OH236560   6.299   2.183   5.203
12206TIP3    H136561   6.366   2.250   5.214
12206TIP3    H236562   6.241   2.217   5.135
12207TIP3   OH236563   0.609   1.737   2.243
12207TIP3    H136564   0.621   1.764   2.151
12207TIP3    H236565   0.516   1.746   2.258
12208TIP3   OH236566   2.802   6.923   3.850
12208TIP3    H136567   2.706   6.933   3.846
12208TIP3    H236568   2.816   6.869   3.928
12209TIP3   OH236569   0.537   4.628   3.516
12209TIP3    H136570   0.552   4.572   3.593
12209TIP3    H236571   0.463   4.587   3.471
12210TIP3   OH236572   7.682   7.317   0.799
12210TIP3    H136573   7.628   7.397   0.795
12210TIP3    H236574   7.630   7.252   0.752
12211TIP3   OH236575   2.994   1.219   2.812
12211TIP3    H136576   3.025   1.308   2.791
12211TIP3    H236577   3.073   1.166   2.813
12212TIP3   OH236578   1.396   0.393   6.243
12212TIP3    H136579   1.304   0.385   6.220
12212TIP3    H236580   1.398   0.458   6.313
12213TIP3   OH236581   5.169   1.868   5.359
12213TIP3    H136582   5.151   1.812   5.284
12213TIP3    H236583   5.159   1.810   5.435
12214TIP3   OH236584   3.077   1.078   3.233
12214TIP3    H136585   3.026   1.145   3.189
12214TIP3    H236586   3.058   1.090   3.326
12215TIP3   OH236587   7.147   7.510   3.801
12215TIP3    H136588   7.124   7.603   3.806
12215TIP3    H236589   7.165   7.485   3.892
12216TIP3   OH236590   0.375   6.090   1.365
12216TIP3    H136591   0.302   6.130   1.318
12216TIP3    H236592   0.378   6.000   1.332
12217TIP3   OH236593   6.296   6.082   4.699
12217TIP3    H136594   6.359   6.133   4.647
12217TIP3    H236595   6.265   6.015   4.639
12218TIP3   OH236596   5.266   2.851   2.189
12218TIP3    H136597   5.234   2.783   2.248
12218TIP3    H236598   5.344   2.814   2.149
12219TIP3   OH236599   0.712   1.474   0.029
12219TIP3    H136600   0.709   1.452   0.122
12219TIP3    H236601   0.754   1.559   0.026
12220TIP3   OH236602   5.557   6.413   1.065
12220TIP3    H136603   5.503   6.396   1.142
12220TIP3    H236604   5.589   6.502   1.078
12221TIP3   OH236605   1.837   0.347   0.832
12221TIP3    H136606   1.757   0.297   0.849
12221TIP3    H236607   1.906   0.300   0.878
12222TIP3   OH236608   2.004   3.956   3.092
12222TIP3    H136609   1.910   3.949   3.106
12222TIP3    H236610   2.016   3.944   2.997
12223TIP3   OH236611   3.744   1.336   2.144
12223TIP3    H136612   3.708   1.326   2.056
12223TIP3    H236613   3.729   1.428   2.166
12224TIP3   OH236614   0.276   1.247   3.897
12224TIP3    H136615   0.224   1.255   3.818
12224TIP3    H236616   0.296   1.154   3.904
12225TIP3   OH236617   1.851   2.034   3.833
12225TIP3    H136618   1.853   1.951   3.881
12225TIP3    H236619   1.923   2.085   3.869
12226TIP3   OH236620   5.372   6.807   0.137
12226TIP3    H136621   5.389   6.849   0.221
12226TIP3    H236622   5.290   6.760   0.150
12227TIP3   OH236623   8.232   7.165   4.449
12227TIP3    H136624   8.199   7.083   4.412
12227TIP3    H236625   8.226   7.228   4.377
12228TIP3   OH236626   2.750   4.002   6.056
12228TIP3    H136627   2.714   3.918   6.025
12228TIP3    H236628   2.720   4.009   6.146
12229TIP3   OH236629   5.142   5.621   5.160
12229TIP3    H136630   5.155   5.532   5.127
12229TIP3    H236631   5.150   5.677   5.082
12230TIP3   OH236632   5.439   2.108   6.480
12230TIP3    H136633   5.413   2.038   6.541
12230TIP3    H236634   5.413   2.189   6.524
12231TIP3   OH236635   4.685   0.564   0.412
12231TIP3    H136636   4.681   0.479   0.455
12231TIP3    H236637   4.610   0.563   0.352
12232TIP3   OH236638   1.251   7.028   4.223
12232TIP3    H136639   1.292   6.961   4.168
12232TIP3    H236640   1.228   7.098   4.163
12233TIP3   OH236641   3.648   2.961   1.534
12233TIP3    H136642   3.599   2.910   1.599
12233TIP3    H236643   3.725   2.906   1.514
12234TIP3   OH236644   3.134   6.132   4.368
12234TIP3    H136645   3.120   6.045   4.407
12234TIP3    H236646   3.100   6.193   4.434
12235TIP3   OH236647   7.037   3.938   3.629
12235TIP3    H136648   7.041   4.029   3.661
12235TIP3    H236649   7.127   3.907   3.638
12236TIP3   OH236650   6.206   5.458   3.411
12236TIP3    H136651   6.218   5.505   3.328
12236TIP3    H236652   6.120   5.418   3.404
12237TIP3   OH236653   0.340   7.410   4.730
12237TIP3    H136654   0.374   7.328   4.767
12237TIP3    H236655   0.393   7.478   4.772
12238TIP3   OH236656   2.987   0.380   5.946
12238TIP3    H136657   3.064   0.324   5.943
12238TIP3    H236658   3.011   0.452   6.005
12239TIP3   OH236659   7.823   4.864   6.548
12239TIP3    H136660   7.763   4.939   6.553
12239TIP3    H236661   7.873   4.879   6.468
12240TIP3   OH236662   7.725   0.592   5.207
12240TIP3    H136663   7.790   0.655   5.238
12240TIP3    H236664   7.677   0.565   5.285
12241TIP3   OH236665   3.832   5.210   5.884
12241TIP3    H136666   3.916   5.167   5.868
12241TIP3    H236667   3.847   5.265   5.960
12242TIP3   OH236668   7.353   1.932   5.150
12242TIP3    H136669   7.444   1.939   5.119
12242TIP3    H236670   7.348   1.994   5.223
12243TIP3   OH236671   7.898   0.075   3.564
12243TIP3    H136672   7.828   0.050   3.624
12243TIP3    H236673   7.974   0.023   3.593
12244TIP3   OH236674   7.821   4.859   6.210
12244TIP3    H136675   7.829   4.846   6.116
12244TIP3    H236676   7.862   4.781   6.249
12245TIP3   OH236677   0.664   5.648   5.999
12245TIP3    H136678   0.691   5.723   5.947
12245TIP3    H236679   0.714   5.655   6.080
12246TIP3   OH236680   8.098   0.878   1.356
12246TIP3    H136681   8.191   0.886   1.337
12246TIP3    H236682   8.062   0.834   1.279
12247TIP3   OH236683   3.694   5.610   0.910
12247TIP3    H136684   3.658   5.553   0.842
12247TIP3    H236685   3.624   5.672   0.930
12248TIP3   OH236686   7.058   4.673   4.230
12248TIP3    H136687   7.048   4.742   4.297
12248TIP3    H236688   7.029   4.715   4.149
12249TIP3   OH236689   0.726   0.417   0.043
12249TIP3    H136690   0.741   0.323   0.052
12249TIP3    H236691   0.794   0.458   0.095
12250TIP3   OH236692   2.807   7.426   3.939
12250TIP3    H136693   2.763   7.494   3.988
12250TIP3    H236694   2.747   7.405   3.868
12251TIP3   OH236695   7.879   6.663   4.495
12251TIP3    H136696   7.845   6.684   4.408
12251TIP3    H236697   7.969   6.695   4.494
12252TIP3   OH236698   2.798   7.808   0.236
12252TIP3    H136699   2.710   7.798   0.274
12252TIP3    H236700   2.791   7.764   0.151
12253TIP3   OH236701   0.111   1.481   5.067
12253TIP3    H136702   0.069   1.426   5.133
12253TIP3    H236703   0.122   1.423   4.992
12254TIP3   OH236704   1.234   2.928   5.847
12254TIP3    H136705   1.309   2.933   5.788
12254TIP3    H236706   1.183   3.006   5.828
12255TIP3   OH236707   1.006   7.071   4.046
12255TIP3    H136708   0.961   7.033   3.971
12255TIP3    H236709   1.036   6.996   4.097
12256TIP3   OH236710   0.624   0.479   1.372
12256TIP3    H136711   0.706   0.505   1.331
12256TIP3    H236712   0.632   0.384   1.382
12257TIP3   OH236713   7.995   3.143   0.406
12257TIP3    H136714   8.090   3.137   0.402
12257TIP3    H236715   7.978   3.223   0.457
12258TIP3   OH236716   3.661   5.054   0.391
12258TIP3    H136717   3.747   5.037   0.430
12258TIP3    H236718   3.681   5.082   0.302
12259TIP3   OH236719   4.309   5.379   2.259
12259TIP3    H136720   4.227   5.428   2.261
12259TIP3    H236721   4.298   5.317   2.186
12260TIP3   OH236722   5.353   0.947   3.818
12260TIP3    H136723   5.440   0.951   3.779
12260TIP3    H236724   5.294   0.970   3.746
12261TIP3   OH236725   0.318   2.910   4.175
12261TIP3    H136726   0.310   2.840   4.240
12261TIP3    H236727   0.322   2.990   4.227
12262TIP3   OH236728   1.107   7.633   0.779
12262TIP3    H136729   1.156   7.714   0.795
12262TIP3    H236730   1.029   7.662   0.731
12263TIP3   OH236731   5.233   1.429   3.042
12263TIP3    H136732   5.148   1.397   3.072
12263TIP3    H236733   5.233   1.412   2.948
12264TIP3   OH236734   8.238   2.979   0.420
12264TIP3    H136735   8.289   2.966   0.499
12264TIP3    H236736   8.192   2.896   0.407
12265TIP3   OH236737   5.891   4.120   5.298
12265TIP3    H136738   5.947   4.188   5.261
12265TIP3    H236739   5.805   4.135   5.259
12266TIP3   OH236740   2.619   2.188   0.263
12266TIP3    H136741   2.592   2.138   0.186
12266TIP3    H236742   2.656   2.269   0.228
12267TIP3   OH236743   0.972   0.655   6.535
12267TIP3    H136744   0.893   0.700   6.566
12267TIP3    H236745   0.940   0.573   6.499
12268TIP3   OH236746   3.637   0.425   2.940
12268TIP3    H136747   3.614   0.343   2.985
12268TIP3    H236748   3.574   0.488   2.973
12269TIP3   OH236749   0.276   4.802   0.109
12269TIP3    H136750   0.256   4.895   0.094
12269TIP3    H236751   0.197   4.768   0.153
12270TIP3   OH236752   1.825   6.174   0.257
12270TIP3    H136753   1.907   6.205   0.219
12270TIP3    H236754   1.817   6.084   0.226
12271TIP3   OH236755   2.323   3.939   5.984
12271TIP3    H136756   2.228   3.932   5.984
12271TIP3    H236757   2.341   4.031   6.002
12272TIP3   OH236758   2.771   0.427   3.240
12272TIP3    H136759   2.848   0.404   3.188
12272TIP3    H236760   2.719   0.347   3.242
12273TIP3   OH236761   4.043   5.657   1.334
12273TIP3    H136762   4.080   5.652   1.422
12273TIP3    H236763   4.010   5.569   1.317
12274TIP3   OH236764   0.021   6.872   5.910
12274TIP3    H136765   0.004   6.964   5.928
12274TIP3    H236766  -0.058   6.827   5.940
12275TIP3   OH236767   5.347   3.364   3.868
12275TIP3    H136768   5.282   3.388   3.802
12275TIP3    H236769   5.431   3.390   3.829
12276TIP3   OH236770   3.860   6.249   4.147
12276TIP3    H136771   3.801   6.323   4.161
12276TIP3    H236772   3.869   6.243   4.052
12277TIP3   OH236773   6.233   0.370   4.973
12277TIP3    H136774   6.310   0.419   4.944
12277TIP3    H236775   6.198   0.331   4.894
12278TIP3   OH236776   6.891   1.773   3.895
12278TIP3    H136777   6.925   1.743   3.979
12278TIP3    H236778   6.868   1.865   3.909
12279TIP3   OH236779   2.724   6.668   4.738
12279TIP3    H136780   2.770   6.743   4.701
12279TIP3    H236781   2.646   6.706   4.779
12280TIP3   OH236782   0.292   6.752   1.448
12280TIP3    H136783   0.236   6.722   1.377
12280TIP3    H236784   0.343   6.675   1.473
12281TIP3   OH236785   1.141   2.699   6.327
12281TIP3    H136786   1.215   2.672   6.273
12281TIP3    H236787   1.164   2.787   6.358
12282TIP3   OH236788   3.159   0.835   3.573
12282TIP3    H136789   3.084   0.893   3.562
12282TIP3    H236790   3.166   0.824   3.668
12283TIP3   OH236791   5.909   4.402   0.853
12283TIP3    H136792   5.961   4.428   0.929
12283TIP3    H236793   5.890   4.485   0.808
12284TIP3   OH236794   3.807   6.627   6.616
12284TIP3    H136795   3.769   6.674   6.542
12284TIP3    H236796   3.876   6.684   6.648
12285TIP3   OH236797   5.249   1.646   6.638
12285TIP3    H136798   5.321   1.584   6.626
12285TIP3    H236799   5.190   1.629   6.565
12286TIP3   OH236800   7.915   5.832   4.122
12286TIP3    H136801   7.857   5.889   4.172
12286TIP3    H236802   7.989   5.816   4.181
12287TIP3   OH236803   1.988   7.336   3.147
12287TIP3    H136804   2.041   7.293   3.080
12287TIP3    H236805   2.049   7.353   3.219
12288TIP3   OH236806   2.575   0.967   4.229
12288TIP3    H136807   2.599   1.007   4.313
12288TIP3    H236808   2.481   0.980   4.222
12289TIP3   OH236809   6.330   4.168   6.306
12289TIP3    H136810   6.254   4.224   6.322
12289TIP3    H236811   6.327   4.148   6.213
12290TIP3   OH236812   0.333   6.462   1.190
12290TIP3    H136813   0.263   6.526   1.205
12290TIP3    H236814   0.290   6.392   1.140
12291TIP3   OH236815   0.716   1.653   5.495
12291TIP3    H136816   0.752   1.742   5.493
12291TIP3    H236817   0.692   1.634   5.404
12292TIP3   OH236818   0.749   6.521   5.672
12292TIP3    H136819   0.683   6.499   5.606
12292TIP3    H236820   0.748   6.617   5.676
12293TIP3   OH236821   2.416   2.134   3.222
12293TIP3    H136822   2.468   2.147   3.301
12293TIP3    H236823   2.378   2.046   3.233
12294TIP3   OH236824   1.862   4.216   4.719
12294TIP3    H136825   1.911   4.293   4.690
12294TIP3    H236826   1.775   4.228   4.681
12295TIP3   OH236827   6.566   0.157   1.487
12295TIP3    H136828   6.536   0.243   1.517
12295TIP3    H236829   6.662   0.162   1.496
12296TIP3   OH236830   7.223   3.749   0.057
12296TIP3    H136831   7.211   3.687   0.129
12296TIP3    H236832   7.315   3.776   0.063
12297TIP3   OH236833   0.271   4.324   0.561
12297TIP3    H136834   0.338   4.389   0.541
12297TIP3    H236835   0.312   4.266   0.626
12298TIP3   OH236836   1.148   5.592   1.873
12298TIP3    H136837   1.120   5.677   1.839
12298TIP3    H236838   1.239   5.584   1.846
12299TIP3   OH236839   3.176   4.760   6.511
12299TIP3    H136840   3.189   4.795   6.599
12299TIP3    H236841   3.115   4.820   6.469
12300TIP3   OH236842   1.541   4.312   5.998
12300TIP3    H136843   1.449   4.337   5.999
12300TIP3    H236844   1.588   4.395   5.985
12301TIP3   OH236845   4.586   7.118   0.249
12301TIP3    H136846   4.564   7.209   0.229
12301TIP3    H236847   4.663   7.100   0.196
12302TIP3   OH236848   7.496   3.883   3.985
12302TIP3    H136849   7.480   3.925   3.901
12302TIP3    H236850   7.417   3.899   4.036
12303TIP3   OH236851   4.513   6.629   3.211
12303TIP3    H136852   4.597   6.670   3.231
12303TIP3    H236853   4.518   6.541   3.249
12304TIP3   OH236854   3.467   4.084   1.677
12304TIP3    H136855   3.527   4.128   1.737
12304TIP3    H236856   3.434   4.009   1.726
12305TIP3   OH236857   0.467   3.893   5.607
12305TIP3    H136858   0.558   3.915   5.584
12305TIP3    H236859   0.422   3.977   5.608
12306TIP3   OH236860   7.521   3.957   3.128
12306TIP3    H136861   7.508   4.024   3.061
12306TIP3    H236862   7.615   3.957   3.145
12307TIP3   OH236863   5.435   6.773   6.249
12307TIP3    H136864   5.507   6.712   6.234
12307TIP3    H236865   5.403   6.793   6.162
12308TIP3   OH236866   5.573   3.902   5.102
12308TIP3    H136867   5.493   3.954   5.107
12308TIP3    H236868   5.644   3.963   5.121
12309TIP3   OH236869   1.579   3.683   5.135
12309TIP3    H136870   1.546   3.650   5.051
12309TIP3    H236871   1.524   3.639   5.200
12310TIP3   OH236872   1.242   4.368   2.502
12310TIP3    H136873   1.277   4.455   2.484
12310TIP3    H236874   1.290   4.310   2.442
12311TIP3   OH236875   4.436   0.671   0.156
12311TIP3    H136876   4.396   0.742   0.207
12311TIP3    H236877   4.378   0.661   0.081
12312TIP3   OH236878   3.193   6.881   4.424
12312TIP3    H136879   3.108   6.908   4.390
12312TIP3    H236880   3.188   6.786   4.431
12313TIP3   OH236881   0.368   1.755   5.548
12313TIP3    H136882   0.390   1.810   5.472
12313TIP3    H236883   0.274   1.768   5.560
12314TIP3   OH236884   0.410   4.179   2.727
12314TIP3    H136885   0.477   4.121   2.764
12314TIP3    H236886   0.368   4.127   2.658
12315TIP3   OH236887   1.266   5.868   6.212
12315TIP3    H136888   1.340   5.883   6.271
12315TIP3    H236889   1.292   5.794   6.158
12316TIP3   OH236890   1.662   0.247   3.192
12316TIP3    H136891   1.628   0.231   3.104
12316TIP3    H236892   1.591   0.292   3.237
12317TIP3   OH236893   1.636   6.270   0.422
12317TIP3    H136894   1.637   6.363   0.400
12317TIP3    H236895   1.725   6.240   0.406
12318TIP3   OH236896   5.532   4.900   4.628
12318TIP3    H136897   5.494   4.987   4.621
12318TIP3    H236898   5.501   4.868   4.713
12319TIP3   OH236899   1.840   4.599   2.765
12319TIP3    H136900   1.889   4.634   2.839
12319TIP3    H236901   1.869   4.650   2.689
12320TIP3   OH236902   7.791   5.380   5.100
12320TIP3    H136903   7.784   5.474   5.087
12320TIP3    H236904   7.802   5.344   5.011
12321TIP3   OH236905   6.940   3.636   2.219
12321TIP3    H136906   6.912   3.614   2.130
12321TIP3    H236907   6.864   3.615   2.273
12322TIP3   OH236908   7.380   2.475   0.806
12322TIP3    H136909   7.419   2.480   0.719
12322TIP3    H236910   7.286   2.472   0.790
12323TIP3   OH236911   6.600   6.934   1.981
12323TIP3    H136912   6.507   6.912   1.976
12323TIP3    H236913   6.633   6.887   2.057
12324TIP3   OH236914   2.349   3.222   3.141
12324TIP3    H136915   2.340   3.228   3.236
12324TIP3    H236916   2.392   3.303   3.115
12325TIP3   OH236917   7.938   5.762   3.300
12325TIP3    H136918   8.025   5.725   3.300
12325TIP3    H236919   7.879   5.687   3.290
12326TIP3   OH236920   7.881   0.072   0.354
12326TIP3    H136921   7.852   0.013   0.284
12326TIP3    H236922   7.971   0.095   0.329
12327TIP3   OH236923   0.354   7.062   6.408
12327TIP3    H136924   0.318   7.028   6.326
12327TIP3    H236925   0.348   7.157   6.399
12328TIP3   OH236926   1.951   2.685   0.975
12328TIP3    H136927   1.964   2.610   1.033
12328TIP3    H236928   1.874   2.729   1.011
12329TIP3   OH236929   5.555   2.732   4.505
12329TIP3    H136930   5.553   2.647   4.550
12329TIP3    H236931   5.475   2.733   4.452
12330TIP3   OH236932   1.472   4.537   4.746
12330TIP3    H136933   1.508   4.491   4.823
12330TIP3    H236934   1.538   4.602   4.724
12331TIP3   OH236935   8.124   1.991   4.159
12331TIP3    H136936   8.049   2.038   4.123
12331TIP3    H236937   8.199   2.044   4.134
12332TIP3   OH236938   3.849   6.936   5.413
12332TIP3    H136939   3.807   6.994   5.350
12332TIP3    H236940   3.898   6.995   5.471
12333TIP3   OH236941   4.459   0.084   1.457
12333TIP3    H136942   4.477   0.128   1.374
12333TIP3    H236943   4.515   0.007   1.456
12334TIP3   OH236944   3.828   4.015   3.460
12334TIP3    H136945   3.772   3.996   3.535
12334TIP3    H236946   3.845   3.929   3.420
12335TIP3   OH236947   3.130   4.229   0.839
12335TIP3    H136948   3.140   4.146   0.792
12335TIP3    H236949   3.064   4.277   0.788
12336TIP3   OH236950   7.632   5.734   5.439
12336TIP3    H136951   7.671   5.790   5.506
12336TIP3    H236952   7.573   5.793   5.391
12337TIP3   OH236953   4.273   4.072   6.650
12337TIP3    H136954   4.186   4.049   6.619
12337TIP3    H236955   4.296   4.003   6.712
12338TIP3   OH236956   8.263   6.938   5.610
12338TIP3    H136957   8.302   6.921   5.696
12338TIP3    H236958   8.319   7.005   5.571
12339TIP3   OH236959   4.226   7.069   3.376
12339TIP3    H136960   4.276   7.059   3.457
12339TIP3    H236961   4.290   7.098   3.311
12340TIP3   OH236962   5.918   2.511   5.353
12340TIP3    H136963   5.907   2.584   5.414
12340TIP3    H236964   5.932   2.553   5.268
12341TIP3   OH236965   1.671   0.050   5.354
12341TIP3    H136966   1.741  -0.004   5.317
12341TIP3    H236967   1.596   0.033   5.298
12342TIP3   OH236968   3.954   0.369   1.752
12342TIP3    H136969   3.937   0.423   1.676
12342TIP3    H236970   4.041   0.397   1.783
12343TIP3   OH236971   4.323   0.569   2.169
12343TIP3    H136972   4.370   0.491   2.137
12343TIP3    H236973   4.241   0.568   2.119
12344TIP3   OH236974   6.474   6.030   4.982
12344TIP3    H136975   6.481   5.939   4.953
12344TIP3    H236976   6.538   6.038   5.052
12345TIP3   OH236977   1.977   6.246   3.941
12345TIP3    H136978   1.948   6.332   3.971
12345TIP3    H236979   2.053   6.226   3.995
12346TIP3   OH236980   2.891   7.002   1.783
12346TIP3    H136981   2.844   7.038   1.708
12346TIP3    H236982   2.958   6.946   1.744
12347TIP3   OH236983   3.019   0.495   4.198
12347TIP3    H136984   2.939   0.445   4.180
12347TIP3    H236985   3.056   0.453   4.275
12348TIP3   OH236986   0.364   5.378   3.140
12348TIP3    H136987   0.283   5.422   3.114
12348TIP3    H236988   0.432   5.444   3.129
12349TIP3   OH236989   3.542   0.293   2.688
12349TIP3    H136990   3.572   0.324   2.774
12349TIP3    H236991   3.453   0.328   2.679
12350TIP3   OH236992   5.429   6.868   0.441
12350TIP3    H136993   5.394   6.801   0.499
12350TIP3    H236994   5.370   6.942   0.450
12351TIP3   OH236995   3.752   1.655   3.617
12351TIP3    H136996   3.765   1.748   3.602
12351TIP3    H236997   3.821   1.630   3.678
12352TIP3   OH236998   2.623   4.080   2.028
12352TIP3    H136999   2.546   4.132   2.004
12352TIP3    H237000   2.691   4.110   1.968
12353TIP3   OH237001   3.596   0.103   4.490
12353TIP3    H137002   3.510   0.063   4.501
12353TIP3    H237003   3.628   0.114   4.580
12354TIP3   OH237004   2.918   0.737   0.028
12354TIP3    H137005   2.881   0.727   0.115
12354TIP3    H237006   2.852   0.788  -0.020
12355TIP3   OH237007   0.744   6.630   3.374
12355TIP3    H137008   0.810   6.621   3.442
12355TIP3    H237009   0.662   6.606   3.418
12356TIP3   OH237010   2.601   7.090   4.214
12356TIP3    H137011   2.530   7.046   4.166
12356TIP3    H237012   2.557   7.141   4.282
12357TIP3   OH237013   0.609   4.839   2.423
12357TIP3    H137014   0.657   4.783   2.362
12357TIP3    H237015   0.521   4.802   2.425
12358TIP3   OH237016   2.711   4.888   3.886
12358TIP3    H137017   2.803   4.879   3.860
12358TIP3    H237018   2.697   4.983   3.890
12359TIP3   OH237019   5.461   2.937   6.180
12359TIP3    H137020   5.549   2.906   6.158
12359TIP3    H237021   5.473   2.989   6.259
12360TIP3   OH237022   7.105   4.316   5.270
12360TIP3    H137023   7.142   4.405   5.272
12360TIP3    H237024   7.021   4.326   5.225
12361TIP3   OH237025   4.183   4.456   1.189
12361TIP3    H137026   4.120   4.414   1.131
12361TIP3    H237027   4.198   4.392   1.259
12362TIP3   OH237028   7.279   2.524   2.917
12362TIP3    H137029   7.188   2.519   2.944
12362TIP3    H237030   7.316   2.594   2.972
12363TIP3   OH237031   6.023   0.829   0.427
12363TIP3    H137032   6.028   0.789   0.340
12363TIP3    H237033   5.940   0.877   0.427
12364TIP3   OH237034   1.920   0.805   5.960
12364TIP3    H137035   2.011   0.822   5.985
12364TIP3    H237036   1.895   0.727   6.010
12365TIP3   OH237037   1.100   3.134   6.727
12365TIP3    H137038   1.156   3.081   6.784
12365TIP3    H237039   1.035   3.072   6.693
12366TIP3   OH237040   6.658   6.286   5.882
12366TIP3    H137041   6.699   6.241   5.808
12366TIP3    H237042   6.659   6.222   5.953
12367TIP3   OH237043   3.758   2.045   6.565
12367TIP3    H137044   3.756   2.118   6.627
12367TIP3    H237045   3.702   2.073   6.493
12368TIP3   OH237046   3.646   0.320   1.209
12368TIP3    H137047   3.633   0.413   1.191
12368TIP3    H237048   3.664   0.281   1.124
12369TIP3   OH237049   3.700   0.264   6.200
12369TIP3    H137050   3.771   0.310   6.244
12369TIP3    H237051   3.742   0.187   6.162
12370TIP3   OH237052   3.524   0.963   3.134
12370TIP3    H137053   3.434   0.960   3.166
12370TIP3    H237054   3.551   1.054   3.147
12371TIP3   OH237055   0.863   2.576   5.336
12371TIP3    H137056   0.901   2.621   5.261
12371TIP3    H237057   0.772   2.561   5.311
12372TIP3   OH237058   2.473   0.494   1.853
12372TIP3    H137059   2.392   0.488   1.802
12372TIP3    H237060   2.466   0.577   1.900
12373TIP3   OH237061   2.718   6.542   3.607
12373TIP3    H137062   2.692   6.477   3.673
12373TIP3    H237063   2.810   6.523   3.591
12374TIP3   OH237064   3.563   6.896   1.777
12374TIP3    H137065   3.607   6.812   1.786
12374TIP3    H237066   3.630   6.955   1.742
12375TIP3   OH237067   7.779   1.843   0.131
12375TIP3    H137068   7.761   1.936   0.140
12375TIP3    H237069   7.748   1.804   0.213
12376TIP3   OH237070   7.420   3.746   0.562
12376TIP3    H137071   7.445   3.829   0.602
12376TIP3    H237072   7.503   3.699   0.549
12377TIP3   OH237073   2.016   5.056   0.679
12377TIP3    H137074   2.009   5.127   0.615
12377TIP3    H237075   2.068   5.094   0.750
12378TIP3   OH237076   0.258   4.232   5.404
12378TIP3    H137077   0.351   4.241   5.384
12378TIP3    H237078   0.223   4.321   5.400
12379TIP3   OH237079   2.101   3.294   6.466
12379TIP3    H137080   2.050   3.375   6.458
12379TIP3    H237081   2.081   3.245   6.386
12380TIP3   OH237082   3.044   4.501   2.991
12380TIP3    H137083   3.027   4.498   3.085
12380TIP3    H237084   3.056   4.593   2.970
12381TIP3   OH237085   0.619   1.108   0.583
12381TIP3    H137086   0.668   1.154   0.652
12381TIP3    H237087   0.532   1.096   0.620
12382TIP3   OH237088   2.857   7.363   2.070
12382TIP3    H137089   2.909   7.287   2.046
12382TIP3    H237090   2.840   7.407   1.987
12383TIP3   OH237091   5.138   0.205   2.829
12383TIP3    H137092   5.183   0.175   2.907
12383TIP3    H237093   5.144   0.301   2.834
12384TIP3   OH237094   6.334   7.469   1.457
12384TIP3    H137095   6.394   7.517   1.514
12384TIP3    H237096   6.335   7.380   1.493
12385TIP3   OH237097   6.505   5.944   1.723
12385TIP3    H137098   6.501   6.012   1.656
12385TIP3    H237099   6.455   5.981   1.797
12386TIP3   OH237100   5.400   6.406   1.825
12386TIP3    H137101   5.333   6.475   1.829
12386TIP3    H237102   5.375   6.344   1.893
12387TIP3   OH237103   1.209   1.862   5.400
12387TIP3    H137104   1.201   1.780   5.449
12387TIP3    H237105   1.155   1.848   5.322
12388TIP3   OH237106   8.018   1.283   0.301
12388TIP3    H137107   8.005   1.241   0.386
12388TIP3    H237108   8.112   1.279   0.286
12389TIP3   OH237109   5.946   0.638   4.777
12389TIP3    H137110   5.976   0.608   4.692
12389TIP3    H237111   5.912   0.559   4.820
12390TIP3   OH237112   1.766   4.509   2.312
12390TIP3    H137113   1.826   4.437   2.331
12390TIP3    H237114   1.686   4.466   2.283
12391TIP3   OH237115   4.915  -0.011   2.802
12391TIP3    H137116   5.001   0.022   2.780
12391TIP3    H237117   4.855   0.039   2.747
12392TIP3   OH237118   0.457   1.192   0.103
12392TIP3    H137119   0.529   1.170   0.162
12392TIP3    H237120   0.478   1.279   0.070
12393TIP3   OH237121   3.648   3.244   1.405
12393TIP3    H137122   3.720   3.199   1.448
12393TIP3    H237123   3.573   3.232   1.463
12394TIP3   OH237124   5.853   6.807   2.432
12394TIP3    H137125   5.907   6.730   2.414
12394TIP3    H237126   5.763   6.776   2.424
12395TIP3   OH237127   7.182   3.491   4.671
12395TIP3    H137128   7.165   3.585   4.665
12395TIP3    H237129   7.272   3.481   4.637
12396TIP3   OH237130   0.395   0.353   3.082
12396TIP3    H137131   0.350   0.421   3.031
12396TIP3    H237132   0.398   0.277   3.022
12397TIP3   OH237133   0.256   2.388   2.259
12397TIP3    H137134   0.326   2.438   2.302
12397TIP3    H237135   0.210   2.453   2.205
12398TIP3   OH237136   0.089   0.126   0.968
12398TIP3    H137137   0.005   0.100   1.006
12398TIP3    H237138   0.126   0.045   0.932
12399TIP3   OH237139   2.569   6.384   1.442
12399TIP3    H137140   2.610   6.467   1.467
12399TIP3    H237141   2.512   6.363   1.515
12400TIP3   OH237142   2.267   7.116   6.427
12400TIP3    H137143   2.242   7.025   6.442
12400TIP3    H237144   2.358   7.121   6.455
12401TIP3   OH237145   5.017   5.531   0.921
12401TIP3    H137146   5.067   5.573   0.992
12401TIP3    H237147   4.956   5.598   0.891
12402TIP3   OH237148   4.429   4.318   5.416
12402TIP3    H137149   4.335   4.321   5.438
12402TIP3    H237150   4.434   4.261   5.340
12403TIP3   OH237151   5.539   5.809   1.860
12403TIP3    H137152   5.573   5.891   1.826
12403TIP3    H237153   5.478   5.777   1.794
12404TIP3   OH237154   3.108   2.634   1.306
12404TIP3    H137155   3.149   2.716   1.279
12404TIP3    H237156   3.165   2.566   1.270
12405TIP3   OH237157   2.633   3.182   4.178
12405TIP3    H137158   2.668   3.226   4.101
12405TIP3    H237159   2.546   3.152   4.152
12406TIP3   OH237160   0.057   1.084   5.659
12406TIP3    H137161   0.043   1.027   5.735
12406TIP3    H237162  -0.020   1.068   5.603
12407TIP3   OH237163   1.093   0.103   0.335
12407TIP3    H137164   1.089   0.022   0.386
12407TIP3    H237165   1.170   0.093   0.280
12408TIP3   OH237166   3.700   0.489   3.652
12408TIP3    H137167   3.714   0.546   3.728
12408TIP3    H237168   3.681   0.550   3.580
12409TIP3   OH237169   1.307   7.289   4.098
12409TIP3    H137170   1.288   7.308   4.189
12409TIP3    H237171   1.281   7.368   4.051
12410TIP3   OH237172   7.360   6.633   0.556
12410TIP3    H137173   7.265   6.643   0.547
12410TIP3    H237174   7.373   6.605   0.647
12411TIP3   OH237175   1.767   3.865   5.182
12411TIP3    H137176   1.781   3.898   5.093
12411TIP3    H237177   1.702   3.796   5.172
12412TIP3   OH237178   4.957   2.938   1.171
12412TIP3    H137179   5.021   2.998   1.208
12412TIP3    H237180   4.988   2.920   1.082
12413TIP3   OH237181   6.038   5.923   1.091
12413TIP3    H137182   5.955   5.923   1.139
12413TIP3    H237183   6.049   6.014   1.063
12414TIP3   OH237184   4.712   4.324   0.626
12414TIP3    H137185   4.776   4.256   0.645
12414TIP3    H237186   4.701   4.321   0.531
12415TIP3   OH237187   5.289   4.592   6.178
12415TIP3    H137188   5.355   4.528   6.206
12415TIP3    H237189   5.212   4.540   6.156
12416TIP3   OH237190   0.303   3.023   4.644
12416TIP3    H137191   0.269   2.995   4.729
12416TIP3    H237192   0.229   3.068   4.602
12417TIP3   OH237193   4.488   3.961   4.786
12417TIP3    H137194   4.569   3.985   4.740
12417TIP3    H237195   4.512   3.882   4.835
12418TIP3   OH237196   4.881   2.087   0.772
12418TIP3    H137197   4.974   2.067   0.761
12418TIP3    H237198   4.854   2.127   0.689
12419TIP3   OH237199   3.986   4.546   6.563
12419TIP3    H137200   3.901   4.512   6.534
12419TIP3    H237201   4.045   4.471   6.559
12420TIP3   OH237202   5.355   7.464   1.591
12420TIP3    H137203   5.395   7.469   1.504
12420TIP3    H237204   5.263   7.486   1.575
12421TIP3   OH237205   0.470   2.362   2.942
12421TIP3    H137206   0.467   2.318   3.027
12421TIP3    H237207   0.563   2.374   2.925
12422TIP3   OH237208   3.603   3.930   0.687
12422TIP3    H137209   3.524   3.922   0.740
12422TIP3    H237210   3.586   4.003   0.629
12423TIP3   OH237211   3.489   3.795   2.938
12423TIP3    H137212   3.432   3.726   2.903
12423TIP3    H237213   3.575   3.776   2.900
12424TIP3   OH237214   0.601   6.601   0.927
12424TIP3    H137215   0.580   6.690   0.898
12424TIP3    H237216   0.696   6.600   0.936
12425TIP3   OH237217   6.913   1.799   3.391
12425TIP3    H137218   7.007   1.807   3.409
12425TIP3    H237219   6.891   1.879   3.343
12426TIP3   OH237220   0.987   1.078   2.901
12426TIP3    H137221   1.043   1.010   2.938
12426TIP3    H237222   1.036   1.111   2.826
12427TIP3   OH237223   2.992   0.206   1.130
12427TIP3    H137224   2.943   0.124   1.132
12427TIP3    H237225   2.943   0.262   1.069
12428TIP3   OH237226   4.477   4.859   0.974
12428TIP3    H137227   4.435   4.773   0.980
12428TIP3    H237228   4.554   4.852   1.030
12429TIP3   OH237229   3.638   7.784   2.852
12429TIP3    H137230   3.563   7.814   2.801
12429TIP3    H237231   3.601   7.723   2.916
12430TIP3   OH237232   2.419   0.008   1.200
12430TIP3    H137233   2.390   0.097   1.218
12430TIP3    H237234   2.496  -0.004   1.256
12431TIP3   OH237235   3.249   1.052   0.704
12431TIP3    H137236   3.283   1.068   0.792
12431TIP3    H237237   3.253   1.137   0.661
12432TIP3   OH237238   6.977   4.226   2.575
12432TIP3    H137239   6.885   4.252   2.565
12432TIP3    H237240   7.002   4.194   2.489
12433TIP3   OH237241   7.396   0.481   1.409
12433TIP3    H137242   7.447   0.508   1.332
12433TIP3    H237243   7.361   0.396   1.385
12434TIP3   OH237244   4.943   6.037   6.186
12434TIP3    H137245   4.919   6.047   6.278
12434TIP3    H237246   5.012   6.101   6.170
12435TIP3   OH237247   6.377   2.437   5.657
12435TIP3    H137248   6.332   2.416   5.739
12435TIP3    H237249   6.310   2.429   5.590
12436TIP3   OH237250   3.434   1.869   5.796
12436TIP3    H137251   3.441   1.779   5.767
12436TIP3    H237252   3.422   1.863   5.891
12437TIP3   OH237253   1.734   5.854   3.281
12437TIP3    H137254   1.670   5.861   3.352
12437TIP3    H237255   1.692   5.896   3.206
12438TIP3   OH237256   3.104   4.023   1.065
12438TIP3    H137257   3.062   3.955   1.012
12438TIP3    H237258   3.127   4.091   1.002
12439TIP3   OH237259   2.803   1.559   1.695
12439TIP3    H137260   2.848   1.611   1.629
12439TIP3    H237261   2.866   1.492   1.721
12440TIP3   OH237262   8.282   0.192   5.999
12440TIP3    H137263   8.298   0.148   6.082
12440TIP3    H237264   8.369   0.199   5.958
12441TIP3   OH237265   0.822   5.809   3.277
12441TIP3    H137266   0.828   5.887   3.222
12441TIP3    H237267   0.824   5.736   3.216
12442TIP3   OH237268   2.972   5.669   1.435
12442TIP3    H137269   2.939   5.581   1.414
12442TIP3    H237270   2.913   5.700   1.504
12443TIP3   OH237271   3.881   0.277   4.424
12443TIP3    H137272   3.791   0.310   4.419
12443TIP3    H237273   3.920   0.302   4.340
12444TIP3   OH237274   6.655   4.343   2.878
12444TIP3    H137275   6.618   4.262   2.843
12444TIP3    H237276   6.604   4.361   2.957
12445TIP3   OH237277   6.627   6.425   5.289
12445TIP3    H137278   6.635   6.374   5.208
12445TIP3    H237279   6.533   6.429   5.306
12446TIP3   OH237280   6.379   4.098   6.028
12446TIP3    H137281   6.332   4.120   5.947
12446TIP3    H237282   6.459   4.056   5.998
12447TIP3   OH237283   5.339   4.891   2.616
12447TIP3    H137284   5.415   4.855   2.570
12447TIP3    H237285   5.306   4.818   2.668
12448TIP3   OH237286   4.145   0.857   2.333
12448TIP3    H137287   4.206   0.846   2.260
12448TIP3    H237288   4.066   0.812   2.306
12449TIP3   OH237289   7.617   3.186   0.573
12449TIP3    H137290   7.525   3.167   0.555
12449TIP3    H237291   7.664   3.113   0.532
12450TIP3   OH237292   6.738   4.147   3.118
12450TIP3    H137293   6.793   4.071   3.096
12450TIP3    H237294   6.772   4.218   3.064
12451TIP3   OH237295   1.944   4.488   1.452
12451TIP3    H137296   2.029   4.472   1.411
12451TIP3    H237297   1.957   4.568   1.502
12452TIP3   OH237298   4.322   7.451   3.116
12452TIP3    H137299   4.267   7.373   3.119
12452TIP3    H237300   4.276   7.517   3.168
12453TIP3   OH237301   8.228   5.574   1.931
12453TIP3    H137302   8.315   5.601   1.902
12453TIP3    H237303   8.179   5.561   1.851
12454TIP3   OH237304   3.997   4.203   4.631
12454TIP3    H137305   4.075   4.157   4.662
12454TIP3    H237306   3.940   4.135   4.596
12455TIP3   OH237307   1.925   5.394   4.783
12455TIP3    H137308   1.993   5.408   4.716
12455TIP3    H237309   1.943   5.459   4.850
12456TIP3   OH237310   2.549   1.961   3.482
12456TIP3    H137311   2.560   1.967   3.577
12456TIP3    H237312   2.469   1.910   3.470
12457TIP3   OH237313   7.759   0.712   0.670
12457TIP3    H137314   7.724   0.669   0.748
12457TIP3    H237315   7.711   0.674   0.597
12458TIP3   OH237316   0.805   7.653   3.332
12458TIP3    H137317   0.812   7.742   3.366
12458TIP3    H237318   0.730   7.656   3.272
12459TIP3   OH237319   7.012   0.119   2.204
12459TIP3    H137320   6.969   0.151   2.125
12459TIP3    H237321   7.083   0.063   2.172
12460TIP3   OH237322   0.913   0.313   6.183
12460TIP3    H137323   0.860   0.353   6.251
12460TIP3    H237324   0.921   0.381   6.116
12461TIP3   OH237325   6.063   2.085   6.487
12461TIP3    H137326   6.049   2.001   6.444
12461TIP3    H237327   6.155   2.083   6.514
12462TIP3   OH237328   3.431   3.861   4.655
12462TIP3    H137329   3.476   3.785   4.692
12462TIP3    H237330   3.394   3.906   4.731
12463TIP3   OH237331   1.610   0.759   2.071
12463TIP3    H137332   1.528   0.766   2.119
12463TIP3    H237333   1.673   0.807   2.126
12464TIP3   OH237334   1.416   2.409   1.844
12464TIP3    H137335   1.442   2.458   1.767
12464TIP3    H237336   1.488   2.347   1.859
12465TIP3   OH237337   5.051   1.801   6.204
12465TIP3    H137338   5.041   1.723   6.259
12465TIP3    H237339   5.078   1.870   6.265
12466TIP3   OH237340   4.577   4.356   3.367
12466TIP3    H137341   4.638   4.300   3.320
12466TIP3    H237342   4.493   4.311   3.361
12467TIP3   OH237343   6.416   5.612   3.875
12467TIP3    H137344   6.383   5.696   3.842
12467TIP3    H237345   6.495   5.596   3.824
12468TIP3   OH237346   0.723   6.503   4.723
12468TIP3    H137347   0.661   6.549   4.780
12468TIP3    H237348   0.680   6.420   4.704
12469TIP3   OH237349   6.974   6.301   1.501
12469TIP3    H137350   7.038   6.276   1.434
12469TIP3    H237351   6.895   6.252   1.479
12470TIP3   OH237352   7.680   2.154   3.168
12470TIP3    H137353   7.666   2.063   3.144
12470TIP3    H237354   7.652   2.204   3.091
12471TIP3   OH237355   6.995   4.577   6.749
12471TIP3    H137356   6.907   4.563   6.712
12471TIP3    H237357   7.054   4.560   6.676
12472TIP3   OH237358   7.096   1.513   5.452
12472TIP3    H137359   7.127   1.471   5.371
12472TIP3    H237360   7.134   1.601   5.449
12473TIP3   OH237361   4.076   4.730   1.277
12473TIP3    H137362   4.085   4.638   1.250
12473TIP3    H237363   4.162   4.753   1.311
12474TIP3   OH237364   4.459   5.951   3.614
12474TIP3    H137365   4.538   5.922   3.659
12474TIP3    H237366   4.438   5.880   3.553
12475TIP3   OH237367   6.704   2.416   0.110
12475TIP3    H137368   6.788   2.385   0.078
12475TIP3    H237369   6.677   2.351   0.175
12476TIP3   OH237370   0.491   1.272   5.103
12476TIP3    H137371   0.492   1.185   5.064
12476TIP3    H237372   0.422   1.318   5.057
12477TIP3   OH237373   4.183   1.707   3.959
12477TIP3    H137374   4.167   1.787   4.008
12477TIP3    H237375   4.243   1.656   4.013
12478TIP3   OH237376   0.147   6.044   6.668
12478TIP3    H137377   0.060   6.019   6.698
12478TIP3    H237378   0.132   6.106   6.597
12479TIP3   OH237379   0.727   1.162   2.649
12479TIP3    H137380   0.692   1.099   2.712
12479TIP3    H237381   0.726   1.115   2.565
12480TIP3   OH237382   4.257   0.998   2.999
12480TIP3    H137383   4.350   0.995   3.018
12480TIP3    H237384   4.216   0.951   3.072
12481TIP3   OH237385   2.658   0.028   0.128
12481TIP3    H137386   2.562   0.030   0.122
12481TIP3    H237387   2.688   0.032   0.037
12482TIP3   OH237388   1.865   2.423   5.401
12482TIP3    H137389   1.783   2.472   5.404
12482TIP3    H237390   1.838   2.333   5.385
12483TIP3   OH237391   1.665   5.619   5.533
12483TIP3    H137392   1.638   5.671   5.457
12483TIP3    H237393   1.759   5.634   5.540
12484TIP3   OH237394   7.240   3.758   3.012
12484TIP3    H137395   7.329   3.744   3.043
12484TIP3    H237396   7.226   3.689   2.947
12485TIP3   OH237397   3.034   5.253   6.563
12485TIP3    H137398   3.120   5.286   6.587
12485TIP3    H237399   3.015   5.294   6.478
12486TIP3   OH237400   0.126   7.640   2.044
12486TIP3    H137401   0.096   7.666   2.131
12486TIP3    H237402   0.093   7.707   1.986
12487TIP3   OH237403   5.844   4.727   4.227
12487TIP3    H137404   5.806   4.733   4.314
12487TIP3    H237405   5.796   4.791   4.175
12488TIP3   OH237406   0.636   1.170   3.960
12488TIP3    H137407   0.656   1.264   3.967
12488TIP3    H237408   0.552   1.167   3.915
12489TIP3   OH237409   8.032   1.801   4.513
12489TIP3    H137410   8.048   1.895   4.507
12489TIP3    H237411   8.085   1.773   4.588
12490TIP3   OH237412   4.906   3.263   1.931
12490TIP3    H137413   4.816   3.266   1.898
12490TIP3    H237414   4.916   3.174   1.964
12491TIP3   OH237415   0.699   2.189   6.201
12491TIP3    H137416   0.632   2.254   6.220
12491TIP3    H237417   0.713   2.196   6.106
12492TIP3   OH237418   1.940   3.906   5.736
12492TIP3    H137419   1.868   3.896   5.674
12492TIP3    H237420   2.009   3.950   5.685
12493TIP3   OH237421   1.662   7.277   1.607
12493TIP3    H137422   1.701   7.270   1.694
12493TIP3    H237423   1.650   7.371   1.594
12494TIP3   OH237424   0.667   7.157   5.105
12494TIP3    H137425   0.666   7.065   5.129
12494TIP3    H237426   0.759   7.183   5.111
12495TIP3   OH237427   5.393   7.507   5.795
12495TIP3    H137428   5.454   7.573   5.827
12495TIP3    H237429   5.449   7.436   5.764
12496TIP3   OH237430   6.606   7.639   3.558
12496TIP3    H137431   6.640   7.554   3.528
12496TIP3    H237432   6.560   7.618   3.639
12497TIP3   OH237433   0.093   3.763   3.081
12497TIP3    H137434   0.166   3.785   3.024
12497TIP3    H237435   0.111   3.673   3.110
12498TIP3   OH237436   5.974   5.432   4.260
12498TIP3    H137437   5.971   5.466   4.170
12498TIP3    H237438   6.057   5.464   4.295
12499TIP3   OH237439   0.790   5.483   1.823
12499TIP3    H137440   0.809   5.555   1.882
12499TIP3    H237441   0.695   5.488   1.809
12500TIP3   OH237442   5.941   7.612   3.367
12500TIP3    H137443   5.948   7.690   3.311
12500TIP3    H237444   5.994   7.634   3.444
12501TIP3   OH237445   0.445   0.895   2.212
12501TIP3    H137446   0.437   0.973   2.157
12501TIP3    H237447   0.356   0.859   2.215
12502TIP3   OH237448   3.677   5.845   2.928
12502TIP3    H137449   3.703   5.889   3.010
12502TIP3    H237450   3.583   5.862   2.921
12503TIP3   OH237451   3.353   0.638   1.741
12503TIP3    H137452   3.278   0.694   1.721
12503TIP3    H237453   3.370   0.651   1.834
12504TIP3   OH237454   1.736   3.322   2.768
12504TIP3    H137455   1.656   3.297   2.722
12504TIP3    H237456   1.718   3.409   2.804
12505TIP3   OH237457   6.719   3.202   0.020
12505TIP3    H137458   6.747   3.191  -0.071
12505TIP3    H237459   6.782   3.262   0.058
12506TIP3   OH237460   4.751   4.733   0.142
12506TIP3    H137461   4.668   4.727   0.190
12506TIP3    H237462   4.741   4.674   0.068
12507TIP3   OH237463   6.455   3.598   5.739
12507TIP3    H137464   6.443   3.690   5.763
12507TIP3    H237465   6.479   3.601   5.646
12508TIP3   OH237466   2.485   0.211   5.917
12508TIP3    H137467   2.568   0.173   5.889
12508TIP3    H237468   2.500   0.305   5.915
12509TIP3   OH237469   1.568   4.672   0.662
12509TIP3    H137470   1.574   4.718   0.578
12509TIP3    H237471   1.625   4.596   0.651
12510TIP3   OH237472   6.284   6.112   5.516
12510TIP3    H137473   6.253   6.023   5.525
12510TIP3    H237474   6.330   6.113   5.431
12511TIP3   OH237475   5.008   6.540   2.947
12511TIP3    H137476   5.008   6.619   3.001
12511TIP3    H237477   4.978   6.471   3.006
12512TIP3   OH237478   0.883   5.507   0.334
12512TIP3    H137479   0.801   5.477   0.294
12512TIP3    H237480   0.882   5.470   0.422
12513TIP3   OH237481   4.047   2.286   1.296
12513TIP3    H137482   4.056   2.245   1.210
12513TIP3    H237483   4.038   2.379   1.277
12514TIP3   OH237484   1.695   0.035   1.488
12514TIP3    H137485   1.664   0.069   1.404
12514TIP3    H237486   1.662   0.097   1.553
12515TIP3   OH237487   2.008   3.371   2.669
12515TIP3    H137488   2.067   3.355   2.743
12515TIP3    H237489   1.920   3.369   2.708
12516TIP3   OH237490   0.968   0.848   2.184
12516TIP3    H137491   0.966   0.776   2.122
12516TIP3    H237492   1.029   0.820   2.252
12517TIP3   OH237493   0.437   5.474   5.336
12517TIP3    H137494   0.376   5.516   5.398
12517TIP3    H237495   0.524   5.499   5.368
12518TIP3   OH237496   0.519   3.058   1.354
12518TIP3    H137497   0.597   3.032   1.403
12518TIP3    H237498   0.446   3.023   1.404
12519TIP3   OH237499   4.231   2.256   5.709
12519TIP3    H137500   4.323   2.260   5.684
12519TIP3    H237501   4.222   2.322   5.778
12520TIP3   OH237502   5.413   1.734   5.009
12520TIP3    H137503   5.408   1.817   5.057
12520TIP3    H237504   5.366   1.751   4.927
12521TIP3   OH237505   0.694   4.541   5.152
12521TIP3    H137506   0.716   4.451   5.128
12521TIP3    H237507   0.769   4.592   5.119
12522TIP3   OH237508   5.481   3.919   6.059
12522TIP3    H137509   5.418   3.889   5.993
12522TIP3    H237510   5.524   3.994   6.017
12523TIP3   OH237511   4.594   5.833   5.674
12523TIP3    H137512   4.500   5.845   5.662
12523TIP3    H237513   4.604   5.819   5.769
12524TIP3   OH237514   7.954   5.109   4.444
12524TIP3    H137515   8.012   5.055   4.389
12524TIP3    H237516   7.964   5.197   4.409
12525TIP3   OH237517   6.097   6.079   3.847
12525TIP3    H137518   6.090   6.083   3.751
12525TIP3    H237519   6.007   6.085   3.878
12526TIP3   OH237520   7.695   0.542   6.591
12526TIP3    H137521   7.723   0.485   6.663
12526TIP3    H237522   7.603   0.561   6.610
12527TIP3   OH237523   5.687   1.576   2.070
12527TIP3    H137524   5.737   1.494   2.073
12527TIP3    H237525   5.698   1.607   1.980
12528TIP3   OH237526   7.979   0.527   1.106
12528TIP3    H137527   7.957   0.620   1.116
12528TIP3    H237528   7.919   0.496   1.038
12529TIP3   OH237529   3.427   7.023   3.324
12529TIP3    H137530   3.414   6.929   3.334
12529TIP3    H237531   3.498   7.030   3.260
12530TIP3   OH237532   1.847   5.285   5.625
12530TIP3    H137533   1.820   5.198   5.653
12530TIP3    H237534   1.874   5.330   5.705
12531TIP3   OH237535   2.230   5.343   2.396
12531TIP3    H137536   2.199   5.327   2.307
12531TIP3    H237537   2.318   5.305   2.399
12532TIP3   OH237538   1.119   1.018   4.963
12532TIP3    H137539   1.068   0.978   4.892
12532TIP3    H237540   1.198   0.965   4.968
12533TIP3   OH237541   2.849   3.957   3.957
12533TIP3    H137542   2.869   3.977   4.048
12533TIP3    H237543   2.855   3.862   3.951
12534TIP3   OH237544   0.281   7.764   0.564
12534TIP3    H137545   0.370   7.795   0.581
12534TIP3    H237546   0.253   7.813   0.487
12535TIP3   OH237547   2.837   1.408   3.815
12535TIP3    H137548   2.805   1.478   3.872
12535TIP3    H237549   2.908   1.449   3.765
12536TIP3   OH237550   1.762   5.971   4.074
12536TIP3    H137551   1.851   5.945   4.053
12536TIP3    H237552   1.739   5.918   4.150
12537TIP3   OH237553   4.454   3.383   4.900
12537TIP3    H137554   4.440   3.444   4.972
12537TIP3    H237555   4.542   3.348   4.915
12538TIP3   OH237556   7.746   6.735   4.236
12538TIP3    H137557   7.714   6.814   4.194
12538TIP3    H237558   7.740   6.668   4.168
12539TIP3   OH237559   3.641   5.765   3.869
12539TIP3    H137560   3.726   5.758   3.913
12539TIP3    H237561   3.579   5.721   3.928
12540TIP3   OH237562   5.485   0.687   4.705
12540TIP3    H137563   5.488   0.592   4.715
12540TIP3    H237564   5.577   0.714   4.712
12541TIP3   OH237565   2.526   3.427   3.040
12541TIP3    H137566   2.534   3.410   2.947
12541TIP3    H237567   2.507   3.520   3.046
12542TIP3   OH237568   3.224   0.101   5.604
12542TIP3    H137569   3.311   0.073   5.575
12542TIP3    H237570   3.205   0.179   5.551
12543TIP3   OH237571   2.918   6.765   4.345
12543TIP3    H137572   2.826   6.740   4.355
12543TIP3    H237573   2.961   6.685   4.315
12544TIP3   OH237574   5.723   1.913   1.419
12544TIP3    H137575   5.793   1.899   1.355
12544TIP3    H237576   5.671   1.833   1.417
12545TIP3   OH237577   1.269   6.237   2.324
12545TIP3    H137578   1.305   6.149   2.312
12545TIP3    H237579   1.335   6.295   2.286
12546TIP3   OH237580   6.913   1.610   5.705
12546TIP3    H137581   6.830   1.586   5.665
12546TIP3    H237582   6.920   1.705   5.692
12547TIP3   OH237583   2.783   6.415   4.336
12547TIP3    H137584   2.713   6.415   4.270
12547TIP3    H237585   2.749   6.469   4.407
12548TIP3   OH237586   5.362   3.840   0.198
12548TIP3    H137587   5.361   3.935   0.185
12548TIP3    H237588   5.454   3.817   0.205
12549TIP3   OH237589   1.918   3.558   2.992
12549TIP3    H137590   2.014   3.556   2.997
12549TIP3    H237591   1.889   3.563   3.083
12550TIP3   OH237592   2.718   0.388   5.034
12550TIP3    H137593   2.765   0.363   4.955
12550TIP3    H237594   2.685   0.476   5.016
12551TIP3   OH237595   4.266   1.232   3.263
12551TIP3    H137596   4.337   1.177   3.297
12551TIP3    H237597   4.294   1.253   3.173
12552TIP3   OH237598   6.073   7.624   2.625
12552TIP3    H137599   6.089   7.686   2.554
12552TIP3    H237600   6.132   7.551   2.607
12553TIP3   OH237601   4.210   5.632   6.609
12553TIP3    H137602   4.249   5.705   6.562
12553TIP3    H237603   4.134   5.607   6.556
12554TIP3   OH237604   7.387   0.016   4.829
12554TIP3    H137605   7.482   0.020   4.838
12554TIP3    H237606   7.354   0.022   4.919
12555TIP3   OH237607   4.792   2.340   4.936
12555TIP3    H137608   4.879   2.354   4.897
12555TIP3    H237609   4.748   2.281   4.875
12556TIP3   OH237610   5.310   6.942   1.739
12556TIP3    H137611   5.240   6.885   1.706
12556TIP3    H237612   5.306   7.020   1.684
12557TIP3   OH237613   2.925   1.157   1.657
12557TIP3    H137614   2.870   1.144   1.579
12557TIP3    H237615   3.009   1.117   1.634
12558TIP3   OH237616   3.344   5.112   3.815
12558TIP3    H137617   3.400   5.048   3.771
12558TIP3    H237618   3.367   5.195   3.774
12559TIP3   OH237619   3.562   2.204   2.285
12559TIP3    H137620   3.502   2.139   2.248
12559TIP3    H237621   3.649   2.170   2.264
12560TIP3   OH237622   0.347   6.423   2.264
12560TIP3    H137623   0.383   6.372   2.337
12560TIP3    H237624   0.275   6.369   2.231
12561TIP3   OH237625   7.897   0.380   2.958
12561TIP3    H137626   7.860   0.295   2.979
12561TIP3    H237627   7.870   0.437   3.030
12562TIP3   OH237628   6.146   2.772   3.051
12562TIP3    H137629   6.054   2.763   3.027
12562TIP3    H237630   6.157   2.866   3.066
12563TIP3   OH237631   1.581   5.332   2.733
12563TIP3    H137632   1.490   5.318   2.760
12563TIP3    H237633   1.626   5.251   2.758
12564TIP3   OH237634   4.666   5.172   1.573
12564TIP3    H137635   4.691   5.231   1.643
12564TIP3    H237636   4.727   5.098   1.581
12565TIP3   OH237637   6.310   1.415   3.695
12565TIP3    H137638   6.312   1.480   3.764
12565TIP3    H237639   6.236   1.440   3.640
12566TIP3   OH237640   3.700   6.152   5.959
12566TIP3    H137641   3.774   6.117   5.910
12566TIP3    H237642   3.731   6.235   5.994
12567TIP3   OH237643   1.557   4.360   3.801
12567TIP3    H137644   1.630   4.315   3.844
12567TIP3    H237645   1.580   4.359   3.708
12568TIP3   OH237646   2.540   3.041   6.206
12568TIP3    H137647   2.515   2.955   6.172
12568TIP3    H237648   2.459   3.076   6.243
12569TIP3   OH237649   5.424   6.689   4.447
12569TIP3    H137650   5.454   6.599   4.448
12569TIP3    H237651   5.501   6.740   4.422
12570TIP3   OH237652   7.030   7.368   1.349
12570TIP3    H137653   7.126   7.373   1.355
12570TIP3    H237654   7.011   7.383   1.256
12571TIP3   OH237655   5.715   2.516   2.929
12571TIP3    H137656   5.656   2.486   2.999
12571TIP3    H237657   5.782   2.449   2.923
12572TIP3   OH237658   4.152   3.924   3.305
12572TIP3    H137659   4.212   3.999   3.304
12572TIP3    H237660   4.112   3.924   3.218
12573TIP3   OH237661   0.797   3.955   2.634
12573TIP3    H137662   0.876   4.008   2.646
12573TIP3    H237663   0.751   3.996   2.561
12574TIP3   OH237664   4.206   6.446   5.829
12574TIP3    H137665   4.301   6.435   5.838
12574TIP3    H237666   4.171   6.358   5.841
12575TIP3   OH237667   0.872   7.816   5.137
12575TIP3    H137668   0.799   7.846   5.083
12575TIP3    H237669   0.926   7.894   5.151
12576TIP3   OH237670   7.891   2.749   0.979
12576TIP3    H137671   7.849   2.829   1.011
12576TIP3    H237672   7.974   2.778   0.942
12577TIP3   OH237673   1.800   1.306   1.461
12577TIP3    H137674   1.843   1.391   1.466
12577TIP3    H237675   1.843   1.261   1.388
12578TIP3   OH237676   6.485   0.175   5.966
12578TIP3    H137677   6.541   0.141   6.035
12578TIP3    H237678   6.424   0.234   6.011
12579TIP3   OH237679   4.075   3.742   5.810
12579TIP3    H137680   4.017   3.813   5.838
12579TIP3    H237681   4.162   3.769   5.841
12580TIP3   OH237682   2.098   2.024   5.521
12580TIP3    H137683   2.146   2.106   5.536
12580TIP3    H237684   2.009   2.052   5.500
12581TIP3   OH237685   3.873   3.785   2.276
12581TIP3    H137686   3.921   3.748   2.350
12581TIP3    H237687   3.817   3.713   2.246
12582TIP3   OH237688   5.756   4.608   5.957
12582TIP3    H137689   5.727   4.669   6.025
12582TIP3    H237690   5.677   4.592   5.905
12583TIP3   OH237691   0.222   5.725   6.094
12583TIP3    H137692   0.199   5.739   6.186
12583TIP3    H237693   0.149   5.677   6.057
12584TIP3   OH237694   4.468   1.953   2.299
12584TIP3    H137695   4.542   1.893   2.309
12584TIP3    H237696   4.497   2.015   2.232
12585TIP3   OH237697   2.945   1.972   6.020
12585TIP3    H137698   2.941   1.877   6.030
12585TIP3    H237699   2.990   1.986   5.937
12586TIP3   OH237700   4.019   1.912   5.930
12586TIP3    H137701   4.087   1.862   5.974
12586TIP3    H237702   3.985   1.970   5.998
12587TIP3   OH237703   6.002   6.187   3.343
12587TIP3    H137704   6.095   6.169   3.351
12587TIP3    H237705   5.996   6.282   3.336
12588TIP3   OH237706   3.432   7.371   5.132
12588TIP3    H137707   3.379   7.333   5.062
12588TIP3    H237708   3.469   7.450   5.094
12589TIP3   OH237709   8.157   0.159   2.189
12589TIP3    H137710   8.222   0.097   2.155
12589TIP3    H237711   8.207   0.217   2.247
12590TIP3   OH237712   7.417   4.799   6.478
12590TIP3    H137713   7.467   4.742   6.420
12590TIP3    H237714   7.347   4.834   6.423
12591TIP3   OH237715   5.461   7.018   2.910
12591TIP3    H137716   5.412   7.096   2.885
12591TIP3    H237717   5.401   6.968   2.965
12592TIP3   OH237718   8.146   4.667   5.588
12592TIP3    H137719   8.128   4.618   5.668
12592TIP3    H237720   8.103   4.616   5.519
12593TIP3   OH237721   6.433   4.159   2.576
12593TIP3    H137722   6.419   4.069   2.545
12593TIP3    H237723   6.461   4.148   2.667
12594TIP3   OH237724   1.701   3.846   0.850
12594TIP3    H137725   1.772   3.782   0.853
12594TIP3    H237726   1.622   3.793   0.837
12595TIP3   OH237727   7.063   4.974   0.585
12595TIP3    H137728   7.148   4.995   0.547
12595TIP3    H237729   7.003   5.038   0.546
12596TIP3   OH237730   1.795   0.012   3.242
12596TIP3    H137731   1.741   0.085   3.213
12596TIP3    H237732   1.734  -0.049   3.283
12597TIP3   OH237733   3.067   1.956   6.669
12597TIP3    H137734   3.015   1.899   6.611
12597TIP3    H237735   3.143   1.903   6.693
12598TIP3   OH237736   0.222   1.138   5.451
12598TIP3    H137737   0.158   1.128   5.521
12598TIP3    H237738   0.208   1.062   5.395
12599TIP3   OH237739   0.406   6.537   4.527
12599TIP3    H137740   0.457   6.617   4.536
12599TIP3    H237741   0.466   6.474   4.488
12600TIP3   OH237742   0.474   6.296   3.607
12600TIP3    H137743   0.406   6.255   3.554
12600TIP3    H237744   0.491   6.233   3.677
12601TIP3   OH237745   0.460   1.027   4.985
12601TIP3    H137746   0.554   1.014   4.977
12601TIP3    H237747   0.424   0.939   4.997
12602TIP3   OH237748   5.058   7.452   1.632
12602TIP3    H137749   4.988   7.493   1.683
12602TIP3    H237750   5.037   7.474   1.541
12603TIP3   OH237751   0.776   3.346   3.964
12603TIP3    H137752   0.731   3.267   3.994
12603TIP3    H237753   0.727   3.373   3.887
12604TIP3   OH237754   8.146   3.279   2.579
12604TIP3    H137755   8.135   3.371   2.554
12604TIP3    H237756   8.095   3.270   2.659
12605TIP3   OH237757   2.953   4.847   2.629
12605TIP3    H137758   3.001   4.854   2.546
12605TIP3    H237759   2.861   4.838   2.603
12606TIP3   OH237760   6.611   4.756   2.175
12606TIP3    H137761   6.552   4.719   2.241
12606TIP3    H237762   6.692   4.772   2.223
12607TIP3   OH237763   6.897   7.010   1.651
12607TIP3    H137764   6.844   7.058   1.715
12607TIP3    H237765   6.840   6.938   1.623
12608TIP3   OH237766   6.782   4.829   1.450
12608TIP3    H137767   6.831   4.870   1.378
12608TIP3    H237768   6.778   4.897   1.517
12609TIP3   OH237769   5.525   1.385   2.903
12609TIP3    H137770   5.446   1.332   2.900
12609TIP3    H237771   5.569   1.366   2.820
12610TIP3   OH237772   5.455   1.335   5.399
12610TIP3    H137773   5.525   1.394   5.372
12610TIP3    H237774   5.397   1.330   5.323
12611TIP3   OH237775   3.061   5.667   4.080
12611TIP3    H137776   3.017   5.597   4.031
12611TIP3    H237777   2.998   5.739   4.081
12612TIP3   OH237778   4.404   6.013   0.280
12612TIP3    H137779   4.385   6.099   0.318
12612TIP3    H237780   4.388   5.951   0.351
12613TIP3   OH237781   5.293   4.583   3.280
12613TIP3    H137782   5.318   4.497   3.245
12613TIP3    H237783   5.198   4.587   3.267
12614TIP3   OH237784   4.986   1.255   0.947
12614TIP3    H137785   4.992   1.160   0.945
12614TIP3    H237786   4.923   1.277   0.878
12615TIP3   OH237787   4.719   5.779   6.300
12615TIP3    H137788   4.713   5.757   6.207
12615TIP3    H237789   4.755   5.700   6.341
12616TIP3   OH237790   4.988   4.070   5.009
12616TIP3    H137791   5.045   4.108   4.942
12616TIP3    H237792   5.038   3.997   5.045
12617TIP3   OH237793   2.684   2.465   5.607
12617TIP3    H137794   2.618   2.529   5.582
12617TIP3    H237795   2.657   2.384   5.563
12618TIP3   OH237796   4.194   4.418   2.254
12618TIP3    H137797   4.117   4.397   2.200
12618TIP3    H237798   4.268   4.380   2.207
12619TIP3   OH237799   5.397   3.691   2.257
12619TIP3    H137800   5.480   3.644   2.265
12619TIP3    H237801   5.335   3.639   2.308
12620TIP3   OH237802   5.213   7.763   1.801
12620TIP3    H137803   5.153   7.794   1.733
12620TIP3    H237804   5.194   7.817   1.877
12621TIP3   OH237805   7.888   3.635   4.710
12621TIP3    H137806   7.903   3.683   4.792
12621TIP3    H237807   7.862   3.548   4.738
12622TIP3   OH237808   1.032   4.245   5.885
12622TIP3    H137809   1.001   4.158   5.910
12622TIP3    H237810   0.952   4.298   5.880
12623TIP3   OH237811   6.149   1.719   0.410
12623TIP3    H137812   6.244   1.711   0.412
12623TIP3    H237813   6.119   1.677   0.490
12624TIP3   OH237814   2.972   6.366   2.996
12624TIP3    H137815   2.932   6.431   3.055
12624TIP3    H237816   2.912   6.291   2.999
12625TIP3   OH237817   3.954   4.167   3.699
12625TIP3    H137818   4.023   4.229   3.675
12625TIP3    H237819   3.977   4.086   3.653
12626TIP3   OH237820   6.647   5.967   6.442
12626TIP3    H137821   6.599   6.040   6.402
12626TIP3    H237822   6.604   5.954   6.526
12627TIP3   OH237823   2.071   3.393   5.486
12627TIP3    H137824   2.062   3.488   5.484
12627TIP3    H237825   2.141   3.374   5.422
12628TIP3   OH237826   5.456   4.964   1.956
12628TIP3    H137827   5.370   4.929   1.932
12628TIP3    H237828   5.518   4.897   1.928
12629TIP3   OH237829   6.803   5.811   3.998
12629TIP3    H137830   6.786   5.761   4.078
12629TIP3    H237831   6.824   5.744   3.933
12630TIP3   OH237832   0.252   3.099   2.405
12630TIP3    H137833   0.180   3.120   2.345
12630TIP3    H237834   0.219   3.026   2.457
12631TIP3   OH237835   0.338   3.445   2.422
12631TIP3    H137836   0.402   3.382   2.391
12631TIP3    H237837   0.259   3.427   2.370
12632TIP3   OH237838   6.603   7.338   0.226
12632TIP3    H137839   6.661   7.409   0.199
12632TIP3    H237840   6.546   7.323   0.151
12633TIP3   OH237841   2.224   5.632   0.057
12633TIP3    H137842   2.297   5.663   0.110
12633TIP3    H237843   2.265   5.587  -0.016
12634TIP3   OH237844   2.810   2.522   5.841
12634TIP3    H137845   2.769   2.507   5.756
12634TIP3    H237846   2.854   2.606   5.832
12635TIP3   OH237847   5.034   6.172   4.771
12635TIP3    H137848   4.942   6.149   4.785
12635TIP3    H237849   5.034   6.268   4.767
12636TIP3   OH237850   0.217   5.504   0.801
12636TIP3    H137851   0.225   5.555   0.720
12636TIP3    H237852   0.136   5.536   0.841
12637TIP3   OH237853   8.175   0.187   1.352
12637TIP3    H137854   8.254   0.134   1.351
12637TIP3    H237855   8.159   0.206   1.444
12638TIP3   OH237856   4.138   6.665   2.083
12638TIP3    H137857   4.195   6.726   2.036
12638TIP3    H237858   4.120   6.708   2.166
12639TIP3   OH237859   0.474   5.761   2.428
12639TIP3    H137860   0.408   5.825   2.452
12639TIP3    H237861   0.558   5.802   2.451
12640TIP3   OH237862   5.311   0.935   4.714
12640TIP3    H137863   5.347   0.848   4.733
12640TIP3    H237864   5.386   0.987   4.685
12641TIP3   OH237865   0.003   1.260   0.274
12641TIP3    H137866   0.052   1.213   0.341
12641TIP3    H237867   0.051   1.243   0.193
12642TIP3   OH237868   7.502   6.425   4.923
12642TIP3    H137869   7.584   6.382   4.946
12642TIP3    H237870   7.527   6.492   4.859
12643TIP3   OH237871   2.928   2.892   0.126
12643TIP3    H137872   2.888   2.905   0.040
12643TIP3    H237873   2.939   2.980   0.161
12644TIP3   OH237874   4.879   6.593   4.964
12644TIP3    H137875   4.868   6.609   4.870
12644TIP3    H237876   4.826   6.515   4.981
12645TIP3   OH237877   6.077   3.648   5.933
12645TIP3    H137878   6.000   3.605   5.970
12645TIP3    H237879   6.043   3.697   5.858
12646TIP3   OH237880   1.587   1.331   0.215
12646TIP3    H137881   1.524   1.402   0.228
12646TIP3    H237882   1.619   1.344   0.125
12647TIP3   OH237883   5.050   5.797   6.065
12647TIP3    H137884   5.010   5.875   6.103
12647TIP3    H237885   5.140   5.797   6.097
12648TIP3   OH237886   6.738   5.997   5.443
12648TIP3    H137887   6.716   5.937   5.514
12648TIP3    H237888   6.762   6.079   5.488
12649TIP3   OH237889   7.771   3.075   3.492
12649TIP3    H137890   7.694   3.019   3.497
12649TIP3    H237891   7.737   3.164   3.504
12650TIP3   OH237892   2.979   1.759   1.771
12650TIP3    H137893   2.977   1.732   1.679
12650TIP3    H237894   3.071   1.751   1.796
12651TIP3   OH237895   6.846   0.025   4.823
12651TIP3    H137896   6.863   0.116   4.849
12651TIP3    H237897   6.918   0.003   4.764
12652TIP3   OH237898   3.840   0.386   3.960
12652TIP3    H137899   3.840   0.322   3.888
12652TIP3    H237900   3.822   0.469   3.917
12653TIP3   OH237901   7.643   5.785   3.724
12653TIP3    H137902   7.615   5.845   3.792
12653TIP3    H237903   7.693   5.717   3.770
12654TIP3   OH237904   4.935   4.755   1.357
12654TIP3    H137905   4.983   4.706   1.423
12654TIP3    H237906   4.965   4.845   1.368
12655TIP3   OH237907   7.961   3.878   5.165
12655TIP3    H137908   7.866   3.882   5.176
12655TIP3    H237909   7.974   3.836   5.081
12656TIP3   OH237910   7.169   5.156   3.234
12656TIP3    H137911   7.097   5.166   3.297
12656TIP3    H237912   7.211   5.242   3.233
12657TIP3   OH237913   0.198   0.531   0.637
12657TIP3    H137914   0.167   0.487   0.717
12657TIP3    H237915   0.160   0.479   0.566
12658TIP3   OH237916   7.898   6.842   3.837
12658TIP3    H137917   7.907   6.752   3.803
12658TIP3    H237918   7.966   6.849   3.903
12659TIP3   OH237919   7.743   0.647   1.370
12659TIP3    H137920   7.660   0.632   1.323
12659TIP3    H237921   7.749   0.742   1.377
12660TIP3   OH237922   5.090   1.637   5.912
12660TIP3    H137923   5.054   1.675   5.992
12660TIP3    H237924   5.168   1.590   5.941
12661TIP3   OH237925   8.218   3.696   2.679
12661TIP3    H137926   8.210   3.791   2.666
12661TIP3    H237927   8.190   3.682   2.770
12662TIP3   OH237928   5.091   0.251   0.956
12662TIP3    H137929   5.162   0.191   0.930
12662TIP3    H237930   5.056   0.212   1.036
12663TIP3   OH237931   3.407   6.231   4.632
12663TIP3    H137932   3.401   6.221   4.727
12663TIP3    H237933   3.323   6.272   4.607
12664TIP3   OH237934   7.173   3.799   3.274
12664TIP3    H137935   7.194   3.806   3.181
12664TIP3    H237936   7.086   3.759   3.276
12665TIP3   OH237937   2.822   2.864   5.893
12665TIP3    H137938   2.730   2.847   5.872
12665TIP3    H237939   2.868   2.853   5.810
12666TIP3   OH237940   4.171   5.861   6.091
12666TIP3    H137941   4.262   5.888   6.076
12666TIP3    H237942   4.141   5.920   6.160
12667TIP3   OH237943   5.406   4.771   3.109
12667TIP3    H137944   5.406   4.856   3.153
12667TIP3    H237945   5.363   4.712   3.171
12668TIP3   OH237946   5.323   5.379   5.063
12668TIP3    H137947   5.328   5.330   5.145
12668TIP3    H237948   5.246   5.344   5.018
12669TIP3   OH237949   6.458   5.994   3.256
12669TIP3    H137950   6.406   6.061   3.302
12669TIP3    H237951   6.542   6.037   3.240
12670TIP3   OH237952   8.116   0.955   2.206
12670TIP3    H137953   8.063   0.895   2.258
12670TIP3    H237954   8.109   0.922   2.117
12671TIP3   OH237955   3.276   3.124   0.285
12671TIP3    H137956   3.309   3.099   0.199
12671TIP3    H237957   3.280   3.220   0.286
12672TIP3   OH237958   1.879   1.519   2.417
12672TIP3    H137959   1.798   1.473   2.397
12672TIP3    H237960   1.945   1.475   2.363
12673TIP3   OH237961   8.105   7.731   4.134
12673TIP3    H137962   8.142   7.787   4.065
12673TIP3    H237963   8.178   7.717   4.194
12674TIP3   OH237964   4.585   4.932   3.339
12674TIP3    H137965   4.520   4.984   3.291
12674TIP3    H237966   4.562   4.841   3.319
12675TIP3   OH237967   6.732   5.644   0.520
12675TIP3    H137968   6.774   5.654   0.435
12675TIP3    H237969   6.782   5.701   0.578
12676TIP3   OH237970   6.535   4.042   4.603
12676TIP3    H137971   6.541   4.128   4.560
12676TIP3    H237972   6.559   3.979   4.535
12677TIP3   OH237973   3.333   6.848   4.762
12677TIP3    H137974   3.348   6.860   4.856
12677TIP3    H237975   3.411   6.885   4.720
12678TIP3   OH237976   6.214   7.390   2.178
12678TIP3    H137977   6.285   7.356   2.125
12678TIP3    H237978   6.237   7.366   2.268
12679TIP3   OH237979   1.717   7.473   4.413
12679TIP3    H137980   1.715   7.550   4.356
12679TIP3    H237981   1.635   7.427   4.394
12680TIP3   OH237982   0.006   2.245   1.387
12680TIP3    H137983   0.078   2.188   1.358
12680TIP3    H237984  -0.064   2.185   1.412
12681TIP3   OH237985   5.855   3.034   1.827
12681TIP3    H137986   5.801   3.112   1.843
12681TIP3    H237987   5.892   3.048   1.740
12682TIP3   OH237988   5.478   4.638   4.137
12682TIP3    H137989   5.503   4.681   4.056
12682TIP3    H237990   5.420   4.567   4.110
12683TIP3   OH237991   4.284   6.499   6.084
12683TIP3    H137992   4.220   6.517   6.015
12683TIP3    H237993   4.337   6.579   6.090
12684TIP3   OH237994   4.567   5.429   0.547
12684TIP3    H137995   4.518   5.511   0.542
12684TIP3    H237996   4.525   5.372   0.483
12685TIP3   OH237997   2.074   4.613   6.589
12685TIP3    H137998   2.156   4.612   6.637
12685TIP3    H237999   2.023   4.684   6.630
12686TIP3   OH238000   7.269   2.726   5.271
12686TIP3    H138001   7.355   2.758   5.244
12686TIP3    H238002   7.213   2.804   5.272
12687TIP3   OH238003   0.187   1.454   1.573
12687TIP3    H138004   0.195   1.503   1.492
12687TIP3    H238005   0.124   1.384   1.553
12688TIP3   OH238006   6.289   6.648   4.286
12688TIP3    H138007   6.345   6.724   4.303
12688TIP3    H238008   6.278   6.648   4.191
12689TIP3   OH238009   3.814   1.678   2.969
12689TIP3    H138010   3.743   1.678   3.033
12689TIP3    H238011   3.823   1.586   2.942
12690TIP3   OH238012   5.027   5.633   6.659
12690TIP3    H138013   5.039   5.564   6.594
12690TIP3    H238014   5.068   5.710   6.620
12691TIP3   OH238015   6.477   0.759   3.508
12691TIP3    H138016   6.434   0.753   3.593
12691TIP3    H238017   6.556   0.811   3.525
12692TIP3   OH238018   6.823   0.921   4.977
12692TIP3    H138019   6.838   0.912   5.071
12692TIP3    H238020   6.900   0.880   4.937
12693TIP3   OH238021   3.891   7.771   3.638
12693TIP3    H138022   3.882   7.773   3.733
12693TIP3    H238023   3.801   7.772   3.605
12694TIP3   OH238024   5.906   6.271   0.272
12694TIP3    H138025   5.953   6.200   0.227
12694TIP3    H238026   5.814   6.251   0.255
12695TIP3   OH238027   1.354   6.878   4.904
12695TIP3    H138028   1.305   6.836   4.834
12695TIP3    H238029   1.287   6.920   4.959
12696TIP3   OH238030   8.145   3.675   2.956
12696TIP3    H138031   8.115   3.605   3.014
12696TIP3    H238032   8.238   3.685   2.977
12697TIP3   OH238033   7.589   7.079   2.386
12697TIP3    H138034   7.522   7.017   2.414
12697TIP3    H238035   7.606   7.057   2.294
12698TIP3   OH238036   4.132   0.538   5.747
12698TIP3    H138037   4.100   0.515   5.834
12698TIP3    H238038   4.114   0.461   5.694
12699TIP3   OH238039   3.191   1.324   2.523
12699TIP3    H138040   3.114   1.336   2.468
12699TIP3    H238041   3.169   1.368   2.605
12700TIP3   OH238042   1.552   6.961   6.624
12700TIP3    H138043   1.635   6.996   6.659
12700TIP3    H238044   1.564   6.866   6.625
12701TIP3   OH238045   3.467   2.946   6.115
12701TIP3    H138046   3.483   2.935   6.021
12701TIP3    H238047   3.425   2.864   6.142
12702TIP3   OH238048   7.518   3.122   4.721
12702TIP3    H138049   7.453   3.067   4.678
12702TIP3    H238050   7.558   3.172   4.651
12703TIP3   OH238051   1.318   4.441   2.020
12703TIP3    H138052   1.311   4.369   1.957
12703TIP3    H238053   1.412   4.450   2.037
12704TIP3   OH238054   2.045   4.722   1.285
12704TIP3    H138055   2.035   4.815   1.263
12704TIP3    H238056   2.088   4.723   1.371
12705TIP3   OH238057   8.168   6.524   1.411
12705TIP3    H138058   8.076   6.531   1.387
12705TIP3    H238059   8.181   6.591   1.478
12706TIP3   OH238060   4.802   4.705   6.605
12706TIP3    H138061   4.739   4.724   6.536
12706TIP3    H238062   4.767   4.748   6.683
12707TIP3   OH238063   4.382   3.757   3.644
12707TIP3    H138064   4.316   3.727   3.582
12707TIP3    H238065   4.355   3.847   3.666
12708TIP3   OH238066   7.268   1.085   4.168
12708TIP3    H138067   7.320   1.069   4.247
12708TIP3    H238068   7.199   1.020   4.172
12709TIP3   OH238069   5.454   2.483   2.299
12709TIP3    H138070   5.422   2.468   2.388
12709TIP3    H238071   5.548   2.469   2.304
12710TIP3   OH238072   1.762   0.487   2.186
12710TIP3    H138073   1.785   0.520   2.099
12710TIP3    H238074   1.800   0.550   2.247
12711TIP3   OH238075   2.652   3.791   2.826
12711TIP3    H138076   2.649   3.744   2.910
12711TIP3    H238077   2.572   3.765   2.781
12712TIP3   OH238078   5.835   6.584   1.980
12712TIP3    H138079   5.779   6.653   1.944
12712TIP3    H238080   5.778   6.537   2.042
12713TIP3   OH238081   3.581   6.734   0.101
12713TIP3    H138082   3.639   6.662   0.126
12713TIP3    H238083   3.591   6.743   0.006
12714TIP3   OH238084   2.232   3.117   0.821
12714TIP3    H138085   2.275   3.052   0.876
12714TIP3    H238086   2.275   3.200   0.844
12715TIP3   OH238087   6.251   2.707   6.246
12715TIP3    H138088   6.299   2.632   6.211
12715TIP3    H238089   6.308   2.782   6.229
12716TIP3   OH238090   3.973   3.213   0.059
12716TIP3    H138091   3.881   3.193   0.076
12716TIP3    H238092   3.972   3.301   0.022
12717TIP3   OH238093   2.856   7.633   2.642
12717TIP3    H138094   2.765   7.614   2.666
12717TIP3    H238095   2.893   7.548   2.620
12718TIP3   OH238096   5.593   5.214   1.558
12718TIP3    H138097   5.594   5.206   1.653
12718TIP3    H238098   5.549   5.135   1.527
12719TIP3   OH238099   4.951   1.990   5.225
12719TIP3    H138100   5.016   1.940   5.276
12719TIP3    H238101   4.878   2.003   5.286
12720TIP3   OH238102   6.225   3.218   0.730
12720TIP3    H138103   6.160   3.201   0.662
12720TIP3    H238104   6.238   3.133   0.773
12721TIP3   OH238105   5.013   2.094   3.653
12721TIP3    H138106   5.094   2.135   3.682
12721TIP3    H238107   5.040   2.007   3.622
12722TIP3   OH238108   7.952   4.024   1.143
12722TIP3    H138109   7.967   4.053   1.052
12722TIP3    H238110   7.966   3.930   1.140
12723TIP3   OH238111   4.009   1.483   5.120
12723TIP3    H138112   3.950   1.439   5.059
12723TIP3    H238113   3.984   1.449   5.206
12724TIP3   OH238114   3.623   2.392   4.624
12724TIP3    H138115   3.683   2.369   4.695
12724TIP3    H238116   3.669   2.460   4.575
12725TIP3   OH238117   1.590   0.485   2.994
12725TIP3    H138118   1.538   0.410   2.965
12725TIP3    H238119   1.671   0.479   2.944
12726TIP3   OH238120   5.396   4.388   4.278
12726TIP3    H138121   5.476   4.422   4.319
12726TIP3    H238122   5.411   4.396   4.184
12727TIP3   OH238123   1.645   5.728   4.932
12727TIP3    H138124   1.719   5.786   4.947
12727TIP3    H238125   1.668   5.679   4.853
12728TIP3   OH238126   5.784   6.261   2.375
12728TIP3    H138127   5.707   6.300   2.333
12728TIP3    H238128   5.757   6.173   2.399
12729TIP3   OH238129   8.216   4.861   3.490
12729TIP3    H138130   8.311   4.871   3.491
12729TIP3    H238131   8.201   4.775   3.449
12730TIP3   OH238132   6.674   2.919   1.570
12730TIP3    H138133   6.676   2.824   1.565
12730TIP3    H238134   6.758   2.947   1.534
12731TIP3   OH238135   7.225   3.365   5.088
12731TIP3    H138136   7.290   3.342   5.022
12731TIP3    H238137   7.261   3.442   5.132
12732TIP3   OH238138   2.088   3.582   0.620
12732TIP3    H138139   2.146   3.580   0.544
12732TIP3    H238140   2.132   3.527   0.685
12733TIP3   OH238141   6.485   3.128   5.063
12733TIP3    H138142   6.512   3.219   5.076
12733TIP3    H238143   6.468   3.122   4.969
12734TIP3   OH238144   2.006   2.155   2.441
12734TIP3    H138145   1.947   2.113   2.503
12734TIP3    H238146   2.089   2.109   2.451
12735TIP3   OH238147   4.448   2.125   0.262
12735TIP3    H138148   4.473   2.204   0.310
12735TIP3    H238149   4.383   2.155   0.199
12736TIP3   OH238150   5.343   4.706   0.349
12736TIP3    H138151   5.379   4.729   0.435
12736TIP3    H238152   5.417   4.666   0.303
12737TIP3   OH238153   7.262   1.688   2.233
12737TIP3    H138154   7.189   1.703   2.173
12737TIP3    H238155   7.332   1.743   2.198
12738TIP3   OH238156   1.104   4.950   1.470
12738TIP3    H138157   1.037   5.006   1.430
12738TIP3    H238158   1.127   4.888   1.401
12739TIP3   OH238159   6.602   3.968   3.293
12739TIP3    H138160   6.625   4.034   3.229
12739TIP3    H238161   6.685   3.935   3.325
12740TIP3   OH238162   8.212   2.464   0.586
12740TIP3    H138163   8.132   2.504   0.619
12740TIP3    H238164   8.183   2.380   0.551
12741TIP3   OH238165   3.044   7.745   1.851
12741TIP3    H138166   3.021   7.811   1.787
12741TIP3    H238167   3.106   7.687   1.805
12742TIP3   OH238168   4.581   7.441   6.047
12742TIP3    H138169   4.509   7.494   6.012
12742TIP3    H238170   4.638   7.424   5.972
12743TIP3   OH238171   3.215   4.036   3.497
12743TIP3    H138172   3.285   4.034   3.562
12743TIP3    H238173   3.252   4.085   3.423
12744TIP3   OH238174   1.725   4.161   6.193
12744TIP3    H138175   1.812   4.164   6.153
12744TIP3    H238176   1.667   4.199   6.128
12745TIP3   OH238177   3.146   4.379   0.019
12745TIP3    H138178   3.103   4.295   0.004
12745TIP3    H238179   3.106   4.413   0.099
12746TIP3   OH238180   2.172   4.341   5.502
12746TIP3    H138181   2.203   4.315   5.589
12746TIP3    H238182   2.225   4.418   5.481
12747TIP3   OH238183   1.266   0.896   5.237
12747TIP3    H138184   1.314   0.859   5.311
12747TIP3    H238185   1.205   0.958   5.276
12748TIP3   OH238186   5.230   5.370   1.536
12748TIP3    H138187   5.157   5.352   1.595
12748TIP3    H238188   5.307   5.337   1.582
12749TIP3   OH238189   7.011   0.499   1.511
12749TIP3    H138190   6.926   0.466   1.482
12749TIP3    H238191   7.059   0.514   1.430
12750TIP3   OH238192   4.808   6.358   1.959
12750TIP3    H138193   4.814   6.438   1.907
12750TIP3    H238194   4.714   6.341   1.966
12751TIP3   OH238195   0.631   3.501   6.691
12751TIP3    H138196   0.676   3.552   6.759
12751TIP3    H238197   0.564   3.561   6.658
12752TIP3   OH238198   1.329   4.253   4.698
12752TIP3    H138199   1.342   4.346   4.715
12752TIP3    H238200   1.417   4.219   4.681
12753TIP3   OH238201   8.167   1.010   0.176
12753TIP3    H138202   8.124   0.941   0.227
12753TIP3    H238203   8.144   1.091   0.221
12754TIP3   OH238204   5.685   6.832   0.279
12754TIP3    H138205   5.747   6.825   0.351
12754TIP3    H238206   5.599   6.831   0.321
12755TIP3   OH238207   0.136   2.211   2.028
12755TIP3    H138208   0.067   2.143   2.031
12755TIP3    H238209   0.097   2.286   2.073
12756TIP3   OH238210   7.379   6.031   4.687
12756TIP3    H138211   7.457   6.086   4.688
12756TIP3    H238212   7.392   5.969   4.759
12757TIP3   OH238213   1.349   0.502   4.999
12757TIP3    H138214   1.442   0.513   5.020
12757TIP3    H238215   1.347   0.490   4.904
12758TIP3   OH238216   4.486   5.197   1.840
12758TIP3    H138217   4.527   5.111   1.841
12758TIP3    H238218   4.554   5.256   1.809
12759TIP3   OH238219   1.258   7.231   2.997
12759TIP3    H138220   1.263   7.187   3.082
12759TIP3    H238221   1.278   7.322   3.015
12760TIP3   OH238222   1.427   5.598   1.800
12760TIP3    H138223   1.446   5.691   1.810
12760TIP3    H238224   1.499   5.554   1.846
12761TIP3   OH238225   0.026   6.279   0.524
12761TIP3    H138226  -0.009   6.299   0.437
12761TIP3    H238227   0.082   6.354   0.544
12762TIP3   OH238228   7.207   2.987   0.166
12762TIP3    H138229   7.203   3.047   0.240
12762TIP3    H238230   7.228   3.043   0.091
12763TIP3   OH238231   6.299   3.617   4.442
12763TIP3    H138232   6.289   3.548   4.376
12763TIP3    H238233   6.210   3.632   4.474
12764TIP3   OH238234   1.925   0.750   4.979
12764TIP3    H138235   1.884   0.772   5.062
12764TIP3    H238236   1.969   0.831   4.952
12765TIP3   OH238237   7.926   0.883   0.557
12765TIP3    H138238   7.868   0.843   0.622
12765TIP3    H238239   7.991   0.815   0.539
12766TIP3   OH238240   3.431   5.712   1.090
12766TIP3    H138241   3.369   5.641   1.104
12766TIP3    H238242   3.383   5.791   1.114
12767TIP3   OH238243   7.431   7.706   6.143
12767TIP3    H138244   7.343   7.741   6.128
12767TIP3    H238245   7.416   7.615   6.170
12768TIP3   OH238246   1.586   4.870   5.745
12768TIP3    H138247   1.497   4.860   5.779
12768TIP3    H238248   1.638   4.898   5.820
12769TIP3   OH238249   5.469   1.881   3.851
12769TIP3    H138250   5.439   1.972   3.860
12769TIP3    H238251   5.518   1.880   3.769
12770TIP3   OH238252   2.226   7.246   5.062
12770TIP3    H138253   2.182   7.161   5.066
12770TIP3    H238254   2.284   7.239   4.987
12771TIP3   OH238255   1.593   3.940   4.887
12771TIP3    H138256   1.670   3.997   4.887
12771TIP3    H238257   1.554   3.953   4.973
12772TIP3   OH238258   6.284   3.142   4.802
12772TIP3    H138259   6.285   3.052   4.771
12772TIP3    H238260   6.259   3.194   4.725
12773TIP3   OH238261   1.829   4.652   0.345
12773TIP3    H138262   1.781   4.572   0.367
12773TIP3    H238263   1.846   4.645   0.251
12774TIP3   OH238264   5.503   6.202   0.893
12774TIP3    H138265   5.448   6.160   0.959
12774TIP3    H238266   5.532   6.284   0.933
12775TIP3   OH238267   4.948   1.525   5.446
12775TIP3    H138268   4.933   1.470   5.522
12775TIP3    H238269   4.894   1.485   5.377
12776TIP3   OH238270   0.769   7.550   1.018
12776TIP3    H138271   0.682   7.589   1.024
12776TIP3    H238272   0.763   7.490   0.943
12777TIP3   OH238273   2.685   5.126   0.861
12777TIP3    H138274   2.640   5.083   0.934
12777TIP3    H238275   2.633   5.103   0.784
12778TIP3   OH238276   7.614   0.183   3.388
12778TIP3    H138277   7.551   0.199   3.317
12778TIP3    H238278   7.695   0.226   3.358
12779TIP3   OH238279   2.187   5.562   6.422
12779TIP3    H138280   2.255   5.545   6.356
12779TIP3    H238281   2.198   5.655   6.445
12780TIP3   OH238282   5.864   5.531   2.437
12780TIP3    H138283   5.945   5.485   2.458
12780TIP3    H238284   5.799   5.462   2.422
12781TIP3   OH238285   3.654   4.354   6.156
12781TIP3    H138286   3.702   4.400   6.088
12781TIP3    H238287   3.625   4.422   6.217
12782TIP3   OH238288   4.687   2.988   0.001
12782TIP3    H138289   4.690   3.069   0.052
12782TIP3    H238290   4.727   2.922   0.058
12783TIP3   OH238291   0.334   1.671   6.440
12783TIP3    H138292   0.346   1.662   6.534
12783TIP3    H238293   0.421   1.660   6.403
12784TIP3   OH238294   6.556   0.025   5.266
12784TIP3    H138295   6.550   0.016   5.171
12784TIP3    H238296   6.520   0.111   5.285
12785TIP3   OH238297   4.629   6.853   3.614
12785TIP3    H138298   4.543   6.831   3.651
12785TIP3    H238299   4.679   6.886   3.688
12786TIP3   OH238300   1.044   0.509   2.809
12786TIP3    H138301   1.060   0.536   2.900
12786TIP3    H238302   1.044   0.592   2.760
12787TIP3   OH238303   4.511   6.617   1.765
12787TIP3    H138304   4.470   6.532   1.750
12787TIP3    H238305   4.543   6.644   1.679
12788TIP3   OH238306   4.985   7.494   1.326
12788TIP3    H138307   4.974   7.589   1.325
12788TIP3    H238308   5.066   7.479   1.278
12789TIP3   OH238309   2.809   0.792   0.272
12789TIP3    H138310   2.843   0.843   0.345
12789TIP3    H238311   2.721   0.767   0.298
12790TIP3   OH238312   3.700   0.926   3.937
12790TIP3    H138313   3.625   0.925   3.877
12790TIP3    H238314   3.668   0.973   4.014
12791TIP3   OH238315   4.720   7.454   1.390
12791TIP3    H138316   4.687   7.402   1.316
12791TIP3    H238317   4.814   7.436   1.391
12792TIP3   OH238318   2.411   2.838   0.806
12792TIP3    H138319   2.348   2.791   0.860
12792TIP3    H238320   2.438   2.913   0.859
12793TIP3   OH238321   2.122   0.031   3.915
12793TIP3    H138322   2.110   0.124   3.936
12793TIP3    H238323   2.078   0.019   3.832
12794TIP3   OH238324   2.948   2.820   3.947
12794TIP3    H138325   2.923   2.852   4.033
12794TIP3    H238326   3.042   2.802   3.954
12795TIP3   OH238327   5.096   5.806   4.950
12795TIP3    H138328   5.120   5.896   4.926
12795TIP3    H238329   5.118   5.755   4.872
12796TIP3   OH238330   4.024   4.942   3.777
12796TIP3    H138331   3.985   4.917   3.693
12796TIP3    H238332   4.000   5.034   3.789
12797TIP3   OH238333   7.642   3.735   2.716
12797TIP3    H138334   7.634   3.647   2.752
12797TIP3    H238335   7.560   3.778   2.739
12798TIP3   OH238336   1.171   3.327   1.561
12798TIP3    H138337   1.111   3.332   1.636
12798TIP3    H238338   1.117   3.351   1.486
12799TIP3   OH238339   0.881   4.424   3.967
12799TIP3    H138340   0.922   4.511   3.961
12799TIP3    H238341   0.795   4.441   4.004
12800TIP3   OH238342   7.864   7.134   6.711
12800TIP3    H138343   7.811   7.080   6.652
12800TIP3    H238344   7.833   7.223   6.695
12801TIP3   OH238345   6.938   2.051   2.004
12801TIP3    H138346   6.932   2.028   1.911
12801TIP3    H238347   6.940   2.147   2.004
12802TIP3   OH238348   5.521   6.693   1.734
12802TIP3    H138349   5.432   6.663   1.752
12802TIP3    H238350   5.511   6.757   1.663
12803TIP3   OH238351   7.629   2.599   5.304
12803TIP3    H138352   7.714   2.642   5.296
12803TIP3    H238353   7.611   2.564   5.217
12804TIP3   OH238354   5.897   2.706   2.951
12804TIP3    H138355   5.847   2.782   2.922
12804TIP3    H238356   5.830   2.638   2.965
12805TIP3   OH238357   3.763   1.113   2.858
12805TIP3    H138358   3.681   1.103   2.810
12805TIP3    H238359   3.823   1.155   2.796
12806TIP3   OH238360   3.076   2.358   4.435
12806TIP3    H138361   3.029   2.431   4.475
12806TIP3    H238362   3.169   2.382   4.444
12807TIP3   OH238363   3.424   4.027   5.481
12807TIP3    H138364   3.334   4.013   5.509
12807TIP3    H238365   3.416   4.060   5.391
12808TIP3   OH238366   7.371   5.447   6.788
12808TIP3    H138367   7.390   5.358   6.817
12808TIP3    H238368   7.425   5.459   6.710
12809TIP3   OH238369   2.917   7.713   4.502
12809TIP3    H138370   2.838   7.765   4.509
12809TIP3    H238371   2.900   7.635   4.555
12810TIP3   OH238372   2.731   3.962   5.164
12810TIP3    H138373   2.777   3.979   5.246
12810TIP3    H238374   2.800   3.954   5.099
12811TIP3   OH238375   6.108   3.950   1.968
12811TIP3    H138376   6.178   3.979   2.027
12811TIP3    H238377   6.137   3.864   1.936
12812TIP3   OH238378   3.924   2.544   4.915
12812TIP3    H138379   3.859   2.476   4.931
12812TIP3    H238380   4.007   2.497   4.906
12813TIP3   OH238381   4.919   4.280   3.879
12813TIP3    H138382   4.968   4.226   3.942
12813TIP3    H238383   4.873   4.344   3.933
12814TIP3   OH238384   8.186   5.605   3.614
12814TIP3    H138385   8.200   5.617   3.521
12814TIP3    H238386   8.099   5.564   3.620
12815TIP3   OH238387   3.538   5.825   1.981
12815TIP3    H138388   3.544   5.769   1.904
12815TIP3    H238389   3.455   5.872   1.970
12816TIP3   OH238390   5.153   2.358   6.444
12816TIP3    H138391   5.058   2.346   6.433
12816TIP3    H238392   5.188   2.349   6.355
12817TIP3   OH238393   4.018   1.716   5.444
12817TIP3    H138394   4.050   1.714   5.534
12817TIP3    H238395   4.093   1.747   5.392
12818TIP3   OH238396   1.250   6.178   0.789
12818TIP3    H138397   1.275   6.085   0.787
12818TIP3    H238398   1.330   6.224   0.816
12819TIP3   OH238399   6.922   1.892   1.357
12819TIP3    H138400   6.887   1.928   1.439
12819TIP3    H238401   6.884   1.947   1.289
12820TIP3   OH238402   2.694   4.756   1.215
12820TIP3    H138403   2.662   4.838   1.178
12820TIP3    H238404   2.627   4.730   1.278
12821TIP3   OH238405   5.573   1.465   6.560
12821TIP3    H138406   5.517   1.417   6.500
12821TIP3    H238407   5.553   1.557   6.546
12822TIP3   OH238408   6.453   4.944   0.461
12822TIP3    H138409   6.395   4.868   0.464
12822TIP3    H238410   6.537   4.909   0.432
12823TIP3   OH238411   6.161   6.677   1.019
12823TIP3    H138412   6.067   6.680   1.033
12823TIP3    H238413   6.181   6.583   1.015
12824TIP3   OH238414   7.595   1.933   3.890
12824TIP3    H138415   7.573   1.879   3.814
12824TIP3    H238416   7.686   1.912   3.909
12825TIP3   OH238417   7.871   7.581   1.511
12825TIP3    H138418   7.799   7.585   1.448
12825TIP3    H238419   7.929   7.513   1.477
12826TIP3   OH238420   8.214   2.980   4.143
12826TIP3    H138421   8.221   3.075   4.154
12826TIP3    H238422   8.288   2.945   4.192
12827TIP3   OH238423   3.553   5.201   2.659
12827TIP3    H138424   3.536   5.197   2.565
12827TIP3    H238425   3.475   5.162   2.699
12828TIP3   OH238426   7.047   3.275   5.253
12828TIP3    H138427   7.081   3.289   5.165
12828TIP3    H238428   7.119   3.233   5.300
12829TIP3   OH238429   3.186   6.388   1.183
12829TIP3    H138430   3.262   6.407   1.128
12829TIP3    H238431   3.120   6.356   1.122
12830TIP3   OH238432   0.795   5.954   0.425
12830TIP3    H138433   0.877   5.952   0.474
12830TIP3    H238434   0.820   5.982   0.337
12831TIP3   OH238435   5.278   3.324   6.526
12831TIP3    H138436   5.334   3.247   6.535
12831TIP3    H238437   5.339   3.394   6.501
12832TIP3   OH238438   4.989   6.180   1.844
12832TIP3    H138439   5.078   6.202   1.869
12832TIP3    H238440   4.934   6.243   1.890
12833TIP3   OH238441   7.181   2.546   6.246
12833TIP3    H138442   7.237   2.476   6.279
12833TIP3    H238443   7.142   2.511   6.166
12834TIP3   OH238444   6.664   3.836   4.439
12834TIP3    H138445   6.679   3.764   4.378
12834TIP3    H238446   6.752   3.859   4.471
12835TIP3   OH238447   1.030   4.185   1.596
12835TIP3    H138448   0.991   4.119   1.653
12835TIP3    H238449   1.124   4.163   1.594
12836TIP3   OH238450   3.369   5.897   6.669
12836TIP3    H138451   3.354   5.882   6.576
12836TIP3    H238452   3.405   5.986   6.673
12837TIP3   OH238453   1.735   6.692   3.727
12837TIP3    H138454   1.661   6.745   3.758
12837TIP3    H238455   1.699   6.642   3.654
12838TIP3   OH238456   6.051   7.685   6.550
12838TIP3    H138457   6.110   7.757   6.527
12838TIP3    H238458   6.099   7.606   6.524
12839TIP3   OH238459   7.819   6.907   3.463
12839TIP3    H138460   7.731   6.923   3.496
12839TIP3    H238461   7.869   6.983   3.491
12840TIP3   OH238462   7.707   1.823   2.593
12840TIP3    H138463   7.730   1.735   2.623
12840TIP3    H238464   7.624   1.811   2.546
12841TIP3   OH238465   5.142   1.464   2.552
12841TIP3    H138466   5.212   1.449   2.489
12841TIP3    H238467   5.109   1.551   2.530
12842TIP3   OH238468   2.668   4.464   1.144
12842TIP3    H138469   2.737   4.418   1.096
12842TIP3    H238470   2.692   4.556   1.138
12843TIP3   OH238471   5.404   6.766   1.496
12843TIP3    H138472   5.387   6.829   1.425
12843TIP3    H238473   5.351   6.690   1.473
12844TIP3   OH238474   8.217   7.671   4.980
12844TIP3    H138475   8.270   7.746   4.953
12844TIP3    H238476   8.254   7.597   4.933
12845TIP3   OH238477   7.212   0.730   2.898
12845TIP3    H138478   7.299   0.743   2.860
12845TIP3    H238479   7.165   0.676   2.835
12846TIP3   OH238480   7.264   7.638   1.654
12846TIP3    H138481   7.325   7.582   1.605
12846TIP3    H238482   7.224   7.694   1.588
12847TIP3   OH238483   2.156   7.251   5.609
12847TIP3    H138484   2.195   7.299   5.682
12847TIP3    H238485   2.116   7.174   5.650
12848TIP3   OH238486   0.263   7.222   5.996
12848TIP3    H138487   0.173   7.193   5.980
12848TIP3    H238488   0.312   7.192   5.920
12849TIP3   OH238489   1.414   0.220   2.378
12849TIP3    H138490   1.404   0.313   2.399
12849TIP3    H238491   1.489   0.217   2.318
12850TIP3   OH238492   8.081   0.340   4.244
12850TIP3    H138493   8.052   0.409   4.304
12850TIP3    H238494   8.127   0.387   4.174
12851TIP3   OH238495   5.750   7.078   0.844
12851TIP3    H138496   5.772   7.086   0.751
12851TIP3    H238497   5.810   7.011   0.877
12852TIP3   OH238498   6.100   4.170   6.066
12852TIP3    H138499   6.022   4.117   6.052
12852TIP3    H238500   6.173   4.108   6.060
12853TIP3   OH238501   5.757   0.898   0.450
12853TIP3    H138502   5.732   0.873   0.361
12853TIP3    H238503   5.688   0.958   0.478
12854TIP3   OH238504   1.128   0.376   2.454
12854TIP3    H138505   1.100   0.332   2.374
12854TIP3    H238506   1.220   0.399   2.438
12855TIP3   OH238507   7.623   1.637   2.963
12855TIP3    H138508   7.531   1.650   2.986
12855TIP3    H238509   7.640   1.545   2.982
12856TIP3   OH238510   7.708   5.690   2.238
12856TIP3    H138511   7.671   5.755   2.178
12856TIP3    H238512   7.636   5.666   2.296
12857TIP3   OH238513   5.926   1.413   5.439
12857TIP3    H138514   5.862   1.463   5.388
12857TIP3    H238515   5.873   1.356   5.495
12858TIP3   OH238516   3.564   2.874   4.127
12858TIP3    H138517   3.532   2.785   4.142
12858TIP3    H238518   3.554   2.889   4.033
12859TIP3   OH238519   2.071   1.800   6.218
12859TIP3    H138520   2.128   1.802   6.142
12859TIP3    H238521   1.990   1.761   6.187
12860TIP3   OH238522   2.859   6.432   2.297
12860TIP3    H138523   2.910   6.424   2.216
12860TIP3    H238524   2.775   6.466   2.268
12861TIP3   OH238525   1.317   1.968   4.055
12861TIP3    H138526   1.407   1.992   4.073
12861TIP3    H238527   1.323   1.902   3.986
12862TIP3   OH238528   7.723   0.978   0.345
12862TIP3    H138529   7.794   0.935   0.394
12862TIP3    H238530   7.667   0.906   0.316
12863TIP3   OH238531   5.784   2.594   3.554
12863TIP3    H138532   5.785   2.633   3.466
12863TIP3    H238533   5.876   2.594   3.580
12864TIP3   OH238534   2.129   6.159   5.277
12864TIP3    H138535   2.212   6.142   5.231
12864TIP3    H238536   2.130   6.254   5.293
12865TIP3   OH238537   1.755   6.045   0.536
12865TIP3    H138538   1.818   6.025   0.604
12865TIP3    H238539   1.807   6.064   0.458
12866TIP3   OH238540   8.207   0.408   3.945
12866TIP3    H138541   8.184   0.495   3.914
12866TIP3    H238542   8.132   0.353   3.921
12867TIP3   OH238543   3.819   0.816   6.141
12867TIP3    H138544   3.844   0.739   6.193
12867TIP3    H238545   3.766   0.780   6.069
12868TIP3   OH238546   7.007   6.017   3.545
12868TIP3    H138547   7.046   5.930   3.557
12868TIP3    H238548   6.938   6.003   3.480
12869TIP3   OH238549   5.518   4.123   4.908
12869TIP3    H138550   5.591   4.080   4.863
12869TIP3    H238551   5.454   4.141   4.839
12870TIP3   OH238552   1.370   2.569   1.154
12870TIP3    H138553   1.330   2.624   1.221
12870TIP3    H238554   1.461   2.559   1.182
12871TIP3   OH238555   6.229   1.983   2.440
12871TIP3    H138556   6.165   2.054   2.448
12871TIP3    H238557   6.190   1.911   2.491
12872TIP3   OH238558   7.582   6.334   4.044
12872TIP3    H138559   7.663   6.287   4.063
12872TIP3    H238560   7.600   6.424   4.072
12873TIP3   OH238561   5.761   4.317   0.509
12873TIP3    H138562   5.781   4.289   0.598
12873TIP3    H238563   5.839   4.294   0.458
12874TIP3   OH238564   6.264   3.695   2.782
12874TIP3    H138565   6.200   3.767   2.776
12874TIP3    H238566   6.299   3.687   2.694
12875TIP3   OH238567   2.131   2.346   2.068
12875TIP3    H138568   2.166   2.411   2.007
12875TIP3    H238569   2.090   2.399   2.137
12876TIP3   OH238570   1.378   3.447   0.659
12876TIP3    H138571   1.290   3.429   0.624
12876TIP3    H238572   1.435   3.445   0.583
12877TIP3   OH238573   3.674   3.086   0.135
12877TIP3    H138574   3.725   3.044   0.204
12877TIP3    H238575   3.697   3.178   0.141
12878TIP3   OH238576   5.853   4.470   3.688
12878TIP3    H138577   5.786   4.430   3.744
12878TIP3    H238578   5.805   4.507   3.615
12879TIP3   OH238579   4.567   4.211   5.730
12879TIP3    H138580   4.485   4.163   5.729
12879TIP3    H238581   4.612   4.186   5.650
12880TIP3   OH238582   1.976   3.381   6.032
12880TIP3    H138583   2.007   3.468   6.054
12880TIP3    H238584   2.005   3.367   5.942
12881TIP3   OH238585   4.526   2.398   4.702
12881TIP3    H138586   4.582   2.338   4.651
12881TIP3    H238587   4.542   2.484   4.663
12882TIP3   OH238588   1.230   2.029  -0.016
12882TIP3    H138589   1.231   1.986   0.069
12882TIP3    H238590   1.322   2.030  -0.043
12883TIP3   OH238591   0.943   4.357   6.695
12883TIP3    H138592   1.010   4.377   6.630
12883TIP3    H238593   0.868   4.327   6.644
12884TIP3   OH238594   7.948   7.765   6.214
12884TIP3    H138595   7.991   7.685   6.243
12884TIP3    H238596   8.020   7.824   6.191
12885TIP3   OH238597   5.968   1.519   6.173
12885TIP3    H138598   5.934   1.522   6.263
12885TIP3    H238599   5.892   1.540   6.119
12886TIP3   OH238600   6.604   6.860   3.632
12886TIP3    H138601   6.544   6.866   3.706
12886TIP3    H238602   6.610   6.949   3.598
12887TIP3   OH238603   2.331   0.771   0.743
12887TIP3    H138604   2.371   0.774   0.656
12887TIP3    H238605   2.269   0.844   0.744
12888TIP3   OH238606   8.192   7.338   5.659
12888TIP3    H138607   8.271   7.330   5.712
12888TIP3    H238608   8.159   7.425   5.677
12889TIP3   OH238609   2.625   3.002   4.386
12889TIP3    H138610   2.613   3.017   4.293
12889TIP3    H238611   2.720   2.997   4.398
12890TIP3   OH238612   6.369   7.656   4.293
12890TIP3    H138613   6.358   7.596   4.220
12890TIP3    H238614   6.282   7.665   4.331
12891TIP3   OH238615   4.937   2.860   0.602
12891TIP3    H138616   4.865   2.802   0.625
12891TIP3    H238617   5.016   2.811   0.626
12892TIP3   OH238618   1.844   3.408   0.582
12892TIP3    H138619   1.920   3.465   0.575
12892TIP3    H238620   1.844   3.379   0.674
12893TIP3   OH238621   7.000   0.010   4.437
12893TIP3    H138622   6.930   0.075   4.437
12893TIP3    H238623   7.042   0.020   4.522
12894TIP3   OH238624   2.153   3.248   1.570
12894TIP3    H138625   2.108   3.324   1.605
12894TIP3    H238626   2.243   3.277   1.557
12895TIP3   OH238627   7.068   5.310   5.730
12895TIP3    H138628   7.144   5.256   5.710
12895TIP3    H238629   7.012   5.303   5.652
12896TIP3   OH238630   3.980   0.262   2.814
12896TIP3    H138631   4.044   0.318   2.858
12896TIP3    H238632   4.003   0.266   2.722
12897TIP3   OH238633   6.502   1.953   4.715
12897TIP3    H138634   6.543   2.026   4.668
12897TIP3    H238635   6.575   1.899   4.745
12898TIP3   OH238636   2.816   1.093   1.112
12898TIP3    H138637   2.745   1.155   1.096
12898TIP3    H238638   2.772   1.008   1.121
12899TIP3   OH238639   0.591   6.082   0.085
12899TIP3    H138640   0.510   6.044   0.051
12899TIP3    H238641   0.592   6.171   0.051
12900TIP3   OH238642   6.790   2.303   1.361
12900TIP3    H138643   6.715   2.361   1.350
12900TIP3    H238644   6.840   2.314   1.279
12901TIP3   OH238645   5.364   0.186   4.184
12901TIP3    H138646   5.342   0.105   4.230
12901TIP3    H238647   5.284   0.238   4.187
12902TIP3   OH238648   5.415   2.269   5.879
12902TIP3    H138649   5.349   2.200   5.889
12902TIP3    H238650   5.497   2.228   5.905
12903TIP3   OH238651   4.955   0.862   3.747
12903TIP3    H138652   4.927   0.781   3.788
12903TIP3    H238653   5.007   0.907   3.813
12904TIP3   OH238654   2.874   2.303   0.785
12904TIP3    H138655   2.968   2.315   0.777
12904TIP3    H238656   2.854   2.230   0.726
12905TIP3   OH238657   4.007   2.720   4.405
12905TIP3    H138658   3.984   2.764   4.323
12905TIP3    H238659   4.080   2.771   4.440
12906TIP3   OH238660   0.634   5.844   1.102
12906TIP3    H138661   0.555   5.852   1.156
12906TIP3    H238662   0.614   5.895   1.023
12907TIP3   OH238663   7.939   5.199   0.926
12907TIP3    H138664   7.920   5.113   0.888
12907TIP3    H238665   7.872   5.210   0.994
12908TIP3   OH238666   7.172   5.776   5.466
12908TIP3    H138667   7.195   5.865   5.493
12908TIP3    H238668   7.106   5.788   5.397
12909TIP3   OH238669   4.239   3.858   1.178
12909TIP3    H138670   4.258   3.849   1.271
12909TIP3    H238671   4.246   3.952   1.160
12910TIP3   OH238672   7.695   0.224   6.658
12910TIP3    H138673   7.651   0.208   6.741
12910TIP3    H238674   7.625   0.252   6.598
12911TIP3   OH238675   1.526   0.697   6.135
12911TIP3    H138676   1.436   0.696   6.169
12911TIP3    H238677   1.578   0.736   6.206
12912TIP3   OH238678   0.841   4.825   2.871
12912TIP3    H138679   0.776   4.876   2.920
12912TIP3    H238680   0.801   4.812   2.785
12913TIP3   OH238681   3.179   6.336   5.033
12913TIP3    H138682   3.261   6.298   5.002
12913TIP3    H238683   3.206   6.410   5.088
12914TIP3   OH238684   7.553   2.517   0.066
12914TIP3    H138685   7.532   2.454   0.134
12914TIP3    H238686   7.469   2.553   0.039
12915TIP3   OH238687   6.733   2.883   6.309
12915TIP3    H138688   6.700   2.796   6.332
12915TIP3    H238689   6.657   2.927   6.271
12916TIP3   OH238690   7.696   2.209   2.439
12916TIP3    H138691   7.623   2.266   2.414
12916TIP3    H238692   7.697   2.140   2.373
12917TIP3   OH238693   7.060   3.999   1.823
12917TIP3    H138694   7.036   3.958   1.906
12917TIP3    H238695   7.034   3.934   1.757
12918TIP3   OH238696   1.879   7.129   4.734
12918TIP3    H138697   1.889   7.224   4.738
12918TIP3    H238698   1.820   7.108   4.807
12919TIP3   OH238699   0.232   4.370   3.766
12919TIP3    H138700   0.283   4.313   3.707
12919TIP3    H238701   0.208   4.445   3.712
12920TIP3   OH238702   6.666   6.404  -0.008
12920TIP3    H138703   6.576   6.433  -0.020
12920TIP3    H238704   6.711   6.479   0.031
12921TIP3   OH238705   4.744   7.573   5.490
12921TIP3    H138706   4.761   7.479   5.502
12921TIP3    H238707   4.704   7.580   5.404
12922TIP3   OH238708   6.365   0.905   6.614
12922TIP3    H138709   6.301   0.873   6.550
12922TIP3    H238710   6.396   0.988   6.578
12923TIP3   OH238711   0.838   1.868   2.359
12923TIP3    H138712   0.755   1.836   2.325
12923TIP3    H238713   0.879   1.912   2.284
12924TIP3   OH238714   5.275   2.770   2.662
12924TIP3    H138715   5.285   2.835   2.592
12924TIP3    H238716   5.197   2.797   2.710
12925TIP3   OH238717   0.230   5.856   1.584
12925TIP3    H138718   0.306   5.913   1.594
12925TIP3    H238719   0.267   5.769   1.570
12926TIP3   OH238720   2.230   1.983   6.747
12926TIP3    H138721   2.253   1.890   6.737
12926TIP3    H238722   2.236   2.019   6.658
12927TIP3   OH238723   3.209   1.604   4.406
12927TIP3    H138724   3.298   1.622   4.438
12927TIP3    H238725   3.199   1.510   4.416
12928TIP3   OH238726   3.701   2.551   3.954
12928TIP3    H138727   3.773   2.598   3.913
12928TIP3    H238728   3.738   2.517   4.036
12929TIP3   OH238729   0.966   5.086   0.770
12929TIP3    H138730   0.965   5.080   0.866
12929TIP3    H238731   0.875   5.071   0.745
12930TIP3   OH238732   7.008   1.695   4.557
12930TIP3    H138733   7.005   1.722   4.648
12930TIP3    H238734   7.075   1.627   4.554
12931TIP3   OH238735   8.031   3.396   2.835
12931TIP3    H138736   8.024   3.458   2.907
12931TIP3    H238737   7.944   3.396   2.794
12932TIP3   OH238738   3.857   3.889   1.837
12932TIP3    H138739   3.920   3.821   1.818
12932TIP3    H238740   3.790   3.846   1.890
12933TIP3   OH238741   4.851   7.147   2.857
12933TIP3    H138742   4.847   7.235   2.819
12933TIP3    H238743   4.773   7.143   2.914
12934TIP3   OH238744   7.944   4.739   3.254
12934TIP3    H138745   7.906   4.692   3.180
12934TIP3    H238746   7.922   4.831   3.238
12935TIP3   OH238747   2.658   7.136   2.990
12935TIP3    H138748   2.598   7.179   3.051
12935TIP3    H238749   2.630   7.166   2.904
12936TIP3   OH238750   4.619   4.544   1.603
12936TIP3    H138751   4.697   4.519   1.553
12936TIP3    H238752   4.610   4.475   1.669
12937TIP3   OH238753   0.417   7.625   5.524
12937TIP3    H138754   0.324   7.605   5.519
12937TIP3    H238755   0.423   7.702   5.580
12938TIP3   OH238756   6.538   4.719   4.606
12938TIP3    H138757   6.586   4.782   4.659
12938TIP3    H238758   6.451   4.758   4.595
12939TIP3   OH238759   1.493   2.965   0.060
12939TIP3    H138760   1.579   2.926   0.078
12939TIP3    H238761   1.501   3.055   0.090
12940TIP3   OH238762   6.385   3.735   4.181
12940TIP3    H138763   6.363   3.828   4.183
12940TIP3    H238764   6.354   3.701   4.265
12941TIP3   OH238765   1.454   5.425   6.211
12941TIP3    H138766   1.425   5.466   6.130
12941TIP3    H238767   1.410   5.474   6.281
12942TIP3   OH238768   0.269   6.507   3.005
12942TIP3    H138769   0.301   6.496   2.915
12942TIP3    H238770   0.292   6.596   3.028
12943TIP3   OH238771   6.267   5.172   2.939
12943TIP3    H138772   6.179   5.204   2.957
12943TIP3    H238773   6.291   5.121   3.017
12944TIP3   OH238774   6.284   1.936   3.250
12944TIP3    H138775   6.259   1.846   3.229
12944TIP3    H238776   6.378   1.931   3.267
12945TIP3   OH238777   0.478   6.362   1.904
12945TIP3    H138778   0.448   6.452   1.886
12945TIP3    H238779   0.450   6.312   1.827
12946TIP3   OH238780   4.783   5.755   3.539
12946TIP3    H138781   4.814   5.839   3.572
12946TIP3    H238782   4.855   5.695   3.554
12947TIP3   OH238783   4.582   7.831   2.187
12947TIP3    H138784   4.661   7.790   2.151
12947TIP3    H238785   4.592   7.924   2.167
12948TIP3   OH238786   3.715   7.789   2.172
12948TIP3    H138787   3.695   7.697   2.189
12948TIP3    H238788   3.788   7.809   2.230
12949TIP3   OH238789   2.467   0.226   3.223
12949TIP3    H138790   2.539   0.192   3.276
12949TIP3    H238791   2.479   0.185   3.137
12950TIP3   OH238792   3.854   5.720   0.694
12950TIP3    H138793   3.772   5.694   0.736
12950TIP3    H238794   3.919   5.658   0.727
12951TIP3   OH238795   0.530   0.978   4.557
12951TIP3    H138796   0.514   1.058   4.608
12951TIP3    H238797   0.569   0.918   4.621
12952TIP3   OH238798   2.079   4.034   2.823
12952TIP3    H138799   2.002   4.061   2.773
12952TIP3    H238800   2.153   4.060   2.768
12953TIP3   OH238801   0.558   1.479   5.920
12953TIP3    H138802   0.561   1.528   5.838
12953TIP3    H238803   0.644   1.496   5.960
12954TIP3   OH238804   1.663   6.538   5.496
12954TIP3    H138805   1.620   6.588   5.427
12954TIP3    H238806   1.593   6.489   5.538
12955TIP3   OH238807   4.218   7.506   6.664
12955TIP3    H138808   4.205   7.582   6.606
12955TIP3    H238809   4.179   7.433   6.616
12956TIP3   OH238810   2.580   5.546   1.221
12956TIP3    H138811   2.661   5.594   1.238
12956TIP3    H238812   2.511   5.612   1.231
12957TIP3   OH238813   6.241   3.054   6.380
12957TIP3    H138814   6.216   3.011   6.461
12957TIP3    H238815   6.162   3.050   6.325
12958TIP3   OH238816   6.454   4.729   5.822
12958TIP3    H138817   6.379   4.701   5.769
12958TIP3    H238818   6.530   4.687   5.782
12959TIP3   OH238819   5.293   2.102   2.428
12959TIP3    H138820   5.219   2.134   2.376
12959TIP3    H238821   5.278   2.009   2.438
12960TIP3   OH238822   8.017   1.034   3.213
12960TIP3    H138823   8.015   1.051   3.307
12960TIP3    H238824   7.942   1.082   3.179
12961TIP3   OH238825   3.547   4.549   6.320
12961TIP3    H138826   3.483   4.620   6.329
12961TIP3    H238827   3.596   4.551   6.402
12962TIP3   OH238828   5.722   2.434   2.378
12962TIP3    H138829   5.678   2.350   2.395
12962TIP3    H238830   5.791   2.438   2.443
12963TIP3   OH238831   3.527   6.885   6.606
12963TIP3    H138832   3.487   6.799   6.620
12963TIP3    H238833   3.453   6.944   6.592
12964TIP3   OH238834   6.939   3.796   6.277
12964TIP3    H138835   7.031   3.819   6.263
12964TIP3    H238836   6.915   3.744   6.200
12965TIP3   OH238837   3.958   6.565   3.571
12965TIP3    H138838   3.876   6.604   3.600
12965TIP3    H238839   3.934   6.476   3.542
12966TIP3   OH238840   0.076   2.327   6.554
12966TIP3    H138841   0.109   2.243   6.585
12966TIP3    H238842   0.038   2.368   6.632
12967TIP3   OH238843   7.284   1.062   0.860
12967TIP3    H138844   7.317   1.037   0.946
12967TIP3    H238845   7.345   1.022   0.798
12968TIP3   OH238846   0.198   0.755   5.570
12968TIP3    H138847   0.187   0.828   5.509
12968TIP3    H238848   0.291   0.736   5.569
12969TIP3   OH238849   2.421   1.538   1.552
12969TIP3    H138850   2.494   1.477   1.538
12969TIP3    H238851   2.343   1.483   1.545
12970TIP3   OH238852   4.431   6.361   1.720
12970TIP3    H138853   4.342   6.331   1.735
12970TIP3    H238854   4.452   6.331   1.632
12971TIP3   OH238855   0.359   7.112   3.264
12971TIP3    H138856   0.443   7.126   3.220
12971TIP3    H238857   0.376   7.044   3.329
12972TIP3   OH238858   3.714   3.546   5.883
12972TIP3    H138859   3.753   3.588   5.959
12972TIP3    H238860   3.783   3.545   5.817
12973TIP3   OH238861   4.926   3.920   2.389
12973TIP3    H138862   4.911   3.937   2.482
12973TIP3    H238863   4.840   3.896   2.354
12974TIP3   OH238864   5.827   3.758   2.597
12974TIP3    H138865   5.868   3.817   2.533
12974TIP3    H238866   5.858   3.671   2.573
12975TIP3   OH238867   2.403   1.265   2.184
12975TIP3    H138868   2.446   1.226   2.108
12975TIP3    H238869   2.403   1.359   2.165
12976TIP3   OH238870   7.216   7.430   6.416
12976TIP3    H138871   7.247   7.440   6.326
12976TIP3    H238872   7.294   7.439   6.470
12977TIP3   OH238873   8.057   5.547   3.026
12977TIP3    H138874   8.136   5.567   3.076
12977TIP3    H238875   8.023   5.632   2.998
12978TIP3   OH238876   4.258   1.467   0.250
12978TIP3    H138877   4.306   1.549   0.245
12978TIP3    H238878   4.261   1.432   0.161
12979TIP3   OH238879   2.426   1.626   2.485
12979TIP3    H138880   2.453   1.673   2.564
12979TIP3    H238881   2.499   1.636   2.424
12980TIP3   OH238882   0.166   7.380   5.723
12980TIP3    H138883   0.245   7.403   5.772
12980TIP3    H238884   0.199   7.348   5.639
12981TIP3   OH238885   1.872   3.652   3.246
12981TIP3    H138886   1.920   3.607   3.316
12981TIP3    H238887   1.881   3.745   3.267
12982TIP3   OH238888   5.172   5.739   3.587
12982TIP3    H138889   5.205   5.757   3.676
12982TIP3    H238890   5.130   5.821   3.560
12983TIP3   OH238891   8.193   3.339   0.797
12983TIP3    H138892   8.210   3.256   0.843
12983TIP3    H238893   8.122   3.379   0.847
12984TIP3   OH238894   1.563   7.008   5.010
12984TIP3    H138895   1.492   6.955   4.974
12984TIP3    H238896   1.643   6.972   4.972
12985TIP3   OH238897   3.536   0.305   6.710
12985TIP3    H138898   3.550   0.255   6.791
12985TIP3    H238899   3.441   0.306   6.699
12986TIP3   OH238900   1.959   6.000   1.036
12986TIP3    H138901   1.901   5.989   1.111
12986TIP3    H238902   1.942   5.923   0.981
12987TIP3   OH238903   7.321   4.113   5.068
12987TIP3    H138904   7.235   4.116   5.109
12987TIP3    H238905   7.306   4.142   4.978
12988TIP3   OH238906   3.471   4.024   4.434
12988TIP3    H138907   3.563   4.027   4.461
12988TIP3    H238908   3.430   3.964   4.496
12989TIP3   OH238909   3.851   6.708   1.559
12989TIP3    H138910   3.803   6.746   1.633
12989TIP3    H238911   3.908   6.779   1.528
12990TIP3   OH238912   2.965   6.265   1.065
12990TIP3    H138913   2.920   6.301   1.141
12990TIP3    H238914   2.991   6.177   1.092
12991TIP3   OH238915   7.655   7.767   4.261
12991TIP3    H138916   7.720   7.730   4.320
12991TIP3    H238917   7.706   7.804   4.189
12992TIP3   OH238918   5.033   0.403   0.715
12992TIP3    H138919   5.113   0.413   0.663
12992TIP3    H238920   5.055   0.335   0.779
12993TIP3   OH238921   3.373   3.173   4.887
12993TIP3    H138922   3.440   3.240   4.874
12993TIP3    H238923   3.337   3.158   4.800
12994TIP3   OH238924   8.198   0.441   1.266
12994TIP3    H138925   8.181   0.357   1.308
12994TIP3    H238926   8.110   0.477   1.249
12995TIP3   OH238927   7.657   2.330   5.423
12995TIP3    H138928   7.666   2.346   5.517
12995TIP3    H238929   7.640   2.416   5.385
12996TIP3   OH238930   6.460   0.431   1.511
12996TIP3    H138931   6.384   0.427   1.453
12996TIP3    H238932   6.488   0.523   1.507
12997TIP3   OH238933   0.122   4.638   4.448
12997TIP3    H138934   0.035   4.660   4.480
12997TIP3    H238935   0.106   4.576   4.376
12998TIP3   OH238936   3.771   1.944   3.023
12998TIP3    H138937   3.685   1.971   3.054
12998TIP3    H238938   3.752   1.887   2.948
12999TIP3   OH238939   7.316   7.277   5.422
12999TIP3    H138940   7.248   7.338   5.393
12999TIP3    H238941   7.277   7.191   5.413
13000TIP3   OH238942   7.055   5.207   2.331
13000TIP3    H138943   6.969   5.166   2.343
13000TIP3    H238944   7.097   5.154   2.263
13001TIP3   OH238945   4.035   3.006   3.174
13001TIP3    H138946   4.121   3.023   3.211
13001TIP3    H238947   4.002   3.092   3.149
13002TIP3   OH238948   7.064   2.769   1.340
13002TIP3    H138949   7.055   2.861   1.367
13002TIP3    H238950   6.997   2.723   1.391
13003TIP3   OH238951   1.191   5.487   4.233
13003TIP3    H138952   1.117   5.470   4.291
13003TIP3    H238953   1.208   5.580   4.242
13004TIP3   OH238954   5.076   7.029   4.490
13004TIP3    H138955   5.161   6.987   4.477
13004TIP3    H238956   5.034   7.025   4.404
13005TIP3   OH238957   1.872   7.624   5.665
13005TIP3    H138958   1.800   7.603   5.725
13005TIP3    H238959   1.933   7.676   5.717
13006TIP3   OH238960   2.670   6.637   5.499
13006TIP3    H138961   2.755   6.623   5.540
13006TIP3    H238962   2.609   6.650   5.572
13007TIP3   OH238963   2.315   1.854   4.932
13007TIP3    H138964   2.391   1.806   4.901
13007TIP3    H238965   2.343   1.946   4.931
13008TIP3   OH238966   4.259   1.639   1.249
13008TIP3    H138967   4.350   1.627   1.223
13008TIP3    H238968   4.233   1.722   1.210
13009TIP3   OH238969   2.525   2.220   2.984
13009TIP3    H138970   2.618   2.210   3.007
13009TIP3    H238971   2.478   2.197   3.064
13010TIP3   OH238972   6.952   6.214   1.971
13010TIP3    H138973   6.906   6.283   2.018
13010TIP3    H238974   7.044   6.224   1.997
13011TIP3   OH238975   3.388   7.433   6.028
13011TIP3    H138976   3.440   7.498   6.075
13011TIP3    H238977   3.341   7.386   6.096
13012TIP3   OH238978   5.789   1.575   1.587
13012TIP3    H138979   5.882   1.595   1.582
13012TIP3    H238980   5.784   1.498   1.644
13013TIP3   OH238981   2.144   1.692   5.092
13013TIP3    H138982   2.216   1.678   5.154
13013TIP3    H238983   2.179   1.756   5.030
13014TIP3   OH238984   2.477   2.548   6.059
13014TIP3    H138985   2.458   2.641   6.073
13014TIP3    H238986   2.439   2.528   5.974
13015TIP3   OH238987   2.934   7.719   3.623
13015TIP3    H138988   2.954   7.812   3.637
13015TIP3    H238989   2.956   7.677   3.706
13016TIP3   OH238990   8.204   2.431   2.035
13016TIP3    H138991   8.129   2.479   1.999
13016TIP3    H238992   8.276   2.493   2.032
13017TIP3   OH238993   5.054   5.401   6.472
13017TIP3    H138994   5.056   5.412   6.377
13017TIP3    H238995   5.146   5.387   6.496
13018TIP3   OH238996   2.271   7.427   5.812
13018TIP3    H138997   2.357   7.393   5.837
13018TIP3    H238998   2.289   7.491   5.743
13019TIP3   OH238999   8.068   1.476   5.375
13019TIP3    H139000   8.116   1.431   5.445
13019TIP3    H239001   7.979   1.443   5.382
13020TIP3   OH239002   0.189   5.581   3.106
13020TIP3    H139003   0.109   5.609   3.150
13020TIP3    H239004   0.172   5.597   3.013
13021TIP3   OH239005   0.353   2.436   1.355
13021TIP3    H139006   0.418   2.391   1.302
13021TIP3    H239007   0.272   2.429   1.303
13022TIP3   OH239008   3.472   2.523   0.426
13022TIP3    H139009   3.549   2.509   0.482
13022TIP3    H239010   3.400   2.536   0.488
13023TIP3   OH239011   0.036   3.291   4.939
13023TIP3    H139012   0.124   3.263   4.966
13023TIP3    H239013  -0.018   3.280   5.017
13024TIP3   OH239014   4.177   1.640   5.725
13024TIP3    H139015   4.161   1.730   5.697
13024TIP3    H239016   4.246   1.647   5.791
13025TIP3   OH239017   0.335   1.597   4.717
13025TIP3    H139018   0.361   1.553   4.636
13025TIP3    H239019   0.340   1.690   4.696
13026TIP3   OH239020   1.924   5.759   5.605
13026TIP3    H139021   1.944   5.849   5.579
13026TIP3    H239022   1.896   5.767   5.696
13027TIP3   OH239023   0.257   4.931   5.609
13027TIP3    H139024   0.325   4.917   5.544
13027TIP3    H239025   0.303   4.964   5.686
13028TIP3   OH239026   3.074   0.338   2.546
13028TIP3    H139027   3.013   0.411   2.536
13028TIP3    H239028   3.133   0.346   2.471
13029TIP3   OH239029   1.051   1.469   1.480
13029TIP3    H139030   1.003   1.477   1.563
13029TIP3    H239031   1.021   1.386   1.442
13030TIP3   OH239032   2.275   5.270   4.640
13030TIP3    H139033   2.268   5.188   4.590
13030TIP3    H239034   2.236   5.249   4.725
13031TIP3   OH239035   6.295   7.062   5.405
13031TIP3    H139036   6.325   6.994   5.344
13031TIP3    H239037   6.290   7.017   5.489
13032TIP3   OH239038   7.728   1.275   4.846
13032TIP3    H139039   7.817   1.244   4.834
13032TIP3    H239040   7.732   1.329   4.925
13033TIP3   OH239041   4.985   5.219   6.221
13033TIP3    H139042   4.941   5.268   6.152
13033TIP3    H239043   4.940   5.135   6.223
13034TIP3   OH239044   6.025   2.636   2.244
13034TIP3    H139045   5.977   2.653   2.325
13034TIP3    H239046   5.958   2.631   2.176
13035TIP3   OH239047   7.660   7.450   4.366
13035TIP3    H139048   7.581   7.486   4.406
13035TIP3    H239049   7.725   7.519   4.372
13036TIP3   OH239050   4.718   3.191   0.228
13036TIP3    H139051   4.740   3.149   0.310
13036TIP3    H239052   4.622   3.194   0.227
13037TIP3   OH239053   2.115   1.008   1.044
13037TIP3    H139054   2.127   0.934   1.104
13037TIP3    H239055   2.057   0.973   0.976
13038TIP3   OH239056   2.684   7.182   1.289
13038TIP3    H139057   2.665   7.274   1.268
13038TIP3    H239058   2.609   7.134   1.255
13039TIP3   OH239059   2.617   1.023   3.074
13039TIP3    H139060   2.546   1.088   3.074
13039TIP3    H239061   2.651   1.026   3.163
13040TIP3   OH239062   7.432   5.848   0.601
13040TIP3    H139063   7.469   5.935   0.584
13040TIP3    H239064   7.376   5.831   0.525
13041TIP3   OH239065   1.568   0.938   4.846
13041TIP3    H139066   1.594   0.889   4.767
13041TIP3    H239067   1.515   0.876   4.896
13042TIP3   OH239068   6.512   5.784   4.794
13042TIP3    H139069   6.422   5.809   4.774
13042TIP3    H239070   6.564   5.824   4.724
13043TIP3   OH239071   5.608   2.175   2.386
13043TIP3    H139072   5.595   2.081   2.377
13043TIP3    H239073   5.551   2.214   2.319
13044TIP3   OH239074   1.014   1.824   0.659
13044TIP3    H139075   1.035   1.901   0.606
13044TIP3    H239076   0.973   1.860   0.738
13045TIP3   OH239077   8.218   7.417   1.581
13045TIP3    H139078   8.245   7.342   1.635
13045TIP3    H239079   8.238   7.493   1.635
13046TIP3   OH239080   0.442   4.942   3.348
13046TIP3    H139081   0.483   4.859   3.323
13046TIP3    H239082   0.462   5.001   3.275
13047TIP3   OH239083   7.997   6.820   1.139
13047TIP3    H139084   7.998   6.785   1.228
13047TIP3    H239085   7.933   6.890   1.141
13048TIP3   OH239086   7.481   5.792   0.092
13048TIP3    H139087   7.554   5.849   0.117
13048TIP3    H239088   7.519   5.705   0.087
13049TIP3   OH239089   1.145   5.976   0.182
13049TIP3    H139090   1.165   5.884   0.203
13049TIP3    H239091   1.223   6.024   0.208
13050TIP3   OH239092   8.193   3.715   0.888
13050TIP3    H139093   8.120   3.719   0.825
13050TIP3    H239094   8.241   3.636   0.863
13051TIP3   OH239095   6.867   3.185   0.326
13051TIP3    H139096   6.805   3.257   0.336
13051TIP3    H239097   6.894   3.163   0.415
13052TIP3   OH239098   0.475   1.189   1.783
13052TIP3    H139099   0.564   1.194   1.819
13052TIP3    H239100   0.439   1.277   1.796
13053TIP3   OH239101   8.163   0.031   3.378
13053TIP3    H139102   8.133   0.121   3.391
13053TIP3    H239103   8.140  -0.014   3.460
13054TIP3   OH239104   3.752   4.343   6.430
13054TIP3    H139105   3.705   4.407   6.483
13054TIP3    H239106   3.700   4.335   6.350
13055TIP3   OH239107   2.440   3.499   5.932
13055TIP3    H139108   2.402   3.430   5.985
13055TIP3    H239109   2.455   3.459   5.847
13056TIP3   OH239110   1.245   4.981   2.673
13056TIP3    H139111   1.239   5.028   2.756
13056TIP3    H239112   1.154   4.970   2.646
13057TIP3   OH239113   6.869   4.320   4.571
13057TIP3    H139114   6.794   4.378   4.580
13057TIP3    H239115   6.945   4.377   4.582
13058TIP3   OH239116   8.324   3.091   4.545
13058TIP3    H139117   8.277   3.118   4.466
13058TIP3    H239118   8.268   3.026   4.586
13059TIP3   OH239119   5.367   4.331   5.230
13059TIP3    H139120   5.311   4.340   5.307
13059TIP3    H239121   5.333   4.396   5.168
13060TIP3   OH239122   7.576   2.509   1.989
13060TIP3    H139123   7.522   2.484   2.064
13060TIP3    H239124   7.602   2.425   1.950
13061TIP3   OH239125   3.079   5.117   1.923
13061TIP3    H139126   3.062   5.046   1.861
13061TIP3    H239127   3.175   5.123   1.927
13062TIP3   OH239128   6.396   7.682   2.698
13062TIP3    H139129   6.458   7.610   2.685
13062TIP3    H239130   6.434   7.756   2.649
13063TIP3   OH239131   2.928   0.565   2.561
13063TIP3    H139132   2.945   0.649   2.519
13063TIP3    H239133   2.848   0.579   2.611
13064TIP3   OH239134   3.993   2.290   6.001
13064TIP3    H139135   4.058   2.245   6.056
13064TIP3    H239136   3.927   2.321   6.063
13065TIP3   OH239137   1.713   6.084   2.353
13065TIP3    H139138   1.660   6.050   2.425
13065TIP3    H239139   1.708   6.017   2.285
13066TIP3   OH239140   6.193   3.166   5.337
13066TIP3    H139141   6.163   3.154   5.247
13066TIP3    H239142   6.287   3.181   5.330
13067TIP3   OH239143   6.043   2.796   1.558
13067TIP3    H139144   6.118   2.854   1.572
13067TIP3    H239145   5.967   2.847   1.584
13068TIP3   OH239146   7.643   4.028   5.973
13068TIP3    H139147   7.714   4.057   5.915
13068TIP3    H239148   7.575   3.997   5.914
13069TIP3   OH239149   2.719   0.176   3.379
13069TIP3    H139150   2.786   0.121   3.337
13069TIP3    H239151   2.689   0.124   3.453
13070TIP3   OH239152   4.307   3.015   1.056
13070TIP3    H139153   4.395   3.004   1.021
13070TIP3    H239154   4.321   3.056   1.142
13071TIP3   OH239155   0.903   3.805   5.350
13071TIP3    H139156   0.902   3.734   5.286
13071TIP3    H239157   0.953   3.771   5.424
13072TIP3   OH239158   1.070   0.208   3.752
13072TIP3    H139159   1.143   0.265   3.774
13072TIP3    H239160   0.999   0.268   3.729
13073TIP3   OH239161   1.815   6.226   5.464
13073TIP3    H139162   1.809   6.218   5.369
13073TIP3    H239163   1.783   6.315   5.483
13074TIP3   OH239164   0.240   6.617   5.812
13074TIP3    H139165   0.148   6.632   5.832
13074TIP3    H239166   0.279   6.705   5.814
13075TIP3   OH239167   4.223   0.010   5.082
13075TIP3    H139168   4.276   0.087   5.061
13075TIP3    H239169   4.285  -0.052   5.120
13076TIP3   OH239170   8.044   5.119   6.083
13076TIP3    H139171   8.121   5.081   6.041
13076TIP3    H239172   7.993   5.156   6.011
13077TIP3   OH239173   0.661   5.088   3.496
13077TIP3    H139174   0.635   5.016   3.553
13077TIP3    H239175   0.578   5.132   3.474
13078TIP3   OH239176   4.108   6.378   4.014
13078TIP3    H139177   4.148   6.462   3.994
13078TIP3    H239178   4.040   6.366   3.947
13079TIP3   OH239179   5.878   2.083   6.706
13079TIP3    H139180   5.811   2.137   6.663
13079TIP3    H239181   5.923   2.039   6.634
13080TIP3   OH239182   6.813   5.091   2.783
13080TIP3    H139183   6.907   5.086   2.768
13080TIP3    H239184   6.796   5.029   2.854
13081TIP3   OH239185   7.601   1.486   1.727
13081TIP3    H139186   7.598   1.407   1.781
13081TIP3    H239187   7.619   1.454   1.638
13082TIP3   OH239188   7.268   3.864   2.198
13082TIP3    H139189   7.293   3.772   2.205
13082TIP3    H239190   7.346   3.912   2.227
13083TIP3   OH239191   2.346   3.049   2.310
13083TIP3    H139192   2.303   3.002   2.238
13083TIP3    H239193   2.408   2.986   2.346
13084TIP3   OH239194   6.913   2.174   3.438
13084TIP3    H139195   6.981   2.230   3.402
13084TIP3    H239196   6.881   2.124   3.362
13085TIP3   OH239197   3.766   5.331   1.784
13085TIP3    H139198   3.748   5.253   1.837
13085TIP3    H239199   3.855   5.318   1.752
13086TIP3   OH239200   6.055   6.369   5.554
13086TIP3    H139201   6.004   6.365   5.473
13086TIP3    H239202   6.135   6.319   5.533
13087TIP3   OH239203   6.067   0.202   0.949
13087TIP3    H139204   6.132   0.230   1.012
13087TIP3    H239205   6.116   0.189   0.868
13088TIP3   OH239206   0.408   1.205   2.514
13088TIP3    H139207   0.385   1.279   2.570
13088TIP3    H239208   0.480   1.236   2.460
13089TIP3   OH239209   2.890   0.963   4.779
13089TIP3    H139210   2.981   0.935   4.795
13089TIP3    H239211   2.899   1.046   4.731
13090TIP3   OH239212   0.393   4.972   5.854
13090TIP3    H139213   0.455   4.913   5.897
13090TIP3    H239214   0.390   5.050   5.909
13091TIP3   OH239215   6.065   4.875   2.646
13091TIP3    H139216   6.139   4.935   2.640
13091TIP3    H239217   6.083   4.808   2.579
13092TIP3   OH239218   1.445   1.111   2.578
13092TIP3    H139219   1.452   1.074   2.666
13092TIP3    H239220   1.533   1.143   2.559
13093TIP3   OH239221   8.285   2.800   1.036
13093TIP3    H139222   8.210   2.758   1.077
13093TIP3    H239223   8.321   2.733   0.978
13094TIP3   OH239224   0.401   0.735   0.613
13094TIP3    H139225   0.408   0.764   0.522
13094TIP3    H239226   0.351   0.654   0.609
13095TIP3   OH239227   1.755   6.309   5.183
13095TIP3    H139228   1.828   6.251   5.163
13095TIP3    H239229   1.771   6.387   5.129
13096TIP3   OH239230   3.647   1.766   3.990
13096TIP3    H139231   3.591   1.753   4.067
13096TIP3    H239232   3.626   1.854   3.959
13097TIP3   OH239233   3.351   1.546   2.813
13097TIP3    H139234   3.350   1.628   2.765
13097TIP3    H239235   3.434   1.504   2.787
13098TIP3   OH239236   4.491   6.673   2.131
13098TIP3    H139237   4.574   6.718   2.119
13098TIP3    H239238   4.455   6.666   2.042
13099TIP3   OH239239   5.579   6.187   2.621
13099TIP3    H139240   5.611   6.116   2.566
13099TIP3    H239241   5.649   6.203   2.684
13100TIP3   OH239242   2.984   0.538   1.160
13100TIP3    H139243   2.936   0.480   1.220
13100TIP3    H239244   2.997   0.618   1.210
13101TIP3   OH239245   6.136   7.883  -0.041
13101TIP3    H139246   6.052   7.837  -0.038
13101TIP3    H239247   6.173   7.874   0.047
13102TIP3   OH239248   1.469   1.302   3.906
13102TIP3    H139249   1.505   1.367   3.846
13102TIP3    H239250   1.522   1.310   3.985
13103TIP3   OH239251   6.857   0.968   2.943
13103TIP3    H139252   6.946   0.973   2.908
13103TIP3    H239253   6.812   1.044   2.905
13104TIP3   OH239254   5.749   7.525   5.976
13104TIP3    H139255   5.827   7.551   6.025
13104TIP3    H239256   5.719   7.605   5.935
13105TIP3   OH239257   1.684   3.779   1.432
13105TIP3    H139258   1.661   3.820   1.515
13105TIP3    H239259   1.769   3.738   1.448
13106TIP3   OH239260   3.748   1.931   3.576
13106TIP3    H139261   3.762   1.982   3.496
13106TIP3    H239262   3.749   1.996   3.646
13107TIP3   OH239263   1.883   6.767   5.262
13107TIP3    H139264   1.970   6.729   5.266
13107TIP3    H239265   1.877   6.822   5.340
13108TIP3   OH239266   5.744   2.952   3.186
13108TIP3    H139267   5.702   3.022   3.138
13108TIP3    H239268   5.836   2.978   3.191
13109TIP3   OH239269   3.814   1.499   4.652
13109TIP3    H139270   3.806   1.567   4.719
13109TIP3    H239271   3.740   1.441   4.668
13110TIP3   OH239272   3.098   3.025   6.214
13110TIP3    H139273   3.066   2.938   6.187
13110TIP3    H239274   3.095   3.077   6.134
13111TIP3   OH239275   1.088   2.909   0.582
13111TIP3    H139276   1.044   2.825   0.595
13111TIP3    H239277   1.159   2.891   0.521
13112TIP3   OH239278   6.914   5.627   3.834
13112TIP3    H139279   6.990   5.675   3.800
13112TIP3    H239280   6.904   5.553   3.775
13113TIP3   OH239281   5.359   0.089   3.481
13113TIP3    H139282   5.354   0.151   3.409
13113TIP3    H239283   5.356   0.003   3.439
13114TIP3   OH239284   7.566   3.693   3.051
13114TIP3    H139285   7.548   3.787   3.050
13114TIP3    H239286   7.588   3.674   3.142
13115TIP3   OH239287   3.643   1.491   6.319
13115TIP3    H139288   3.620   1.403   6.291
13115TIP3    H239289   3.560   1.538   6.324
13116TIP3   OH239290   6.112   6.057   3.113
13116TIP3    H139291   6.203   6.049   3.140
13116TIP3    H239292   6.071   6.109   3.182
13117TIP3   OH239293   3.708   3.076   2.873
13117TIP3    H139294   3.739   2.992   2.838
13117TIP3    H239295   3.642   3.105   2.810
13118TIP3   OH239296   0.742   1.278   0.803
13118TIP3    H139297   0.671   1.280   0.867
13118TIP3    H239298   0.797   1.353   0.825
13119TIP3   OH239299   5.526   7.597   4.367
13119TIP3    H139300   5.521   7.669   4.429
13119TIP3    H239301   5.509   7.519   4.419
13120TIP3   OH239302   6.005   7.131   3.932
13120TIP3    H139303   5.994   7.043   3.968
13120TIP3    H239304   5.968   7.189   3.999
13121TIP3   OH239305   1.454   0.868   4.050
13121TIP3    H139306   1.399   0.919   3.989
13121TIP3    H239307   1.397   0.854   4.126
13122TIP3   OH239308   0.985   0.910   6.198
13122TIP3    H139309   0.987   0.973   6.126
13122TIP3    H239310   0.984   0.965   6.277
13123TIP3   OH239311   4.099   2.171   1.066
13123TIP3    H139312   4.172   2.117   1.035
13123TIP3    H239313   4.093   2.242   1.003
13124TIP3   OH239314   7.169   6.883   1.558
13124TIP3    H139315   7.136   6.909   1.472
13124TIP3    H239316   7.100   6.826   1.594
13125TIP3   OH239317   1.197   1.311   0.796
13125TIP3    H139318   1.160   1.399   0.807
13125TIP3    H239319   1.206   1.277   0.885
13126TIP3   OH239320   5.731   1.999   5.446
13126TIP3    H139321   5.667   1.933   5.420
13126TIP3    H239322   5.687   2.083   5.428
13127TIP3   OH239323   2.368   6.698   0.082
13127TIP3    H139324   2.289   6.679   0.030
13127TIP3    H239325   2.376   6.624   0.142
13128TIP3   OH239326   5.452   2.204   2.149
13128TIP3    H139327   5.465   2.144   2.076
13128TIP3    H239328   5.363   2.186   2.180
13129TIP3   OH239329   2.621   0.082   0.948
13129TIP3    H139330   2.571   0.000   0.944
13129TIP3    H239331   2.574   0.141   0.890
13130TIP3   OH239332   4.088   7.176   4.905
13130TIP3    H139333   4.156   7.175   4.972
13130TIP3    H239334   4.009   7.148   4.951
13131TIP3   OH239335   5.209   5.208   4.077
13131TIP3    H139336   5.170   5.241   4.158
13131TIP3    H239337   5.135   5.167   4.031
13132TIP3   OH239338   7.769   4.762   3.480
13132TIP3    H139339   7.804   4.736   3.395
13132TIP3    H239340   7.675   4.747   3.474
13133TIP3   OH239341   4.740   5.259   3.241
13133TIP3    H139342   4.779   5.346   3.228
13133TIP3    H239343   4.658   5.262   3.191
13134TIP3   OH239344   7.875   4.354   2.588
13134TIP3    H139345   7.964   4.358   2.623
13134TIP3    H239346   7.818   4.371   2.664
13135TIP3   OH239347   2.990   7.235   0.451
13135TIP3    H139348   3.031   7.151   0.471
13135TIP3    H239349   3.001   7.245   0.356
13136TIP3   OH239350   6.911   5.633   1.929
13136TIP3    H139351   6.914   5.588   2.013
13136TIP3    H239352   6.869   5.716   1.948
13137TIP3   OH239353   6.439   3.623   6.542
13137TIP3    H139354   6.502   3.610   6.471
13137TIP3    H239355   6.421   3.717   6.541
13138TIP3   OH239356   7.202   1.009   1.460
13138TIP3    H139357   7.155   0.999   1.377
13138TIP3    H239358   7.196   0.923   1.501
13139TIP3   OH239359   1.626   6.231   2.757
13139TIP3    H139360   1.673   6.274   2.686
13139TIP3    H239361   1.561   6.176   2.714
13140TIP3   OH239362   0.305   6.056   3.007
13140TIP3    H139363   0.211   6.043   3.022
13140TIP3    H239364   0.343   5.968   3.014
13141TIP3   OH239365   2.054   4.630   5.085
13141TIP3    H139366   1.987   4.608   5.021
13141TIP3    H239367   2.050   4.560   5.150
13142TIP3   OH239368   2.041   7.759   0.179
13142TIP3    H139369   1.998   7.836   0.218
13142TIP3    H239370   2.053   7.782   0.087
13143TIP3   OH239371   0.559   2.282   1.249
13143TIP3    H139372   0.640   2.299   1.200
13143TIP3    H239373   0.586   2.283   1.341
13144TIP3   OH239374   5.977   4.148   4.662
13144TIP3    H139375   5.959   4.195   4.581
13144TIP3    H239376   6.003   4.060   4.634
13145TIP3   OH239377   7.883   6.716   5.746
13145TIP3    H139378   7.925   6.771   5.680
13145TIP3    H239379   7.951   6.653   5.772
13146TIP3   OH239380   0.279   7.218   2.653
13146TIP3    H139381   0.295   7.191   2.563
13146TIP3    H239382   0.292   7.313   2.653
13147TIP3   OH239383   8.293   6.698   3.265
13147TIP3    H139384   8.220   6.755   3.286
13147TIP3    H239385   8.276   6.617   3.314
13148TIP3   OH239386   2.619   5.205   2.609
13148TIP3    H139387   2.710   5.225   2.588
13148TIP3    H239388   2.572   5.214   2.525
13149TIP3   OH239389   6.030   0.912   4.813
13149TIP3    H139390   6.018   0.817   4.819
13149TIP3    H239391   6.004   0.932   4.723
13150TIP3   OH239392   5.503   4.001   2.755
13150TIP3    H139393   5.495   3.971   2.665
13150TIP3    H239394   5.590   3.972   2.782
13151TIP3   OH239395   2.264   4.083   4.757
13151TIP3    H139396   2.266   4.110   4.849
13151TIP3    H239397   2.306   3.997   4.756
13152TIP3   OH239398   7.617   6.307   5.916
13152TIP3    H139399   7.532   6.292   5.874
13152TIP3    H239400   7.656   6.219   5.920
13153TIP3   OH239401   0.319   0.166   1.112
13153TIP3    H139402   0.250   0.129   1.057
13153TIP3    H239403   0.278   0.241   1.155
13154TIP3   OH239404   3.241   0.831   1.048
13154TIP3    H139405   3.234   0.735   1.045
13154TIP3    H239406   3.153   0.862   1.025
13155TIP3   OH239407   3.356   7.549   4.194
13155TIP3    H139408   3.359   7.464   4.238
13155TIP3    H239409   3.399   7.609   4.255
13156TIP3   OH239410   4.585   3.356   5.633
13156TIP3    H139411   4.670   3.393   5.609
13156TIP3    H239412   4.563   3.297   5.561
13157TIP3   OH239413   5.544   3.546   4.475
13157TIP3    H139414   5.569   3.454   4.462
13157TIP3    H239415   5.571   3.589   4.394
13158TIP3   OH239416   7.833   4.401   4.354
13158TIP3    H139417   7.875   4.465   4.412
13158TIP3    H239418   7.740   4.408   4.373
13159TIP3   OH239419   1.226   2.652   1.377
13159TIP3    H139420   1.191   2.564   1.380
13159TIP3    H239421   1.256   2.669   1.466
13160TIP3   OH239422   4.544   7.068   5.301
13160TIP3    H139423   4.486   6.998   5.269
13160TIP3    H239424   4.487   7.127   5.350
13161TIP3   OH239425   7.692   3.918   5.243
13161TIP3    H139426   7.623   3.959   5.192
13161TIP3    H239427   7.678   3.950   5.333
13162TIP3   OH239428   3.293   1.699   0.616
13162TIP3    H139429   3.339   1.615   0.615
13162TIP3    H239430   3.201   1.676   0.611
13163TIP3   OH239431   1.880   3.663   1.080
13163TIP3    H139432   1.872   3.656   0.985
13163TIP3    H239433   1.870   3.757   1.098
13164TIP3   OH239434   2.400   3.539   5.312
13164TIP3    H139435   2.462   3.587   5.257
13164TIP3    H239436   2.422   3.564   5.401
13165TIP3   OH239437   1.225   2.662   4.579
13165TIP3    H139438   1.176   2.668   4.497
13165TIP3    H239439   1.161   2.685   4.647
13166TIP3   OH239440   8.247   1.971   1.298
13166TIP3    H139441   8.195   1.991   1.375
13166TIP3    H239442   8.216   1.884   1.270
13167TIP3   OH239443   5.621   0.250   4.318
13167TIP3    H139444   5.535   0.233   4.282
13167TIP3    H239445   5.615   0.222   4.410
13168TIP3   OH239446   3.283   3.848   3.122
13168TIP3    H139447   3.363   3.836   3.070
13168TIP3    H239448   3.244   3.760   3.125
13169TIP3   OH239449   8.010   4.664   3.969
13169TIP3    H139450   8.038   4.727   3.902
13169TIP3    H239451   7.975   4.590   3.920
13170TIP3   OH239452   4.636   7.086   1.849
13170TIP3    H139453   4.542   7.075   1.861
13170TIP3    H239454   4.646   7.108   1.756
13171TIP3   OH239455   3.005   5.494   3.096
13171TIP3    H139456   2.921   5.533   3.070
13171TIP3    H239457   3.011   5.510   3.190
13172TIP3   OH239458   4.408   5.907   0.526
13172TIP3    H139459   4.429   5.957   0.605
13172TIP3    H239460   4.355   5.833   0.557
13173TIP3   OH239461   4.957   7.735   6.818
13173TIP3    H139462   4.916   7.682   6.749
13173TIP3    H239463   4.888   7.795   6.846
13174TIP3   OH239464   1.385   1.174   4.825
13174TIP3    H139465   1.442   1.099   4.809
13174TIP3    H239466   1.297   1.137   4.832
13175TIP3   OH239467   2.341   7.236   4.812
13175TIP3    H139468   2.427   7.198   4.826
13175TIP3    H239469   2.290   7.167   4.771
13176TIP3   OH239470   4.487   0.783   2.191
13176TIP3    H139471   4.434   0.703   2.182
13176TIP3    H239472   4.436   0.851   2.147
13177TIP3   OH239473   2.320   6.032   2.769
13177TIP3    H139474   2.309   6.000   2.680
13177TIP3    H239475   2.413   6.055   2.774
13178TIP3   OH239476   7.166   1.863   2.020
13178TIP3    H139477   7.189   1.889   1.931
13178TIP3    H239478   7.076   1.893   2.032
13179TIP3   OH239479   8.188   4.313   3.269
13179TIP3    H139480   8.256   4.258   3.307
13179TIP3    H239481   8.112   4.256   3.262
13180TIP3   OH239482   5.033   4.477   3.291
13180TIP3    H139483   5.004   4.500   3.379
13180TIP3    H239484   4.954   4.484   3.237
13181TIP3   OH239485   7.655   2.113   4.178
13181TIP3    H139486   7.695   2.042   4.228
13181TIP3    H239487   7.703   2.113   4.095
13182TIP3   OH239488   3.417   4.601   3.278
13182TIP3    H139489   3.443   4.543   3.206
13182TIP3    H239490   3.499   4.641   3.307
13183TIP3   OH239491   5.275   1.332   0.987
13183TIP3    H139492   5.218   1.345   0.910
13183TIP3    H239493   5.345   1.395   0.976
13184TIP3   OH239494   4.210   6.699   0.532
13184TIP3    H139495   4.187   6.735   0.618
13184TIP3    H239496   4.133   6.717   0.478
13185TIP3   OH239497   4.555   1.419   2.942
13185TIP3    H139498   4.581   1.511   2.945
13185TIP3    H239499   4.619   1.374   2.997
13186TIP3   OH239500   2.319   6.023   1.616
13186TIP3    H139501   2.245   6.036   1.557
13186TIP3    H239502   2.385   5.978   1.563
13187TIP3   OH239503   4.690   0.564   1.931
13187TIP3    H139504   4.677   0.634   1.867
13187TIP3    H239505   4.705   0.609   2.014
13188TIP3   OH239506   1.757   5.390   0.572
13188TIP3    H139507   1.698   5.420   0.503
13188TIP3    H239508   1.720   5.425   0.652
13189TIP3   OH239509   1.046   5.618   4.782
13189TIP3    H139510   1.036   5.637   4.875
13189TIP3    H239511   0.991   5.683   4.737
13190TIP3   OH239512   3.633   1.957   1.457
13190TIP3    H139513   3.695   2.029   1.444
13190TIP3    H239514   3.675   1.901   1.523
13191TIP3   OH239515   7.927   7.003   2.221
13191TIP3    H139516   7.944   7.037   2.309
13191TIP3    H239517   7.915   6.909   2.234
13192TIP3   OH239518   5.408   6.572   5.342
13192TIP3    H139519   5.366   6.599   5.424
13192TIP3    H239520   5.351   6.605   5.273
13193TIP3   OH239521   2.773   3.518   6.100
13193TIP3    H139522   2.860   3.479   6.091
13193TIP3    H239523   2.714   3.443   6.107
13194TIP3   OH239524   5.472   5.879   6.534
13194TIP3    H139525   5.492   5.972   6.544
13194TIP3    H239526   5.548   5.833   6.570
13195TIP3   OH239527   1.865   0.203   5.129
13195TIP3    H139528   1.891   0.189   5.038
13195TIP3    H239529   1.872   0.298   5.141
13196TIP3   OH239530   6.315   2.771   1.824
13196TIP3    H139531   6.219   2.771   1.818
13196TIP3    H239532   6.336   2.849   1.875
13197TIP3   OH239533   2.661   4.708   5.115
13197TIP3    H139534   2.639   4.798   5.138
13197TIP3    H239535   2.710   4.674   5.189
13198TIP3   OH239536   1.512   0.140   5.646
13198TIP3    H139537   1.479   0.217   5.693
13198TIP3    H239538   1.593   0.118   5.692
13199TIP3   OH239539   4.093   6.778   6.522
13199TIP3    H139540   4.068   6.856   6.570
13199TIP3    H239541   4.165   6.806   6.466
13200TIP3   OH239542   1.299   4.073   1.494
13200TIP3    H139543   1.385   4.112   1.512
13200TIP3    H239544   1.257   4.134   1.433
13201TIP3   OH239545   2.711   5.102   1.672
13201TIP3    H139546   2.725   5.049   1.593
13201TIP3    H239547   2.798   5.135   1.694
13202TIP3   OH239548   5.881   2.247   1.281
13202TIP3    H139549   5.848   2.299   1.208
13202TIP3    H239550   5.829   2.277   1.356
13203TIP3   OH239551   2.975   4.354   3.384
13203TIP3    H139552   3.071   4.357   3.383
13203TIP3    H239553   2.948   4.436   3.343
13204TIP3   OH239554   5.847   2.560   4.051
13204TIP3    H139555   5.838   2.541   3.957
13204TIP3    H239556   5.939   2.544   4.070
13205TIP3   OH239557   2.411   5.828   5.651
13205TIP3    H139558   2.357   5.907   5.650
13205TIP3    H239559   2.445   5.822   5.562
13206TIP3   OH239560   6.001   4.626   6.222
13206TIP3    H139561   6.004   4.602   6.314
13206TIP3    H239562   5.921   4.585   6.189
13207TIP3   OH239563   6.321   1.457   3.399
13207TIP3    H139564   6.247   1.413   3.441
13207TIP3    H239565   6.379   1.385   3.371
13208TIP3   OH239566   3.742   0.111   2.752
13208TIP3    H139567   3.669   0.162   2.716
13208TIP3    H239568   3.811   0.176   2.766
13209TIP3   OH239569   1.820   6.051   1.491
13209TIP3    H139570   1.787   5.962   1.504
13209TIP3    H239571   1.825   6.060   1.396
13210TIP3   OH239572   3.280   6.591   1.521
13210TIP3    H139573   3.333   6.669   1.536
13210TIP3    H239574   3.330   6.540   1.457
13211TIP3   OH239575   6.628   6.013   5.195
13211TIP3    H139576   6.712   5.989   5.156
13211TIP3    H239577   6.648   6.030   5.287
13212TIP3   OH239578   2.279   6.756   4.349
13212TIP3    H139579   2.277   6.786   4.258
13212TIP3    H239580   2.198   6.791   4.387
13213TIP3   OH239581   7.972   4.829   0.494
13213TIP3    H139582   8.061   4.797   0.509
13213TIP3    H239583   7.977   4.923   0.514
13214TIP3   OH239584   7.407   7.623   1.890
13214TIP3    H139585   7.356   7.623   1.971
13214TIP3    H239586   7.342   7.634   1.821
13215TIP3   OH239587   0.370   1.707   1.934
13215TIP3    H139588   0.289   1.670   1.901
13215TIP3    H239589   0.356   1.802   1.931
13216TIP3   OH239590   2.908   5.781   0.667
13216TIP3    H139591   2.834   5.760   0.611
13216TIP3    H239592   2.916   5.706   0.726
13217TIP3   OH239593   0.887   4.883   6.683
13217TIP3    H139594   0.957   4.938   6.647
13217TIP3    H239595   0.822   4.877   6.614
13218TIP3   OH239596   5.155   7.796   2.640
13218TIP3    H139597   5.212   7.725   2.670
13218TIP3    H239598   5.137   7.775   2.548
13219TIP3   OH239599   7.377   1.216   4.430
13219TIP3    H139600   7.395   1.128   4.465
13219TIP3    H239601   7.281   1.220   4.424
13220TIP3   OH239602   7.163   2.979   3.215
13220TIP3    H139603   7.199   2.990   3.303
13220TIP3    H239604   7.204   3.048   3.164
13221TIP3   OH239605   2.112   6.514   5.010
13221TIP3    H139606   2.087   6.583   4.949
13221TIP3    H239607   2.201   6.491   4.985
13222TIP3   OH239608   0.323   7.536   3.837
13222TIP3    H139609   0.250   7.597   3.835
13222TIP3    H239610   0.357   7.536   3.748
13223TIP3   OH239611   7.195   6.183   0.579
13223TIP3    H139612   7.263   6.234   0.624
13223TIP3    H239613   7.204   6.209   0.487
13224TIP3   OH239614   1.202   7.027   2.065
13224TIP3    H139615   1.271   7.088   2.090
13224TIP3    H239616   1.158   7.006   2.147
13225TIP3   OH239617   2.891   1.848   5.118
13225TIP3    H139618   2.923   1.762   5.091
13225TIP3    H239619   2.813   1.829   5.170
13226TIP3   OH239620   0.608   0.365   3.656
13226TIP3    H139621   0.596   0.272   3.676
13226TIP3    H239622   0.542   0.383   3.589
13227TIP3   OH239623   0.706   5.991   4.746
13227TIP3    H139624   0.630   5.952   4.790
13227TIP3    H239625   0.727   6.068   4.798
13228TIP3   OH239626   4.243   1.864   2.717
13228TIP3    H139627   4.281   1.802   2.780
13228TIP3    H239628   4.154   1.879   2.750
13229TIP3   OH239629   7.988   3.337   0.609
13229TIP3    H139630   7.903   3.376   0.625
13229TIP3    H239631   8.046   3.379   0.673
13230TIP3   OH239632   2.304   6.565   6.548
13230TIP3    H139633   2.298   6.615   6.466
13230TIP3    H239634   2.381   6.601   6.592
13231TIP3   OH239635   4.899   4.966   6.154
13231TIP3    H139636   4.889   4.951   6.060
13231TIP3    H239637   4.976   4.914   6.178
13232TIP3   OH239638   4.379   1.639   4.658
13232TIP3    H139639   4.463   1.595   4.670
13232TIP3    H239640   4.315   1.568   4.656
13233TIP3   OH239641   8.121   2.830   5.555
13233TIP3    H139642   8.128   2.922   5.582
13233TIP3    H239643   8.027   2.811   5.559
13234TIP3   OH239644   3.796   3.517   4.999
13234TIP3    H139645   3.716   3.542   5.045
13234TIP3    H239646   3.867   3.533   5.061
13235TIP3   OH239647   1.231   2.655   2.895
13235TIP3    H139648   1.256   2.572   2.936
13235TIP3    H239649   1.136   2.658   2.904
13236TIP3   OH239650   2.118   0.775   1.223
13236TIP3    H139651   2.111   0.777   1.318
13236TIP3    H239652   2.211   0.787   1.205
13237TIP3   OH239653   0.818   3.717   3.209
13237TIP3    H139654   0.849   3.777   3.141
13237TIP3    H239655   0.833   3.764   3.291
13238TIP3   OH239656   2.679   3.921   4.739
13238TIP3    H139657   2.751   3.943   4.681
13238TIP3    H239658   2.653   4.004   4.779
13239TIP3   OH239659   5.213   1.122   5.767
13239TIP3    H139660   5.188   1.057   5.702
13239TIP3    H239661   5.140   1.123   5.830
13240TIP3   OH239662   4.979   1.413   4.987
13240TIP3    H139663   4.892   1.440   4.957
13240TIP3    H239664   4.974   1.317   4.992
13241TIP3   OH239665   0.311   1.689   0.142
13241TIP3    H139666   0.389   1.677   0.196
13241TIP3    H239667   0.343   1.683   0.052
13242TIP3   OH239668   7.983   2.000   4.829
13242TIP3    H139669   7.923   1.925   4.833
13242TIP3    H239670   8.070   1.961   4.820
13243TIP3   OH239671   6.753   7.144   4.071
13243TIP3    H139672   6.759   7.235   4.099
13243TIP3    H239673   6.817   7.098   4.126
13244TIP3   OH239674   5.743   0.761   0.665
13244TIP3    H139675   5.777   0.809   0.590
13244TIP3    H239676   5.805   0.780   0.735
13245TIP3   OH239677   0.259   0.404   4.477
13245TIP3    H139678   0.196   0.428   4.409
13245TIP3    H239679   0.316   0.481   4.485
13246TIP3   OH239680   7.401   6.317   6.729
13246TIP3    H139681   7.309   6.328   6.754
13246TIP3    H239682   7.417   6.223   6.738
13247TIP3   OH239683   3.320   4.624   1.261
13247TIP3    H139684   3.273   4.557   1.311
13247TIP3    H239685   3.413   4.600   1.270
13248TIP3   OH239686   4.030   7.154   1.732
13248TIP3    H139687   4.085   7.194   1.665
13248TIP3    H239688   4.038   7.213   1.808
13249TIP3   OH239689   6.006   4.787   5.830
13249TIP3    H139690   5.992   4.710   5.885
13249TIP3    H239691   5.925   4.838   5.838
13250TIP3   OH239692   2.383   1.833   0.870
13250TIP3    H139693   2.357   1.915   0.912
13250TIP3    H239694   2.418   1.780   0.941
13251TIP3   OH239695   4.361   4.282   0.361
13251TIP3    H139696   4.324   4.365   0.392
13251TIP3    H239697   4.393   4.239   0.440
13252TIP3   OH239698   6.631   6.959   4.580
13252TIP3    H139699   6.553   6.996   4.622
13252TIP3    H239700   6.649   7.018   4.507
13253TIP3   OH239701   4.001   2.669   5.954
13253TIP3    H139702   4.050   2.649   6.034
13253TIP3    H239703   4.056   2.732   5.908
13254TIP3   OH239704   1.747   6.082   4.840
13254TIP3    H139705   1.664   6.123   4.862
13254TIP3    H239706   1.799   6.152   4.801
13255TIP3   OH239707   6.901   6.218   2.706
13255TIP3    H139708   6.871   6.127   2.710
13255TIP3    H239709   6.941   6.226   2.620
13256TIP3   OH239710   1.269   7.406   5.740
13256TIP3    H139711   1.313   7.429   5.658
13256TIP3    H239712   1.189   7.362   5.714
13257TIP3   OH239713   3.861   1.552   6.151
13257TIP3    H139714   3.784   1.510   6.189
13257TIP3    H239715   3.932   1.489   6.166
13258TIP3   OH239716   3.188   4.817   0.184
13258TIP3    H139717   3.136   4.763   0.243
13258TIP3    H239718   3.270   4.831   0.231
13259TIP3   OH239719   0.782   0.679   2.938
13259TIP3    H139720   0.776   0.608   3.002
13259TIP3    H239721   0.859   0.657   2.885
13260TIP3   OH239722   8.093   3.929   4.745
13260TIP3    H139723   8.183   3.960   4.741
13260TIP3    H239724   8.086   3.867   4.672
13261TIP3   OH239725   7.320   2.262   2.996
13261TIP3    H139726   7.410   2.294   2.994
13261TIP3    H239727   7.267   2.339   2.976
13262TIP3   OH239728   7.709   2.246   1.948
13262TIP3    H139729   7.658   2.198   1.883
13262TIP3    H239730   7.732   2.181   2.014
13263TIP3   OH239731   5.142   1.304   6.210
13263TIP3    H139732   5.149   1.221   6.256
13263TIP3    H239733   5.048   1.323   6.208
13264TIP3   OH239734   8.023   3.817   6.638
13264TIP3    H139735   7.998   3.728   6.663
13264TIP3    H239736   8.008   3.822   6.544
13265TIP3   OH239737   1.110   6.302   1.341
13265TIP3    H139738   1.068   6.267   1.419
13265TIP3    H239739   1.040   6.303   1.275
13266TIP3   OH239740   5.465   2.754   1.672
13266TIP3    H139741   5.456   2.826   1.734
13266TIP3    H239742   5.554   2.763   1.637
13267TIP3   OH239743   6.491   3.891   5.818
13267TIP3    H139744   6.518   3.831   5.888
13267TIP3    H239745   6.396   3.898   5.827
13268TIP3   OH239746   0.471   1.104   3.679
13268TIP3    H139747   0.516   1.172   3.628
13268TIP3    H239748   0.465   1.029   3.620
13269TIP3   OH239749   6.191   0.569   6.575
13269TIP3    H139750   6.263   0.512   6.603
13269TIP3    H239751   6.172   0.622   6.653
13270TIP3   OH239752   2.638   3.021   0.084
13270TIP3    H139753   2.593   2.984   0.009
13270TIP3    H239754   2.667   3.108   0.055
13271TIP3   OH239755   7.196   7.308   5.703
13271TIP3    H139756   7.244   7.374   5.653
13271TIP3    H239757   7.249   7.295   5.782
13272TIP3   OH239758   0.316   6.798   0.633
13272TIP3    H139759   0.285   6.729   0.691
13272TIP3    H239760   0.411   6.786   0.630
13273TIP3   OH239761   0.857   4.643   0.409
13273TIP3    H139762   0.893   4.677   0.491
13273TIP3    H239763   0.805   4.714   0.374
13274TIP3   OH239764   2.973   1.385   0.873
13274TIP3    H139765   2.892   1.371   0.823
13274TIP3    H239766   2.954   1.459   0.930
13275TIP3   OH239767   3.870   6.184   3.118
13275TIP3    H139768   3.928   6.130   3.066
13275TIP3    H239769   3.836   6.125   3.186
13276TIP3   OH239770   5.972   2.048   5.128
13276TIP3    H139771   6.014   2.013   5.049
13276TIP3    H239772   5.971   2.143   5.114
13277TIP3   OH239773   3.783   6.531   4.728
13277TIP3    H139774   3.764   6.445   4.690
13277TIP3    H239775   3.701   6.579   4.720
13278TIP3   OH239776   1.441   5.916   4.255
13278TIP3    H139777   1.389   5.893   4.178
13278TIP3    H239778   1.532   5.906   4.226
13279TIP3   OH239779   5.015   7.157   2.643
13279TIP3    H139780   4.985   7.118   2.725
13279TIP3    H239781   4.978   7.245   2.644
13280TIP3   OH239782   7.466   0.776   2.793
13280TIP3    H139783   7.524   0.703   2.769
13280TIP3    H239784   7.507   0.815   2.870
13281TIP3   OH239785   7.307   4.558   6.100
13281TIP3    H139786   7.359   4.634   6.125
13281TIP3    H239787   7.229   4.562   6.155
13282TIP3   OH239788   3.012   6.326   5.378
13282TIP3    H139789   3.028   6.409   5.333
13282TIP3    H239790   3.099   6.294   5.400
13283TIP3   OH239791   4.611   6.251   2.692
13283TIP3    H139792   4.638   6.335   2.728
13283TIP3    H239793   4.679   6.229   2.629
13284TIP3   OH239794   5.636   6.347   0.264
13284TIP3    H139795   5.567   6.301   0.311
13284TIP3    H239796   5.663   6.417   0.324
13285TIP3   OH239797   4.827   4.646   4.535
13285TIP3    H139798   4.827   4.739   4.512
13285TIP3    H239799   4.769   4.605   4.470
13286TIP3   OH239800   6.614   2.265   3.139
13286TIP3    H139801   6.552   2.319   3.090
13286TIP3    H239802   6.671   2.327   3.183
13287TIP3   OH239803   1.907   3.997   5.432
13287TIP3    H139804   1.840   3.957   5.487
13287TIP3    H239805   1.900   3.952   5.348
13288TIP3   OH239806   4.821   3.161   2.470
13288TIP3    H139807   4.773   3.113   2.403
13288TIP3    H239808   4.757   3.225   2.503
13289TIP3   OH239809   4.939   3.464   2.879
13289TIP3    H139810   4.912   3.481   2.789
13289TIP3    H239811   4.887   3.389   2.906
13290TIP3   OH239812   6.935   7.280   4.579
13290TIP3    H139813   6.926   7.210   4.644
13290TIP3    H239814   6.864   7.341   4.600
13291TIP3   OH239815   1.745   7.189   6.085
13291TIP3    H139816   1.653   7.197   6.062
13291TIP3    H239817   1.745   7.168   6.179
13292TIP3   OH239818   6.099   2.505   0.254
13292TIP3    H139819   6.005   2.492   0.240
13292TIP3    H239820   6.138   2.422   0.229
13293TIP3   OH239821   1.876   2.300   6.210
13293TIP3    H139822   1.946   2.366   6.215
13293TIP3    H239823   1.922   2.216   6.216
13294TIP3   OH239824   5.238   5.913   2.241
13294TIP3    H139825   5.328   5.934   2.265
13294TIP3    H239826   5.246   5.856   2.164
13295TIP3   OH239827   5.125   1.691   5.603
13295TIP3    H139828   5.142   1.638   5.681
13295TIP3    H239829   5.068   1.638   5.549
13296TIP3   OH239830   7.964   7.282   3.123
13296TIP3    H139831   7.914   7.268   3.203
13296TIP3    H239832   7.925   7.360   3.083
13297TIP3   OH239833   0.097   2.668   3.325
13297TIP3    H139834   0.065   2.592   3.372
13297TIP3    H239835   0.192   2.655   3.320
13298TIP3   OH239836   3.258   5.898   6.345
13298TIP3    H139837   3.194   5.959   6.380
13298TIP3    H239838   3.264   5.920   6.252
13299TIP3   OH239839   4.833   6.387   5.312
13299TIP3    H139840   4.905   6.435   5.354
13299TIP3    H239841   4.775   6.455   5.279
13300TIP3   OH239842   0.968   3.567   4.590
13300TIP3    H139843   0.940   3.545   4.679
13300TIP3    H239844   1.061   3.545   4.588
13301TIP3   OH239845   5.281   4.437   5.504
13301TIP3    H139846   5.341   4.510   5.518
13301TIP3    H239847   5.195   4.478   5.492
13302TIP3   OH239848   0.050   1.675   3.928
13302TIP3    H139849   0.118   1.609   3.920
13302TIP3    H239850   0.071   1.741   3.862
13303TIP3   OH239851   3.173   2.890   3.221
13303TIP3    H139852   3.238   2.824   3.247
13303TIP3    H239853   3.210   2.929   3.142
13304TIP3   OH239854   3.867   4.997   6.273
13304TIP3    H139855   3.870   4.901   6.265
13304TIP3    H239856   3.789   5.023   6.225
13305TIP3   OH239857   0.845   4.683   1.333
13305TIP3    H139858   0.856   4.615   1.267
13305TIP3    H239859   0.765   4.659   1.379
13306TIP3   OH239860   4.631   1.166   3.720
13306TIP3    H139861   4.550   1.182   3.671
13306TIP3    H239862   4.687   1.241   3.700
13307TIP3   OH239863   1.232   3.051   4.602
13307TIP3    H139864   1.187   2.991   4.662
13307TIP3    H239865   1.308   3.002   4.572
13308TIP3   OH239866   0.118   4.937   2.333
13308TIP3    H139867   0.180   4.995   2.377
13308TIP3    H239868   0.095   4.873   2.401
13309TIP3   OH239869   0.424   6.980   2.440
13309TIP3    H139870   0.384   7.063   2.414
13309TIP3    H239871   0.487   7.004   2.508
13310TIP3   OH239872   7.084   3.215   2.361
13310TIP3    H139873   7.050   3.302   2.381
13310TIP3    H239874   7.060   3.162   2.437
13311TIP3   OH239875   4.878   4.163   6.641
13311TIP3    H139876   4.968   4.194   6.646
13311TIP3    H239877   4.863   4.148   6.547
13312TIP3   OH239878   3.227   5.993   4.999
13312TIP3    H139879   3.159   6.011   5.063
13312TIP3    H239880   3.187   6.012   4.915
13313TIP3   OH239881   3.211   6.503   6.692
13313TIP3    H139882   3.161   6.444   6.634
13313TIP3    H239883   3.200   6.465   6.779
13314TIP3   OH239884   2.532   1.586   6.225
13314TIP3    H139885   2.515   1.603   6.132
13314TIP3    H239886   2.614   1.633   6.243
13315TIP3   OH239887   1.248   5.945   3.762
13315TIP3    H139888   1.262   6.027   3.808
13315TIP3    H239889   1.336   5.917   3.735
13316TIP3   OH239890   6.120   4.376   0.640
13316TIP3    H139891   6.037   4.394   0.684
13316TIP3    H239892   6.100   4.385   0.546
13317TIP3   OH239893   2.215   0.607   3.991
13317TIP3    H139894   2.127   0.624   3.957
13317TIP3    H239895   2.238   0.688   4.037
13318TIP3   OH239896   7.071   1.170   6.302
13318TIP3    H139897   6.984   1.198   6.329
13318TIP3    H239898   7.080   1.203   6.213
13319TIP3   OH239899   5.195   3.620   2.615
13319TIP3    H139900   5.231   3.679   2.548
13319TIP3    H239901   5.107   3.601   2.584
13320TIP3   OH239902   2.344   0.522   5.557
13320TIP3    H139903   2.286   0.448   5.578
13320TIP3    H239904   2.284   0.596   5.546
13321TIP3   OH239905   4.892   7.554   3.571
13321TIP3    H139906   4.812   7.511   3.601
13321TIP3    H239907   4.902   7.629   3.630
13322TIP3   OH239908   2.340   4.173   2.293
13322TIP3    H139909   2.326   4.107   2.226
13322TIP3    H239910   2.299   4.253   2.258
13323TIP3   OH239911   2.813   6.213   6.511
13323TIP3    H139912   2.735   6.219   6.456
13323TIP3    H239913   2.812   6.293   6.563
13324TIP3   OH239914   2.975   2.592   3.584
13324TIP3    H139915   3.001   2.650   3.656
13324TIP3    H239916   3.000   2.505   3.613
13325TIP3   OH239917   7.602   4.255   3.011
13325TIP3    H139918   7.518   4.257   2.965
13325TIP3    H239919   7.579   4.263   3.104
13326TIP3   OH239920   7.668   4.460   3.499
13326TIP3    H139921   7.632   4.547   3.518
13326TIP3    H239922   7.738   4.476   3.436
13327TIP3   OH239923   6.782   6.616   5.187
13327TIP3    H139924   6.722   6.546   5.211
13327TIP3    H239925   6.825   6.585   5.108
13328TIP3   OH239926   1.026   2.306   5.269
13328TIP3    H139927   0.944   2.353   5.287
13328TIP3    H239928   1.042   2.255   5.349
13329TIP3   OH239929   4.471   1.757   6.293
13329TIP3    H139930   4.436   1.840   6.326
13329TIP3    H239931   4.552   1.781   6.248
13330TIP3   OH239932   2.473   6.965   0.150
13330TIP3    H139933   2.435   6.965   0.238
13330TIP3    H239934   2.459   6.876   0.118
13331TIP3   OH239935   6.329   3.945   3.386
13331TIP3    H139936   6.413   3.974   3.349
13331TIP3    H239937   6.264   3.971   3.321
13332TIP3   OH239938   3.874   1.920   3.950
13332TIP3    H139939   3.811   1.856   3.983
13332TIP3    H239940   3.942   1.924   4.018
13333TIP3   OH239941   0.756   6.549   3.965
13333TIP3    H139942   0.756   6.457   3.993
13333TIP3    H239943   0.702   6.594   4.030
13334TIP3   OH239944   7.208   3.254   2.106
13334TIP3    H139945   7.154   3.238   2.183
13334TIP3    H239946   7.292   3.213   2.126
13335TIP3   OH239947   1.796   2.026   3.531
13335TIP3    H139948   1.872   2.082   3.547
13335TIP3    H239949   1.749   2.025   3.614
13336TIP3   OH239950   0.976   7.206   1.968
13336TIP3    H139951   1.023   7.289   1.973
13336TIP3    H239952   1.041   7.141   1.997
13337TIP3   OH239953   6.067   1.964   0.731
13337TIP3    H139954   6.077   2.048   0.687
13337TIP3    H239955   6.006   1.914   0.677
13338TIP3   OH239956   7.122   2.115   5.287
13338TIP3    H139957   7.097   2.207   5.275
13338TIP3    H239958   7.106   2.098   5.380
13339TIP3   OH239959   3.002   2.493   6.561
13339TIP3    H139960   2.932   2.554   6.585
13339TIP3    H239961   2.960   2.428   6.506
13340TIP3   OH239962   1.505   5.237   1.117
13340TIP3    H139963   1.600   5.224   1.127
13340TIP3    H239964   1.495   5.332   1.118
13341TIP3   OH239965   7.774   4.901   2.433
13341TIP3    H139966   7.853   4.918   2.484
13341TIP3    H239967   7.707   4.957   2.474
13342TIP3   OH239968   5.263   5.580   2.278
13342TIP3    H139969   5.288   5.628   2.199
13342TIP3    H239970   5.167   5.585   2.280
13343TIP3   OH239971   5.816   5.918   3.614
13343TIP3    H139972   5.831   5.948   3.524
13343TIP3    H239973   5.731   5.954   3.638
13344TIP3   OH239974   2.315   5.889   4.373
13344TIP3    H139975   2.329   5.809   4.322
13344TIP3    H239976   2.371   5.877   4.450
13345TIP3   OH239977   7.368   1.757   4.843
13345TIP3    H139978   7.449   1.706   4.837
13345TIP3    H239979   7.298   1.692   4.838
13346TIP3   OH239980   5.945   0.784   0.847
13346TIP3    H139981   6.014   0.850   0.855
13346TIP3    H239982   5.991   0.700   0.853
13347TIP3   OH239983   3.268   6.115   2.775
13347TIP3    H139984   3.317   6.178   2.827
13347TIP3    H239985   3.200   6.168   2.732
13348TIP3   OH239986   6.979   2.567   6.014
13348TIP3    H139987   6.998   2.525   5.930
13348TIP3    H239988   7.011   2.657   6.004
13349TIP3   OH239989   0.816   1.299   6.303
13349TIP3    H139990   0.820   1.305   6.207
13349TIP3    H239991   0.725   1.275   6.321
13350TIP3   OH239992   2.020   0.188   1.320
13350TIP3    H139993   2.104   0.195   1.275
13350TIP3    H239994   1.961   0.244   1.270
13351TIP3   OH239995   4.566   2.888   4.487
13351TIP3    H139996   4.547   2.813   4.543
13351TIP3    H239997   4.659   2.879   4.466
13352TIP3   OH239998   7.797   3.977   6.306
13352TIP3    H139999   7.845   4.059   6.314
13352TIP3    H240000   7.705   4.002   6.301
13353TIP3   OH240001   3.440   1.288   5.422
13353TIP3    H140002   3.355   1.331   5.412
13353TIP3    H240003   3.491   1.317   5.346
13354TIP3   OH240004   7.161   5.615   4.095
13354TIP3    H140005   7.222   5.582   4.029
13354TIP3    H240006   7.197   5.700   4.121
13355TIP3   OH240007   0.857   0.763   5.411
13355TIP3    H140008   0.918   0.826   5.449
13355TIP3    H240009   0.913   0.693   5.379
13356TIP3   OH240010   2.265   4.470   3.391
13356TIP3    H140011   2.331   4.507   3.332
13356TIP3    H240012   2.268   4.376   3.374
13357TIP3   OH240013   0.238   6.771   0.349
13357TIP3    H140014   0.151   6.734   0.367
13357TIP3    H240015   0.287   6.756   0.430
13358TIP3   OH240016   4.053   7.628   1.453
13358TIP3    H140017   4.147   7.617   1.466
13358TIP3    H240018   4.013   7.557   1.504
13359TIP3   OH240019   0.739   7.310   5.792
13359TIP3    H140020   0.725   7.343   5.703
13359TIP3    H240021   0.793   7.377   5.833
13360TIP3   OH240022   5.671   5.592   0.429
13360TIP3    H140023   5.767   5.590   0.425
13360TIP3    H240024   5.646   5.501   0.445
13361TIP3   OH240025   6.957   3.201   2.873
13361TIP3    H140026   6.869   3.230   2.850
13361TIP3    H240027   7.011   3.224   2.797
13362TIP3   OH240028   7.328   6.762   3.724
13362TIP3    H140029   7.328   6.800   3.636
13362TIP3    H240030   7.242   6.785   3.760
13363TIP3   OH240031   5.204   1.192   4.686
13363TIP3    H140032   5.279   1.250   4.692
13363TIP3    H240033   5.237   1.107   4.716
13364TIP3   OH240034   7.190   2.773   4.232
13364TIP3    H140035   7.137   2.738   4.304
13364TIP3    H240036   7.255   2.829   4.275
13365TIP3   OH240037   6.682   4.835   0.828
13365TIP3    H140038   6.612   4.841   0.892
13365TIP3    H240039   6.660   4.901   0.762
13366TIP3   OH240040   1.757   7.113   6.766
13366TIP3    H140041   1.790   7.176   6.702
13366TIP3    H240042   1.828   7.104   6.829
13367TIP3   OH240043   6.637   5.645   2.928
13367TIP3    H140044   6.584   5.566   2.923
13367TIP3    H240045   6.641   5.677   2.838
13368TIP3   OH240046   4.296   5.609   6.186
13368TIP3    H140047   4.301   5.550   6.111
13368TIP3    H240048   4.300   5.697   6.148
13369TIP3   OH240049   3.680   7.429   5.400
13369TIP3    H140050   3.625   7.444   5.324
13369TIP3    H240051   3.761   7.392   5.364
13370TIP3   OH240052   6.083   0.700   1.559
13370TIP3    H140053   6.086   0.711   1.464
13370TIP3    H240054   6.144   0.628   1.577
13371TIP3   OH240055   4.124   2.937   0.577
13371TIP3    H140056   4.092   2.914   0.664
13371TIP3    H240057   4.090   3.025   0.561
13372TIP3   OH240058   1.288   0.591   4.500
13372TIP3    H140059   1.379   0.608   4.477
13372TIP3    H240060   1.293   0.527   4.571
13373TIP3   OH240061   4.861   0.128   1.972
13373TIP3    H140062   4.925   0.090   1.912
13373TIP3    H240063   4.846   0.216   1.938
13374TIP3   OH240064   0.916   4.402   1.765
13374TIP3    H140065   0.970   4.396   1.686
13374TIP3    H240066   0.978   4.427   1.834
13375TIP3   OH240067   4.242   6.560   6.632
13375TIP3    H140068   4.198   6.633   6.588
13375TIP3    H240069   4.191   6.547   6.712
13376TIP3   OH240070   8.067   0.726   0.839
13376TIP3    H140071   8.050   0.689   0.752
13376TIP3    H240072   7.980   0.753   0.870
13377TIP3   OH240073   1.403   1.547   2.023
13377TIP3    H140074   1.324   1.559   2.077
13377TIP3    H240075   1.395   1.614   1.955
13378TIP3   OH240076   8.174   1.315   5.163
13378TIP3    H140077   8.109   1.246   5.174
13378TIP3    H240078   8.149   1.382   5.227
13379TIP3   OH240079   1.573   2.715   3.952
13379TIP3    H140080   1.501   2.743   4.009
13379TIP3    H240081   1.569   2.776   3.878
13380TIP3   OH240082   0.746   2.385   4.032
13380TIP3    H140083   0.708   2.435   4.105
13380TIP3    H240084   0.841   2.396   4.042
13381TIP3   OH240085   6.910  -0.017   5.750
13381TIP3    H140086   6.872   0.068   5.727
13381TIP3    H240087   6.939  -0.054   5.667
13382TIP3   OH240088   6.003   7.249   3.476
13382TIP3    H140089   5.964   7.220   3.558
13382TIP3    H240090   5.936   7.303   3.435
13383TIP3   OH240091   2.549   6.250   5.639
13383TIP3    H140092   2.575   6.198   5.715
13383TIP3    H240093   2.630   6.290   5.608
13384TIP3   OH240094   1.352   2.288   0.933
13384TIP3    H140095   1.321   2.363   0.983
13384TIP3    H240096   1.431   2.319   0.889
13385TIP3   OH240097   4.976   5.948   3.673
13385TIP3    H140098   4.950   6.034   3.704
13385TIP3    H240099   5.013   5.904   3.749
13386TIP3   OH240100   6.080   6.836   4.936
13386TIP3    H140101   6.120   6.765   4.986
13386TIP3    H240102   6.021   6.793   4.874
13387TIP3   OH240103   1.931   0.857   5.414
13387TIP3    H140104   1.891   0.830   5.331
13387TIP3    H240105   1.908   0.949   5.423
13388TIP3   OH240106   1.379   0.502   2.403
13388TIP3    H140107   1.427   0.557   2.465
13388TIP3    H240108   1.370   0.557   2.324
13389TIP3   OH240109   0.177   0.913   4.725
13389TIP3    H140110   0.218   0.829   4.744
13389TIP3    H240111   0.206   0.935   4.636
13390TIP3   OH240112   2.073   2.944   0.179
13390TIP3    H140113   2.039   2.860   0.148
13390TIP3    H240114   2.160   2.924   0.214
13391TIP3   OH240115   3.871   4.976   2.573
13391TIP3    H140116   3.947   5.021   2.536
13391TIP3    H240117   3.908   4.903   2.624
13392TIP3   OH240118   6.657   1.163   2.731
13392TIP3    H140119   6.590   1.117   2.781
13392TIP3    H240120   6.658   1.120   2.646
13393TIP3   OH240121   5.255   4.251   5.991
13393TIP3    H140122   5.236   4.333   5.946
13393TIP3    H240123   5.209   4.184   5.941
13394TIP3   OH240124   5.739   5.937   6.225
13394TIP3    H140125   5.645   5.952   6.241
13394TIP3    H240126   5.749   5.945   6.131
13395TIP3   OH240127   7.549   1.614   5.422
13395TIP3    H140128   7.639   1.647   5.432
13395TIP3    H240129   7.497   1.669   5.481
13396TIP3   OH240130   1.751   1.840   4.909
13396TIP3    H140131   1.804   1.902   4.959
13396TIP3    H240132   1.810   1.811   4.839
13397TIP3   OH240133   4.554   0.481   1.595
13397TIP3    H140134   4.606   0.409   1.558
13397TIP3    H240135   4.537   0.454   1.685
13398TIP3   OH240136   0.586   0.719   6.245
13398TIP3    H140137   0.641   0.747   6.171
13398TIP3    H240138   0.617   0.771   6.319
13399TIP3   OH240139   1.241   6.483   4.277
13399TIP3    H140140   1.273   6.484   4.187
13399TIP3    H240141   1.215   6.573   4.295
13400TIP3   OH240142   1.781   2.290   3.230
13400TIP3    H140143   1.755   2.317   3.141
13400TIP3    H240144   1.780   2.372   3.280
13401TIP3   OH240145   7.195   6.669   5.281
13401TIP3    H140146   7.262   6.698   5.342
13401TIP3    H240147   7.112   6.692   5.322
13402TIP3   OH240148   2.507   5.227   2.108
13402TIP3    H140149   2.517   5.133   2.097
13402TIP3    H240150   2.487   5.260   2.020
13403TIP3   OH240151   2.787   0.321   0.965
13403TIP3    H140152   2.747   0.244   0.926
13403TIP3    H240153   2.732   0.340   1.042
13404TIP3   OH240154   1.431   4.589   4.336
13404TIP3    H140155   1.461   4.512   4.287
13404TIP3    H240156   1.506   4.615   4.389
13405TIP3   OH240157   7.135   5.372   0.684
13405TIP3    H140158   7.115   5.404   0.596
13405TIP3    H240159   7.230   5.361   0.685
13406TIP3   OH240160   7.350   0.484   2.405
13406TIP3    H140161   7.419   0.549   2.391
13406TIP3    H240162   7.348   0.434   2.323
13407TIP3   OH240163   6.459   3.339   5.381
13407TIP3    H140164   6.508   3.368   5.303
13407TIP3    H240165   6.474   3.245   5.385
13408TIP3   OH240166   3.426   6.828   1.548
13408TIP3    H140167   3.468   6.852   1.465
13408TIP3    H240168   3.482   6.865   1.615
13409TIP3   OH240169   2.492   4.121   5.596
13409TIP3    H140170   2.527   4.201   5.556
13409TIP3    H240171   2.461   4.149   5.682
13410TIP3   OH240172   4.541   5.214   1.255
13410TIP3    H140173   4.469   5.151   1.258
13410TIP3    H240174   4.614   5.169   1.297
13411TIP3   OH240175   6.439   7.555   5.888
13411TIP3    H140176   6.380   7.480   5.875
13411TIP3    H240177   6.380   7.631   5.895
13412TIP3   OH240178   4.785   2.156   3.813
13412TIP3    H140179   4.712   2.210   3.782
13412TIP3    H240180   4.840   2.143   3.736
13413TIP3   OH240181   2.042   4.374   3.571
13413TIP3    H140182   2.120   4.398   3.520
13413TIP3    H240183   1.994   4.314   3.514
13414TIP3   OH240184   2.916   6.882   3.117
13414TIP3    H140185   2.999   6.837   3.102
13414TIP3    H240186   2.910   6.891   3.212
13415TIP3   OH240187   6.536   3.205   2.120
13415TIP3    H140188   6.572   3.163   2.042
13415TIP3    H240189   6.610   3.208   2.181
13416TIP3   OH240190   1.970   3.905   1.529
13416TIP3    H140191   2.034   3.934   1.464
13416TIP3    H240192   1.947   3.816   1.502
13417TIP3   OH240193   3.681   5.432   3.409
13417TIP3    H140194   3.772   5.439   3.381
13417TIP3    H240195   3.677   5.482   3.491
13418TIP3   OH240196   7.095   0.751   0.663
13418TIP3    H140197   7.018   0.806   0.677
13418TIP3    H240198   7.160   0.810   0.623
13419TIP3   OH240199   4.734   0.270   1.557
13419TIP3    H140200   4.736   0.182   1.593
13419TIP3    H240201   4.760   0.260   1.466
13420TIP3   OH240202   7.768   2.655   3.126
13420TIP3    H140203   7.854   2.696   3.121
13420TIP3    H240204   7.785   2.565   3.153
13421TIP3   OH240205   6.180   6.413   0.929
13421TIP3    H140206   6.259   6.452   0.890
13421TIP3    H240207   6.113   6.423   0.861
13422TIP3   OH240208   6.699   5.093   6.056
13422TIP3    H140209   6.791   5.114   6.043
13422TIP3    H240210   6.677   5.035   5.983
13423TIP3   OH240211   7.755   1.827   1.830
13423TIP3    H140212   7.795   1.777   1.759
13423TIP3    H240213   7.685   1.770   1.862
13424TIP3   OH240214   0.667   6.318   4.134
13424TIP3    H140215   0.711   6.244   4.092
13424TIP3    H240216   0.582   6.323   4.090
13425TIP3   OH240217   1.364   3.225   1.224
13425TIP3    H140218   1.290   3.276   1.190
13425TIP3    H240219   1.380   3.159   1.156
13426TIP3   OH240220   4.534   0.388   3.710
13426TIP3    H140221   4.596   0.321   3.682
13426TIP3    H240222   4.487   0.412   3.630
13427TIP3   OH240223   1.928   2.183   4.177
13427TIP3    H140224   1.879   2.184   4.259
13427TIP3    H240225   1.863   2.200   4.109
13428TIP3   OH240226   1.869   7.536   1.721
13428TIP3    H140227   1.783   7.576   1.715
13428TIP3    H240228   1.875   7.506   1.812
13429TIP3   OH240229   3.876   0.083   0.339
13429TIP3    H140230   3.818   0.104   0.411
13429TIP3    H240231   3.942   0.152   0.339
13430TIP3   OH240232   6.104   0.818   1.237
13430TIP3    H140233   6.071   0.736   1.200
13430TIP3    H240234   6.198   0.802   1.250
13431TIP3   OH240235   0.366   3.968   0.290
13431TIP3    H140236   0.432   3.906   0.257
13431TIP3    H240237   0.354   3.944   0.382
13432TIP3   OH240238   6.417   1.281   2.037
13432TIP3    H140239   6.473   1.306   1.963
13432TIP3    H240240   6.442   1.190   2.056
13433TIP3   OH240241   7.563   6.161   2.284
13433TIP3    H140242   7.517   6.179   2.366
13433TIP3    H240243   7.497   6.119   2.228
13434TIP3   OH240244   1.604   3.174   0.187
13434TIP3    H140245   1.659   3.208   0.116
13434TIP3    H240246   1.531   3.236   0.192
13435TIP3   OH240247   0.104   3.993   5.264
13435TIP3    H140248   0.160   3.948   5.327
13435TIP3    H240249   0.164   4.050   5.215
13436TIP3   OH240250   4.675   2.797   3.160
13436TIP3    H140251   4.755   2.763   3.199
13436TIP3    H240252   4.705   2.852   3.087
13437TIP3   OH240253   7.850   0.935   6.198
13437TIP3    H140254   7.945   0.920   6.206
13437TIP3    H240255   7.813   0.847   6.187
13438TIP3   OH240256   4.664   6.617   6.328
13438TIP3    H140257   4.594   6.573   6.376
13438TIP3    H240258   4.711   6.546   6.284
13439TIP3   OH240259   8.024   2.592   2.476
13439TIP3    H140260   8.035   2.596   2.571
13439TIP3    H240261   8.079   2.519   2.448
13440TIP3   OH240262   2.247   5.004   3.982
13440TIP3    H140263   2.180   4.981   3.918
13440TIP3    H240264   2.218   4.962   4.063
13441TIP3   OH240265   0.230   7.309   3.946
13441TIP3    H140266   0.283   7.256   4.004
13441TIP3    H240267   0.281   7.389   3.933
13442TIP3   OH240268   1.450   3.842   1.293
13442TIP3    H140269   1.531   3.793   1.304
13442TIP3    H240270   1.468   3.927   1.334
13443TIP3   OH240271   5.944   3.082   1.565
13443TIP3    H140272   6.039   3.085   1.578
13443TIP3    H240273   5.925   3.159   1.511
13444TIP3   OH240274   6.035   2.792   1.865
13444TIP3    H140275   5.960   2.743   1.833
13444TIP3    H240276   6.003   2.881   1.875
13445TIP3   OH240277   6.707   1.182   2.261
13445TIP3    H140278   6.661   1.132   2.193
13445TIP3    H240279   6.639   1.202   2.325
13446TIP3   OH240280   7.362   5.548   2.980
13446TIP3    H140281   7.368   5.595   2.896
13446TIP3    H240282   7.335   5.614   3.043
13447TIP3   OH240283   3.456   1.514   1.817
13447TIP3    H140284   3.411   1.466   1.747
13447TIP3    H240285   3.429   1.471   1.898
13448TIP3   OH240286   0.921   1.156   4.280
13448TIP3    H140287   0.901   1.243   4.247
13448TIP3    H240288   0.841   1.105   4.266
13449TIP3   OH240289   4.972   6.775   1.332
13449TIP3    H140290   5.017   6.747   1.252
13449TIP3    H240291   5.017   6.855   1.358
13450TIP3   OH240292   7.879   6.082   2.327
13450TIP3    H140293   7.784   6.075   2.316
13450TIP3    H240294   7.891   6.104   2.419
13451TIP3   OH240295   1.870   6.876   1.330
13451TIP3    H140296   1.880   6.959   1.282
13451TIP3    H240297   1.927   6.886   1.406
13452TIP3   OH240298   6.571   4.625   2.886
13452TIP3    H140299   6.564   4.676   2.967
13452TIP3    H240300   6.591   4.536   2.915
13453TIP3   OH240301   2.944   2.460   1.446
13453TIP3    H140302   2.955   2.544   1.401
13453TIP3    H240303   2.935   2.396   1.376
13454TIP3   OH240304   7.597   7.616   2.869
13454TIP3    H140305   7.520   7.664   2.899
13454TIP3    H240306   7.575   7.588   2.781
13455TIP3   OH240307   2.484   1.761   1.359
13455TIP3    H140308   2.443   1.696   1.417
13455TIP3    H240309   2.546   1.807   1.415
13456TIP3   OH240310   6.191   5.528   2.762
13456TIP3    H140311   6.113   5.577   2.788
13456TIP3    H240312   6.199   5.458   2.828
13457TIP3   OH240313   7.710   7.323   5.142
13457TIP3    H140314   7.660   7.261   5.089
13457TIP3    H240315   7.785   7.346   5.087
13458TIP3   OH240316   1.393   3.490   1.552
13458TIP3    H140317   1.336   3.414   1.562
13458TIP3    H240318   1.341   3.564   1.584
13459TIP3   OH240319   6.358   1.806   5.370
13459TIP3    H140320   6.334   1.799   5.463
13459TIP3    H240321   6.278   1.782   5.323
13460TIP3   OH240322   5.653   6.832   4.424
13460TIP3    H140323   5.730   6.801   4.376
13460TIP3    H240324   5.685   6.906   4.475
13461TIP3   OH240325   1.921   3.787   6.358
13461TIP3    H140326   1.973   3.863   6.330
13461TIP3    H240327   1.834   3.822   6.377
13462TIP3   OH240328   5.461   0.583   2.149
13462TIP3    H140329   5.517   0.551   2.079
13462TIP3    H240330   5.401   0.510   2.167
13463TIP3   OH240331   7.181   2.417   4.175
13463TIP3    H140332   7.250   2.399   4.111
13463TIP3    H240333   7.162   2.510   4.164
13464TIP3   OH240334   4.930   4.890   4.120
13464TIP3    H140335   5.012   4.872   4.165
13464TIP3    H240336   4.954   4.946   4.046
13465TIP3   OH240337   4.676  -0.002   3.794
13465TIP3    H140338   4.607   0.056   3.828
13465TIP3    H240339   4.746   0.057   3.767
13466TIP3   OH240340   5.502   5.931   2.269
13466TIP3    H140341   5.578   5.891   2.311
13466TIP3    H240342   5.530   6.020   2.247
13467TIP3   OH240343   5.184   2.880   3.523
13467TIP3    H140344   5.202   2.904   3.432
13467TIP3    H240345   5.233   2.945   3.574
13468TIP3   OH240346   6.589   5.348   2.697
13468TIP3    H140347   6.677   5.323   2.726
13468TIP3    H240348   6.564   5.279   2.636
13469TIP3   OH240349   4.087   3.403   1.124
13469TIP3    H140350   4.078   3.492   1.159
13469TIP3    H240351   4.181   3.389   1.119
13470TIP3   OH240352   3.888   7.677   1.905
13470TIP3    H140353   3.952   7.634   1.961
13470TIP3    H240354   3.819   7.612   1.892
13471TIP3   OH240355   5.256   0.704   0.971
13471TIP3    H140356   5.215   0.720   0.886
13471TIP3    H240357   5.271   0.609   0.973
13472TIP3   OH240358   4.137   5.390   5.193
13472TIP3    H140359   4.087   5.397   5.275
13472TIP3    H240360   4.071   5.370   5.126
13473TIP3   OH240361   3.638   7.475   0.532
13473TIP3    H140362   3.657   7.510   0.619
13473TIP3    H240363   3.696   7.399   0.524
13474TIP3   OH240364   1.389   5.500   3.712
13474TIP3    H140365   1.415   5.408   3.711
13474TIP3    H240366   1.466   5.547   3.678
13475TIP3   OH240367   5.925   7.058   5.260
13475TIP3    H140368   6.017   7.045   5.235
13475TIP3    H240369   5.908   6.991   5.326
13476TIP3   OH240370   2.047   1.076   3.201
13476TIP3    H140371   1.975   1.133   3.226
13476TIP3    H240372   2.004   1.000   3.160
13477TIP3   OH240373   4.134   2.452   2.514
13477TIP3    H140374   4.105   2.371   2.556
13477TIP3    H240375   4.186   2.497   2.581
13478TIP3   OH240376   6.002   3.868   6.099
13478TIP3    H140377   6.051   3.790   6.074
13478TIP3    H240378   6.022   3.880   6.192
13479TIP3   OH240379   3.556   3.113   5.364
13479TIP3    H140380   3.627   3.055   5.338
13479TIP3    H240381   3.484   3.055   5.387
13480TIP3   OH240382   2.093   6.089   1.449
13480TIP3    H140383   2.128   6.131   1.371
13480TIP3    H240384   2.023   6.147   1.478
13481TIP3   OH240385   3.871   7.013   5.095
13481TIP3    H140386   3.845   6.961   5.018
13481TIP3    H240387   3.806   7.083   5.099
13482TIP3   OH240388   5.219   5.493   0.554
13482TIP3    H140389   5.244   5.571   0.603
13482TIP3    H240390   5.211   5.424   0.619
13483TIP3   OH240391   7.759   5.415   2.790
13483TIP3    H140392   7.711   5.497   2.780
13483TIP3    H240393   7.846   5.435   2.756
13484TIP3   OH240394   3.397   0.606   0.579
13484TIP3    H140395   3.332   0.619   0.648
13484TIP3    H240396   3.368   0.529   0.531
13485TIP3   OH240397   4.012   5.826   4.218
13485TIP3    H140398   4.097   5.868   4.208
13485TIP3    H240399   3.986   5.846   4.308
13486TIP3   OH240400   3.090   5.074   2.894
13486TIP3    H140401   3.139   5.075   2.811
13486TIP3    H240402   3.097   5.164   2.926
13487TIP3   OH240403   0.607   5.494   1.546
13487TIP3    H140404   0.616   5.401   1.527
13487TIP3    H240405   0.644   5.538   1.469
13488TIP3   OH240406   0.503   2.614   0.622
13488TIP3    H140407   0.563   2.622   0.696
13488TIP3    H240408   0.558   2.582   0.550
13489TIP3   OH240409   5.203   2.056   5.912
13489TIP3    H140410   5.181   2.143   5.946
13489TIP3    H240411   5.140   2.042   5.841
13490TIP3   OH240412   5.696   4.189   4.525
13490TIP3    H140413   5.698   4.276   4.565
13490TIP3    H240414   5.631   4.140   4.576
13491TIP3   OH240415   3.615   0.366   4.481
13491TIP3    H140416   3.606   0.362   4.576
13491TIP3    H240417   3.607   0.275   4.452
13492TIP3   OH240418   8.014   2.948   1.834
13492TIP3    H140419   7.933   2.938   1.784
13492TIP3    H240420   7.993   2.913   1.921
13493TIP3   OH240421   4.302   2.314   5.313
13493TIP3    H140422   4.319   2.400   5.275
13493TIP3    H240423   4.343   2.318   5.400
13494TIP3   OH240424   1.881   3.888   3.381
13494TIP3    H140425   1.875   3.984   3.379
13494TIP3    H240426   1.800   3.861   3.423
13495TIP3   OH240427   7.510   5.018   1.717
13495TIP3    H140428   7.472   5.072   1.786
13495TIP3    H240429   7.444   5.016   1.648
13496TIP3   OH240430   2.711   0.075   6.199
13496TIP3    H140431   2.667   0.159   6.185
13496TIP3    H240432   2.787   0.077   6.140
13497TIP3   OH240433   1.209   4.509   6.080
13497TIP3    H140434   1.149   4.568   6.034
13497TIP3    H240435   1.228   4.440   6.017
13498TIP3   OH240436   6.914   4.428   6.402
13498TIP3    H140437   6.907   4.336   6.426
13498TIP3    H240438   6.850   4.472   6.458
13499TIP3   OH240439   3.770   4.023   1.547
13499TIP3    H140440   3.712   4.008   1.622
13499TIP3    H240441   3.710   4.039   1.474
13500TIP3   OH240442   1.143   7.744   3.933
13500TIP3    H140443   1.179   7.823   3.893
13500TIP3    H240444   1.049   7.750   3.921
13501TIP3   OH240445   1.982   3.121   5.690
13501TIP3    H140446   1.905   3.121   5.632
13501TIP3    H240447   2.008   3.213   5.694
13502TIP3   OH240448   4.390   6.082   5.258
13502TIP3    H140449   4.464   6.063   5.316
13502TIP3    H240450   4.403   6.173   5.231
13503TIP3   OH240451   6.488   5.854   0.550
13503TIP3    H140452   6.536   5.785   0.596
13503TIP3    H240453   6.477   5.821   0.461
13504TIP3   OH240454   5.426   6.822   5.497
13504TIP3    H140455   5.365   6.836   5.424
13504TIP3    H240456   5.482   6.900   5.496
13505TIP3   OH240457   1.533   5.927   0.442
13505TIP3    H140458   1.507   5.982   0.368
13505TIP3    H240459   1.624   5.952   0.460
13506TIP3   OH240460   2.272   5.319   6.516
13506TIP3    H140461   2.270   5.372   6.596
13506TIP3    H240462   2.220   5.368   6.453
13507TIP3   OH240463   5.621   5.912   5.928
13507TIP3    H140464   5.563   5.842   5.899
13507TIP3    H240465   5.695   5.908   5.867
13508TIP3   OH240466   2.038   2.717   4.111
13508TIP3    H140467   1.969   2.723   4.046
13508TIP3    H240468   2.071   2.627   4.103
13509TIP3   OH240469   8.120   6.561   2.490
13509TIP3    H140470   8.097   6.517   2.407
13509TIP3    H240471   8.214   6.548   2.498
13510TIP3   OH240472   3.928   6.288   6.497
13510TIP3    H140473   3.940   6.313   6.589
13510TIP3    H240474   4.010   6.312   6.455
13511TIP3   OH240475   2.763   1.658   4.308
13511TIP3    H140476   2.795   1.746   4.329
13511TIP3    H240477   2.826   1.625   4.244
13512TIP3   OH240478   4.409   3.853   5.692
13512TIP3    H140479   4.408   3.761   5.665
13512TIP3    H240480   4.375   3.852   5.781
13513TIP3   OH240481   1.302   6.206   3.838
13513TIP3    H140482   1.348   6.231   3.919
13513TIP3    H240483   1.323   6.276   3.776
13514TIP3   OH240484   7.878   7.401   2.162
13514TIP3    H140485   7.829   7.426   2.240
13514TIP3    H240486   7.968   7.389   2.192
13515TIP3   OH240487   5.470   5.238   5.707
13515TIP3    H140488   5.511   5.188   5.637
13515TIP3    H240489   5.536   5.301   5.734
13516TIP3   OH240490   5.563   6.391   5.220
13516TIP3    H140491   5.511   6.443   5.281
13516TIP3    H240492   5.546   6.300   5.245
13517TIP3   OH240493   0.014   5.458   3.798
13517TIP3    H140494  -0.033   5.528   3.753
13517TIP3    H240495   0.001   5.381   3.744
13518TIP3   OH240496   2.571   1.333   5.920
13518TIP3    H140497   2.574   1.310   5.827
13518TIP3    H240498   2.496   1.285   5.955
13519TIP3   OH240499   2.478   1.159   5.140
13519TIP3    H140500   2.554   1.165   5.081
13519TIP3    H240501   2.430   1.240   5.125
13520TIP3   OH240502   4.782   6.118   4.798
13520TIP3    H140503   4.766   6.136   4.891
13520TIP3    H240504   4.701   6.147   4.754
13521TIP3   OH240505   3.395   4.928   0.349
13521TIP3    H140506   3.408   5.020   0.370
13521TIP3    H240507   3.477   4.886   0.375
13522TIP3   OH240508   3.579   5.374   1.580
13522TIP3    H140509   3.646   5.368   1.648
13522TIP3    H240510   3.526   5.450   1.604
13523TIP3   OH240511   6.784   5.664   4.242
13523TIP3    H140512   6.852   5.716   4.285
13523TIP3    H240513   6.740   5.619   4.314
13524TIP3   OH240514   6.574   6.861   2.904
13524TIP3    H140515   6.575   6.894   2.994
13524TIP3    H240516   6.666   6.861   2.877
13525TIP3   OH240517   2.032   1.610   4.146
13525TIP3    H140518   2.041   1.610   4.051
13525TIP3    H240519   1.940   1.587   4.161
13526TIP3   OH240520   5.489   0.195   2.200
13526TIP3    H140521   5.561   0.245   2.238
13526TIP3    H240522   5.519   0.171   2.113
13527TIP3   OH240523   3.853   4.854   3.566
13527TIP3    H140524   3.851   4.816   3.478
13527TIP3    H240525   3.868   4.947   3.551
13528TIP3   OH240526   1.261   0.683   6.624
13528TIP3    H140527   1.177   0.694   6.581
13528TIP3    H240528   1.248   0.611   6.685
13529TIP3   OH240529   0.122   2.002   2.356
13529TIP3    H140530   0.073   1.933   2.402
13529TIP3    H240531   0.113   1.980   2.263
13530TIP3   OH240532   8.080   7.563   5.748
13530TIP3    H140533   8.125   7.577   5.831
13530TIP3    H240534   7.992   7.535   5.773
13531TIP3   OH240535   2.696   5.844   2.839
13531TIP3    H140536   2.627   5.874   2.780
13531TIP3    H240537   2.661   5.859   2.927
13532TIP3   OH240538   8.186   1.448   3.764
13532TIP3    H140539   8.135   1.527   3.779
13532TIP3    H240540   8.201   1.412   3.851
13533TIP3   OH240541   6.168   4.331   3.984
13533TIP3    H140542   6.157   4.356   3.892
13533TIP3    H240543   6.101   4.381   4.031
13534TIP3   OH240544   0.894   3.131   5.996
13534TIP3    H140545   0.830   3.200   6.014
13534TIP3    H240546   0.952   3.169   5.929
13535TIP3   OH240547   8.276   7.042   6.297
13535TIP3    H140548   8.311   6.979   6.361
13535TIP3    H240549   8.187   7.012   6.281
13536TIP3   OH240550   1.227   2.282   0.518
13536TIP3    H140551   1.140   2.304   0.551
13536TIP3    H240552   1.280   2.360   0.536
13537TIP3   OH240553   4.747   6.560   5.660
13537TIP3    H140554   4.661   6.535   5.627
13537TIP3    H240555   4.730   6.628   5.725
13538TIP3   OH240556   5.353   6.981   3.654
13538TIP3    H140557   5.309   6.982   3.738
13538TIP3    H240558   5.297   7.032   3.596
13539TIP3   OH240559   0.224   4.356   5.842
13539TIP3    H140560   0.220   4.264   5.815
13539TIP3    H240561   0.221   4.405   5.760
13540TIP3   OH240562   8.313   0.992   3.743
13540TIP3    H140563   8.342   0.906   3.773
13540TIP3    H240564   8.224   0.978   3.712
13541TIP3   OH240565   0.660   2.540   4.586
13541TIP3    H140566   0.577   2.524   4.541
13541TIP3    H240567   0.705   2.603   4.531
13542TIP3   OH240568   1.128   5.748   0.427
13542TIP3    H140569   1.106   5.694   0.503
13542TIP3    H240570   1.112   5.691   0.352
13543TIP3   OH240571   6.328   3.850   0.038
13543TIP3    H140572   6.250   3.893   0.003
13543TIP3    H240573   6.369   3.916   0.093
13544TIP3   OH240574   6.843   3.365   4.646
13544TIP3    H140575   6.811   3.445   4.606
13544TIP3    H240576   6.938   3.379   4.656
13545TIP3   OH240577   1.546   7.007   0.437
13545TIP3    H140578   1.626   6.985   0.484
13545TIP3    H240579   1.535   6.936   0.374
13546TIP3   OH240580   6.508   1.068   5.246
13546TIP3    H140581   6.569   1.141   5.240
13546TIP3    H240582   6.477   1.055   5.157
13547TIP3   OH240583   5.896   4.251   0.162
13547TIP3    H140584   5.905   4.182   0.097
13547TIP3    H240585   5.883   4.205   0.245
13548TIP3   OH240586   6.715   0.182   2.276
13548TIP3    H140587   6.688   0.092   2.294
13548TIP3    H240588   6.773   0.175   2.200
13549TIP3   OH240589   3.337   3.185   1.962
13549TIP3    H140590   3.330   3.113   2.025
13549TIP3    H240591   3.425   3.176   1.926
13550TIP3   OH240592   4.247   0.260   2.079
13550TIP3    H140593   4.335   0.295   2.063
13550TIP3    H240594   4.234   0.271   2.173
13551TIP3   OH240595   1.578   5.385   1.401
13551TIP3    H140596   1.636   5.460   1.385
13551TIP3    H240597   1.598   5.325   1.329
13552TIP3   OH240598   1.006   4.432   6.270
13552TIP3    H140599   0.988   4.526   6.278
13552TIP3    H240600   1.077   4.427   6.207
13553TIP3   OH240601   8.249   2.431   6.836
13553TIP3    H140602   8.188   2.364   6.868
13553TIP3    H240603   8.198   2.480   6.771
13554TIP3   OH240604   7.448   7.587   0.512
13554TIP3    H140605   7.482   7.571   0.424
13554TIP3    H240606   7.492   7.668   0.540
13555TIP3   OH240607   7.597   5.087   0.317
13555TIP3    H140608   7.562   5.147   0.382
13555TIP3    H240609   7.548   5.107   0.237
13556TIP3   OH240610   0.542   5.683   1.740
13556TIP3    H140611   0.575   5.641   1.661
13556TIP3    H240612   0.465   5.632   1.765
13557TIP3   OH240613   3.313   1.806   2.713
13557TIP3    H140614   3.395   1.768   2.680
13557TIP3    H240615   3.324   1.900   2.699
13558TIP3   OH240616   5.502   0.501   3.663
13558TIP3    H140617   5.497   0.542   3.750
13558TIP3    H240618   5.446   0.423   3.670
13559TIP3   OH240619   2.692   2.347   0.992
13559TIP3    H140620   2.740   2.279   0.944
13559TIP3    H240621   2.675   2.415   0.927
13560TIP3   OH240622   2.707   2.448   3.204
13560TIP3    H140623   2.683   2.529   3.249
13560TIP3    H240624   2.739   2.391   3.274
13561TIP3   OH240625   8.153   7.588   6.278
13561TIP3    H140626   8.192   7.582   6.365
13561TIP3    H240627   8.114   7.501   6.263
13562TIP3   OH240628   3.472   7.413   5.580
13562TIP3    H140629   3.536   7.423   5.509
13562TIP3    H240630   3.403   7.476   5.559
13563TIP3   OH240631   2.737   0.200   2.169
13563TIP3    H140632   2.813   0.256   2.151
13563TIP3    H240633   2.667   0.237   2.115
13564TIP3   OH240634   6.342   3.461   1.305
13564TIP3    H140635   6.407   3.395   1.329
13564TIP3    H240636   6.271   3.410   1.265
13565TIP3   OH240637   5.301   2.940   2.457
13565TIP3    H140638   5.370   3.007   2.456
13565TIP3    H240639   5.276   2.930   2.365
13566TIP3   OH240640   2.055   2.595   6.142
13566TIP3    H140641   2.103   2.665   6.186
13566TIP3    H240642   2.104   2.515   6.163
13567TIP3   OH240643   1.243   3.500   6.363
13567TIP3    H140644   1.304   3.554   6.413
13567TIP3    H240645   1.172   3.482   6.424
13568TIP3   OH240646   4.130   7.327   3.534
13568TIP3    H140647   4.140   7.397   3.470
13568TIP3    H240648   4.220   7.306   3.561
13569TIP3   OH240649   0.311   4.663   6.334
13569TIP3    H140650   0.255   4.675   6.410
13569TIP3    H240651   0.356   4.747   6.324
13570TIP3   OH240652   4.659   7.465   3.642
13570TIP3    H140653   4.629   7.375   3.652
13570TIP3    H240654   4.603   7.515   3.702
13571TIP3   OH240655   2.554   0.760   3.700
13571TIP3    H140656   2.552   0.713   3.617
13571TIP3    H240657   2.645   0.787   3.710
13572TIP3   OH240658   5.399   3.117   0.485
13572TIP3    H140659   5.480   3.169   0.482
13572TIP3    H240660   5.372   3.112   0.393
13573TIP3   OH240661   6.054   1.379   0.394
13573TIP3    H140662   5.999   1.449   0.429
13573TIP3    H240663   6.056   1.395   0.300
13574TIP3   OH240664   4.940   5.159   3.689
13574TIP3    H140665   4.887   5.083   3.665
13574TIP3    H240666   5.001   5.169   3.615
13575TIP3   OH240667   5.040   7.037   0.618
13575TIP3    H140668   5.117   7.033   0.676
13575TIP3    H240669   5.033   6.949   0.581
13576TIP3   OH240670   2.630   4.571   2.849
13576TIP3    H140671   2.637   4.531   2.935
13576TIP3    H240672   2.635   4.666   2.865
13577TIP3   OH240673   4.139   2.499   2.877
13577TIP3    H140674   4.178   2.412   2.879
13577TIP3    H240675   4.051   2.487   2.913
13578TIP3   OH240676   7.834   3.765   2.063
13578TIP3    H140677   7.876   3.690   2.104
13578TIP3    H240678   7.864   3.841   2.114
13579TIP3   OH240679   7.900   3.607   6.462
13579TIP3    H140680   7.942   3.589   6.547
13579TIP3    H240681   7.960   3.668   6.418
13580TIP3   OH240682   3.239   5.839   3.978
13580TIP3    H140683   3.168   5.893   3.943
13580TIP3    H240684   3.195   5.762   4.013
13581TIP3   OH240685   3.849   7.635   4.454
13581TIP3    H140686   3.833   7.556   4.403
13581TIP3    H240687   3.824   7.707   4.396
13582TIP3   OH240688   3.967   6.616   2.873
13582TIP3    H140689   4.005   6.577   2.794
13582TIP3    H240690   3.905   6.549   2.905
13583TIP3   OH240691   6.452   0.939   3.942
13583TIP3    H140692   6.430   0.992   3.866
13583TIP3    H240693   6.439   0.849   3.913
13584TIP3   OH240694   1.471   5.479   4.334
13584TIP3    H140695   1.387   5.496   4.291
13584TIP3    H240696   1.501   5.397   4.296
13585TIP3   OH240697   6.587   6.591   1.089
13585TIP3    H140698   6.624   6.525   1.148
13585TIP3    H240699   6.511   6.625   1.137
13586TIP3   OH240700   2.998   2.708   4.336
13586TIP3    H140701   3.073   2.742   4.288
13586TIP3    H240702   2.984   2.621   4.298
13587TIP3   OH240703   6.243   7.081   0.080
13587TIP3    H140704   6.294   7.009   0.043
13587TIP3    H240705   6.188   7.112   0.008
13588TIP3   OH240706   6.077   2.179   3.542
13588TIP3    H140707   6.073   2.229   3.460
13588TIP3    H240708   6.162   2.136   3.540
13589TIP3   OH240709   6.860   6.879   0.477
13589TIP3    H140710   6.784   6.919   0.435
13589TIP3    H240711   6.827   6.846   0.561
13590TIP3   OH240712   3.432   4.340   6.515
13590TIP3    H140713   3.368   4.402   6.481
13590TIP3    H240714   3.444   4.365   6.607
13591TIP3   OH240715   0.607   7.235   3.073
13591TIP3    H140716   0.669   7.302   3.045
13591TIP3    H240717   0.582   7.190   2.993
13592TIP3   OH240718   2.579   5.586   2.634
13592TIP3    H140719   2.671   5.596   2.656
13592TIP3    H240720   2.538   5.553   2.715
13593TIP3   OH240721   5.354   6.221   2.263
13593TIP3    H140722   5.410   6.298   2.263
13593TIP3    H240723   5.308   6.225   2.347
13594TIP3   OH240724   2.160   3.039   1.203
13594TIP3    H140725   2.233   3.101   1.211
13594TIP3    H240726   2.092   3.074   1.260
13595TIP3   OH240727   5.145   0.974   0.886
13595TIP3    H140728   5.169   0.933   0.970
13595TIP3    H240729   5.106   0.903   0.835
13596TIP3   OH240730   4.960   0.924   6.336
13596TIP3    H140731   4.883   0.957   6.383
13596TIP3    H240732   4.946   0.830   6.329
13597TIP3   OH240733   6.238   3.988   5.169
13597TIP3    H140734   6.325   3.993   5.128
13597TIP3    H240735   6.251   3.935   5.247
13598TIP3   OH240736   5.049   1.602   1.161
13598TIP3    H140737   5.070   1.527   1.217
13598TIP3    H240738   4.972   1.574   1.112
13599TIP3   OH240739   4.543   6.893   5.646
13599TIP3    H140740   4.583   6.874   5.731
13599TIP3    H240741   4.520   6.807   5.611
13600TIP3   OH240742   3.202   5.028   6.421
13600TIP3    H140743   3.182   5.045   6.329
13600TIP3    H240744   3.210   5.115   6.461
13601TIP3   OH240745   2.347   4.126   1.947
13601TIP3    H140746   2.350   4.049   1.889
13601TIP3    H240747   2.257   4.129   1.979
13602TIP3   OH240748   4.377   4.607   1.079
13602TIP3    H140749   4.309   4.550   1.113
13602TIP3    H240750   4.428   4.633   1.156
13603TIP3   OH240751   0.312   1.529   1.307
13603TIP3    H140752   0.312   1.435   1.289
13603TIP3    H240753   0.403   1.555   1.293
13604TIP3   OH240754   8.005   3.545   6.709
13604TIP3    H140755   8.010   3.542   6.805
13604TIP3    H240756   8.088   3.507   6.679
13605TIP3   OH240757   5.337   5.726   0.688
13605TIP3    H140758   5.380   5.780   0.622
13605TIP3    H240759   5.318   5.786   0.760
13606TIP3   OH240760   4.407   1.514   6.392
13606TIP3    H140761   4.396   1.606   6.416
13606TIP3    H240762   4.437   1.517   6.301
13607TIP3   OH240763   2.702   3.793   6.360
13607TIP3    H140764   2.777   3.759   6.409
13607TIP3    H240765   2.636   3.724   6.369
13608TIP3   OH240766   1.805   2.562   4.666
13608TIP3    H140767   1.862   2.486   4.651
13608TIP3    H240768   1.809   2.576   4.761
13609TIP3   OH240769   2.336   7.563   2.521
13609TIP3    H140770   2.247   7.541   2.548
13609TIP3    H240771   2.332   7.655   2.496
13610TIP3   OH240772   5.767   7.725   0.869
13610TIP3    H140773   5.816   7.793   0.823
13610TIP3    H240774   5.830   7.655   0.883
13611TIP3   OH240775   1.767   5.699   6.151
13611TIP3    H140776   1.674   5.674   6.157
13611TIP3    H240777   1.766   5.794   6.154
13612TIP3   OH240778   4.464   7.794   3.063
13612TIP3    H140779   4.393   7.755   3.114
13612TIP3    H240780   4.505   7.720   3.018
13613TIP3   OH240781   8.287   4.183   1.004
13613TIP3    H140782   8.198   4.155   1.022
13613TIP3    H240783   8.342   4.123   1.054
13614TIP3   OH240784   5.384   6.594   5.776
13614TIP3    H140785   5.360   6.514   5.822
13614TIP3    H240786   5.336   6.590   5.693
13615TIP3   OH240787   4.706   5.367   1.761
13615TIP3    H140788   4.764   5.395   1.831
13615TIP3    H240789   4.662   5.448   1.733
13616TIP3   OH240790   4.344   0.819   5.300
13616TIP3    H140791   4.282   0.754   5.268
13616TIP3    H240792   4.348   0.884   5.230
13617TIP3   OH240793   2.518   1.111   3.808
13617TIP3    H140794   2.467   1.031   3.811
13617TIP3    H240795   2.477   1.168   3.873
13618TIP3   OH240796   6.142   1.580   5.552
13618TIP3    H140797   6.120   1.584   5.645
13618TIP3    H240798   6.082   1.515   5.516
13619TIP3   OH240799   0.759   5.293   1.004
13619TIP3    H140800   0.840   5.325   1.043
13619TIP3    H240801   0.764   5.197   1.012
13620TIP3   OH240802   8.287   0.383   6.249
13620TIP3    H140803   8.277   0.444   6.176
13620TIP3    H240804   8.210   0.327   6.243
13621TIP3   OH240805   6.465   5.681   5.430
13621TIP3    H140806   6.495   5.632   5.353
13621TIP3    H240807   6.383   5.721   5.402
13622TIP3   OH240808   1.732   5.922   6.519
13622TIP3    H140809   1.794   5.996   6.511
13622TIP3    H240810   1.782   5.846   6.489
13623TIP3   OH240811   0.173   3.573   2.088
13623TIP3    H140812   0.220   3.644   2.133
13623TIP3    H240813   0.113   3.538   2.154
13624TIP3   OH240814   6.198   4.086   3.179
13624TIP3    H140815   6.238   4.163   3.219
13624TIP3    H240816   6.110   4.114   3.155
13625TIP3   OH240817   1.974   7.582   5.197
13625TIP3    H140818   1.974   7.512   5.133
13625TIP3    H240819   1.977   7.538   5.282
13626TIP3   OH240820   2.208   5.782   1.036
13626TIP3    H140821   2.256   5.705   1.005
13626TIP3    H240822   2.121   5.772   0.999
13627TIP3   OH240823   5.599   7.086   3.620
13627TIP3    H140824   5.509   7.054   3.623
13627TIP3    H240825   5.637   7.045   3.543
13628TIP3   OH240826   6.632   0.321   5.187
13628TIP3    H140827   6.709   0.317   5.130
13628TIP3    H240828   6.667   0.322   5.276
13629TIP3   OH240829   6.736   5.057   3.043
13629TIP3    H140830   6.696   5.144   3.042
13629TIP3    H240831   6.776   5.049   3.130
13630TIP3   OH240832   3.271   4.563   5.598
13630TIP3    H140833   3.248   4.488   5.543
13630TIP3    H240834   3.341   4.608   5.550
13631TIP3   OH240835   7.497   6.161   0.293
13631TIP3    H140836   7.496   6.179   0.387
13631TIP3    H240837   7.539   6.238   0.255
13632TIP3   OH240838   4.524   2.925   2.068
13632TIP3    H140839   4.488   2.896   1.984
13632TIP3    H240840   4.526   2.846   2.122
13633TIP3   OH240841   7.512   1.051   2.009
13633TIP3    H140842   7.490   0.965   2.045
13633TIP3    H240843   7.606   1.047   1.994
13634TIP3   OH240844   4.620   1.931   0.155
13634TIP3    H140845   4.674   1.930   0.234
13634TIP3    H240846   4.578   2.017   0.156
13635TIP3   OH240847   2.205   2.249   1.641
13635TIP3    H140848   2.183   2.184   1.708
13635TIP3    H240849   2.140   2.235   1.572
13636TIP3   OH240850   3.079   3.941   2.166
13636TIP3    H140851   3.042   3.975   2.247
13636TIP3    H240852   3.172   3.963   2.171
13637TIP3   OH240853   0.385   0.141   0.781
13637TIP3    H140854   0.414   0.214   0.726
13637TIP3    H240855   0.391   0.174   0.871
13638TIP3   OH240856   2.822   2.647   3.032
13638TIP3    H140857   2.793   2.563   3.067
13638TIP3    H240858   2.743   2.686   2.995
13639TIP3   OH240859   7.068   4.425   4.829
13639TIP3    H140860   7.029   4.503   4.789
13639TIP3    H240861   7.125   4.390   4.761
13640TIP3   OH240862   0.544   7.716   2.115
13640TIP3    H140863   0.613   7.767   2.158
13640TIP3    H240864   0.466   7.730   2.169
13641TIP3   OH240865   1.912   7.416   6.234
13641TIP3    H140866   1.940   7.337   6.281
13641TIP3    H240867   1.986   7.438   6.178
13642TIP3   OH240868   1.812   1.104   0.494
13642TIP3    H140869   1.722   1.115   0.525
13642TIP3    H240870   1.803   1.070   0.405
13643TIP3   OH240871   2.610   1.595   1.877
13643TIP3    H140872   2.665   1.616   1.953
13643TIP3    H240873   2.668   1.604   1.802
13644TIP3   OH240874   6.231   4.605   5.726
13644TIP3    H140875   6.179   4.632   5.651
13644TIP3    H240876   6.168   4.593   5.797
13645TIP3   OH240877   6.133   2.747   5.487
13645TIP3    H140878   6.221   2.776   5.512
13645TIP3    H240879   6.079   2.827   5.494
13646TIP3   OH240880   2.580   3.408   0.412
13646TIP3    H140881   2.675   3.419   0.412
13646TIP3    H240882   2.563   3.341   0.346
13647TIP3   OH240883   7.039   0.021   1.795
13647TIP3    H140884   7.096   0.074   1.850
13647TIP3    H240885   7.091  -0.056   1.773
13648TIP3   OH240886   1.017   2.577   6.671
13648TIP3    H140887   1.085   2.511   6.655
13648TIP3    H240888   1.018   2.589   6.766
13649TIP3   OH240889   4.314   7.097   0.861
13649TIP3    H140890   4.384   7.089   0.926
13649TIP3    H240891   4.279   7.185   0.874
13650TIP3   OH240892   2.349   4.672   2.772
13650TIP3    H140893   2.423   4.622   2.808
13650TIP3    H240894   2.280   4.607   2.758
13651TIP3   OH240895   5.641   1.591   3.645
13651TIP3    H140896   5.559   1.610   3.600
13651TIP3    H240897   5.670   1.675   3.679
13652TIP3   OH240898   6.658   2.199   0.273
13652TIP3    H140899   6.628   2.145   0.346
13652TIP3    H240900   6.664   2.138   0.199
13653TIP3   OH240901   4.619   7.604   0.367
13653TIP3    H140902   4.697   7.620   0.313
13653TIP3    H240903   4.558   7.674   0.342
13654TIP3   OH240904   6.042   7.150   1.484
13654TIP3    H140905   6.135   7.165   1.502
13654TIP3    H240906   6.041   7.070   1.430
13655TIP3   OH240907   0.182   7.773   5.309
13655TIP3    H140908   0.167   7.714   5.383
13655TIP3    H240909   0.277   7.774   5.298
13656TIP3   OH240910   0.370   0.982   3.923
13656TIP3    H140911   0.362   0.888   3.911
13656TIP3    H240912   0.416   1.013   3.845
13657TIP3   OH240913   6.213   5.963   0.466
13657TIP3    H140914   6.149   5.999   0.527
13657TIP3    H240915   6.258   5.895   0.516
13658TIP3   OH240916   0.588   4.451   0.275
13658TIP3    H140917   0.525   4.473   0.345
13658TIP3    H240918   0.667   4.423   0.322
13659TIP3   OH240919   0.123   0.058   1.715
13659TIP3    H140920   0.061  -0.006   1.677
13659TIP3    H240921   0.209   0.027   1.686
13660TIP3   OH240922   8.214   2.209   2.688
13660TIP3    H140923   8.129   2.253   2.687
13660TIP3    H240924   8.197   2.124   2.648
13661TIP3   OH240925   0.915   1.254   3.130
13661TIP3    H140926   0.828   1.286   3.105
13661TIP3    H240927   0.932   1.182   3.069
13662TIP3   OH240928   6.638  -0.006   5.018
13662TIP3    H140929   6.730   0.008   5.038
13662TIP3    H240930   6.635  -0.016   4.922
13663TIP3   OH240931   4.676   3.686   4.767
13663TIP3    H140932   4.733   3.611   4.784
13663TIP3    H240933   4.707   3.755   4.825
13664TIP3   OH240934   3.431   1.385   3.895
13664TIP3    H140935   3.497   1.443   3.856
13664TIP3    H240936   3.464   1.367   3.983
13665TIP3   OH240937   0.907   2.545   4.797
13665TIP3    H140938   0.995   2.508   4.786
13665TIP3    H240939   0.850   2.469   4.803
13666TIP3   OH240940   1.073   4.836   0.251
13666TIP3    H140941   0.998   4.865   0.303
13666TIP3    H240942   1.036   4.771   0.191
13667TIP3   OH240943   3.663   0.893   6.669
13667TIP3    H140944   3.713   0.837   6.728
13667TIP3    H240945   3.652   0.975   6.718
13668TIP3   OH240946   1.861   5.043   0.256
13668TIP3    H140947   1.785   4.999   0.296
13668TIP3    H240948   1.860   5.013   0.165
13669TIP3   OH240949   8.099   5.959   4.509
13669TIP3    H140950   8.026   5.948   4.571
13669TIP3    H240951   8.165   6.007   4.559
13670TIP3   OH240952   2.020   0.916   0.810
13670TIP3    H140953   1.955   0.862   0.766
13670TIP3    H240954   2.046   0.981   0.745
13671TIP3   OH240955   1.518   3.817   5.943
13671TIP3    H140956   1.528   3.879   5.871
13671TIP3    H240957   1.607   3.787   5.960
13672TIP3   OH240958   1.786   3.912   1.165
13672TIP3    H140959   1.804   4.005   1.176
13672TIP3    H240960   1.739   3.887   1.245
13673TIP3   OH240961   2.113   6.045   4.797
13673TIP3    H140962   2.113   5.954   4.769
13673TIP3    H240963   2.030   6.080   4.764
13674TIP3   OH240964   7.992   4.648   2.731
13674TIP3    H140965   8.015   4.639   2.639
13674TIP3    H240966   7.897   4.640   2.734
13675TIP3   OH240967   2.268   4.122   0.290
13675TIP3    H140968   2.274   4.094   0.381
13675TIP3    H240969   2.358   4.121   0.258
13676TIP3   OH240970   8.083   4.075   5.745
13676TIP3    H140971   8.073   4.154   5.692
13676TIP3    H240972   8.178   4.066   5.757
13677TIP3   OH240973   7.779   4.141   3.391
13677TIP3    H140974   7.786   4.053   3.427
13677TIP3    H240975   7.867   4.177   3.399
13678TIP3   OH240976   7.338   4.871   5.759
13678TIP3    H140977   7.408   4.926   5.723
13678TIP3    H240978   7.375   4.782   5.758
13679TIP3   OH240979   6.719   7.364   6.400
13679TIP3    H140980   6.648   7.344   6.340
13679TIP3    H240981   6.765   7.437   6.359
13680TIP3   OH240982   3.381   6.649   1.856
13680TIP3    H140983   3.437   6.715   1.816
13680TIP3    H240984   3.319   6.699   1.909
13681TIP3   OH240985   2.516   3.537   5.604
13681TIP3    H140986   2.576   3.465   5.585
13681TIP3    H240987   2.542   3.606   5.543
13682TIP3   OH240988   7.897   1.055   5.783
13682TIP3    H140989   7.955   1.122   5.748
13682TIP3    H240990   7.928   1.039   5.872
13683TIP3   OH240991   3.427   0.609   0.140
13683TIP3    H140992   3.391   0.562   0.215
13683TIP3    H240993   3.478   0.680   0.178
13684TIP3   OH240994   4.542   0.407   2.544
13684TIP3    H140995   4.619   0.402   2.486
13684TIP3    H240996   4.499   0.490   2.519
13685TIP3   OH240997   3.242   3.101   5.149
13685TIP3    H140998   3.286   3.109   5.065
13685TIP3    H240999   3.283   3.026   5.192
13686TIP3   OH241000   2.537   4.449   4.758
13686TIP3    H141001   2.471   4.447   4.689
13686TIP3    H241002   2.537   4.539   4.789
13687TIP3   OH241003   7.457   7.242   0.485
13687TIP3    H141004   7.512   7.319   0.474
13687TIP3    H241005   7.510   7.181   0.536
13688TIP3   OH241006   3.898   2.714   2.730
13688TIP3    H141007   3.888   2.762   2.812
13688TIP3    H241008   3.944   2.774   2.672
13689TIP3   OH241009   0.672   2.492   6.730
13689TIP3    H141010   0.609   2.545   6.681
13689TIP3    H241011   0.723   2.448   6.663
13690TIP3   OH241012   7.461   4.877   5.131
13690TIP3    H141013   7.508   4.960   5.122
13690TIP3    H241014   7.506   4.831   5.202
13691TIP3   OH241015   6.123   2.561   4.769
13691TIP3    H141016   6.057   2.492   4.765
13691TIP3    H241017   6.079   2.638   4.731
13692TIP3   OH241018   0.562   3.037   4.821
13692TIP3    H141019   0.573   3.057   4.728
13692TIP3    H241020   0.579   2.943   4.828
13693TIP3   OH241021   2.258   5.499   4.896
13693TIP3    H141022   2.168   5.532   4.895
13693TIP3    H241023   2.282   5.493   4.803
13694TIP3   OH241024   1.254   6.753   2.428
13694TIP3    H141025   1.235   6.831   2.376
13694TIP3    H241026   1.321   6.706   2.378
13695TIP3   OH241027   2.842   2.023   1.235
13695TIP3    H141028   2.915   2.023   1.173
13695TIP3    H241029   2.774   1.971   1.192
13696TIP3   OH241030   6.809   2.447   3.848
13696TIP3    H141031   6.810   2.398   3.930
13696TIP3    H241032   6.871   2.401   3.792
13697TIP3   OH241033   6.021   3.338   5.627
13697TIP3    H141034   6.039   3.324   5.720
13697TIP3    H241035   6.101   3.379   5.594
13698TIP3   OH241036   7.938   7.523   6.645
13698TIP3    H141037   7.872   7.561   6.587
13698TIP3    H241038   8.017   7.515   6.591
13699TIP3   OH241039   4.893   3.040   6.581
13699TIP3    H141040   4.907   3.096   6.657
13699TIP3    H241041   4.981   3.022   6.547
13700TIP3   OH241042   4.061   5.640   4.823
13700TIP3    H141043   4.001   5.639   4.749
13700TIP3    H241044   4.006   5.624   4.900
13701TIP3   OH241045   6.679   2.971   5.477
13701TIP3    H141046   6.729   2.962   5.396
13701TIP3    H241047   6.729   3.033   5.530
13702TIP3   OH241048   0.573   3.306   5.414
13702TIP3    H141049   0.583   3.260   5.330
13702TIP3    H241050   0.486   3.345   5.410
13703TIP3   OH241051   5.182   0.408   2.489
13703TIP3    H141052   5.088   0.414   2.509
13703TIP3    H241053   5.209   0.325   2.527
13704TIP3   OH241054   3.851   6.015   6.525
13704TIP3    H141055   3.865   6.096   6.477
13704TIP3    H241056   3.912   6.020   6.599
13705TIP3   OH241057   4.791   2.747   2.034
13705TIP3    H141058   4.860   2.680   2.031
13705TIP3    H241059   4.777   2.771   1.943
13706TIP3   OH241060   0.702   3.741   1.338
13706TIP3    H141061   0.789   3.762   1.374
13706TIP3    H241062   0.717   3.663   1.284
13707TIP3   OH241063   4.387   5.006   4.932
13707TIP3    H141064   4.454   5.012   4.864
13707TIP3    H241065   4.435   5.014   5.014
13708TIP3   OH241066   7.535   6.870   3.233
13708TIP3    H141067   7.473   6.873   3.305
13708TIP3    H241068   7.480   6.871   3.154
13709TIP3   OH241069   3.414   6.695   1.024
13709TIP3    H141070   3.382   6.607   1.006
13709TIP3    H241071   3.356   6.727   1.094
13710TIP3   OH241072   5.357   4.488   0.588
13710TIP3    H141073   5.393   4.458   0.672
13710TIP3    H241074   5.329   4.578   0.605
13711TIP3   OH241075   5.925   0.625   2.601
13711TIP3    H141076   5.881   0.550   2.560
13711TIP3    H241077   5.934   0.600   2.692
13712TIP3   OH241078   6.649   1.161   5.576
13712TIP3    H141079   6.692   1.181   5.660
13712TIP3    H241080   6.571   1.217   5.576
13713TIP3   OH241081   7.429   1.707   1.800
13713TIP3    H141082   7.456   1.656   1.723
13713TIP3    H241083   7.370   1.649   1.848
13714TIP3   OH241084   8.123   3.307   6.350
13714TIP3    H141085   8.042   3.324   6.301
13714TIP3    H241086   8.099   3.237   6.411
13715TIP3   OH241087   6.051   0.981   2.938
13715TIP3    H141088   6.074   0.952   2.850
13715TIP3    H241089   6.076   0.907   2.994
13716TIP3   OH241090   5.289   2.327   5.389
13716TIP3    H141091   5.260   2.273   5.462
13716TIP3    H241092   5.226   2.399   5.386
13717TIP3   OH241093   5.998   7.600   4.709
13717TIP3    H141094   5.978   7.555   4.628
13717TIP3    H241095   5.963   7.544   4.778
13718TIP3   OH241096   5.968   1.219   1.396
13718TIP3    H141097   5.893   1.248   1.344
13718TIP3    H241098   6.042   1.267   1.359
13719TIP3   OH241099   7.411   7.146   2.007
13719TIP3    H141100   7.425   7.229   1.961
13719TIP3    H241101   7.362   7.092   1.945
13720TIP3   OH241102   6.799   6.515   2.880
13720TIP3    H141103   6.817   6.609   2.872
13720TIP3    H241104   6.794   6.501   2.975
13721TIP3   OH241105   3.980   3.238   5.003
13721TIP3    H141106   3.949   3.220   4.914
13721TIP3    H241107   4.043   3.308   4.993
13722TIP3   OH241108   2.731   7.266   0.578
13722TIP3    H141109   2.823   7.260   0.555
13722TIP3    H241110   2.702   7.351   0.544
13723TIP3   OH241111   6.837   5.351   1.768
13723TIP3    H141112   6.799   5.267   1.793
13723TIP3    H241113   6.810   5.411   1.837
13724TIP3   OH241114   6.435   4.365   4.065
13724TIP3    H141115   6.353   4.402   4.033
13724TIP3    H241116   6.423   4.271   4.061
13725TIP3   OH241117   5.149   4.436   5.834
13725TIP3    H141118   5.123   4.527   5.818
13725TIP3    H241119   5.086   4.384   5.783
13726TIP3   OH241120   5.474   7.575   2.061
13726TIP3    H141121   5.505   7.509   1.999
13726TIP3    H241122   5.471   7.530   2.145
13727TIP3   OH241123   8.194   4.178   1.693
13727TIP3    H141124   8.203   4.259   1.643
13727TIP3    H241125   8.215   4.109   1.631
13728TIP3   OH241126   0.249   7.614   1.583
13728TIP3    H141127   0.265   7.668   1.660
13728TIP3    H241128   0.279   7.527   1.608
13729TIP3   OH241129   4.904   6.803   4.574
13729TIP3    H141130   4.883   6.774   4.485
13729TIP3    H241131   4.999   6.815   4.574
13730TIP3   OH241132   7.517   1.777   6.291
13730TIP3    H141133   7.587   1.821   6.340
13730TIP3    H241134   7.497   1.699   6.343
13731TIP3   OH241135   6.386   3.217   4.038
13731TIP3    H141136   6.295   3.232   4.064
13731TIP3    H241137   6.415   3.301   4.002
13732TIP3   OH241138   4.238   6.656   2.987
13732TIP3    H141139   4.150   6.626   3.009
13732TIP3    H241140   4.242   6.745   3.021
13733TIP3   OH241141   1.051   6.798   3.262
13733TIP3    H141142   1.110   6.794   3.187
13733TIP3    H241143   0.970   6.755   3.232
13734TIP3   OH241144   0.327   2.427   0.798
13734TIP3    H141145   0.321   2.484   0.722
13734TIP3    H241146   0.236   2.402   0.817
13735TIP3   OH241147   2.558   6.306   2.864
13735TIP3    H141148   2.482   6.320   2.920
13735TIP3    H241149   2.576   6.393   2.827
13736TIP3   OH241150   1.246   6.480   0.725
13736TIP3    H141151   1.342   6.486   0.720
13736TIP3    H241152   1.229   6.398   0.771
13737TIP3   OH241153   0.986   4.519   3.555
13737TIP3    H141154   0.996   4.586   3.488
13737TIP3    H241155   1.039   4.551   3.629
13738TIP3   OH241156   5.110   4.924   4.865
13738TIP3    H141157   5.200   4.939   4.894
13738TIP3    H241158   5.074   5.012   4.850
13739TIP3   OH241159   7.428   1.961   1.439
13739TIP3    H141160   7.362   1.900   1.405
13739TIP3    H241161   7.495   1.903   1.477
13740TIP3   OH241162   8.279   1.678   1.481
13740TIP3    H141163   8.307   1.732   1.555
13740TIP3    H241164   8.214   1.618   1.518
13741TIP3   OH241165   3.998   1.181   2.001
13741TIP3    H141166   3.971   1.233   1.926
13741TIP3    H241167   3.930   1.115   2.012
13742TIP3   OH241168   4.602   7.000  -0.030
13742TIP3    H141169   4.688   7.024   0.004
13742TIP3    H241170   4.573   6.930   0.028
13743TIP3   OH241171   3.527   2.863   1.058
13743TIP3    H141172   3.586   2.909   1.118
13743TIP3    H241173   3.552   2.771   1.067
13744TIP3   OH241174   3.351   0.565   1.355
13744TIP3    H141175   3.442   0.542   1.375
13744TIP3    H241176   3.302   0.484   1.368
13745TIP3   OH241177   4.177   6.881   0.756
13745TIP3    H141178   4.241   6.937   0.800
13745TIP3    H241179   4.154   6.815   0.821
13746TIP3   OH241180   0.124   3.002   3.611
13746TIP3    H141181   0.183   2.936   3.647
13746TIP3    H241182   0.086   2.960   3.533
13747TIP3   OH241183   0.499   7.374   5.071
13747TIP3    H141184   0.571   7.427   5.106
13747TIP3    H241185   0.537   7.287   5.059
13748TIP3   OH241186   2.447   3.044   0.969
13748TIP3    H141187   2.495   3.112   0.923
13748TIP3    H241188   2.480   3.048   1.059
13749TIP3   OH241189   6.384   3.396   0.588
13749TIP3    H141190   6.469   3.359   0.610
13749TIP3    H241191   6.323   3.357   0.650
13750TIP3   OH241192   0.465   4.553   0.509
13750TIP3    H141193   0.523   4.557   0.585
13750TIP3    H241194   0.413   4.634   0.514
13751TIP3   OH241195   7.472   0.676   5.676
13751TIP3    H141196   7.382   0.652   5.699
13751TIP3    H241197   7.462   0.739   5.605
13752TIP3   OH241198   6.305   0.830   0.126
13752TIP3    H141199   6.333   0.868   0.043
13752TIP3    H241200   6.296   0.904   0.186
13753TIP3   OH241201   2.455   2.194   2.110
13753TIP3    H141202   2.402   2.266   2.144
13753TIP3    H241203   2.453   2.204   2.015
13754TIP3   OH241204   2.066   5.187   4.283
13754TIP3    H141205   2.088   5.226   4.199
13754TIP3    H241206   2.131   5.119   4.296
13755TIP3   OH241207   0.140   0.912   0.142
13755TIP3    H141208   0.159   0.916   0.236
13755TIP3    H241209   0.045   0.916   0.136
13756TIP3   OH241210   1.267   0.614   0.510
13756TIP3    H141211   1.193   0.673   0.524
13756TIP3    H241212   1.332   0.667   0.465
13757TIP3   OH241213   1.704   2.230   4.059
13757TIP3    H141214   1.671   2.179   3.985
13757TIP3    H241215   1.627   2.245   4.115
13758TIP3   OH241216   4.126   3.605   4.476
13758TIP3    H141217   4.166   3.605   4.389
13758TIP3    H241218   4.055   3.668   4.469
13759TIP3   OH241219   4.367   4.667   2.616
13759TIP3    H141220   4.372   4.763   2.613
13759TIP3    H241221   4.309   4.644   2.544
13760TIP3   OH241222   5.232   1.570   4.581
13760TIP3    H141223   5.247   1.648   4.634
13760TIP3    H241224   5.249   1.599   4.491
13761TIP3   OH241225   6.729   5.779   3.265
13761TIP3    H141226   6.751   5.872   3.276
13761TIP3    H241227   6.638   5.779   3.236
13762TIP3   OH241228   1.109   4.318   6.495
13762TIP3    H141229   1.108   4.223   6.494
13762TIP3    H241230   1.070   4.344   6.412
13763TIP3   OH241231   5.546   3.130   1.602
13763TIP3    H141232   5.558   3.109   1.695
13763TIP3    H241233   5.602   3.207   1.587
13764TIP3   OH241234   5.614   1.820   3.032
13764TIP3    H141235   5.559   1.892   3.063
13764TIP3    H241236   5.689   1.863   2.990
13765TIP3   OH241237   1.701   6.392   1.042
13765TIP3    H141238   1.754   6.325   0.999
13765TIP3    H241239   1.761   6.435   1.103
13766TIP3   OH241240   4.884   4.152   0.705
13766TIP3    H141241   4.977   4.166   0.688
13766TIP3    H241242   4.866   4.065   0.669
13767TIP3   OH241243   6.187   5.557   0.189
13767TIP3    H141244   6.216   5.622   0.125
13767TIP3    H241245   6.265   5.503   0.204
13768TIP3   OH241246   5.252   1.741   1.038
13768TIP3    H141247   5.200   1.683   1.094
13768TIP3    H241248   5.309   1.788   1.097
13769TIP3   OH241249   7.083   5.627   3.037
13769TIP3    H141250   7.085   5.718   3.009
13769TIP3    H241251   6.997   5.615   3.078
13770TIP3   OH241252   5.491   7.489   6.731
13770TIP3    H141253   5.535   7.500   6.647
13770TIP3    H241254   5.555   7.518   6.796
13771TIP3   OH241255   2.390   4.192   6.121
13771TIP3    H141256   2.347   4.168   6.203
13771TIP3    H241257   2.478   4.220   6.147
13772TIP3   OH241258   2.755   7.164   1.600
13772TIP3    H141259   2.783   7.174   1.509
13772TIP3    H241260   2.679   7.222   1.608
13773TIP3   OH241261   2.974   5.341   0.280
13773TIP3    H141262   3.060   5.335   0.239
13773TIP3    H241263   2.991   5.334   0.374
13774TIP3   OH241264   6.419   6.892   2.668
13774TIP3    H141265   6.492   6.901   2.730
13774TIP3    H241266   6.396   6.799   2.673
13775TIP3   OH241267   6.921   5.219   0.488
13775TIP3    H141268   6.853   5.225   0.421
13775TIP3    H241269   6.987   5.283   0.461
13776TIP3   OH241270   0.345   1.372   2.208
13776TIP3    H141271   0.426   1.408   2.242
13776TIP3    H241272   0.285   1.371   2.283
13777TIP3   OH241273   8.062   0.763   5.699
13777TIP3    H141274   8.018   0.742   5.781
13777TIP3    H241275   8.142   0.809   5.725
13778TIP3   OH241276   3.794   0.214   3.761
13778TIP3    H141277   3.808   0.253   3.675
13778TIP3    H241278   3.880   0.178   3.785
13779TIP3   OH241279   4.669   2.268   2.433
13779TIP3    H141280   4.611   2.254   2.357
13779TIP3    H241281   4.610   2.269   2.508
13780TIP3   OH241282   2.864   5.302   3.730
13780TIP3    H141283   2.942   5.355   3.716
13780TIP3    H241284   2.845   5.263   3.645
13781TIP3   OH241285   0.948   7.296   1.093
13781TIP3    H141286   0.964   7.219   1.038
13781TIP3    H241287   0.901   7.357   1.036
13782TIP3   OH241288   3.461   0.484   2.175
13782TIP3    H141289   3.529   0.432   2.133
13782TIP3    H241290   3.477   0.472   2.268
13783TIP3   OH241291   5.166   1.923   1.756
13783TIP3    H141292   5.102   1.853   1.743
13783TIP3    H241293   5.168   1.938   1.850
13784TIP3   OH241294   3.991   4.481   4.521
13784TIP3    H141295   3.943   4.403   4.490
13784TIP3    H241296   3.923   4.537   4.558
13785TIP3   OH241297   4.988   0.242   5.580
13785TIP3    H141298   4.996   0.262   5.673
13785TIP3    H241299   4.962   0.150   5.577
13786TIP3   OH241300   5.654   4.437   4.683
13786TIP3    H141301   5.714   4.488   4.629
13786TIP3    H241302   5.571   4.485   4.679
13787TIP3   OH241303   1.206   0.188   4.442
13787TIP3    H141304   1.153   0.259   4.405
13787TIP3    H241305   1.223   0.215   4.532
13788TIP3   OH241306   3.260   1.245   1.359
13788TIP3    H141307   3.166   1.228   1.364
13788TIP3    H241308   3.278   1.253   1.265
13789TIP3   OH241309   1.691   7.311   3.106
13789TIP3    H141310   1.696   7.268   3.020
13789TIP3    H241311   1.779   7.344   3.121
13790TIP3   OH241312   5.911   6.327   5.335
13790TIP3    H141313   5.905   6.408   5.284
13790TIP3    H241314   5.962   6.267   5.279
13791TIP3   OH241315   0.430   3.637   1.724
13791TIP3    H141316   0.423   3.652   1.630
13791TIP3    H241317   0.410   3.723   1.763
13792TIP3   OH241318   7.549   6.294   1.749
13792TIP3    H141319   7.645   6.292   1.748
13792TIP3    H241320   7.524   6.231   1.681
13793TIP3   OH241321   0.178   0.232   6.418
13793TIP3    H141322   0.114   0.289   6.375
13793TIP3    H241323   0.131   0.149   6.431
13794TIP3   OH241324   6.797   4.026   5.425
13794TIP3    H141325   6.835   4.105   5.463
13794TIP3    H241326   6.763   3.978   5.501
13795TIP3   OH241327   2.838   0.225   0.188
13795TIP3    H141328   2.786   0.150   0.160
13795TIP3    H241329   2.847   0.278   0.109
13796TIP3   OH241330   3.497   1.883   4.766
13796TIP3    H141331   3.455   1.964   4.796
13796TIP3    H241332   3.516   1.898   4.674
13797TIP3   OH241333   1.819   3.024   4.281
13797TIP3    H141334   1.782   3.094   4.228
13797TIP3    H241335   1.781   2.943   4.246
13798TIP3   OH241336   0.603   1.486   1.006
13798TIP3    H141337   0.587   1.566   1.057
13798TIP3    H241338   0.684   1.450   1.042
13799TIP3   OH241339   3.815   4.422   2.845
13799TIP3    H141340   3.870   4.494   2.876
13799TIP3    H241341   3.774   4.387   2.924
13800TIP3   OH241342   0.678   0.117   3.995
13800TIP3    H141343   0.609   0.184   3.988
13800TIP3    H241344   0.759   0.164   3.973
13801TIP3   OH241345   3.969   6.503   4.316
13801TIP3    H141346   3.979   6.419   4.270
13801TIP3    H241347   4.048   6.510   4.370
13802TIP3   OH241348   4.427   4.360   0.617
13802TIP3    H141349   4.509   4.323   0.648
13802TIP3    H241350   4.451   4.445   0.580
13803TIP3   OH241351   7.991   7.428   2.732
13803TIP3    H141352   8.026   7.461   2.814
13803TIP3    H241353   8.068   7.393   2.686
13804TIP3   OH241354   3.108   1.443   3.962
13804TIP3    H141355   3.131   1.409   4.049
13804TIP3    H241356   3.141   1.377   3.901
13805TIP3   OH241357   1.637   7.455   2.524
13805TIP3    H141358   1.566   7.440   2.587
13805TIP3    H241359   1.688   7.526   2.562
13806TIP3   OH241360   7.467   6.079   3.437
13806TIP3    H141361   7.542   6.022   3.447
13806TIP3    H241362   7.397   6.037   3.487
13807TIP3   OH241363   0.096   6.630   1.713
13807TIP3    H141364   0.145   6.712   1.706
13807TIP3    H241365   0.157   6.564   1.680
13808TIP3   OH241366   0.336   4.252   6.070
13808TIP3    H141367   0.328   4.317   6.001
13808TIP3    H241368   0.374   4.300   6.144
13809TIP3   OH241369   2.180   6.609   1.018
13809TIP3    H141370   2.243   6.573   1.080
13809TIP3    H241371   2.193   6.558   0.938
13810TIP3   OH241372   4.735   3.443   0.703
13810TIP3    H141373   4.648   3.404   0.701
13810TIP3    H241374   4.794   3.372   0.680
13811TIP3   OH241375   2.297   4.347   4.880
13811TIP3    H141376   2.283   4.276   4.817
13811TIP3    H241377   2.382   4.383   4.857
13812TIP3   OH241378   0.372   0.925   0.003
13812TIP3    H141379   0.417   0.995   0.051
13812TIP3    H241380   0.284   0.922   0.041
13813TIP3   OH241381   4.019   0.634   2.596
13813TIP3    H141382   3.989   0.604   2.510
13813TIP3    H241383   3.976   0.719   2.607
13814TIP3   OH241384   5.068   3.638   0.629
13814TIP3    H141385   4.977   3.665   0.623
13814TIP3    H241386   5.117   3.720   0.641
13815TIP3   OH241387   0.512   3.711   2.024
13815TIP3    H141388   0.489   3.645   2.090
13815TIP3    H241389   0.475   3.793   2.058
13816TIP3   OH241390   4.196   2.128   5.040
13816TIP3    H141391   4.174   2.134   5.133
13816TIP3    H241392   4.292   2.124   5.039
13817TIP3   OH241393   0.210   6.094   4.232
13817TIP3    H141394   0.258   6.020   4.195
13817TIP3    H241395   0.182   6.064   4.319
13818TIP3   OH241396   6.960   3.988   4.233
13818TIP3    H141397   6.903   4.048   4.281
13818TIP3    H241398   6.962   4.022   4.144
13819TIP3   OH241399   0.037   7.288   6.407
13819TIP3    H141400   0.009   7.201   6.378
13819TIP3    H241401   0.003   7.295   6.497
13820TIP3   OH241402   5.906   3.349   4.024
13820TIP3    H141403   5.891   3.283   3.956
13820TIP3    H241404   5.840   3.416   4.007
13821TIP3   OH241405   6.647   5.044   2.100
13821TIP3    H141406   6.645   4.948   2.102
13821TIP3    H241407   6.578   5.068   2.038
13822TIP3   OH241408   6.142   1.051   1.537
13822TIP3    H141409   6.192   1.005   1.471
13822TIP3    H241410   6.093   1.118   1.488
13823TIP3   OH241411   7.735   2.046   4.708
13823TIP3    H141412   7.812   2.086   4.748
13823TIP3    H241413   7.707   2.108   4.641
13824TIP3   OH241414   1.085   2.101   5.097
13824TIP3    H141415   1.032   2.122   5.020
13824TIP3    H241416   1.082   2.181   5.150
13825TIP3   OH241417   6.845   4.126   2.329
13825TIP3    H141418   6.811   4.102   2.243
13825TIP3    H241419   6.913   4.061   2.347
13826TIP3   OH241420   0.596   5.933   3.003
13826TIP3    H141421   0.581   6.011   3.056
13826TIP3    H241422   0.649   5.963   2.930
13827TIP3   OH241423   6.142   6.920   5.633
13827TIP3    H141424   6.189   6.884   5.708
13827TIP3    H241425   6.148   6.851   5.566
13828TIP3   OH241426   0.045   6.921   0.025
13828TIP3    H141427   0.104   6.877  -0.036
13828TIP3    H241428   0.029   6.856   0.094
13829TIP3   OH241429   3.834   5.907   5.513
13829TIP3    H141430   3.843   5.815   5.489
13829TIP3    H241431   3.828   5.953   5.430
13830TIP3   OH241432   6.845   6.756   3.787
13830TIP3    H141433   6.770   6.786   3.736
13830TIP3    H241434   6.810   6.689   3.845
13831TIP3   OH241435   7.685   3.341   4.603
13831TIP3    H141436   7.711   3.261   4.556
13831TIP3    H241437   7.755   3.357   4.666
13832TIP3   OH241438   7.921   6.164   2.578
13832TIP3    H141439   7.962   6.209   2.651
13832TIP3    H241440   7.866   6.230   2.536
13833TIP3   OH241441   5.196   7.017   5.233
13833TIP3    H141442   5.175   6.936   5.280
13833TIP3    H241443   5.129   7.021   5.163
13834TIP3   OH241444   4.849   5.106   0.960
13834TIP3    H141445   4.836   5.182   0.904
13834TIP3    H241446   4.931   5.067   0.929
13835TIP3   OH241447   0.277   0.898   4.454
13835TIP3    H141448   0.363   0.926   4.488
13835TIP3    H241449   0.258   0.960   4.384
13836TIP3   OH241450   3.801   6.369   0.457
13836TIP3    H141451   3.729   6.389   0.397
13836TIP3    H241452   3.818   6.276   0.444
13837TIP3   OH241453   6.465   4.082   0.206
13837TIP3    H141454   6.377   4.066   0.239
13837TIP3    H241455   6.496   4.158   0.256
13838TIP3   OH241456   7.736   0.878   1.670
13838TIP3    H141457   7.697   0.869   1.757
13838TIP3    H241458   7.827   0.904   1.687
13839TIP3   OH241459   1.704   1.212   4.395
13839TIP3    H141460   1.779   1.272   4.401
13839TIP3    H241461   1.648   1.236   4.469
13840TIP3   OH241462   4.478   1.188   2.108
13840TIP3    H141463   4.440   1.140   2.181
13840TIP3    H241464   4.445   1.278   2.118
13841TIP3   OH241465   3.321   1.382   4.758
13841TIP3    H141466   3.339   1.475   4.763
13841TIP3    H241467   3.403   1.343   4.726
13842TIP3   OH241468   1.002   6.505   0.888
13842TIP3    H141469   0.981   6.412   0.876
13842TIP3    H241470   1.088   6.515   0.849
13843TIP3   OH241471   2.798   0.715   1.848
13843TIP3    H141472   2.841   0.676   1.923
13843TIP3    H241473   2.718   0.753   1.883
13844TIP3   OH241474   3.251   7.743   5.927
13844TIP3    H141475   3.329   7.797   5.941
13844TIP3    H241476   3.184   7.805   5.898
13845TIP3   OH241477   1.000   5.369   5.495
13845TIP3    H141478   0.926   5.354   5.436
13845TIP3    H241479   1.068   5.406   5.439
13846TIP3   OH241480   7.733   2.975   4.902
13846TIP3    H141481   7.781   2.984   4.820
13846TIP3    H241482   7.655   3.028   4.890
13847TIP3   OH241483   4.518   6.730   1.273
13847TIP3    H141484   4.600   6.761   1.234
13847TIP3    H241485   4.490   6.658   1.216
13848TIP3   OH241486   4.025   1.194   0.438
13848TIP3    H141487   3.991   1.122   0.491
13848TIP3    H241488   4.113   1.168   0.414
13849TIP3   OH241489   7.183   3.104   4.038
13849TIP3    H141490   7.236   3.183   4.023
13849TIP3    H241491   7.123   3.128   4.108
13850TIP3   OH241492   4.843   4.831   5.322
13850TIP3    H141493   4.774   4.850   5.259
13850TIP3    H241494   4.833   4.898   5.390
13851TIP3   OH241495   5.138   6.767   5.366
13851TIP3    H141496   5.062   6.710   5.366
13851TIP3    H241497   5.173   6.760   5.277
13852TIP3   OH241498   0.573   7.071   4.387
13852TIP3    H141499   0.658   7.116   4.384
13852TIP3    H241500   0.510   7.137   4.357
13853TIP3   OH241501   7.583   3.958   5.564
13853TIP3    H141502   7.545   3.952   5.651
13853TIP3    H241503   7.523   3.909   5.507
13854TIP3   OH241504   3.108   7.651   4.159
13854TIP3    H141505   3.115   7.730   4.212
13854TIP3    H241506   3.198   7.622   4.148
13855TIP3   OH241507   2.320   0.462   3.731
13855TIP3    H141508   2.294   0.518   3.658
13855TIP3    H241509   2.310   0.517   3.809
13856TIP3   OH241510   6.831   2.743   4.564
13856TIP3    H141511   6.861   2.671   4.621
13856TIP3    H241512   6.859   2.822   4.610
13857TIP3   OH241513   5.336   4.884   5.209
13857TIP3    H141514   5.259   4.826   5.205
13857TIP3    H241515   5.356   4.903   5.118
13858TIP3   OH241516   0.864   5.998   3.093
13858TIP3    H141517   0.843   5.980   3.002
13858TIP3    H241518   0.922   6.075   3.090
13859TIP3   OH241519   1.084   1.391   1.140
13859TIP3    H141520   1.157   1.449   1.118
13859TIP3    H241521   1.121   1.303   1.134
13860TIP3   OH241522   5.748   4.040   4.800
13860TIP3    H141523   5.757   3.944   4.796
13860TIP3    H241524   5.832   4.073   4.767
13861TIP3   OH241525   4.117   2.410   2.203
13861TIP3    H141526   4.036   2.388   2.157
13861TIP3    H241527   4.090   2.429   2.293
13862TIP3   OH241528   4.417   5.214   0.941
13862TIP3    H141529   4.460   5.141   0.985
13862TIP3    H241530   4.413   5.284   1.007
13863TIP3   OH241531   4.896   6.823   6.192
13863TIP3    H141532   4.936   6.737   6.207
13863TIP3    H241533   4.832   6.808   6.123
13864TIP3   OH241534   6.225   2.782   2.396
13864TIP3    H141535   6.140   2.770   2.355
13864TIP3    H241536   6.232   2.711   2.459
13865TIP3   OH241537   5.042   5.900   3.941
13865TIP3    H141538   4.965   5.932   3.988
13865TIP3    H241539   5.114   5.911   4.004
13866TIP3   OH241540   2.779   6.562   6.265
13866TIP3    H141541   2.840   6.564   6.339
13866TIP3    H241542   2.769   6.654   6.240
13867TIP3   OH241543   4.634   4.067   6.221
13867TIP3    H141544   4.580   4.089   6.297
13867TIP3    H241545   4.604   3.980   6.195
13868TIP3   OH241546   6.722   1.793   2.509
13868TIP3    H141547   6.635   1.827   2.530
13868TIP3    H241548   6.781   1.843   2.565
13869TIP3   OH241549   6.987   2.874   5.823
13869TIP3    H141550   7.035   2.956   5.828
13869TIP3    H241551   6.960   2.856   5.914
13870TIP3   OH241552   1.146   1.176   0.187
13870TIP3    H141553   1.181   1.236   0.253
13870TIP3    H241554   1.054   1.201   0.178
13871TIP3   OH241555   7.325   7.715   6.521
13871TIP3    H141556   7.324   7.810   6.513
13871TIP3    H241557   7.238   7.692   6.554
13872TIP3   OH241558   2.836   0.457   6.669
13872TIP3    H141559   2.890   0.446   6.592
13872TIP3    H241560   2.820   0.368   6.701
13873TIP3   OH241561   3.844   4.804   1.391
13873TIP3    H141562   3.929   4.801   1.347
13873TIP3    H241563   3.860   4.762   1.476
13874TIP3   OH241564   3.222   7.788   0.634
13874TIP3    H141565   3.145   7.791   0.576
13874TIP3    H241566   3.279   7.858   0.601
13875TIP3   OH241567   0.284   1.958   1.894
13875TIP3    H141568   0.277   2.023   1.964
13875TIP3    H241569   0.300   2.010   1.815
13876TIP3   OH241570   1.191   2.123   2.145
13876TIP3    H141571   1.138   2.088   2.216
13876TIP3    H241572   1.258   2.056   2.130
13877TIP3   OH241573   2.584   5.723   0.029
13877TIP3    H141574   2.502   5.769   0.045
13877TIP3    H241575   2.559   5.632   0.015
13878TIP3   OH241576   4.039   7.031   6.598
13878TIP3    H141577   3.945   7.049   6.597
13878TIP3    H241578   4.068   7.045   6.508
13879TIP3   OH241579   4.044   1.255   6.053
13879TIP3    H141580   4.004   1.189   6.110
13879TIP3    H241581   4.032   1.220   5.965
13880TIP3   OH241582   4.690   1.200   5.518
13880TIP3    H141583   4.623   1.162   5.462
13880TIP3    H241584   4.771   1.156   5.492
13881TIP3   OH241585   4.811   0.592   3.651
13881TIP3    H141586   4.841   0.616   3.564
13881TIP3    H241587   4.724   0.553   3.637
13882TIP3   OH241588   8.260   5.267   2.405
13882TIP3    H141589   8.167   5.290   2.403
13882TIP3    H241590   8.295   5.314   2.481
13883TIP3   OH241591   4.319   3.423   3.460
13883TIP3    H141592   4.262   3.348   3.444
13883TIP3    H241593   4.259   3.495   3.480
13884TIP3   OH241594   1.632   1.616   1.470
13884TIP3    H141595   1.553   1.642   1.518
13884TIP3    H241596   1.601   1.601   1.381
13885TIP3   OH241597   1.698   6.423   4.897
13885TIP3    H141598   1.742   6.452   4.977
13885TIP3    H241599   1.610   6.396   4.926
13886TIP3   OH241600   3.375   0.625   6.560
13886TIP3    H141601   3.452   0.669   6.523
13886TIP3    H241602   3.324   0.695   6.600
13887TIP3   OH241603   6.264   2.825   4.163
13887TIP3    H141604   6.304   2.771   4.096
13887TIP3    H241605   6.171   2.800   4.162
13888TIP3   OH241606   3.411   3.486   3.563
13888TIP3    H141607   3.427   3.550   3.493
13888TIP3    H241608   3.389   3.405   3.516
13889TIP3   OH241609   7.719   5.397   2.285
13889TIP3    H141610   7.651   5.448   2.330
13889TIP3    H241611   7.756   5.458   2.221
13890TIP3   OH241612   2.651   4.803   4.414
13890TIP3    H141613   2.689   4.836   4.333
13890TIP3    H241614   2.692   4.718   4.428
13891TIP3   OH241615   4.784   0.544   5.573
13891TIP3    H141616   4.700   0.571   5.536
13891TIP3    H241617   4.812   0.618   5.627
13892TIP3   OH241618   7.058   1.417   1.752
13892TIP3    H141619   7.062   1.338   1.698
13892TIP3    H241620   6.984   1.466   1.716
13893TIP3   OH241621   1.514   5.996   5.487
13893TIP3    H141622   1.431   5.961   5.519
13893TIP3    H241623   1.538   5.938   5.414
13894TIP3   OH241624   6.807   2.938   5.217
13894TIP3    H141625   6.812   2.994   5.140
13894TIP3    H241626   6.776   2.854   5.184
13895TIP3   OH241627   5.870   1.713   5.259
13895TIP3    H141628   5.831   1.753   5.181
13895TIP3    H241629   5.911   1.786   5.306
13896TIP3   OH241630   4.301   6.553   5.020
13896TIP3    H141631   4.217   6.564   5.065
13896TIP3    H241632   4.281   6.573   4.928
13897TIP3   OH241633   3.663   1.719   0.246
13897TIP3    H141634   3.667   1.663   0.324
13897TIP3    H241635   3.694   1.663   0.175
13898TIP3   OH241636   2.877   7.475   6.053
13898TIP3    H141637   2.813   7.501   5.987
13898TIP3    H241638   2.962   7.495   6.015
13899TIP3   OH241639   3.468   6.619   4.921
13899TIP3    H141640   3.467   6.588   4.831
13899TIP3    H241641   3.377   6.643   4.939
13900TIP3   OH241642   5.705   2.435   0.095
13900TIP3    H141643   5.692   2.528   0.112
13900TIP3    H241644   5.724   2.430   0.001
13901TIP3   OH241645   6.449   7.257   4.296
13901TIP3    H141646   6.409   7.293   4.375
13901TIP3    H241647   6.525   7.209   4.329
13902TIP3   OH241648   3.797   4.661   4.255
13902TIP3    H141649   3.707   4.680   4.232
13902TIP3    H241650   3.794   4.575   4.297
13903TIP3   OH241651   0.789   7.374   1.578
13903TIP3    H141652   0.761   7.374   1.669
13903TIP3    H241653   0.708   7.361   1.528
13904TIP3   OH241654   4.586   0.555   4.577
13904TIP3    H141655   4.648   0.614   4.534
13904TIP3    H241656   4.508   0.557   4.521
13905TIP3   OH241657   0.168   0.801   3.008
13905TIP3    H141658   0.093   0.814   3.067
13905TIP3    H241659   0.137   0.836   2.924
13906TIP3   OH241660   3.849   1.420   2.892
13906TIP3    H141661   3.905   1.381   2.825
13906TIP3    H241662   3.860   1.364   2.968
13907TIP3   OH241663   5.897   3.020   0.396
13907TIP3    H141664   5.826   2.983   0.448
13907TIP3    H241665   5.853   3.057   0.319
13908TIP3   OH241666   1.575   0.927   4.411
13908TIP3    H141667   1.622   1.007   4.391
13908TIP3    H241668   1.485   0.955   4.426
13909TIP3   OH241669   7.408   3.426   3.365
13909TIP3    H141670   7.487   3.476   3.343
13909TIP3    H241671   7.411   3.349   3.308
13910TIP3   OH241672   2.267   6.306   3.462
13910TIP3    H141673   2.291   6.238   3.525
13910TIP3    H241674   2.202   6.359   3.508
13911TIP3   OH241675   7.867   3.543   5.536
13911TIP3    H141676   7.876   3.550   5.631
13911TIP3    H241677   7.870   3.634   5.505
13912TIP3   OH241678   1.195   3.507   2.555
13912TIP3    H141679   1.121   3.473   2.504
13912TIP3    H241680   1.165   3.592   2.587
13913TIP3   OH241681   6.204   3.589   6.339
13913TIP3    H141682   6.252   3.623   6.263
13913TIP3    H241683   6.261   3.521   6.375
13914TIP3   OH241684   2.356   2.179   5.504
13914TIP3    H141685   2.328   2.095   5.469
13914TIP3    H241686   2.451   2.170   5.517
13915TIP3   OH241687   3.421   4.635   6.698
13915TIP3    H141688   3.359   4.641   6.626
13915TIP3    H241689   3.370   4.605   6.773
13916TIP3   OH241690   0.394   4.977   1.034
13916TIP3    H141691   0.398   5.065   1.072
13916TIP3    H241692   0.485   4.950   1.026
13917TIP3   OH241693   4.717   5.987   6.017
13917TIP3    H141694   4.743   6.061   5.962
13917TIP3    H241695   4.779   5.988   6.090
13918TIP3   OH241696   1.378   2.405   5.103
13918TIP3    H141697   1.387   2.310   5.094
13918TIP3    H241698   1.311   2.417   5.169
13919TIP3   OH241699   2.342   2.949   0.573
13919TIP3    H141700   2.377   2.897   0.646
13919TIP3    H241701   2.271   2.999   0.612
13920TIP3   OH241702   5.611   5.245   3.619
13920TIP3    H141703   5.645   5.275   3.703
13920TIP3    H241704   5.684   5.198   3.578
13921TIP3   OH241705   8.076   4.915   2.943
13921TIP3    H141706   8.036   4.918   2.856
13921TIP3    H241707   8.142   4.846   2.936
13922TIP3   OH241708   4.426   5.804   3.390
13922TIP3    H141709   4.444   5.865   3.318
13922TIP3    H241710   4.335   5.778   3.377
13923TIP3   OH241711   1.782   1.089   5.463
13923TIP3    H141712   1.765   1.059   5.552
13923TIP3    H241713   1.706   1.059   5.413
13924TIP3   OH241714   2.908   3.969   4.952
13924TIP3    H141715   2.937   4.052   4.913
13924TIP3    H241716   2.981   3.909   4.937
13925TIP3   OH241717   2.650   6.718   2.814
13925TIP3    H141718   2.740   6.741   2.837
13925TIP3    H241719   2.606   6.802   2.802
13926TIP3   OH241720   1.087   2.955   3.105
13926TIP3    H141721   0.997   2.935   3.079
13926TIP3    H241722   1.123   3.006   3.032
13927TIP3   OH241723   3.323   4.979   1.772
13927TIP3    H141724   3.317   4.934   1.857
13927TIP3    H241725   3.412   5.015   1.770
13928TIP3   OH241726   5.042   4.493   2.974
13928TIP3    H141727   5.095   4.554   3.025
13928TIP3    H241728   4.969   4.470   3.032
13929TIP3   OH241729   1.793   6.711   2.639
13929TIP3    H141730   1.816   6.653   2.566
13929TIP3    H241731   1.713   6.674   2.675
13930TIP3   OH241732   5.146   6.970   2.268
13930TIP3    H141733   5.166   6.961   2.175
13930TIP3    H241734   5.053   6.991   2.271
13931TIP3   OH241735   8.104   6.953   4.363
13931TIP3    H141736   8.103   6.926   4.455
13931TIP3    H241737   8.161   6.889   4.320
13932TIP3   OH241738   3.825   0.099   2.055
13932TIP3    H141739   3.843   0.029   2.118
13932TIP3    H241740   3.823   0.054   1.970
13933TIP3   OH241741   7.643   4.039   1.258
13933TIP3    H141742   7.571   4.093   1.225
13933TIP3    H241743   7.654   4.067   1.349
13934TIP3   OH241744   0.928   4.206   4.245
13934TIP3    H141745   0.944   4.240   4.157
13934TIP3    H241746   0.999   4.241   4.298
13935TIP3   OH241747   7.012   4.815   3.093
13935TIP3    H141748   7.004   4.770   3.177
13935TIP3    H241749   6.979   4.903   3.111
13936TIP3   OH241750   1.210   0.589   2.135
13936TIP3    H141751   1.150   0.627   2.071
13936TIP3    H241752   1.163   0.513   2.170
13937TIP3   OH241753   4.081   0.188   2.588
13937TIP3    H141754   4.123   0.211   2.506
13937TIP3    H241755   4.063   0.094   2.580
13938TIP3   OH241756   4.209   1.746   2.474
13938TIP3    H141757   4.205   1.831   2.430
13938TIP3    H241758   4.213   1.768   2.567
13939TIP3   OH241759   3.172   1.717   5.214
13939TIP3    H141760   3.163   1.721   5.309
13939TIP3    H241761   3.256   1.675   5.199
13940TIP3   OH241762   2.496   5.519   2.141
13940TIP3    H141763   2.562   5.532   2.209
13940TIP3    H241764   2.512   5.430   2.109
13941TIP3   OH241765   4.911   4.630   2.282
13941TIP3    H141766   4.936   4.659   2.370
13941TIP3    H241767   4.828   4.675   2.265
13942TIP3   OH241768   4.944   4.502   1.711
13942TIP3    H141769   4.898   4.538   1.786
13942TIP3    H241770   4.875   4.457   1.661
13943TIP3   OH241771   0.653   0.607   4.437
13943TIP3    H141772   0.695   0.608   4.523
13943TIP3    H241773   0.669   0.694   4.402
13944TIP3   OH241774   6.053   5.226   4.927
13944TIP3    H141775   5.958   5.230   4.915
13944TIP3    H241776   6.075   5.133   4.918
13945TIP3   OH241777   3.656   2.177   5.552
13945TIP3    H141778   3.682   2.157   5.462
13945TIP3    H241779   3.732   2.153   5.606
13946TIP3   OH241780   4.605   0.058   2.084
13946TIP3    H141781   4.701   0.053   2.088
13946TIP3    H241782   4.576   0.017   2.165
13947TIP3   OH241783   0.972   2.102   5.718
13947TIP3    H141784   1.020   2.053   5.785
13947TIP3    H241785   0.926   2.171   5.766
13948TIP3   OH241786   4.860   6.753   3.477
13948TIP3    H141787   4.845   6.681   3.416
13948TIP3    H241788   4.774   6.773   3.514
13949TIP3   OH241789   5.662   6.879   2.727
13949TIP3    H141790   5.677   6.938   2.654
13949TIP3    H241791   5.567   6.878   2.738
13950TIP3   OH241792   2.090   3.501   3.768
13950TIP3    H141793   2.087   3.434   3.699
13950TIP3    H241794   2.000   3.532   3.775
13951TIP3   OH241795   1.480   4.234   2.869
13951TIP3    H141796   1.511   4.324   2.863
13951TIP3    H241797   1.385   4.241   2.860
13952TIP3   OH241798   2.089   7.795   5.445
13952TIP3    H141799   2.070   7.828   5.357
13952TIP3    H241800   2.102   7.701   5.433
13953TIP3   OH241801   6.360   0.967   1.339
13953TIP3    H141802   6.434   0.966   1.278
13953TIP3    H241803   6.289   1.008   1.290
13954TIP3   OH241804   6.689   6.295   6.635
13954TIP3    H141805   6.612   6.279   6.581
13954TIP3    H241806   6.742   6.356   6.583
13955TIP3   OH241807   4.383   2.703   2.898
13955TIP3    H141808   4.457   2.642   2.893
13955TIP3    H241809   4.308   2.652   2.869
13956TIP3   OH241810   6.751   7.196   2.269
13956TIP3    H141811   6.675   7.138   2.268
13956TIP3    H241812   6.722   7.275   2.223
13957TIP3   OH241813   3.004   3.083   0.303
13957TIP3    H141814   2.963   3.162   0.268
13957TIP3    H241815   3.096   3.107   0.314
13958TIP3   OH241816  -0.003   2.986   5.110
13958TIP3    H141817  -0.018   3.031   5.194
13958TIP3    H241818   0.025   2.898   5.135
13959TIP3   OH241819   1.018   7.359   1.366
13959TIP3    H141820   0.981   7.371   1.278
13959TIP3    H241821   0.944   7.335   1.421
13960TIP3   OH241822   6.852   4.801   2.305
13960TIP3    H141823   6.920   4.756   2.354
13960TIP3    H241824   6.854   4.891   2.338
13961TIP3   OH241825   0.686   5.732   3.977
13961TIP3    H141826   0.671   5.733   3.883
13961TIP3    H241827   0.626   5.798   4.012
13962TIP3   OH241828   4.847   2.008   1.407
13962TIP3    H141829   4.929   1.968   1.376
13962TIP3    H241830   4.781   1.973   1.347
13963TIP3   OH241831   6.947   2.987   6.454
13963TIP3    H141832   6.865   2.962   6.411
13963TIP3    H241833   6.990   3.045   6.391
13964TIP3   OH241834   2.271   7.769   5.654
13964TIP3    H141835   2.260   7.693   5.597
13964TIP3    H241836   2.188   7.775   5.702
13965TIP3   OH241837   2.577   4.357   4.360
13965TIP3    H141838   2.619   4.279   4.325
13965TIP3    H241839   2.647   4.422   4.365
13966TIP3   OH241840   7.708   4.799   1.722
13966TIP3    H141841   7.767   4.822   1.650
13966TIP3    H241842   7.652   4.876   1.732
13967TIP3   OH241843   4.349   5.838   6.488
13967TIP3    H141844   4.417   5.804   6.546
13967TIP3    H241845   4.396   5.875   6.414
13968TIP3   OH241846   2.409   1.235   0.029
13968TIP3    H141847   2.469   1.310   0.034
13968TIP3    H241848   2.467   1.159   0.029
13969TIP3   OH241849   5.259   3.443   1.782
13969TIP3    H141850   5.176   3.483   1.756
13969TIP3    H241851   5.315   3.518   1.804
13970TIP3   OH241852   2.271   7.601   0.132
13970TIP3    H141853   2.229   7.599   0.046
13970TIP3    H241854   2.205   7.641   0.189
13971TIP3   OH241855   7.790   7.789   6.801
13971TIP3    H141856   7.841   7.765   6.724
13971TIP3    H241857   7.715   7.728   6.800
13972TIP3   OH241858   8.098   7.427   0.246
13972TIP3    H141859   8.059   7.382   0.172
13972TIP3    H241860   8.187   7.449   0.218
13973TIP3   OH241861   1.641   5.941   6.111
13973TIP3    H141862   1.575   5.987   6.162
13973TIP3    H241863   1.722   5.991   6.125
13974TIP3   OH241864   7.956   5.237   5.847
13974TIP3    H141865   8.022   5.306   5.855
13974TIP3    H241866   7.879   5.282   5.811
13975TIP3   OH241867   5.392   6.404   3.570
13975TIP3    H141868   5.458   6.353   3.618
13975TIP3    H241869   5.443   6.473   3.527
13976TIP3   OH241870   5.926   4.783   6.670
13976TIP3    H141871   5.880   4.859   6.635
13976TIP3    H241872   5.856   4.724   6.699
13977TIP3   OH241873   7.625   5.591   3.047
13977TIP3    H141874   7.620   5.687   3.053
13977TIP3    H241875   7.556   5.567   2.986
13978TIP3   OH241876   4.005   0.185   1.046
13978TIP3    H141877   3.934   0.247   1.064
13978TIP3    H241878   4.048   0.219   0.968
13979TIP3   OH241879   4.920   4.996   3.225
13979TIP3    H141880   4.927   5.091   3.221
13979TIP3    H241881   4.837   4.981   3.272
13980TIP3   OH241882   5.277   1.065   4.990
13980TIP3    H141883   5.186   1.078   5.016
13980TIP3    H241884   5.272   1.036   4.899
13981TIP3   OH241885   2.000   1.897   4.081
13981TIP3    H141886   2.012   1.802   4.085
13981TIP3    H241887   1.916   1.912   4.124
13982TIP3   OH241888   2.123   5.162   0.221
13982TIP3    H141889   2.031   5.169   0.247
13982TIP3    H241890   2.129   5.215   0.142
13983TIP3   OH241891   7.740   4.396   4.083
13983TIP3    H141892   7.709   4.310   4.056
13983TIP3    H241893   7.801   4.378   4.154
13984TIP3   OH241894   2.717   1.648   2.995
13984TIP3    H141895   2.787   1.599   3.038
13984TIP3    H241896   2.648   1.583   2.980
13985TIP3   OH241897   4.024   6.674   4.609
13985TIP3    H141898   4.004   6.761   4.645
13985TIP3    H241899   3.948   6.621   4.635
13986TIP3   OH241900   6.316   5.414   5.184
13986TIP3    H141901   6.340   5.375   5.101
13986TIP3    H241902   6.295   5.505   5.163
13987TIP3   OH241903   0.291   0.767   3.547
13987TIP3    H141904   0.224   0.798   3.486
13987TIP3    H241905   0.370   0.816   3.523
13988TIP3   OH241906   3.258   0.616   3.229
13988TIP3    H141907   3.173   0.579   3.205
13988TIP3    H241908   3.293   0.652   3.147
13989TIP3   OH241909   0.082   7.221   0.351
13989TIP3    H141910  -0.002   7.180   0.372
13989TIP3    H241911   0.059   7.301   0.305
13990TIP3   OH241912   3.888   4.242   0.030
13990TIP3    H141913   3.861   4.327   0.063
13990TIP3    H241914   3.978   4.256  -0.001
13991TIP3   OH241915   2.803   1.941   5.692
13991TIP3    H141916   2.882   1.990   5.715
13991TIP3    H241917   2.828   1.849   5.706
13992TIP3   OH241918   5.773   0.978   5.772
13992TIP3    H141919   5.770   1.036   5.848
13992TIP3    H241920   5.693   0.998   5.724
13993TIP3   OH241921   3.427   3.181   6.586
13993TIP3    H141922   3.358   3.132   6.541
13993TIP3    H241923   3.508   3.150   6.545
13994TIP3   OH241924   1.747   0.650   0.321
13994TIP3    H141925   1.711   0.735   0.345
13994TIP3    H241926   1.742   0.598   0.402
13995TIP3   OH241927   2.663   6.038   5.415
13995TIP3    H141928   2.643   6.115   5.468
13995TIP3    H241929   2.726   6.068   5.351
13996TIP3   OH241930   1.638   5.730   0.193
13996TIP3    H141931   1.551   5.761   0.217
13996TIP3    H241932   1.635   5.635   0.204
13997TIP3   OH241933   0.116   1.846   6.363
13997TIP3    H141934   0.179   1.780   6.390
13997TIP3    H241935   0.041   1.832   6.421
13998TIP3   OH241936   0.345   2.238   4.667
13998TIP3    H141937   0.391   2.154   4.670
13998TIP3    H241938   0.399   2.297   4.719
13999TIP3   OH241939   7.309   2.057   5.704
13999TIP3    H141940   7.267   2.053   5.789
13999TIP3    H241941   7.299   2.148   5.676
14000TIP3   OH241942   5.432   6.671   3.162
14000TIP3    H141943   5.412   6.592   3.212
14000TIP3    H241944   5.422   6.644   3.070
14001TIP3   OH241945   6.412   1.288   3.047
14001TIP3    H141946   6.453   1.352   2.989
14001TIP3    H241947   6.318   1.295   3.027
14002TIP3   OH241948   1.099   5.327   3.389
14002TIP3    H141949   1.166   5.261   3.372
14002TIP3    H241950   1.025   5.277   3.424
14003TIP3   OH241951   6.591   5.447   0.701
14003TIP3    H141952   6.659   5.382   0.720
14003TIP3    H241953   6.633   5.508   0.641
14004TIP3   OH241954   2.952   1.739   2.661
14004TIP3    H141955   2.926   1.796   2.589
14004TIP3    H241956   2.890   1.758   2.731
14005TIP3   OH241957   5.256   7.064   4.220
14005TIP3    H141958   5.322   6.998   4.243
14005TIP3    H241959   5.308   7.141   4.196
14006TIP3   OH241960   0.250   7.782   2.604
14006TIP3    H141961   0.269   7.833   2.683
14006TIP3    H241962   0.186   7.836   2.557
14007TIP3   OH241963   2.377   7.413   1.076
14007TIP3    H141964   2.467   7.397   1.050
14007TIP3    H241965   2.324   7.359   1.017
14008TIP3   OH241966   4.435   0.109   6.443
14008TIP3    H141967   4.522   0.127   6.479
14008TIP3    H241968   4.380   0.095   6.520
14009TIP3   OH241969   5.651   3.949   0.738
14009TIP3    H141970   5.698   3.995   0.807
14009TIP3    H241971   5.599   3.883   0.784
14010TIP3   OH241972   2.890   7.388   3.538
14010TIP3    H141973   2.893   7.319   3.472
14010TIP3    H241974   2.973   7.379   3.585
14011TIP3   OH241975   3.280   0.649   2.736
14011TIP3    H141976   3.366   0.678   2.705
14011TIP3    H241977   3.220   0.719   2.710
14012TIP3   OH241978   6.510   7.231   6.284
14012TIP3    H141979   6.483   7.298   6.221
14012TIP3    H241980   6.548   7.161   6.230
14013TIP3   OH241981   3.060   7.883   0.961
14013TIP3    H141982   3.088   7.798   0.927
14013TIP3    H241983   3.141   7.932   0.975
14014TIP3   OH241984   3.355   0.819   6.144
14014TIP3    H141985   3.358   0.728   6.172
14014TIP3    H241986   3.446   0.849   6.150
14015TIP3   OH241987   3.346   6.291   1.398
14015TIP3    H141988   3.311   6.347   1.329
14015TIP3    H241989   3.275   6.284   1.462
14016TIP3   OH241990   5.680   7.402   2.275
14016TIP3    H141991   5.760   7.364   2.311
14016TIP3    H241992   5.626   7.326   2.253
14017TIP3   OH241993   5.852   7.058   2.327
14017TIP3    H141994   5.874   6.974   2.367
14017TIP3    H241995   5.853   7.041   2.233
14018TIP3   OH241996   5.463   5.611   5.487
14018TIP3    H141997   5.388   5.553   5.498
14018TIP3    H241998   5.538   5.552   5.480
14019TIP3   OH241999   6.755   3.857   5.663
14019TIP3    H142000   6.669   3.890   5.689
14019TIP3    H242001   6.741   3.764   5.645
14020TIP3   OH242002   7.501   0.492   3.691
14020TIP3    H142003   7.457   0.478   3.607
14020TIP3    H242004   7.438   0.544   3.742
14021TIP3   OH242005   6.646   1.370   4.429
14021TIP3    H142006   6.649   1.466   4.423
14021TIP3    H242007   6.554   1.351   4.447
14022TIP3   OH242008   2.439   6.677   6.130
14022TIP3    H142009   2.490   6.672   6.211
14022TIP3    H242010   2.501   6.655   6.061
14023TIP3   OH242011   6.583   2.796   0.558
14023TIP3    H142012   6.611   2.712   0.522
14023TIP3    H242013   6.557   2.777   0.648
14024TIP3   OH242014   5.787   7.241   5.082
14024TIP3    H142015   5.802   7.191   5.162
14024TIP3    H242016   5.753   7.177   5.019
14025TIP3   OH242017   3.540   6.992   2.171
14025TIP3    H142018   3.511   6.909   2.134
14025TIP3    H242019   3.598   6.968   2.243
14026TIP3   OH242020   7.034   2.666   2.172
14026TIP3    H142021   7.031   2.715   2.254
14026TIP3    H242022   7.127   2.664   2.149
14027TIP3   OH242023   0.800   2.028   5.133
14027TIP3    H142024   0.846   2.062   5.056
14027TIP3    H242025   0.708   2.020   5.105
14028TIP3   OH242026   5.193   6.360   1.564
14028TIP3    H142027   5.206   6.428   1.630
14028TIP3    H242028   5.280   6.320   1.553
14029TIP3   OH242029   7.013   0.943   2.107
14029TIP3    H142030   7.018   0.897   2.191
14029TIP3    H242031   6.953   0.891   2.054
14030TIP3   OH242032   4.181   3.985   5.024
14030TIP3    H142033   4.207   3.978   4.933
14030TIP3    H242034   4.110   4.050   5.024
14031TIP3   OH242035   7.546   0.531   1.811
14031TIP3    H142036   7.488   0.586   1.758
14031TIP3    H242037   7.601   0.485   1.746
14032TIP3   OH242038   7.404   5.672   1.124
14032TIP3    H142039   7.445   5.748   1.083
14032TIP3    H242040   7.345   5.709   1.190
14033TIP3   OH242041   3.630   3.999   2.312
14033TIP3    H142042   3.686   3.992   2.389
14033TIP3    H242043   3.682   3.962   2.241
14034TIP3   OH242044   1.930   0.326   3.077
14034TIP3    H142045   2.002   0.283   3.124
14034TIP3    H242046   1.854   0.312   3.133
14035TIP3   OH242047   2.047   2.419   0.474
14035TIP3    H142048   1.989   2.444   0.547
14035TIP3    H242049   1.987   2.400   0.402
14036TIP3   OH242050   4.315   0.148   5.900
14036TIP3    H142051   4.340   0.218   5.840
14036TIP3    H242052   4.221   0.162   5.916
14037TIP3   OH242053   1.526   0.432   1.299
14037TIP3    H142054   1.462   0.433   1.370
14037TIP3    H242055   1.609   0.454   1.342
14038TIP3   OH242056   5.364   2.533   0.367
14038TIP3    H142057   5.364   2.451   0.418
14038TIP3    H242058   5.412   2.511   0.287
14039TIP3   OH242059   5.470   6.620   0.627
14039TIP3    H142060   5.511   6.641   0.711
14039TIP3    H242061   5.407   6.551   0.647
14040TIP3   OH242062   2.796   2.869   5.160
14040TIP3    H142063   2.721   2.851   5.217
14040TIP3    H242064   2.786   2.806   5.088
14041TIP3   OH242065   7.704   7.463   3.315
14041TIP3    H142066   7.631   7.523   3.325
14041TIP3    H242067   7.767   7.490   3.381
14042TIP3   OH242068   4.327   5.056   1.266
14042TIP3    H142069   4.294   5.035   1.179
14042TIP3    H242070   4.326   4.972   1.313
14043TIP3   OH242071   2.070   4.152   5.772
14043TIP3    H142072   1.985   4.147   5.816
14043TIP3    H242073   2.126   4.197   5.834
14044TIP3   OH242074   4.478   0.860   6.270
14044TIP3    H142075   4.496   0.783   6.215
14044TIP3    H242076   4.390   0.887   6.245
14045TIP3   OH242077   6.498   0.020   1.719
14045TIP3    H142078   6.544   0.056   1.643
14045TIP3    H242079   6.558  -0.047   1.753
14046TIP3   OH242080   2.759   3.510   4.215
14046TIP3    H142081   2.758   3.454   4.137
14046TIP3    H242082   2.681   3.564   4.207
14047TIP3   OH242083   0.858   2.687   3.952
14047TIP3    H142084   0.821   2.759   4.003
14047TIP3    H242085   0.814   2.693   3.867
14048TIP3   OH242086   6.634   7.657   0.418
14048TIP3    H142087   6.674   7.581   0.460
14048TIP3    H242088   6.541   7.637   0.414
14049TIP3   OH242089   1.352   6.763   6.176
14049TIP3    H142090   1.356   6.739   6.083
14049TIP3    H242091   1.281   6.827   6.181
14050TIP3   OH242092   8.230   0.929   4.496
14050TIP3    H142093   8.147   0.939   4.544
14050TIP3    H242094   8.240   1.010   4.447
14051TIP3   OH242095   6.291   2.857   3.303
14051TIP3    H142096   6.377   2.873   3.264
14051TIP3    H242097   6.248   2.797   3.242
14052TIP3   OH242098   4.244   3.070   6.419
14052TIP3    H142099   4.330   3.056   6.380
14052TIP3    H242100   4.257   3.053   6.512
14053TIP3   OH242101   6.379   2.908   4.399
14053TIP3    H142102   6.297   2.942   4.436
14053TIP3    H242103   6.353   2.872   4.314
14054TIP3   OH242104   6.702   4.166   4.910
14054TIP3    H142105   6.722   4.175   5.003
14054TIP3    H242106   6.696   4.071   4.896
14055TIP3   OH242107   1.587   7.071   5.274
14055TIP3    H142108   1.679   7.078   5.297
14055TIP3    H242109   1.587   7.052   5.180
14056TIP3   OH242110   2.701   6.491   0.998
14056TIP3    H142111   2.630   6.493   1.063
14056TIP3    H242112   2.775   6.531   1.042
14057TIP3   OH242113   4.971   3.446   6.734
14057TIP3    H142114   4.895   3.388   6.734
14057TIP3    H242115   4.988   3.464   6.642
14058TIP3   OH242116   3.394   5.983   2.338
14058TIP3    H142117   3.411   5.922   2.410
14058TIP3    H242118   3.470   5.974   2.281
14059TIP3   OH242119   1.213   0.100   2.618
14059TIP3    H142120   1.124   0.098   2.583
14059TIP3    H242121   1.223   0.189   2.654
14060TIP3   OH242122   6.193   1.506   4.660
14060TIP3    H142123   6.202   1.414   4.636
14060TIP3    H242124   6.224   1.555   4.584
14061TIP3   OH242125   6.732   7.102   2.673
14061TIP3    H142126   6.769   7.028   2.720
14061TIP3    H242127   6.807   7.142   2.628
14062TIP3   OH242128   0.732   6.705   0.688
14062TIP3    H142129   0.776   6.764   0.626
14062TIP3    H242130   0.701   6.762   0.758
14063TIP3   OH242131   8.092   2.563   2.738
14063TIP3    H142132   8.032   2.635   2.758
14063TIP3    H242133   8.084   2.503   2.813
14064TIP3   OH242134   6.847   7.633   4.599
14064TIP3    H142135   6.809   7.627   4.512
14064TIP3    H242136   6.935   7.596   4.589
14065TIP3   OH242137   2.730   3.373   3.978
14065TIP3    H142138   2.776   3.349   3.897
14065TIP3    H242139   2.693   3.459   3.959
14066TIP3   OH242140   5.345   7.315   0.913
14066TIP3    H142141   5.289   7.387   0.884
14066TIP3    H242142   5.351   7.256   0.838
14067TIP3   OH242143   3.604   1.282   4.939
14067TIP3    H142144   3.533   1.228   4.972
14067TIP3    H242145   3.633   1.237   4.860
14068TIP3   OH242146   3.489   7.672   0.874
14068TIP3    H142147   3.402   7.632   0.867
14068TIP3    H242148   3.541   7.625   0.809
14069TIP3   OH242149   3.671   2.468   2.018
14069TIP3    H142150   3.595   2.414   2.041
14069TIP3    H242151   3.648   2.507   1.934
14070TIP3   OH242152   7.611   3.596   3.324
14070TIP3    H142153   7.688   3.554   3.364
14070TIP3    H242154   7.623   3.689   3.342
14071TIP3   OH242155   1.897   1.621   1.428
14071TIP3    H142156   1.883   1.636   1.334
14071TIP3    H242157   1.809   1.618   1.465
14072TIP3   OH242158   3.022   4.927   1.738
14072TIP3    H142159   3.117   4.929   1.723
14072TIP3    H242160   2.995   4.841   1.706
14073TIP3   OH242161   7.766   4.660   0.945
14073TIP3    H142162   7.836   4.692   1.002
14073TIP3    H242163   7.800   4.669   0.857
14074TIP3   OH242164   7.574   2.740   0.794
14074TIP3    H142165   7.646   2.731   0.732
14074TIP3    H242166   7.613   2.724   0.880
14075TIP3   OH242167   2.245   5.110   3.578
14075TIP3    H142168   2.301   5.074   3.647
14075TIP3    H242169   2.176   5.045   3.568
14076TIP3   OH242170   8.243   0.512   2.045
14076TIP3    H142171   8.284   0.431   2.016
14076TIP3    H242172   8.300   0.546   2.113
14077TIP3   OH242173   6.438   1.133   0.945
14077TIP3    H142174   6.465   1.225   0.946
14077TIP3    H242175   6.443   1.107   0.852
14078TIP3   OH242176   3.872   0.914   2.591
14078TIP3    H142177   3.785   0.949   2.611
14078TIP3    H242178   3.920   0.987   2.554
14079TIP3   OH242179   0.595   6.651   1.277
14079TIP3    H142180   0.553   6.607   1.203
14079TIP3    H242181   0.667   6.593   1.302
14080TIP3   OH242182   3.625   7.707   4.189
14080TIP3    H142183   3.638   7.798   4.215
14080TIP3    H242184   3.618   7.710   4.093
14081TIP3   OH242185   7.879   1.552   2.773
14081TIP3    H142186   7.822   1.553   2.850
14081TIP3    H242187   7.831   1.503   2.707
14082TIP3   OH242188   2.217   6.250   4.044
14082TIP3    H142189   2.225   6.195   4.122
14082TIP3    H242190   2.271   6.326   4.062
14083TIP3   OH242191   8.038   6.585   3.987
14083TIP3    H142192   8.050   6.627   4.073
14083TIP3    H242193   8.125   6.555   3.963
14084TIP3   OH242194   6.604   6.674   6.042
14084TIP3    H142195   6.667   6.740   6.069
14084TIP3    H242196   6.525   6.693   6.093
14085TIP3   OH242197   3.220   0.880   0.353
14085TIP3    H142198   3.237   0.793   0.317
14085TIP3    H242199   3.284   0.890   0.424
14086TIP3   OH242200   6.431   7.316   3.016
14086TIP3    H142201   6.342   7.297   2.989
14086TIP3    H242202   6.474   7.350   2.937
14087TIP3   OH242203   2.134   6.537   6.282
14087TIP3    H142204   2.093   6.605   6.228
14087TIP3    H242205   2.228   6.551   6.270
14088TIP3   OH242206   7.086   2.102   3.953
14088TIP3    H142207   7.108   2.040   3.883
14088TIP3    H242208   7.166   2.108   4.005
14089TIP3   OH242209   7.692   7.103   3.204
14089TIP3    H142210   7.653   7.025   3.243
14089TIP3    H242211   7.623   7.139   3.148
14090TIP3   OH242212   2.410   3.832   1.334
14090TIP3    H142213   2.498   3.861   1.360
14090TIP3    H242214   2.413   3.830   1.239
14091TIP3   OH242215   7.991   5.628   2.550
14091TIP3    H142216   7.982   5.710   2.599
14091TIP3    H242217   7.988   5.560   2.617
14092TIP3   OH242218   6.883   5.138   1.329
14092TIP3    H142219   6.912   5.227   1.312
14092TIP3    H242220   6.959   5.083   1.307
14093TIP3   OH242221   4.723   3.679   5.849
14093TIP3    H142222   4.716   3.584   5.853
14093TIP3    H242223   4.732   3.699   5.756
14094TIP3   OH242224   4.053   6.244   2.060
14094TIP3    H142225   4.052   6.256   1.965
14094TIP3    H242226   4.044   6.150   2.072
14095TIP3   OH242227   5.937   6.415   4.099
14095TIP3    H142228   5.963   6.462   4.178
14095TIP3    H242229   5.936   6.482   4.031
14096TIP3   OH242230   6.802   1.295   4.207
14096TIP3    H142231   6.726   1.257   4.164
14096TIP3    H242232   6.770   1.322   4.293
14097TIP3   OH242233   1.891   0.636   1.260
14097TIP3    H142234   1.977   0.676   1.252
14097TIP3    H242235   1.873   0.636   1.354
14098TIP3   OH242236   8.206   2.298   4.002
14098TIP3    H142237   8.122   2.252   4.001
14098TIP3    H242238   8.268   2.236   3.964
14099TIP3   OH242239   1.952   2.529   3.030
14099TIP3    H142240   1.919   2.511   3.118
14099TIP3    H242241   1.928   2.620   3.014
14100TIP3   OH242242   4.188   0.162   5.370
14100TIP3    H142243   4.203   0.083   5.422
14100TIP3    H242244   4.161   0.130   5.284
14101TIP3   OH242245   3.708   0.589   4.772
14101TIP3    H142246   3.781   0.546   4.729
14101TIP3    H242247   3.645   0.519   4.787
14102TIP3   OH242248   1.508   3.195   0.590
14102TIP3    H142249   1.415   3.215   0.582
14102TIP3    H242250   1.552   3.272   0.555
14103TIP3   OH242251   6.162   5.928   6.130
14103TIP3    H142252   6.256   5.911   6.130
14103TIP3    H242253   6.155   6.023   6.139
14104TIP3   OH242254   0.737   1.059   5.006
14104TIP3    H142255   0.790   1.137   5.024
14104TIP3    H242256   0.774   0.991   5.062
14105TIP3   OH242257   3.567   7.237   2.967
14105TIP3    H142258   3.492   7.267   3.018
14105TIP3    H242259   3.640   7.241   3.028
14106TIP3   OH242260   3.518   3.395   3.801
14106TIP3    H142261   3.491   3.407   3.710
14106TIP3    H242262   3.439   3.361   3.845
14107TIP3   OH242263   6.422   2.723   5.972
14107TIP3    H142264   6.512   2.692   5.979
14107TIP3    H242265   6.423   2.784   5.898
14108TIP3   OH242266   3.978   4.113   0.335
14108TIP3    H142267   3.933   4.196   0.317
14108TIP3    H242268   3.925   4.047   0.291
14109TIP3   OH242269   3.021   0.041   3.197
14109TIP3    H142270   2.946   0.015   3.142
14109TIP3    H242271   3.072  -0.039   3.208
14110TIP3   OH242272   4.352   4.790   1.370
14110TIP3    H142273   4.390   4.846   1.438
14110TIP3    H242274   4.407   4.712   1.369
14111TIP3   OH242275   5.554   1.856   2.343
14111TIP3    H142276   5.615   1.813   2.282
14111TIP3    H242277   5.472   1.863   2.294
14112TIP3   OH242278   3.815   3.598   6.326
14112TIP3    H142279   3.745   3.533   6.331
14112TIP3    H242280   3.889   3.557   6.373
14113TIP3   OH242281   2.384   7.461   1.373
14113TIP3    H142282   2.310   7.414   1.414
14113TIP3    H242283   2.380   7.436   1.281
14114TIP3   OH242284   3.547   0.073   1.790
14114TIP3    H142285   3.488  -0.001   1.781
14114TIP3    H242286   3.627   0.036   1.826
14115TIP3   OH242287   5.141   6.911   4.793
14115TIP3    H142288   5.127   6.869   4.708
14115TIP3    H242289   5.063   6.963   4.807
14116TIP3   OH242290   2.070   4.974   2.866
14116TIP3    H142291   2.083   4.880   2.868
14116TIP3    H242292   2.085   4.999   2.775
14117TIP3   OH242293   6.936   5.727   5.272
14117TIP3    H142294   6.866   5.792   5.279
14117TIP3    H242295   6.944   5.712   5.177
14118TIP3   OH242296   7.992   5.748   2.268
14118TIP3    H142297   8.012   5.730   2.360
14118TIP3    H242298   7.912   5.699   2.251
14119TIP3   OH242299   1.507   4.997   2.907
14119TIP3    H142300   1.544   5.017   2.993
14119TIP3    H242301   1.578   5.014   2.845
14120TIP3   OH242302   0.617   1.490   4.840
14120TIP3    H142303   0.633   1.397   4.827
14120TIP3    H242304   0.535   1.494   4.889
14121TIP3   OH242305   3.711   1.624   5.142
14121TIP3    H142306   3.681   1.699   5.092
14121TIP3    H242307   3.719   1.656   5.232
14122TIP3   OH242308   4.112   2.386   0.889
14122TIP3    H142309   4.030   2.434   0.898
14122TIP3    H242310   4.143   2.408   0.801
14123TIP3   OH242311   0.204   0.974   6.445
14123TIP3    H142312   0.265   0.906   6.418
14123TIP3    H242313   0.258   1.052   6.457
14124TIP3   OH242314   5.713   1.202   5.967
14124TIP3    H142315   5.686   1.138   6.033
14124TIP3    H242316   5.641   1.265   5.964
14125TIP3   OH242317   5.947   5.839   4.466
14125TIP3    H142318   6.020   5.845   4.404
14125TIP3    H242319   5.977   5.887   4.542
14126TIP3   OH242320   2.716   7.147   4.591
14126TIP3    H142321   2.766   7.159   4.510
14126TIP3    H242322   2.624   7.150   4.562
14127TIP3   OH242323   6.985   2.731   1.617
14127TIP3    H142324   6.981   2.751   1.711
14127TIP3    H242325   7.020   2.811   1.578
14128TIP3   OH242326   1.146   7.716   6.348
14128TIP3    H142327   1.148   7.662   6.269
14128TIP3    H242328   1.058   7.755   6.348
14129TIP3   OH242329   4.358   2.308   2.125
14129TIP3    H142330   4.278   2.357   2.144
14129TIP3    H242331   4.389   2.279   2.211
14130TIP3   OH242332   3.924   6.222   4.558
14130TIP3    H142333   3.938   6.170   4.637
14130TIP3    H242334   4.007   6.266   4.543
14131TIP3   OH242335   3.388   2.523   6.686
14131TIP3    H142336   3.351   2.435   6.681
14131TIP3    H242337   3.335   2.574   6.625
14132TIP3   OH242338   2.660   7.450   1.289
14132TIP3    H142339   2.618   7.458   1.375
14132TIP3    H242340   2.635   7.531   1.243
14133TIP3   OH242341   5.318   4.844   6.079
14133TIP3    H142342   5.391   4.842   6.018
14133TIP3    H242343   5.315   4.756   6.117
14134TIP3   OH242344   0.408   6.134   2.047
14134TIP3    H142345   0.341   6.191   2.085
14134TIP3    H242346   0.453   6.188   1.983
14135TIP3   OH242347   5.543   5.226   1.935
14135TIP3    H142348   5.500   5.144   1.960
14135TIP3    H242349   5.637   5.207   1.941
14136TIP3   OH242350   0.154   6.444   6.223
14136TIP3    H142351   0.092   6.497   6.273
14136TIP3    H242352   0.108   6.361   6.209
14137TIP3   OH242353   3.776   2.328   5.306
14137TIP3    H142354   3.775   2.350   5.399
14137TIP3    H242355   3.867   2.340   5.279
14138TIP3   OH242356   0.943   5.946   0.838
14138TIP3    H142357   1.029   5.918   0.870
14138TIP3    H242358   0.956   5.961   0.745
14139TIP3   OH242359   7.868   3.190   5.772
14139TIP3    H142360   7.903   3.133   5.704
14139TIP3    H242361   7.903   3.155   5.854
14140TIP3   OH242362   1.727   4.069   0.669
14140TIP3    H142363   1.805   4.035   0.625
14140TIP3    H242364   1.691   3.993   0.716
14141TIP3   OH242365   7.266   7.383   0.973
14141TIP3    H142366   7.283   7.478   0.973
14141TIP3    H242367   7.350   7.344   0.996
14142TIP3   OH242368   5.558   0.083   0.982
14142TIP3    H142369   5.544   0.104   0.890
14142TIP3    H242370   5.653   0.085   0.992
14143TIP3   OH242371   2.050   0.698   1.883
14143TIP3    H142372   1.967   0.649   1.879
14143TIP3    H242373   2.024   0.789   1.870
14144TIP3   OH242374   0.676   4.766   5.736
14144TIP3    H142375   0.702   4.849   5.696
14144TIP3    H242376   0.624   4.722   5.668
14145TIP3   OH242377   1.455   1.932   5.250
14145TIP3    H142378   1.385   1.947   5.314
14145TIP3    H242379   1.522   1.883   5.298
14146TIP3   OH242380   7.836   5.134   1.255
14146TIP3    H142381   7.761   5.143   1.198
14146TIP3    H242382   7.874   5.222   1.260
14147TIP3   OH242383   1.533   5.942   1.154
14147TIP3    H142384   1.463   5.878   1.172
14147TIP3    H242385   1.527   5.959   1.060
14148TIP3   OH242386   1.547   5.958   3.457
14148TIP3    H142387   1.527   5.968   3.550
14148TIP3    H242388   1.533   6.045   3.420
14149TIP3   OH242389   3.794   1.721   4.838
14149TIP3    H142390   3.845   1.755   4.912
14149TIP3    H242391   3.762   1.799   4.793
14150TIP3   OH242392   5.959   3.546   2.530
14150TIP3    H142393   5.890   3.483   2.508
14150TIP3    H242394   6.023   3.537   2.459
14151TIP3   OH242395   3.017   1.152   6.613
14151TIP3    H142396   2.954   1.081   6.624
14151TIP3    H242397   2.974   1.229   6.651
14152TIP3   OH242398   0.777   1.808   0.373
14152TIP3    H142399   0.857   1.757   0.368
14152TIP3    H242400   0.805   1.899   0.370
14153TIP3   OH242401   5.004   6.528   6.215
14153TIP3    H142402   5.003   6.563   6.304
14153TIP3    H242403   5.077   6.466   6.214
14154TIP3   OH242404   2.971   5.586   4.804
14154TIP3    H142405   2.875   5.595   4.806
14154TIP3    H242406   2.999   5.607   4.893
14155TIP3   OH242407   8.067   3.740   4.942
14155TIP3    H142408   8.129   3.670   4.922
14155TIP3    H242409   8.100   3.816   4.893
14156TIP3   OH242410   4.483   2.476   4.368
14156TIP3    H142411   4.420   2.518   4.426
14156TIP3    H242412   4.479   2.383   4.392
14157TIP3   OH242413   2.574   0.279   1.976
14157TIP3    H142414   2.587   0.360   1.928
14157TIP3    H242415   2.481   0.277   1.997
14158TIP3   OH242416   6.683   7.356   1.928
14158TIP3    H142417   6.701   7.400   2.011
14158TIP3    H242418   6.678   7.426   1.864
14159TIP3   OH242419   4.822   5.289   6.577
14159TIP3    H142420   4.908   5.324   6.555
14159TIP3    H242421   4.826   5.272   6.671
14160TIP3   OH242422   2.374   5.964   2.131
14160TIP3    H142423   2.393   5.980   2.223
14160TIP3    H242424   2.423   5.884   2.109
14161TIP3   OH242425   4.901   6.483   3.631
14161TIP3    H142426   4.973   6.504   3.572
14161TIP3    H242427   4.871   6.568   3.663
14162TIP3   OH242428   7.418   3.428   4.545
14162TIP3    H142429   7.443   3.485   4.473
14162TIP3    H242430   7.501   3.399   4.584
14163TIP3   OH242431   6.234   5.798   4.847
14163TIP3    H142432   6.151   5.768   4.812
14163TIP3    H242433   6.212   5.877   4.897
14164TIP3   OH242434   4.239   4.156   1.939
14164TIP3    H142435   4.307   4.205   1.986
14164TIP3    H242436   4.158   4.178   1.984
14165TIP3   OH242437   7.826   5.494   3.206
14165TIP3    H142438   7.897   5.479   3.143
14165TIP3    H242439   7.750   5.517   3.151
14166TIP3   OH242440   2.397   4.826   4.408
14166TIP3    H142441   2.488   4.850   4.388
14166TIP3    H242442   2.396   4.731   4.404
14167TIP3   OH242443   2.444   5.079   1.693
14167TIP3    H142444   2.418   5.138   1.763
14167TIP3    H242445   2.540   5.085   1.691
14168TIP3   OH242446   5.102   3.612   0.146
14168TIP3    H142447   5.134   3.600   0.057
14168TIP3    H242448   5.022   3.560   0.150
14169TIP3   OH242449   5.233   5.774   1.618
14169TIP3    H142450   5.194   5.854   1.654
14169TIP3    H242451   5.315   5.804   1.579
14170TIP3   OH242452   6.115   3.177   4.113
14170TIP3    H142453   6.040   3.231   4.089
14170TIP3    H242454   6.082   3.087   4.108
14171TIP3   OH242455   1.391   3.176   5.609
14171TIP3    H142456   1.396   3.272   5.611
14171TIP3    H242457   1.373   3.155   5.517
14172TIP3   OH242458   7.412   2.016   0.625
14172TIP3    H142459   7.486   1.998   0.567
14172TIP3    H242460   7.395   2.109   0.614
14173TIP3   OH242461   5.604   3.671   3.789
14173TIP3    H142462   5.699   3.663   3.792
14173TIP3    H242463   5.582   3.724   3.866
14174TIP3   OH242464   0.588   7.080   5.405
14174TIP3    H142465   0.593   7.173   5.384
14174TIP3    H242466   0.654   7.067   5.474
14175TIP3   OH242467   5.149   2.567   3.496
14175TIP3    H142468   5.055   2.553   3.490
14175TIP3    H242469   5.166   2.640   3.436
14176TIP3   OH242470   7.920   5.486   0.836
14176TIP3    H142471   7.850   5.514   0.894
14176TIP3    H242472   7.944   5.399   0.868
14177TIP3   OH242473   5.325   0.502   0.244
14177TIP3    H142474   5.313   0.596   0.227
14177TIP3    H242475   5.419   0.489   0.241
14178TIP3   OH242476   5.255   7.815   6.762
14178TIP3    H142477   5.276   7.724   6.739
14178TIP3    H242478   5.159   7.815   6.770
14179TIP3   OH242479   1.255   1.772   6.658
14179TIP3    H142480   1.212   1.858   6.660
14179TIP3    H242481   1.316   1.775   6.732
14180TIP3   OH242482   5.011   2.735   2.962
14180TIP3    H142483   4.996   2.654   2.913
14180TIP3    H242484   4.934   2.789   2.943
14181TIP3   OH242485   7.471   2.722   2.217
14181TIP3    H142486   7.513   2.798   2.177
14181TIP3    H242487   7.490   2.730   2.310
14182TIP3   OH242488   5.211   1.926   1.353
14182TIP3    H142489   5.295   1.927   1.307
14182TIP3    H242490   5.219   1.855   1.416
14183TIP3   OH242491   5.924   2.809   1.016
14183TIP3    H142492   6.000   2.752   1.008
14183TIP3    H242493   5.904   2.809   1.109
14184TIP3   OH242494   3.921   7.730   0.299
14184TIP3    H142495   3.964   7.709   0.382
14184TIP3    H242496   3.992   7.757   0.241
14185TIP3   OH242497   2.180   2.811   3.068
14185TIP3    H142498   2.200   2.781   2.979
14185TIP3    H242499   2.100   2.765   3.091
14186TIP3   OH242500   0.172   1.126   2.210
14186TIP3    H142501   0.180   1.154   2.119
14186TIP3    H242502   0.155   1.032   2.205
14187TIP3   OH242503   0.463   7.321   1.026
14187TIP3    H142504   0.496   7.406   1.054
14187TIP3    H242505   0.370   7.323   1.047
14188TIP3   OH242506   5.061   4.161   0.058
14188TIP3    H142507   5.029   4.169   0.148
14188TIP3    H242508   5.069   4.066   0.044
14189TIP3   OH242509   7.401   4.512   2.320
14189TIP3    H142510   7.369   4.598   2.294
14189TIP3    H242511   7.423   4.522   2.413
14190TIP3   OH242512   4.488   1.785   5.066
14190TIP3    H142513   4.452   1.802   5.153
14190TIP3    H242514   4.412   1.783   5.009
14191TIP3   OH242515   0.509  -0.019   2.378
14191TIP3    H142516   0.419  -0.017   2.344
14191TIP3    H242517   0.564  -0.023   2.299
14192TIP3   OH242518   0.679   1.863   3.403
14192TIP3    H142519   0.617   1.935   3.402
14192TIP3    H242520   0.746   1.890   3.466
14193TIP3   OH242521   7.805   3.811   0.466
14193TIP3    H142522   7.893   3.848   0.459
14193TIP3    H242523   7.763   3.833   0.383
14194TIP3   OH242524   3.249   0.073   0.109
14194TIP3    H142525   3.284   0.046   0.194
14194TIP3    H242526   3.326   0.087   0.054
14195TIP3   OH242527   7.832   3.085   6.264
14195TIP3    H142528   7.771   3.145   6.307
14195TIP3    H242529   7.887   3.053   6.335
14196TIP3   OH242530   6.472   4.724   1.163
14196TIP3    H142531   6.397   4.664   1.160
14196TIP3    H242532   6.475   4.753   1.254
14197TIP3   OH242533   3.790   2.823   6.597
14197TIP3    H142534   3.743   2.846   6.517
14197TIP3    H242535   3.746   2.745   6.630
14198TIP3   OH242536   5.223   0.266   5.319
14198TIP3    H142537   5.263   0.195   5.267
14198TIP3    H242538   5.176   0.221   5.389
14199TIP3   OH242539   2.143   6.245   2.841
14199TIP3    H142540   2.175   6.166   2.797
14199TIP3    H242541   2.072   6.215   2.897
14200TIP3   OH242542   2.646   7.533   6.676
14200TIP3    H142543   2.644   7.550   6.582
14200TIP3    H242544   2.659   7.438   6.683
14201TIP3   OH242545   8.209   0.212   5.454
14201TIP3    H142546   8.278   0.246   5.397
14201TIP3    H242547   8.145   0.283   5.459
14202TIP3   OH242548   4.119   3.005   4.729
14202TIP3    H142549   4.089   2.914   4.725
14202TIP3    H242550   4.198   3.006   4.676
14203TIP3   OH242551   6.705   0.111   6.136
14203TIP3    H142552   6.730   0.158   6.216
14203TIP3    H242553   6.734   0.021   6.151
14204TIP3   OH242554   2.136   5.072   3.109
14204TIP3    H142555   2.064   5.133   3.094
14204TIP3    H242556   2.140   5.021   3.028
14205TIP3   OH242557   5.250   3.037   0.716
14205TIP3    H142558   5.289   3.065   0.633
14205TIP3    H242559   5.308   2.966   0.746
14206TIP3   OH242560   0.833   2.927   3.436
14206TIP3    H142561   0.829   2.891   3.347
14206TIP3    H242562   0.916   2.974   3.439
14207TIP3   OH242563   6.403   5.543   4.679
14207TIP3    H142564   6.454   5.549   4.598
14207TIP3    H242565   6.458   5.585   4.745
14208TIP3   OH242566   2.962   1.646   4.098
14208TIP3    H142567   2.922   1.675   4.016
14208TIP3    H242568   3.036   1.592   4.072
14209TIP3   OH242569   0.265   7.607   5.885
14209TIP3    H142570   0.267   7.700   5.909
14209TIP3    H242571   0.330   7.567   5.942
14210TIP3   OH242572   1.595   5.824   2.479
14210TIP3    H142573   1.630   5.764   2.413
14210TIP3    H242574   1.661   5.822   2.549
14211TIP3   OH242575   0.817   3.664   2.612
14211TIP3    H142576   0.783   3.753   2.618
14211TIP3    H242577   0.792   3.635   2.524
14212TIP3   OH242578   2.992   0.458   0.578
14212TIP3    H142579   2.928   0.437   0.510
14212TIP3    H242580   2.985   0.553   0.590
14213TIP3   OH242581   1.060   5.408   5.794
14213TIP3    H142582   1.005   5.486   5.792
14213TIP3    H242583   1.057   5.373   5.705
14214TIP3   OH242584   5.106   4.658   5.459
14214TIP3    H142585   5.073   4.708   5.385
14214TIP3    H242586   5.046   4.677   5.530
14215TIP3   OH242587   5.743   5.939   0.875
14215TIP3    H142588   5.813   5.876   0.892
14215TIP3    H242589   5.692   5.942   0.956
14216TIP3   OH242590   4.153   4.315   5.451
14216TIP3    H142591   4.094   4.388   5.430
14216TIP3    H242592   4.095   4.244   5.477
14217TIP3   OH242593   2.587   2.574   0.813
14217TIP3    H142594   2.639   2.636   0.762
14217TIP3    H242595   2.548   2.516   0.747
14218TIP3   OH242596   6.701   2.634   6.026
14218TIP3    H142597   6.791   2.622   6.054
14218TIP3    H242598   6.678   2.552   5.981
14219TIP3   OH242599   0.167   7.454   3.132
14219TIP3    H142600   0.209   7.429   3.214
14219TIP3    H242601   0.076   7.472   3.156
14220TIP3   OH242602   2.365   4.452   3.653
14220TIP3    H142603   2.453   4.444   3.689
14220TIP3    H242604   2.378   4.493   3.567
14221TIP3   OH242605   7.966   7.412   1.113
14221TIP3    H142606   7.955   7.398   1.207
14221TIP3    H242607   7.931   7.333   1.073
14222TIP3   OH242608   3.971   2.717   3.306
14222TIP3    H142609   4.036   2.761   3.360
14222TIP3    H242610   3.887   2.751   3.337
14223TIP3   OH242611   0.393   5.599   5.582
14223TIP3    H142612   0.360   5.529   5.638
14223TIP3    H242613   0.435   5.660   5.641
14224TIP3   OH242614   3.475   1.761   1.949
14224TIP3    H142615   3.472   1.666   1.936
14224TIP3    H242616   3.558   1.788   1.911
14225TIP3   OH242617   2.598   1.304   6.256
14225TIP3    H142618   2.568   1.392   6.231
14225TIP3    H242619   2.519   1.251   6.258
14226TIP3   OH242620   2.616   7.432   1.690
14226TIP3    H142621   2.693   7.474   1.729
14226TIP3    H242622   2.542   7.471   1.737
14227TIP3   OH242623   6.628   5.746   0.811
14227TIP3    H142624   6.573   5.811   0.854
14227TIP3    H242625   6.689   5.797   0.759
14228TIP3   OH242626   4.685   6.109   5.128
14228TIP3    H142627   4.738   6.187   5.148
14228TIP3    H242628   4.665   6.071   5.213
14229TIP3   OH242629   8.269   6.101   4.674
14229TIP3    H142630   8.292   6.110   4.767
14229TIP3    H242631   8.229   6.185   4.652
14230TIP3   OH242632   5.758   2.215   2.816
14230TIP3    H142633   5.787   2.222   2.725
14230TIP3    H242634   5.667   2.187   2.810
14231TIP3   OH242635   2.480   5.879   1.453
14231TIP3    H142636   2.530   5.806   1.488
14231TIP3    H242637   2.490   5.871   1.358
14232TIP3   OH242638   3.564   4.737   3.497
14232TIP3    H142639   3.522   4.655   3.524
14232TIP3    H242640   3.571   4.788   3.578
14233TIP3   OH242641   4.659   2.073   5.620
14233TIP3    H142642   4.591   2.020   5.661
14233TIP3    H242643   4.716   2.010   5.577
14234TIP3   OH242644   4.055   0.842   1.922
14234TIP3    H142645   3.987   0.909   1.919
14234TIP3    H242646   4.036   0.784   1.847
14235TIP3   OH242647   3.222   5.851   3.489
14235TIP3    H142648   3.238   5.945   3.481
14235TIP3    H242649   3.299   5.810   3.450
14236TIP3   OH242650   1.467   7.173   3.254
14236TIP3    H142651   1.512   7.172   3.339
14236TIP3    H242652   1.534   7.203   3.192
14237TIP3   OH242653   2.270   1.670   5.336
14237TIP3    H142654   2.323   1.593   5.355
14237TIP3    H242655   2.230   1.694   5.420
14238TIP3   OH242656   5.086   4.769   2.108
14238TIP3    H142657   5.029   4.740   2.179
14238TIP3    H242658   5.175   4.753   2.141
14239TIP3   OH242659   1.592   0.166   1.278
14239TIP3    H142660   1.520   0.114   1.243
14239TIP3    H242661   1.559   0.256   1.276
14240TIP3   OH242662   3.677   7.779   5.690
14240TIP3    H142663   3.728   7.745   5.616
14240TIP3    H242664   3.670   7.705   5.750
14241TIP3   OH242665   0.087   6.029   2.034
14241TIP3    H142666   0.093   6.043   1.939
14241TIP3    H242667   0.000   5.993   2.047
14242TIP3   OH242668   2.168   7.326   4.167
14242TIP3    H142669   2.230   7.321   4.239
14242TIP3    H242670   2.082   7.331   4.209
14243TIP3   OH242671   6.314   3.880   2.437
14243TIP3    H142672   6.257   3.813   2.399
14243TIP3    H242673   6.346   3.930   2.361
14244TIP3   OH242674   5.626   5.463   5.211
14244TIP3    H142675   5.630   5.551   5.172
14244TIP3    H242676   5.656   5.476   5.301
14245TIP3   OH242677   2.441   5.803   0.839
14245TIP3    H142678   2.426   5.718   0.880
14245TIP3    H242679   2.358   5.849   0.849
14246TIP3   OH242680   6.241   7.480   6.455
14246TIP3    H142681   6.272   7.393   6.483
14246TIP3    H242682   6.320   7.526   6.427
14247TIP3   OH242683   2.274   3.393   1.070
14247TIP3    H142684   2.209   3.336   1.030
14247TIP3    H242685   2.319   3.338   1.134
14248TIP3   OH242686   2.938   7.769   2.880
14248TIP3    H142687   2.921   7.715   2.803
14248TIP3    H242688   3.033   7.781   2.880
14249TIP3   OH242689   0.707   6.248   2.035
14249TIP3    H142690   0.724   6.315   2.101
14249TIP3    H242691   0.647   6.290   1.973
14250TIP3   OH242692   4.714   5.578   5.641
14250TIP3    H142693   4.757   5.570   5.726
14250TIP3    H242694   4.670   5.663   5.644
14251TIP3   OH242695   1.078   2.046   0.499
14251TIP3    H142696   1.132   2.125   0.501
14251TIP3    H242697   1.059   2.033   0.407
14252TIP3   OH242698   5.642   5.908   0.322
14252TIP3    H142699   5.562   5.928   0.371
14252TIP3    H242700   5.701   5.870   0.387
14253TIP3   OH242701   2.547   2.177   4.519
14253TIP3    H142702   2.628   2.225   4.530
14253TIP3    H242703   2.483   2.243   4.492
14254TIP3   OH242704   1.258   6.569   1.414
14254TIP3    H142705   1.237   6.489   1.367
14254TIP3    H242706   1.176   6.595   1.456
14255TIP3   OH242707   0.392   3.188   3.953
14255TIP3    H142708   0.371   3.143   3.871
14255TIP3    H242709   0.475   3.149   3.981
14256TIP3   OH242710   5.183   6.599   1.394
14256TIP3    H142711   5.170   6.512   1.430
14256TIP3    H242712   5.110   6.650   1.429
14257TIP3   OH242713   5.359   1.569   1.683
14257TIP3    H142714   5.294   1.548   1.749
14257TIP3    H242715   5.374   1.486   1.637
14258TIP3   OH242716   3.910   2.281   4.418
14258TIP3    H142717   3.967   2.343   4.372
14258TIP3    H242718   3.965   2.243   4.486
14259TIP3   OH242719   3.820   1.934   4.666
14259TIP3    H142720   3.777   1.987   4.600
14259TIP3    H242721   3.870   1.997   4.719
14260TIP3   OH242722   2.612   5.141   5.356
14260TIP3    H142723   2.593   5.166   5.446
14260TIP3    H242724   2.706   5.151   5.347
14261TIP3   OH242725   5.251   4.004   2.984
14261TIP3    H142726   5.291   3.970   2.903
14261TIP3    H242727   5.301   3.963   3.054
14262TIP3   OH242728   3.736   5.953   4.552
14262TIP3    H142729   3.645   5.984   4.542
14262TIP3    H242730   3.778   5.975   4.469
14263TIP3   OH242731   3.556   5.736   6.207
14263TIP3    H142732   3.641   5.768   6.238
14263TIP3    H242733   3.506   5.816   6.188
14264TIP3   OH242734   2.236   0.524   0.855
14264TIP3    H142735   2.173   0.513   0.784
14264TIP3    H242736   2.273   0.611   0.840
14265TIP3   OH242737   7.029   7.380   4.256
14265TIP3    H142738   7.029   7.335   4.340
14265TIP3    H242739   7.033   7.473   4.279
14266TIP3   OH242740   5.363   4.205   6.541
14266TIP3    H142741   5.447   4.239   6.571
14266TIP3    H242742   5.298   4.253   6.592
14267TIP3   OH242743   3.811   7.452   5.077
14267TIP3    H142744   3.740   7.512   5.053
14267TIP3    H242745   3.890   7.494   5.042
14268TIP3   OH242746   6.960   0.774   1.485
14268TIP3    H142747   6.955   0.684   1.453
14268TIP3    H242748   7.024   0.771   1.556
14269TIP3   OH242749   1.050   7.635   1.417
14269TIP3    H142750   1.088   7.695   1.353
14269TIP3    H242751   1.054   7.549   1.374
14270TIP3   OH242752   6.924   0.223   0.785
14270TIP3    H142753   6.906   0.246   0.876
14270TIP3    H242754   6.983   0.293   0.754
14271TIP3   OH242755   0.329   6.797   6.447
14271TIP3    H142756   0.408   6.770   6.493
14271TIP3    H242757   0.330   6.892   6.449
14272TIP3   OH242758   2.739   5.579   4.042
14272TIP3    H142759   2.768   5.668   4.061
14272TIP3    H242760   2.767   5.527   4.118
14273TIP3   OH242761   6.158   2.233   4.066
14273TIP3    H142762   6.191   2.238   3.977
14273TIP3    H242763   6.151   2.324   4.095
14274TIP3   OH242764   5.053   2.869   4.251
14274TIP3    H142765   5.051   2.962   4.272
14274TIP3    H242766   4.961   2.842   4.251
14275TIP3   OH242767   2.400   4.672   1.912
14275TIP3    H142768   2.391   4.581   1.940
14275TIP3    H242769   2.352   4.722   1.977
14276TIP3   OH242770   2.284   4.851   1.750
14276TIP3    H142771   2.332   4.933   1.738
14276TIP3    H242772   2.350   4.788   1.781
14277TIP3   OH242773   1.887   6.164   3.691
14277TIP3    H142774   1.802   6.206   3.702
14277TIP3    H242775   1.927   6.168   3.778
14278TIP3   OH242776   6.258   3.395   4.260
14278TIP3    H142777   6.252   3.302   4.239
14278TIP3    H242778   6.170   3.429   4.247
14279TIP3   OH242779   5.764   6.459   3.509
14279TIP3    H142780   5.763   6.370   3.473
14279TIP3    H242781   5.684   6.499   3.477
14280TIP3   OH242782   0.410   5.918   4.345
14280TIP3    H142783   0.404   5.824   4.364
14280TIP3    H242784   0.475   5.951   4.407
14281TIP3   OH242785   2.462   6.504   1.159
14281TIP3    H142786   2.457   6.459   1.243
14281TIP3    H242787   2.403   6.454   1.102
14282TIP3   OH242788   1.907   5.579   6.493
14282TIP3    H142789   1.997   5.584   6.463
14282TIP3    H242790   1.872   5.500   6.452
14283TIP3   OH242791   7.617   4.217   3.610
14283TIP3    H142792   7.619   4.302   3.566
14283TIP3    H242793   7.683   4.165   3.565
14284TIP3   OH242794   0.984   2.563   3.511
14284TIP3    H142795   0.891   2.566   3.535
14284TIP3    H242796   1.010   2.655   3.506
14285TIP3   OH242797   3.429   7.012   5.795
14285TIP3    H142798   3.357   7.020   5.858
14285TIP3    H242799   3.427   6.920   5.768
14286TIP3   OH242800   1.562   3.198   4.447
14286TIP3    H142801   1.656   3.204   4.428
14286TIP3    H242802   1.558   3.189   4.542
14287TIP3   OH242803   6.163   1.857   5.580
14287TIP3    H142804   6.154   1.763   5.566
14287TIP3    H242805   6.096   1.896   5.523
14288TIP3   OH242806   2.511   0.493   2.812
14288TIP3    H142807   2.443   0.552   2.845
14288TIP3    H242808   2.467   0.408   2.806
14289TIP3   OH242809   3.586   6.857   3.899
14289TIP3    H142810   3.518   6.911   3.858
14289TIP3    H242811   3.635   6.919   3.954
14290TIP3   OH242812   2.739   0.600   2.764
14290TIP3    H142813   2.733   0.676   2.822
14290TIP3    H242814   2.666   0.544   2.790
14291TIP3   OH242815   5.711   3.343   2.719
14291TIP3    H142816   5.719   3.419   2.776
14291TIP3    H242817   5.730   3.376   2.632
14292TIP3   OH242818   6.857   6.461   1.709
14292TIP3    H142819   6.843   6.403   1.783
14292TIP3    H242820   6.874   6.402   1.635
14293TIP3   OH242821   1.073   4.956   5.584
14293TIP3    H142822   1.092   4.869   5.550
14293TIP3    H242823   1.157   5.001   5.585
14294TIP3   OH242824   6.275   0.583   3.195
14294TIP3    H142825   6.298   0.566   3.287
14294TIP3    H242826   6.357   0.613   3.156
14295TIP3   OH242827   7.159   1.161   5.054
14295TIP3    H142828   7.115   1.182   4.972
14295TIP3    H242829   7.089   1.135   5.114
14296TIP3   OH242830   1.629   1.650   5.070
14296TIP3    H142831   1.670   1.724   5.025
14296TIP3    H242832   1.655   1.574   5.019
14297TIP3   OH242833   7.422   1.784   5.611
14297TIP3    H142834   7.406   1.871   5.574
14297TIP3    H242835   7.357   1.776   5.681
14298TIP3   OH242836   0.466   7.373   1.876
14298TIP3    H142837   0.437   7.444   1.932
14298TIP3    H242838   0.558   7.390   1.859
14299TIP3   OH242839   2.557   3.081   3.407
14299TIP3    H142840   2.463   3.102   3.409
14299TIP3    H242841   2.564   3.011   3.343
14300TIP3   OH242842   4.456   0.829   0.508
14300TIP3    H142843   4.528   0.876   0.467
14300TIP3    H242844   4.450   0.866   0.596
14301TIP3   OH242845   8.113   6.432   3.399
14301TIP3    H142846   8.174   6.473   3.461
14301TIP3    H242847   8.157   6.351   3.372
14302TIP3   OH242848   2.731   5.110   0.458
14302TIP3    H142849   2.816   5.070   0.475
14302TIP3    H242850   2.672   5.037   0.442
14303TIP3   OH242851   7.038   6.388   3.747
14303TIP3    H142852   7.059   6.347   3.663
14303TIP3    H242853   7.116   6.440   3.769
14304TIP3   OH242854   7.303   3.702   4.282
14304TIP3    H142855   7.361   3.732   4.352
14304TIP3    H242856   7.271   3.783   4.242
14305TIP3   OH242857   7.599   6.897   2.175
14305TIP3    H142858   7.548   6.831   2.129
14305TIP3    H242859   7.660   6.932   2.109
14306TIP3   OH242860   3.335   4.269   4.469
14306TIP3    H142861   3.408   4.327   4.447
14306TIP3    H242862   3.375   4.184   4.483
14307TIP3   OH242863   3.047   2.093   5.763
14307TIP3    H142864   3.067   2.178   5.803
14307TIP3    H242865   3.028   2.114   5.671
14308TIP3   OH242866   6.957   1.622   1.018
14308TIP3    H142867   6.903   1.614   0.939
14308TIP3    H242868   7.046   1.628   0.984
14309TIP3   OH242869   3.131   6.826   0.125
14309TIP3    H142870   3.088   6.911   0.135
14309TIP3    H242871   3.154   6.821   0.033
14310TIP3   OH242872   2.530   1.299   3.138
14310TIP3    H142873   2.579   1.279   3.217
14310TIP3    H242874   2.439   1.281   3.160
14311TIP3   OH242875   5.409   5.158   1.136
14311TIP3    H142876   5.496   5.190   1.112
14311TIP3    H242877   5.370   5.229   1.187
14312TIP3   OH242878   7.493   7.611   2.341
14312TIP3    H142879   7.464   7.520   2.327
14312TIP3    H242880   7.531   7.637   2.257
14313TIP3   OH242881   1.713   3.204   4.113
14313TIP3    H142882   1.673   3.178   4.030
14313TIP3    H242883   1.723   3.299   4.106
14314TIP3   OH242884   6.257   0.404   4.327
14314TIP3    H142885   6.228   0.495   4.328
14314TIP3    H242886   6.176   0.354   4.314
14315TIP3   OH242887   0.929   5.560   4.500
14315TIP3    H142888   0.948   5.533   4.590
14315TIP3    H242889   0.942   5.654   4.500
14316TIP3   OH242890   6.744   3.874   2.785
14316TIP3    H142891   6.836   3.848   2.770
14316TIP3    H242892   6.694   3.814   2.731
14317TIP3   OH242893   0.760   6.974   1.160
14317TIP3    H142894   0.742   7.068   1.165
14317TIP3    H242895   0.829   6.960   1.224
14318TIP3   OH242896   2.586   5.579   5.837
14318TIP3    H142897   2.568   5.545   5.749
14318TIP3    H242898   2.628   5.506   5.883
14319TIP3   OH242899   6.772   4.055   0.196
14319TIP3    H142900   6.820   4.049   0.114
14319TIP3    H242901   6.681   4.071   0.170
14320TIP3   OH242902   1.445   4.262   1.834
14320TIP3    H142903   1.464   4.219   1.750
14320TIP3    H242904   1.524   4.311   1.854
14321TIP3   OH242905   4.517   3.672   2.404
14321TIP3    H142906   4.421   3.674   2.411
14321TIP3    H242907   4.536   3.588   2.362
14322TIP3   OH242908   5.944   0.219   4.537
14322TIP3    H142909   5.898   0.192   4.617
14322TIP3    H242910   5.944   0.140   4.482
14323TIP3   OH242911   1.298   6.478   4.022
14323TIP3    H142912   1.389   6.501   4.003
14323TIP3    H242913   1.257   6.472   3.936
14324TIP3   OH242914   2.375   3.109   4.077
14324TIP3    H142915   2.303   3.167   4.054
14324TIP3    H242916   2.335   3.024   4.092
14325TIP3   OH242917   1.943   6.131   3.431
14325TIP3    H142918   1.921   6.149   3.522
14325TIP3    H242919   1.990   6.048   3.433
14326TIP3   OH242920   1.931   3.421   4.826
14326TIP3    H142921   1.865   3.422   4.756
14326TIP3    H242922   1.881   3.438   4.906
14327TIP3   OH242923   1.650   2.401   2.988
14327TIP3    H142924   1.584   2.435   2.928
14327TIP3    H242925   1.653   2.466   3.059
14328TIP3   OH242926   1.546   0.577   3.503
14328TIP3    H142927   1.563   0.670   3.514
14328TIP3    H242928   1.560   0.539   3.590
14329TIP3   OH242929   7.226   4.325   0.603
14329TIP3    H142930   7.317   4.311   0.631
14329TIP3    H242931   7.222   4.289   0.515
14330TIP3   OH242932   5.817   3.829   2.215
14330TIP3    H142933   5.824   3.897   2.148
14330TIP3    H242934   5.851   3.870   2.295
14331TIP3   OH242935   5.873   6.274   1.918
14331TIP3    H142936   5.914   6.342   1.972
14331TIP3    H242937   5.790   6.314   1.890
14332TIP3   OH242938   1.250   4.806   3.937
14332TIP3    H142939   1.264   4.859   4.016
14332TIP3    H242940   1.206   4.865   3.876
14333TIP3   OH242941   6.817   3.257   0.906
14333TIP3    H142942   6.847   3.330   0.853
14333TIP3    H242943   6.898   3.214   0.936
14334TIP3   OH242944   4.608   4.767   4.325
14334TIP3    H142945   4.580   4.738   4.238
14334TIP3    H242946   4.671   4.837   4.309
14335TIP3   OH242947   2.539   2.007   2.621
14335TIP3    H142948   2.571   1.987   2.533
14335TIP3    H242949   2.587   1.948   2.678
14336TIP3   OH242950   3.854   2.492   0.445
14336TIP3    H142951   3.869   2.400   0.424
14336TIP3    H242952   3.800   2.490   0.524
14337TIP3   OH242953   3.650   1.242   1.609
14337TIP3    H142954   3.657   1.312   1.543
14337TIP3    H242955   3.678   1.163   1.563
14338TIP3   OH242956   4.303   2.790   6.687
14338TIP3    H142957   4.309   2.885   6.688
14338TIP3    H242958   4.378   2.760   6.739
14339TIP3   OH242959   8.200   3.790   2.247
14339TIP3    H142960   8.124   3.848   2.256
14339TIP3    H242961   8.261   3.841   2.194
14340TIP3   OH242962   2.539   7.792   4.332
14340TIP3    H142963   2.575   7.742   4.407
14340TIP3    H242964   2.459   7.745   4.309
14341TIP3   OH242965   3.977   0.808   3.661
14341TIP3    H142966   4.053   0.852   3.623
14341TIP3    H242967   3.904   0.866   3.642
14342TIP3   OH242968   5.580   5.088   4.327
14342TIP3    H142969   5.674   5.076   4.339
14342TIP3    H242970   5.560   5.169   4.375
14343TIP3   OH242971   5.584   6.402   3.925
14343TIP3    H142972   5.623   6.348   3.994
14343TIP3    H242973   5.658   6.439   3.878
14344TIP3   OH242974   6.182   5.053   4.709
14344TIP3    H142975   6.249   5.119   4.695
14344TIP3    H242976   6.102   5.091   4.672
14345TIP3   OH242977   0.431   7.152   4.824
14345TIP3    H142978   0.353   7.100   4.844
14345TIP3    H242979   0.504   7.097   4.850
14346TIP3   OH242980   4.702   3.811   1.282
14346TIP3    H142981   4.696   3.766   1.197
14346TIP3    H242982   4.728   3.901   1.260
14347TIP3   OH242983   1.043   0.875   3.450
14347TIP3    H142984   1.077   0.961   3.425
14347TIP3    H242985   0.952   0.892   3.476
14348TIP3   OH242986   2.523   4.369   6.445
14348TIP3    H142987   2.538   4.294   6.386
14348TIP3    H242988   2.478   4.331   6.520
14349TIP3   OH242989   6.595   1.073   6.016
14349TIP3    H142990   6.678   1.063   6.062
14349TIP3    H242991   6.618   1.120   5.935
14350TIP3   OH242992   0.423   1.927   3.812
14350TIP3    H142993   0.457   1.962   3.730
14350TIP3    H242994   0.403   2.005   3.864
14351TIP3   OH242995   6.055   3.396   4.999
14351TIP3    H142996   6.073   3.444   5.080
14351TIP3    H242997   5.959   3.396   4.992
14352TIP3   OH242998   4.219   2.750   0.415
14352TIP3    H142999   4.172   2.763   0.333
14352TIP3    H243000   4.182   2.816   0.474
14353TIP3   OH243001   5.569   1.143   1.372
14353TIP3    H143002   5.630   1.205   1.334
14353TIP3    H243003   5.487   1.158   1.325
14354TIP3   OH243004   1.357   1.452   1.689
14354TIP3    H143005   1.310   1.533   1.707
14354TIP3    H243006   1.298   1.383   1.719
14355TIP3   OH243007   4.490   2.607   3.639
14355TIP3    H143008   4.570   2.636   3.595
14355TIP3    H243009   4.486   2.513   3.623
14356TIP3   OH243010   7.313   2.671   2.610
14356TIP3    H143011   7.404   2.700   2.606
14356TIP3    H243012   7.318   2.581   2.644
14357TIP3   OH243013   3.283   7.596   4.921
14357TIP3    H143014   3.238   7.512   4.910
14357TIP3    H243015   3.294   7.629   4.831
14358TIP3   OH243016   0.942   2.817   6.615
14358TIP3    H143017   1.013   2.849   6.559
14358TIP3    H243018   0.965   2.726   6.634
14359TIP3   OH243019   5.467   7.193   6.036
14359TIP3    H143020   5.557   7.158   6.033
14359TIP3    H243021   5.439   7.192   5.944
14360TIP3   OH243022   8.074   5.808   2.925
14360TIP3    H143023   8.015   5.852   2.987
14360TIP3    H243024   8.027   5.811   2.842
14361TIP3   OH243025   7.566   6.790   4.918
14361TIP3    H143026   7.612   6.707   4.934
14361TIP3    H243027   7.598   6.818   4.832
14362TIP3   OH243028   4.084   1.817   3.519
14362TIP3    H143029   4.011   1.814   3.458
14362TIP3    H243030   4.099   1.911   3.533
14363TIP3   OH243031   0.272   4.067   6.417
14363TIP3    H143032   0.231   4.144   6.379
14363TIP3    H243033   0.199   4.008   6.438
14364TIP3   OH243034   2.857   1.649   4.792
14364TIP3    H143035   2.892   1.680   4.709
14364TIP3    H243036   2.933   1.639   4.848
14365TIP3   OH243037   3.330   4.089   6.489
14365TIP3    H143038   3.368   4.177   6.491
14365TIP3    H243039   3.359   4.048   6.570
14366TIP3   OH243040   2.360   6.496   4.160
14366TIP3    H143041   2.355   6.471   4.253
14366TIP3    H243042   2.336   6.588   4.159
14367TIP3   OH243043   7.627   2.186   1.416
14367TIP3    H143044   7.625   2.279   1.439
14367TIP3    H243045   7.579   2.182   1.333
14368TIP3   OH243046   5.395   7.172   1.593
14368TIP3    H143047   5.305   7.202   1.594
14368TIP3    H243048   5.438   7.227   1.527
14369TIP3   OH243049   1.542   7.067   1.479
14369TIP3    H143050   1.561   7.159   1.497
14369TIP3    H243051   1.449   7.057   1.499
14370TIP3   OH243052   1.628   2.606   2.127
14370TIP3    H143053   1.645   2.648   2.211
14370TIP3    H243054   1.682   2.528   2.127
14371TIP3   OH243055   0.841   6.345   1.755
14371TIP3    H143056   0.757   6.372   1.717
14371TIP3    H243057   0.868   6.419   1.808
14372TIP3   OH243058   4.459   0.987   6.525
14372TIP3    H143059   4.455   0.931   6.448
14372TIP3    H243060   4.368   1.005   6.548
14373TIP3   OH243061   1.145   1.433   2.547
14373TIP3    H143062   1.082   1.460   2.481
14373TIP3    H243063   1.131   1.339   2.557
14374TIP3   OH243064   3.345   2.261   4.132
14374TIP3    H143065   3.270   2.311   4.100
14374TIP3    H243066   3.417   2.286   4.074
14375TIP3   OH243067   2.687   1.423   2.163
14375TIP3    H143068   2.773   1.422   2.122
14375TIP3    H243069   2.699   1.377   2.246
14376TIP3   OH243070   6.456   1.858   2.535
14376TIP3    H143071   6.403   1.900   2.468
14376TIP3    H243072   6.399   1.852   2.611
14377TIP3   OH243073   7.506   6.679   2.906
14377TIP3    H143074   7.451   6.603   2.889
14377TIP3    H243075   7.447   6.742   2.948
14378TIP3   OH243076   2.591   1.680   3.755
14378TIP3    H143077   2.520   1.615   3.751
14378TIP3    H243078   2.546   1.764   3.747
14379TIP3   OH243079   6.109   3.682   1.893
14379TIP3    H143080   6.086   3.672   1.985
14379TIP3    H243081   6.059   3.614   1.847
14380TIP3   OH243082   2.197   6.316   6.530
14380TIP3    H143083   2.132   6.320   6.460
14380TIP3    H243084   2.229   6.406   6.539
14381TIP3   OH243085   6.467   3.070   5.335
14381TIP3    H143086   6.557   3.051   5.363
14381TIP3    H243087   6.472   3.078   5.240
14382TIP3   OH243088   0.489   4.907   6.366
14382TIP3    H143089   0.490   4.891   6.461
14382TIP3    H243090   0.450   4.994   6.357
14383TIP3   OH243091   3.561   1.688   2.666
14383TIP3    H143092   3.598   1.776   2.669
14383TIP3    H243093   3.637   1.630   2.673
14384TIP3   OH243094   1.892   4.890   0.879
14384TIP3    H143095   1.932   4.951   0.817
14384TIP3    H243096   1.963   4.834   0.908
14385TIP3   OH243097   2.224   4.211   4.087
14385TIP3    H143098   2.198   4.250   4.004
14385TIP3    H243099   2.320   4.206   4.083
14386TIP3   OH243100   6.421   3.744   1.588
14386TIP3    H143101   6.408   3.806   1.517
14386TIP3    H243102   6.345   3.686   1.584
14387TIP3   OH243103   0.866   3.822   1.531
14387TIP3    H143104   0.951   3.834   1.489
14387TIP3    H243105   0.878   3.857   1.620
14388TIP3   OH243106   7.185   0.221   4.343
14388TIP3    H143107   7.119   0.265   4.289
14388TIP3    H243108   7.134   0.168   4.404
14389TIP3   OH243109   6.846   6.479   6.021
14389TIP3    H143110   6.820   6.421   5.950
14389TIP3    H243111   6.765   6.523   6.048
14390TIP3   OH243112   2.978   0.619   2.070
14390TIP3    H143113   2.970   0.526   2.093
14390TIP3    H243114   3.072   0.636   2.071
14391TIP3   OH243115   5.671   2.742   0.903
14391TIP3    H143116   5.753   2.790   0.891
14391TIP3    H243117   5.677   2.704   0.990
14392TIP3   OH243118   3.811   7.185   4.565
14392TIP3    H143119   3.715   7.190   4.569
14392TIP3    H243120   3.829   7.107   4.512
14393TIP3   OH243121   4.996   3.474   1.764
14393TIP3    H143122   4.964   3.417   1.834
14393TIP3    H243123   4.918   3.493   1.712
14394TIP3   OH243124   4.303   0.091   4.447
14394TIP3    H143125   4.276   0.132   4.364
14394TIP3    H243126   4.311  -0.002   4.426
14395TIP3   OH243127   6.489   6.158   0.566
14395TIP3    H143128   6.459   6.068   0.558
14395TIP3    H243129   6.415   6.212   0.538
14396TIP3   OH243130   1.443   2.509   4.579
14396TIP3    H143131   1.490   2.511   4.663
14396TIP3    H243132   1.365   2.564   4.595
14397TIP3   OH243133   0.714   0.873   6.435
14397TIP3    H143134   0.709   0.845   6.526
14397TIP3    H243135   0.799   0.916   6.428
14398TIP3   OH243136   4.653   0.777   1.771
14398TIP3    H143137   4.586   0.814   1.714
14398TIP3    H243138   4.641   0.821   1.855
14399TIP3   OH243139   2.851   2.324   6.762
14399TIP3    H143140   2.822   2.340   6.852
14399TIP3    H243141   2.939   2.362   6.758
14400TIP3   OH243142   4.324   3.326   5.993
14400TIP3    H143143   4.370   3.407   5.973
14400TIP3    H243144   4.305   3.332   6.087
14401TIP3   OH243145   6.239   4.793   4.650
14401TIP3    H143146   6.303   4.763   4.714
14401TIP3    H243147   6.222   4.884   4.674
14402TIP3   OH243148   2.553   6.118   0.053
14402TIP3    H143149   2.475   6.137   0.001
14402TIP3    H243150   2.606   6.061  -0.003
14403TIP3   OH243151   6.201   6.057   4.979
14403TIP3    H143152   6.296   6.063   4.992
14403TIP3    H243153   6.184   6.112   4.903
14404TIP3   OH243154   1.572   1.920   5.554
14404TIP3    H143155   1.641   1.856   5.541
14404TIP3    H243156   1.536   1.900   5.640
14405TIP3   OH243157   1.014   6.548   0.287
14405TIP3    H143158   1.013   6.470   0.342
14405TIP3    H243159   0.999   6.515   0.198
14406TIP3   OH243160   0.574   2.993   3.130
14406TIP3    H143161   0.578   3.088   3.145
14406TIP3    H243162   0.486   2.978   3.097
14407TIP3   OH243163   4.918   3.546   5.078
14407TIP3    H143164   4.976   3.614   5.045
14407TIP3    H243165   4.960   3.464   5.053
14408TIP3   OH243166   3.963   3.519   0.333
14408TIP3    H143167   3.930   3.552   0.249
14408TIP3    H243168   3.893   3.540   0.395
14409TIP3   OH243169   7.374   4.064   4.505
14409TIP3    H143170   7.323   4.085   4.426
14409TIP3    H243171   7.442   4.131   4.507
14410TIP3   OH243172   6.373   2.342   2.161
14410TIP3    H143173   6.299   2.339   2.221
14410TIP3    H243174   6.347   2.405   2.094
14411TIP3   OH243175   0.983   4.224   2.972
14411TIP3    H143176   0.892   4.202   2.991
14411TIP3    H243177   0.980   4.312   2.936
14412TIP3   OH243178   5.512   3.689   4.691
14412TIP3    H143179   5.529   3.777   4.658
14412TIP3    H243180   5.511   3.634   4.612
14413TIP3   OH243181   2.194   4.761   3.677
14413TIP3    H143182   2.139   4.795   3.746
14413TIP3    H243183   2.225   4.676   3.710
14414TIP3   OH243184   4.316   5.440   5.960
14414TIP3    H143185   4.288   5.439   5.869
14414TIP3    H243186   4.308   5.349   5.989
14415TIP3   OH243187   2.722   1.843   2.795
14415TIP3    H143188   2.710   1.809   2.883
14415TIP3    H243189   2.755   1.932   2.808
14416TIP3   OH243190   1.265   4.351   3.816
14416TIP3    H143191   1.356   4.364   3.791
14416TIP3    H243192   1.223   4.435   3.799
14417TIP3   OH243193   6.985   5.332   6.451
14417TIP3    H143194   6.896   5.368   6.452
14417TIP3    H243195   7.040   5.402   6.485
14418TIP3   OH243196   5.024   6.147   5.198
14418TIP3    H143197   5.004   6.054   5.191
14418TIP3    H243198   4.990   6.173   5.283
14419TIP3   OH243199   2.580   1.653   2.257
14419TIP3    H143200   2.642   1.583   2.235
14419TIP3    H243201   2.596   1.720   2.191
14420TIP3   OH243202   6.316   2.367   0.787
14420TIP3    H143203   6.261   2.444   0.772
14420TIP3    H243204   6.400   2.389   0.747
14421TIP3   OH243205   5.587   2.257   3.251
14421TIP3    H143206   5.676   2.275   3.222
14421TIP3    H243207   5.571   2.320   3.322
14422TIP3   OH243208   6.473   0.448   5.712
14422TIP3    H143209   6.554   0.422   5.667
14422TIP3    H243210   6.502   0.502   5.784
14423TIP3   OH243211   6.209   0.845   1.808
14423TIP3    H143212   6.266   0.769   1.796
14423TIP3    H243213   6.133   0.826   1.753
14424TIP3   OH243214   6.132   0.956   4.313
14424TIP3    H143215   6.224   0.970   4.292
14424TIP3    H243216   6.086   1.029   4.271
14425TIP3   OH243217   3.004   1.633   1.533
14425TIP3    H143218   3.007   1.678   1.448
14425TIP3    H243219   3.095   1.615   1.554
14426TIP3   OH243220   1.353   1.469   6.683
14426TIP3    H143221   1.279   1.451   6.625
14426TIP3    H243222   1.393   1.549   6.648
14427TIP3   OH243223   4.282   1.212   1.859
14427TIP3    H143224   4.197   1.169   1.851
14427TIP3    H243225   4.317   1.214   1.770
14428TIP3   OH243226   7.023   5.507   2.782
14428TIP3    H143227   7.100   5.463   2.815
14428TIP3    H243228   6.949   5.463   2.825
14429TIP3   OH243229   5.883   2.149   0.898
14429TIP3    H143230   5.838   2.093   0.962
14429TIP3    H243231   5.930   2.087   0.842
14430TIP3   OH243232   2.779   5.074   3.271
14430TIP3    H143233   2.699   5.027   3.252
14430TIP3    H243234   2.811   5.103   3.185
14431TIP3   OH243235   1.627   5.059   3.717
14431TIP3    H143236   1.550   5.075   3.771
14431TIP3    H243237   1.687   5.011   3.775
14432TIP3   OH243238   5.229   4.501   1.914
14432TIP3    H143239   5.228   4.596   1.921
14432TIP3    H243240   5.163   4.471   1.976
14433TIP3   OH243241   2.545   0.252   5.570
14433TIP3    H143242   2.524   0.318   5.505
14433TIP3    H243243   2.460   0.222   5.603
14434TIP3   OH243244   3.612   6.041   4.887
14434TIP3    H143245   3.612   6.030   4.792
14434TIP3    H243246   3.585   5.956   4.921
14435TIP3   OH243247   4.082   7.143   4.222
14435TIP3    H143248   4.078   7.210   4.291
14435TIP3    H243249   4.168   7.103   4.233
14436TIP3   OH243250   5.387   1.286   5.125
14436TIP3    H143251   5.361   1.204   5.084
14436TIP3    H243252   5.344   1.354   5.073
14437TIP3   OH243253   6.946   7.173   2.507
14437TIP3    H143254   7.041   7.158   2.500
14437TIP3    H243255   6.922   7.215   2.425
14438TIP3   OH243256   1.530   2.141   3.855
14438TIP3    H143257   1.468   2.212   3.841
14438TIP3    H243258   1.527   2.090   3.775
14439TIP3   OH243259   1.807   4.774   3.641
14439TIP3    H143260   1.737   4.763   3.705
14439TIP3    H243261   1.854   4.690   3.643
14440TIP3   OH243262   4.644   1.573   1.615
14440TIP3    H143263   4.733   1.591   1.586
14440TIP3    H243264   4.655   1.526   1.698
14441TIP3   OH243265   5.509   4.693   3.443
14441TIP3    H143266   5.578   4.655   3.388
14441TIP3    H243267   5.427   4.659   3.406
14442TIP3   OH243268   5.512   3.997   6.626
14442TIP3    H143269   5.594   4.036   6.655
14442TIP3    H243270   5.475   4.062   6.566
14443TIP3   OH243271   3.345   4.208   0.145
14443TIP3    H143272   3.347   4.118   0.112
14443TIP3    H243273   3.254   4.236   0.133
14444TIP3   OH243274   6.866   4.954   3.640
14444TIP3    H143275   6.876   4.944   3.545
14444TIP3    H243276   6.808   4.883   3.665
14445TIP3   OH243277   2.009   6.871   3.422
14445TIP3    H143278   2.077   6.914   3.474
14445TIP3    H243279   2.057   6.814   3.363
14446TIP3   OH243280   1.844   2.600   4.939
14446TIP3    H143281   1.912   2.588   5.005
14446TIP3    H243282   1.769   2.551   4.973
14447TIP3   OH243283   2.707   5.005   6.083
14447TIP3    H143284   2.731   4.943   6.152
14447TIP3    H243285   2.724   5.091   6.122
14448TIP3   OH243286   0.648   5.401   2.374
14448TIP3    H143287   0.699   5.460   2.429
14448TIP3    H243288   0.698   5.396   2.292
14449TIP3   OH243289   5.488   7.339   3.481
14449TIP3    H143290   5.463   7.342   3.389
14449TIP3    H243291   5.539   7.419   3.495
14450TIP3   OH243292   0.670   0.873   3.994
14450TIP3    H143293   0.638   0.961   3.976
14450TIP3    H243294   0.727   0.852   3.920
14451TIP3   OH243295   1.262   2.397   3.008
14451TIP3    H143296   1.248   2.368   2.918
14451TIP3    H243297   1.263   2.317   3.060
14452TIP3   OH243298   5.189   3.089   1.098
14452TIP3    H143299   5.173   3.117   1.188
14452TIP3    H243300   5.147   3.156   1.044
14453TIP3   OH243301   8.179   7.360   4.980
14453TIP3    H143302   8.206   7.389   4.893
14453TIP3    H243303   8.243   7.400   5.039
14454TIP3   OH243304   7.077   4.022   0.290
14454TIP3    H143305   7.041   4.094   0.343
14454TIP3    H243306   7.138   3.977   0.349
14455TIP3   OH243307   1.758   2.368   2.098
14455TIP3    H143308   1.761   2.310   2.174
14455TIP3    H243309   1.770   2.310   2.023
14456TIP3   OH243310   5.248   7.315   2.633
14456TIP3    H143311   5.319   7.319   2.569
14456TIP3    H243312   5.201   7.234   2.611
14457TIP3   OH243313   6.582   1.765   1.244
14457TIP3    H143314   6.638   1.709   1.298
14457TIP3    H243315   6.584   1.850   1.288
14458TIP3   OH243316   6.432   0.118   4.847
14458TIP3    H143317   6.345   0.134   4.883
14458TIP3    H243318   6.460   0.035   4.887
14459TIP3   OH243319   8.008   4.334   5.676
14459TIP3    H143320   7.920   4.360   5.705
14459TIP3    H243321   8.066   4.378   5.738
14460TIP3   OH243322   4.836   3.229   5.324
14460TIP3    H143323   4.830   3.264   5.412
14460TIP3    H243324   4.753   3.252   5.283
14461TIP3   OH243325   6.373   3.956   0.769
14461TIP3    H143326   6.394   3.935   0.678
14461TIP3    H243327   6.452   3.998   0.803
14462TIP3   OH243328   6.720   6.543   0.456
14462TIP3    H143329   6.700   6.452   0.434
14462TIP3    H243330   6.642   6.574   0.503
14463TIP3   OH243331   5.774   6.691   2.873
14463TIP3    H143332   5.832   6.724   2.942
14463TIP3    H243333   5.731   6.770   2.840
14464TIP3   OH243334   4.667   6.773   0.970
14464TIP3    H143335   4.744   6.827   0.987
14464TIP3    H243336   4.699   6.700   0.918
14465TIP3   OH243337   2.525   1.049   0.884
14465TIP3    H143338   2.536   1.121   0.947
14465TIP3    H243339   2.440   1.064   0.844
14466TIP3   OH243340   5.264   4.583   5.026
14466TIP3    H143341   5.225   4.669   5.044
14466TIP3    H243342   5.255   4.572   4.931
14467TIP3   OH243343   0.749   6.689   1.725
14467TIP3    H143344   0.783   6.742   1.653
14467TIP3    H243345   0.694   6.623   1.683
14468TIP3   OH243346   0.768   3.068   1.466
14468TIP3    H143347   0.835   3.101   1.525
14468TIP3    H243348   0.816   3.015   1.402
14469TIP3   OH243349   4.426   3.565   0.505
14469TIP3    H143350   4.381   3.590   0.424
14469TIP3    H243351   4.368   3.499   0.544
14470TIP3   OH243352   3.973   6.432   5.091
14470TIP3    H143353   3.948   6.513   5.046
14470TIP3    H243354   3.913   6.366   5.057
14471TIP3   OH243355   2.359   0.874   2.261
14471TIP3    H143356   2.317   0.959   2.274
14471TIP3    H243357   2.453   0.891   2.272
14472TIP3   OH243358   4.249   2.823   2.484
14472TIP3    H143359   4.188   2.788   2.419
14472TIP3    H243360   4.192   2.864   2.549
14473TIP3   OH243361   6.566   5.692   4.481
14473TIP3    H143362   6.563   5.786   4.465
14473TIP3    H243363   6.498   5.655   4.424
14474TIP3   OH243364   1.449   1.153   5.396
14474TIP3    H143365   1.368   1.150   5.345
14474TIP3    H243366   1.486   1.239   5.378
14475TIP3   OH243367   3.209   5.402   0.148
14475TIP3    H143368   3.259   5.324   0.124
14475TIP3    H243369   3.275   5.465   0.176
14476TIP3   OH243370   3.123   2.840   2.172
14476TIP3    H143371   3.140   2.764   2.227
14476TIP3    H243372   3.042   2.818   2.126
14477TIP3   OH243373   2.216   4.070   5.038
14477TIP3    H143374   2.252   4.091   5.124
14477TIP3    H243375   2.147   4.135   5.024
14478TIP3   OH243376   0.289   5.893   4.020
14478TIP3    H143377   0.293   5.811   3.970
14478TIP3    H243378   0.376   5.932   4.009
14479TIP3   OH243379   1.530   3.717   2.509
14479TIP3    H143380   1.453   3.759   2.547
14479TIP3    H243381   1.603   3.774   2.533
14480TIP3   OH243382   0.805   6.831   2.274
14480TIP3    H143383   0.718   6.814   2.239
14480TIP3    H243384   0.808   6.926   2.287
14481TIP3   OH243385   6.022   3.377   6.785
14481TIP3    H143386   6.091   3.388   6.719
14481TIP3    H243387   5.950   3.432   6.755
14482TIP3   OH243388   6.201   4.277   0.936
14482TIP3    H143389   6.193   4.191   0.976
14482TIP3    H243390   6.203   4.261   0.842
14483TIP3   OH243391   4.876   1.625   5.745
14483TIP3    H143392   4.952   1.629   5.804
14483TIP3    H243393   4.867   1.532   5.724
14484TIP3   OH243394   3.747   5.878   3.196
14484TIP3    H143395   3.829   5.876   3.244
14484TIP3    H243396   3.710   5.790   3.208
14485TIP3   OH243397   6.733   1.224   5.824
14485TIP3    H143398   6.708   1.311   5.858
14485TIP3    H243399   6.827   1.231   5.808
14486TIP3   OH243400   0.680   2.869   0.803
14486TIP3    H143401   0.763   2.912   0.783
14486TIP3    H243402   0.614   2.921   0.757
14487TIP3   OH243403   5.183   2.287   6.140
14487TIP3    H143404   5.158   2.372   6.105
14487TIP3    H243405   5.100   2.239   6.148
14488TIP3   OH243406   7.352   1.332   3.179
14488TIP3    H143407   7.320   1.388   3.250
14488TIP3    H243408   7.394   1.258   3.224
14489TIP3   OH243409   7.328   0.320   4.713
14489TIP3    H143410   7.383   0.328   4.635
14489TIP3    H243411   7.332   0.227   4.736
14490TIP3   OH243412   0.077   6.798   4.354
14490TIP3    H143413   0.126   6.860   4.409
14490TIP3    H243414   0.087   6.714   4.398
14491TIP3   OH243415   1.757   1.555   4.218
14491TIP3    H143416   1.767   1.586   4.308
14491TIP3    H243417   1.674   1.593   4.189
14492TIP3   OH243418   5.709   7.627   3.892
14492TIP3    H143419   5.800   7.627   3.861
14492TIP3    H243420   5.705   7.701   3.953
14493TIP3   OH243421   7.004   7.227   6.505
14493TIP3    H143422   6.932   7.215   6.442
14493TIP3    H243423   7.061   7.292   6.463
14494TIP3   OH243424   4.413   2.902   4.786
14494TIP3    H143425   4.343   2.945   4.835
14494TIP3    H243426   4.431   2.960   4.713
14495TIP3   OH243427   6.812   3.083   1.875
14495TIP3    H143428   6.724   3.103   1.841
14495TIP3    H243429   6.869   3.087   1.798
14496TIP3   OH243430   0.985   0.675   0.126
14496TIP3    H143431   0.903   0.709   0.162
14496TIP3    H243432   1.010   0.737   0.059
14497TIP3   OH243433   4.702   2.423   5.476
14497TIP3    H143434   4.752   2.478   5.535
14497TIP3    H243435   4.730   2.450   5.388
14498TIP3   OH243436   4.374   0.215   4.953
14498TIP3    H143437   4.462   0.204   4.916
14498TIP3    H243438   4.315   0.201   4.878
14499TIP3   OH243439   8.091   6.115   0.198
14499TIP3    H143440   8.084   6.142   0.106
14499TIP3    H243441   8.112   6.196   0.245
14500TIP3   OH243442   7.701   5.752   6.053
14500TIP3    H143443   7.628   5.708   6.010
14500TIP3    H243444   7.730   5.690   6.120
14501TIP3   OH243445   2.647   7.560   4.471
14501TIP3    H143446   2.688   7.508   4.402
14501TIP3    H243447   2.575   7.505   4.503
14502TIP3   OH243448   4.892   2.201   6.108
14502TIP3    H143449   4.891   2.191   6.013
14502TIP3    H243450   4.810   2.162   6.137
14503TIP3   OH243451   1.392   2.850   3.046
14503TIP3    H143452   1.342   2.866   2.967
14503TIP3    H243453   1.351   2.773   3.086
14504TIP3   OH243454   7.904   2.976   2.082
14504TIP3    H143455   7.923   3.042   2.149
14504TIP3    H243456   7.855   2.908   2.129
14505TIP3   OH243457   0.040   2.459   4.198
14505TIP3    H143458   0.123   2.498   4.170
14505TIP3    H243459   0.009   2.410   4.122
14506TIP3   OH243460   0.058   4.000   4.743
14506TIP3    H143461   0.139   3.969   4.784
14506TIP3    H243462   0.076   3.997   4.649
14507TIP3   OH243463   7.969   2.513   0.361
14507TIP3    H143464   7.924   2.572   0.301
14507TIP3    H243465   7.899   2.467   0.407
14508TIP3   OH243466   6.979   0.526   1.782
14508TIP3    H143467   6.937   0.440   1.782
14508TIP3    H243468   6.996   0.545   1.690
14509TIP3   OH243469   0.714   7.673   2.827
14509TIP3    H143470   0.668   7.752   2.797
14509TIP3    H243471   0.792   7.669   2.772
14510TIP3   OH243472   8.171   3.763   4.495
14510TIP3    H143473   8.236   3.750   4.565
14510TIP3    H243474   8.194   3.699   4.429
14511TIP3   OH243475   2.807   3.879   3.412
14511TIP3    H143476   2.844   3.955   3.457
14511TIP3    H243477   2.853   3.875   3.328
14512TIP3   OH243478   2.572   4.146   1.159
14512TIP3    H143479   2.667   4.149   1.170
14512TIP3    H243480   2.548   4.234   1.132
14513TIP3   OH243481   7.438   4.800   3.901
14513TIP3    H143482   7.428   4.872   3.838
14513TIP3    H243483   7.461   4.843   3.983
14514TIP3   OH243484   7.781   6.553   4.043
14514TIP3    H143485   7.730   6.576   3.966
14514TIP3    H243486   7.866   6.524   4.009
14515TIP3   OH243487   2.107   7.789   1.406
14515TIP3    H143488   2.141   7.713   1.358
14515TIP3    H243489   2.030   7.756   1.452
14516TIP3   OH243490   5.004   3.709   1.942
14516TIP3    H143491   5.028   3.617   1.932
14516TIP3    H243492   4.978   3.736   1.853
14517TIP3   OH243493   5.031   2.634   1.114
14517TIP3    H143494   5.075   2.716   1.092
14517TIP3    H243495   5.017   2.638   1.209
14518TIP3   OH243496   6.459   7.773   1.145
14518TIP3    H143497   6.520   7.708   1.179
14518TIP3    H243498   6.511   7.825   1.083
14519TIP3   OH243499   7.619   5.695   4.766
14519TIP3    H143500   7.590   5.671   4.677
14519TIP3    H243501   7.709   5.725   4.754
14520TIP3   OH243502   7.677   5.051   2.790
14520TIP3    H143503   7.742   5.082   2.727
14520TIP3    H243504   7.599   5.103   2.771
14521TIP3   OH243505   5.350   1.190   1.196
14521TIP3    H143506   5.431   1.154   1.161
14521TIP3    H243507   5.294   1.201   1.120
14522TIP3   OH243508   7.016   4.972   1.723
14522TIP3    H143509   6.978   4.885   1.736
14522TIP3    H243510   6.948   5.033   1.751
14523TIP3   OH243511   3.586   7.589   5.015
14523TIP3    H143512   3.582   7.672   5.062
14523TIP3    H243513   3.520   7.597   4.946
14524TIP3   OH243514   2.979   4.343   2.132
14524TIP3    H143515   3.018   4.356   2.219
14524TIP3    H243516   3.018   4.411   2.078
14525TIP3   OH243517   1.447   5.949   2.995
14525TIP3    H143518   1.385   5.964   2.924
14525TIP3    H243519   1.392   5.926   3.070
14526TIP3   OH243520   5.640   7.742   0.493
14526TIP3    H143521   5.675   7.659   0.525
14526TIP3    H243522   5.714   7.803   0.498
14527TIP3   OH243523   4.191   4.568   4.365
14527TIP3    H143524   4.132   4.535   4.433
14527TIP3    H243525   4.279   4.556   4.401
14528TIP3   OH243526   1.864   3.529   3.553
14528TIP3    H143527   1.794   3.587   3.522
14528TIP3    H243528   1.819   3.447   3.574
14529TIP3   OH243529   5.152   0.674   2.795
14529TIP3    H143530   5.220   0.740   2.786
14529TIP3    H243531   5.083   0.717   2.846
14530TIP3   OH243532   3.645   5.117   3.576
14530TIP3    H143533   3.618   5.076   3.658
14530TIP3    H243534   3.665   5.208   3.600
14531TIP3   OH243535   5.785   4.775   5.563
14531TIP3    H143536   5.758   4.791   5.473
14531TIP3    H243537   5.741   4.843   5.614
14532TIP3   OH243538   7.621   6.068   5.132
14532TIP3    H143539   7.604   6.141   5.192
14532TIP3    H243540   7.553   6.003   5.153
14533TIP3   OH243541   1.743   6.743   3.366
14533TIP3    H143542   1.819   6.800   3.367
14533TIP3    H243543   1.726   6.725   3.274
14534TIP3   OH243544   3.667   2.465   3.047
14534TIP3    H143545   3.644   2.460   2.954
14534TIP3    H243546   3.648   2.556   3.071
14535TIP3   OH243547   7.897   1.737   4.791
14535TIP3    H143548   7.811   1.727   4.750
14535TIP3    H243549   7.938   1.652   4.781
14536TIP3   OH243550   7.533   0.821   5.902
14536TIP3    H143551   7.465   0.884   5.925
14536TIP3    H243552   7.508   0.788   5.816
14537TIP3   OH243553   0.773   6.930   1.880
14537TIP3    H143554   0.820   6.951   1.800
14537TIP3    H243555   0.782   6.835   1.889
14538TIP3   OH243556   5.312   6.536   2.342
14538TIP3    H143557   5.244   6.477   2.373
14538TIP3    H243558   5.375   6.540   2.414
14539TIP3   OH243559   2.463   2.465   1.921
14539TIP3    H143560   2.494   2.494   2.007
14539TIP3    H243561   2.372   2.493   1.917
14540TIP3   OH243562   4.588   4.308   1.303
14540TIP3    H143563   4.619   4.228   1.261
14540TIP3    H243564   4.607   4.377   1.239
14541TIP3   OH243565   2.422   3.326   5.062
14541TIP3    H143566   2.445   3.378   4.985
14541TIP3    H243567   2.329   3.344   5.076
14542TIP3   OH243568   4.445   2.648   2.138
14542TIP3    H143569   4.457   2.599   2.219
14542TIP3    H243570   4.508   2.610   2.077
14543TIP3   OH243571   1.634   4.611   5.531
14543TIP3    H143572   1.725   4.618   5.558
14543TIP3    H243573   1.587   4.673   5.588
14544TIP3   OH243574   0.283   5.055   4.896
14544TIP3    H143575   0.328   4.972   4.884
14544TIP3    H243576   0.288   5.098   4.810
14545TIP3   OH243577   3.532   5.609   1.802
14545TIP3    H143578   3.454   5.555   1.813
14545TIP3    H243579   3.529   5.637   1.711
14546TIP3   OH243580   1.625   1.536   5.640
14546TIP3    H143581   1.664   1.490   5.715
14546TIP3    H243582   1.692   1.598   5.611
14547TIP3   OH243583   0.005   3.945   6.428
14547TIP3    H143584  -0.072   3.992   6.458
14547TIP3    H243585  -0.022   3.903   6.347
14548TIP3   OH243586   2.553   5.436   3.915
14548TIP3    H143587   2.508   5.391   3.987
14548TIP3    H243588   2.626   5.482   3.957
14549TIP3   OH243589   6.044   5.698   3.342
14549TIP3    H143590   5.991   5.641   3.397
14549TIP3    H243591   5.981   5.761   3.305
14550TIP3   OH243592   5.125   4.985   5.889
14550TIP3    H143593   5.180   4.941   5.953
14550TIP3    H243594   5.079   4.914   5.844
14551TIP3   OH243595   6.365   3.673   5.014
14551TIP3    H143596   6.381   3.757   4.970
14551TIP3    H243597   6.334   3.615   4.944
14552TIP3   OH243598   0.988   5.363   1.199
14552TIP3    H143599   1.022   5.423   1.133
14552TIP3    H243600   1.064   5.312   1.227
14553TIP3   OH243601   6.318   0.391   6.061
14553TIP3    H143602   6.378   0.457   6.025
14553TIP3    H243603   6.296   0.424   6.148
14554TIP3   OH243604   4.155   3.984   1.740
14554TIP3    H143605   4.165   4.044   1.814
14554TIP3    H243606   4.119   4.039   1.670
14555TIP3   OH243607   0.874   6.719   4.654
14555TIP3    H143608   0.870   6.729   4.559
14555TIP3    H243609   0.808   6.653   4.674
14556TIP3   OH243610   6.306   2.780   4.904
14556TIP3    H143611   6.311   2.714   4.972
14556TIP3    H243612   6.227   2.758   4.854
14557TIP3   OH243613   1.400   3.990   1.976
14557TIP3    H143614   1.489   4.002   2.010
14557TIP3    H243615   1.370   4.079   1.957
14558TIP3   OH243616   0.271   6.557   4.788
14558TIP3    H143617   0.320   6.536   4.709
14558TIP3    H243618   0.336   6.549   4.858
14559TIP3   OH243619   4.185   2.773   2.115
14559TIP3    H143620   4.146   2.738   2.195
14559TIP3    H243621   4.276   2.744   2.118
14560TIP3   OH243622   1.277   2.803   0.031
14560TIP3    H143623   1.292   2.740   0.101
14560TIP3    H243624   1.358   2.855   0.028
14561TIP3   OH243625   4.616   5.512   3.790
14561TIP3    H143626   4.538   5.497   3.736
14561TIP3    H243627   4.689   5.505   3.729
14562TIP3   OH243628   1.922   4.729   1.595
14562TIP3    H143629   1.918   4.818   1.633
14562TIP3    H243630   1.847   4.725   1.536
14563TIP3   OH243631   2.291   4.183   3.426
14563TIP3    H143632   2.272   4.132   3.505
14563TIP3    H243633   2.244   4.138   3.356
14564TIP3   OH243634   8.208   4.706   1.150
14564TIP3    H143635   8.220   4.676   1.240
14564TIP3    H243636   8.274   4.658   1.100
14565TIP3   OH243637   4.757   2.387   0.775
14565TIP3    H143638   4.803   2.453   0.723
14565TIP3    H243639   4.792   2.397   0.864
14566TIP3   OH243640   1.845   0.370   1.176
14566TIP3    H143641   1.893   0.453   1.179
14566TIP3    H243642   1.756   0.395   1.151
14567TIP3   OH243643   6.645   2.862   4.896
14567TIP3    H143644   6.682   2.950   4.901
14567TIP3    H243645   6.626   2.839   4.987
14568TIP3   OH243646   4.988   4.129   3.526
14568TIP3    H143647   5.052   4.107   3.593
14568TIP3    H243648   4.907   4.144   3.574
14569TIP3   OH243649   2.780   2.626   6.652
14569TIP3    H143650   2.719   2.564   6.694
14569TIP3    H243651   2.819   2.674   6.725
14570TIP3   OH243652   4.221   4.677   0.871
14570TIP3    H143653   4.273   4.635   0.939
14570TIP3    H243654   4.190   4.605   0.816
14571TIP3   OH243655   4.550   5.670   5.895
14571TIP3    H143656   4.585   5.637   5.978
14571TIP3    H243657   4.485   5.605   5.869
14572TIP3   OH243658   5.773   2.227   6.205
14572TIP3    H143659   5.832   2.155   6.180
14572TIP3    H243660   5.689   2.203   6.168
14573TIP3   OH243661   2.408   0.420   2.412
14573TIP3    H143662   2.485   0.477   2.411
14573TIP3    H243663   2.334   0.479   2.425
14574TIP3   OH243664   7.964   5.457   3.688
14574TIP3    H143665   7.931   5.375   3.724
14574TIP3    H243666   7.891   5.519   3.694
14575TIP3   OH243667   5.046   6.169   6.597
14575TIP3    H143668   5.107   6.236   6.630
14575TIP3    H243669   4.997   6.214   6.529
14576TIP3   OH243670   4.158   2.077   3.972
14576TIP3    H143671   4.245   2.115   3.956
14576TIP3    H243672   4.170   2.025   4.052
14577TIP3   OH243673   2.504   3.890   1.080
14577TIP3    H143674   2.526   3.977   1.115
14577TIP3    H243675   2.574   3.871   1.018
14578TIP3   OH243676   7.035   7.012   6.663
14578TIP3    H143677   7.124   6.986   6.638
14578TIP3    H243678   7.016   7.088   6.608
14579TIP3   OH243679   2.455   5.479   4.674
14579TIP3    H143680   2.517   5.510   4.608
14579TIP3    H243681   2.425   5.394   4.641
14580TIP3   OH243682   6.378   5.282   0.677
14580TIP3    H143683   6.325   5.319   0.607
14580TIP3    H243684   6.454   5.340   0.684
14581TIP3   OH243685   6.742   1.418   3.243
14581TIP3    H143686   6.761   1.450   3.154
14581TIP3    H243687   6.822   1.374   3.270
14582TIP3   OH243688   5.633   7.792   6.408
14582TIP3    H143689   5.667   7.704   6.427
14582TIP3    H243690   5.577   7.780   6.331
14583TIP3   OH243691   4.593   2.452   2.013
14583TIP3    H143692   4.527   2.394   2.051
14583TIP3    H243693   4.636   2.399   1.946
14584TIP3   OH243694   7.961   7.683   4.874
14584TIP3    H143695   8.043   7.711   4.914
14584TIP3    H243696   7.912   7.640   4.945
14585TIP3   OH243697   5.831   5.962   5.472
14585TIP3    H143698   5.806   6.053   5.489
14585TIP3    H243699   5.870   5.932   5.554
14586TIP3   OH243700   0.741   4.665   5.990
14586TIP3    H143701   0.835   4.650   5.986
14586TIP3    H243702   0.718   4.701   5.904
14587TIP3   OH243703   0.376   1.527   4.974
14587TIP3    H143704   0.354   1.528   4.881
14587TIP3    H243705   0.292   1.512   5.018
14588TIP3   OH243706   5.733   5.859   4.287
14588TIP3    H143707   5.806   5.836   4.345
14588TIP3    H243708   5.770   5.920   4.224
14589TIP3   OH243709   0.637   6.227   5.472
14589TIP3    H143710   0.607   6.318   5.470
14589TIP3    H243711   0.704   6.223   5.403
14590TIP3   OH243712   5.692   0.731   1.922
14590TIP3    H143713   5.699   0.793   1.995
14590TIP3    H243714   5.671   0.647   1.963
14591TIP3   OH243715   4.083   4.675   2.090
14591TIP3    H143716   4.095   4.675   1.995
14591TIP3    H243717   4.162   4.717   2.124
14592TIP3   OH243718   6.576   3.231   6.434
14592TIP3    H143719   6.633   3.281   6.492
14592TIP3    H243720   6.582   3.141   6.465
14593TIP3   OH243721   8.201   3.067   0.126
14593TIP3    H143722   8.232   3.039   0.212
14593TIP3    H243723   8.255   3.143   0.105
14594TIP3   OH243724   3.794   6.401   2.940
14594TIP3    H143725   3.715   6.448   2.968
14594TIP3    H243726   3.801   6.327   3.000
14595TIP3   OH243727   5.333   5.918   0.486
14595TIP3    H143728   5.334   5.847   0.422
14595TIP3    H243729   5.242   5.924   0.515
14596TIP3   OH243730   3.853   6.962   1.097
14596TIP3    H143731   3.796   6.981   1.022
14596TIP3    H243732   3.816   7.012   1.169
14597TIP3   OH243733   7.865   0.294   5.974
14597TIP3    H143734   7.883   0.343   5.894
14597TIP3    H243735   7.869   0.202   5.947
14598TIP3   OH243736   4.065   6.304   0.902
14598TIP3    H143737   3.978   6.324   0.936
14598TIP3    H243738   4.060   6.323   0.808
14599TIP3   OH243739   0.823   6.307   0.563
14599TIP3    H143740   0.860   6.261   0.639
14599TIP3    H243741   0.875   6.277   0.489
14600TIP3   OH243742   6.378   0.767   5.543
14600TIP3    H143743   6.423   0.683   5.529
14600TIP3    H243744   6.447   0.828   5.567
14601TIP3   OH243745   0.234   0.956   4.157
14601TIP3    H143746   0.312   0.973   4.104
14601TIP3    H243747   0.215   0.863   4.142
14602TIP3   OH243748   1.476   6.996   5.827
14602TIP3    H143749   1.455   7.017   5.735
14602TIP3    H243750   1.433   6.912   5.842
14603TIP3   OH243751   0.379   4.955   5.191
14603TIP3    H143752   0.434   4.946   5.268
14603TIP3    H243753   0.423   4.903   5.124
14604TIP3   OH243754   0.453   3.390   6.036
14604TIP3    H143755   0.389   3.369   5.968
14604TIP3    H243756   0.416   3.466   6.081
14605TIP3   OH243757   6.454   5.027   6.299
14605TIP3    H143758   6.507   4.982   6.232
14605TIP3    H243759   6.378   5.061   6.250
14606TIP3   OH243760   3.426   4.806   6.368
14606TIP3    H143761   3.461   4.890   6.399
14606TIP3    H243762   3.337   4.803   6.400
14607TIP3   OH243763   4.746   1.253   4.284
14607TIP3    H143764   4.760   1.241   4.190
14607TIP3    H243765   4.652   1.267   4.292
14608TIP3   OH243766   5.002   1.702   5.149
14608TIP3    H143767   4.908   1.694   5.129
14608TIP3    H243768   5.045   1.691   5.064
14609TIP3   OH243769   4.548   2.231   1.263
14609TIP3    H143770   4.518   2.142   1.246
14609TIP3    H243771   4.504   2.284   1.197
14610TIP3   OH243772   3.131   4.369   1.742
14610TIP3    H143773   3.211   4.404   1.780
14610TIP3    H243774   3.158   4.290   1.696
14611TIP3   OH243775   3.609   6.406   5.103
14611TIP3    H143776   3.566   6.385   5.185
14611TIP3    H243777   3.611   6.502   5.101
14612TIP3   OH243778   7.221   4.089   0.926
14612TIP3    H143779   7.239   3.997   0.945
14612TIP3    H243780   7.205   4.091   0.832
14613TIP3   OH243781   6.953   6.530   4.969
14613TIP3    H143782   6.935   6.543   4.876
14613TIP3    H243783   7.035   6.577   4.985
14614TIP3   OH243784   0.216   3.738   4.128
14614TIP3    H143785   0.142   3.734   4.069
14614TIP3    H243786   0.281   3.792   4.083
14615TIP3   OH243787   4.586   6.629   2.652
14615TIP3    H143788   4.587   6.648   2.558
14615TIP3    H243789   4.675   6.600   2.672
14616TIP3   OH243790   5.613   7.242   1.307
14616TIP3    H143791   5.546   7.245   1.239
14616TIP3    H243792   5.686   7.194   1.267
14617TIP3   OH243793   7.375   1.104   2.241
14617TIP3    H143794   7.382   1.084   2.148
14617TIP3    H243795   7.433   1.179   2.254
14618TIP3   OH243796   2.737   0.785   0.827
14618TIP3    H143797   2.659   0.840   0.832
14618TIP3    H243798   2.707   0.697   0.852
14619TIP3   OH243799   5.619   0.423   2.377
14619TIP3    H143800   5.595   0.480   2.304
14619TIP3    H243801   5.612   0.480   2.454
14620TIP3   OH243802   0.423   0.546   1.831
14620TIP3    H143803   0.472   0.534   1.751
14620TIP3    H243804   0.346   0.597   1.805
14621TIP3   OH243805   3.071   0.047   2.267
14621TIP3    H143806   3.006   0.095   2.317
14621TIP3    H243807   3.053   0.071   2.176
14622TIP3   OH243808   6.823   5.153   5.212
14622TIP3    H143809   6.897   5.203   5.177
14622TIP3    H243810   6.769   5.134   5.136
14623TIP3   OH243811   6.011   3.888   4.541
14623TIP3    H143812   6.092   3.936   4.519
14623TIP3    H243813   6.017   3.807   4.490
14624TIP3   OH243814   5.073   5.025   6.553
14624TIP3    H143815   5.097   5.090   6.618
14624TIP3    H243816   5.113   5.057   6.472
14625TIP3   OH243817   0.778   5.279   2.072
14625TIP3    H143818   0.727   5.354   2.041
14625TIP3    H243819   0.717   5.206   2.071
14626TIP3   OH243820   6.165   7.202   6.279
14626TIP3    H143821   6.243   7.229   6.230
14626TIP3    H243822   6.116   7.282   6.292
14627TIP3   OH243823   0.350   5.671   3.846
14627TIP3    H143824   0.326   5.755   3.807
14627TIP3    H243825   0.368   5.614   3.771
14628TIP3   OH243826   1.103   2.686   1.731
14628TIP3    H143827   1.195   2.705   1.710
14628TIP3    H243828   1.060   2.680   1.646
14629TIP3   OH243829   2.083   4.247   6.418
14629TIP3    H143830   2.076   4.306   6.493
14629TIP3    H243831   2.124   4.300   6.350
14630TIP3   OH243832   0.899   6.880   0.081
14630TIP3    H143833   0.859   6.831   0.154
14630TIP3    H243834   0.994   6.869   0.094
14631TIP3   OH243835   0.573   0.312   0.626
14631TIP3    H143836   0.574   0.375   0.554
14631TIP3    H243837   0.638   0.344   0.688
14632TIP3   OH243838   0.130   4.080   6.059
14632TIP3    H143839   0.214   4.117   6.087
14632TIP3    H243840   0.077   4.156   6.036
14633TIP3   OH243841   7.353   2.785   0.609
14633TIP3    H143842   7.277   2.749   0.654
14633TIP3    H243843   7.426   2.772   0.671
14634TIP3   OH243844  -0.020   5.252   1.935
14634TIP3    H143845  -0.030   5.318   2.003
14634TIP3    H243846  -0.109   5.234   1.904
14635TIP3   OH243847   2.809   3.581   3.461
14635TIP3    H143848   2.835   3.636   3.535
14635TIP3    H243849   2.751   3.636   3.409
14636TIP3   OH243850   6.804   3.345   5.354
14636TIP3    H143851   6.884   3.310   5.315
14636TIP3    H243852   6.804   3.437   5.330
14637TIP3   OH243853   8.087   0.271   2.493
14637TIP3    H143854   8.034   0.287   2.571
14637TIP3    H243855   8.112   0.179   2.500
14638TIP3   OH243856   4.245   5.576   4.254
14638TIP3    H143857   4.197   5.567   4.336
14638TIP3    H243858   4.183   5.620   4.195
14639TIP3   OH243859   6.401   6.625   2.654
14639TIP3    H143860   6.332   6.562   2.673
14639TIP3    H243861   6.466   6.576   2.604
14640TIP3   OH243862   6.618   3.428   3.747
14640TIP3    H143863   6.577   3.442   3.833
14640TIP3    H243864   6.707   3.398   3.768
14641TIP3   OH243865   1.564   7.527   1.226
14641TIP3    H143866   1.500   7.546   1.295
14641TIP3    H243867   1.583   7.433   1.236
14642TIP3   OH243868   2.258   0.254   1.186
14642TIP3    H143869   2.252   0.311   1.263
14642TIP3    H243870   2.307   0.305   1.122
14643TIP3   OH243871   1.523   0.452   0.435
14643TIP3    H143872   1.521   0.458   0.339
14643TIP3    H243873   1.434   0.425   0.459
14644TIP3   OH243874   1.810   1.262   1.998
14644TIP3    H143875   1.734   1.316   2.018
14644TIP3    H243876   1.773   1.180   1.966
14645TIP3   OH243877   6.744   1.781   0.360
14645TIP3    H143878   6.731   1.804   0.268
14645TIP3    H243879   6.690   1.843   0.408
14646TIP3   OH243880   5.569   2.554   3.206
14646TIP3    H143881   5.643   2.604   3.240
14646TIP3    H243882   5.543   2.497   3.278
14647TIP3   OH243883   5.109   0.430   3.515
14647TIP3    H143884   5.176   0.375   3.555
14647TIP3    H243885   5.122   0.516   3.554
14648TIP3   OH243886   5.192   3.186   1.727
14648TIP3    H143887   5.234   3.268   1.754
14648TIP3    H243888   5.232   3.119   1.783
14649TIP3   OH243889   3.181   7.616   0.856
14649TIP3    H143890   3.127   7.537   0.855
14649TIP3    H243891   3.184   7.645   0.765
14650TIP3   OH243892   3.721   2.132   6.085
14650TIP3    H143893   3.674   2.101   6.163
14650TIP3    H243894   3.813   2.135   6.113
14651TIP3   OH243895   6.208   6.094   4.108
14651TIP3    H143896   6.176   6.151   4.039
14651TIP3    H243897   6.282   6.047   4.069
14652TIP3   OH243898   6.373   4.613   3.241
14652TIP3    H143899   6.309   4.589   3.174
14652TIP3    H243900   6.332   4.586   3.324
14653TIP3   OH243901   7.509   3.230   0.175
14653TIP3    H143902   7.549   3.299   0.228
14653TIP3    H243903   7.546   3.149   0.209
14654TIP3   OH243904   7.275   3.120   5.339
14654TIP3    H143905   7.358   3.140   5.296
14654TIP3    H243906   7.238   3.048   5.288
14655TIP3   OH243907   3.030   7.764   1.510
14655TIP3    H143908   2.975   7.686   1.502
14655TIP3    H243909   2.977   7.835   1.474
14656TIP3   OH243910   4.147   0.679   2.903
14656TIP3    H143911   4.115   0.765   2.874
14656TIP3    H243912   4.098   0.662   2.984
14657TIP3   OH243913   0.114   0.338   5.313
14657TIP3    H143914   0.121   0.424   5.354
14657TIP3    H243915   0.205   0.312   5.296
14658TIP3   OH243916   2.206   2.396   0.260
14658TIP3    H143917   2.158   2.439   0.331
14658TIP3    H243918   2.297   2.424   0.272
14659TIP3   OH243919   2.611   4.467   3.799
14659TIP3    H143920   2.656   4.451   3.882
14659TIP3    H243921   2.577   4.555   3.807
14660TIP3   OH243922   5.704   2.717   0.141
14660TIP3    H143923   5.683   2.766   0.220
14660TIP3    H243924   5.795   2.738   0.123
14661TIP3   OH243925   2.723   4.377   2.039
14661TIP3    H143926   2.782   4.415   1.975
14661TIP3    H243927   2.777   4.365   2.118
14662TIP3   OH243928   3.309   3.164   3.165
14662TIP3    H143929   3.384   3.112   3.193
14662TIP3    H243930   3.303   3.148   3.071
14663TIP3   OH243931   5.131   3.357   5.526
14663TIP3    H143932   5.101   3.301   5.597
14663TIP3    H243933   5.149   3.441   5.568
14664TIP3   OH243934   3.937   5.116   5.510
14664TIP3    H143935   4.015   5.068   5.536
14664TIP3    H243936   3.869   5.086   5.570
14665TIP3   OH243937   6.822   7.674   2.938
14665TIP3    H143938   6.803   7.626   3.018
14665TIP3    H243939   6.914   7.699   2.946
14666TIP3   OH243940   0.545   4.485   3.775
14666TIP3    H143941   0.517   4.398   3.804
14666TIP3    H243942   0.597   4.519   3.848
14667TIP3   OH243943   6.186   2.494   5.190
14667TIP3    H143944   6.124   2.537   5.131
14667TIP3    H243945   6.269   2.541   5.176
14668TIP3   OH243946   7.910   7.192   3.396
14668TIP3    H143947   7.848   7.242   3.449
14668TIP3    H243948   7.855   7.145   3.333
14669TIP3   OH243949   1.596   6.715   5.283
14669TIP3    H143950   1.689   6.725   5.262
14669TIP3    H243951   1.551   6.725   5.199
14670TIP3   OH243952   4.216   2.242   2.980
14670TIP3    H143953   4.241   2.149   2.981
14670TIP3    H243954   4.121   2.240   2.969
14671TIP3   OH243955   1.435   2.624   0.182
14671TIP3    H143956   1.524   2.645   0.209
14671TIP3    H243957   1.415   2.542   0.226
14672TIP3   OH243958   6.745   4.346  -0.047
14672TIP3    H143959   6.732   4.358   0.047
14672TIP3    H243960   6.727   4.253  -0.062
14673TIP3   OH243961   7.740   7.274   6.314
14673TIP3    H143962   7.676   7.241   6.251
14673TIP3    H243963   7.688   7.317   6.381
14674TIP3   OH243964   4.641   4.573   2.899
14674TIP3    H143965   4.573   4.527   2.850
14674TIP3    H243966   4.609   4.662   2.907
14675TIP3   OH243967   4.867   5.256   2.114
14675TIP3    H143968   4.815   5.190   2.068
14675TIP3    H243969   4.887   5.321   2.047
14676TIP3   OH243970   4.799   6.664   3.854
14676TIP3    H143971   4.893   6.644   3.857
14676TIP3    H243972   4.795   6.756   3.829
14677TIP3   OH243973   7.410   6.554   1.524
14677TIP3    H143974   7.445   6.633   1.565
14677TIP3    H243975   7.320   6.548   1.556
14678TIP3   OH243976   3.005   6.002   1.137
14678TIP3    H143977   2.966   5.955   1.063
14678TIP3    H243978   2.935   6.008   1.201
14679TIP3   OH243979   7.292   3.283   6.582
14679TIP3    H143980   7.347   3.236   6.520
14679TIP3    H243981   7.333   3.269   6.667
14680TIP3   OH243982   2.558   7.687   3.315
14680TIP3    H143983   2.518   7.629   3.250
14680TIP3    H243984   2.650   7.660   3.319
14681TIP3   OH243985   0.623   5.022   1.373
14681TIP3    H143986   0.570   5.020   1.452
14681TIP3    H243987   0.595   5.102   1.328
14682TIP3   OH243988   7.714   1.452   4.286
14682TIP3    H143989   7.740   1.362   4.304
14682TIP3    H243990   7.796   1.496   4.262
14683TIP3   OH243991   1.314   0.965   5.586
14683TIP3    H143992   1.321   0.981   5.680
14683TIP3    H243993   1.365   1.036   5.546
14684TIP3   OH243994   3.924   0.852   4.105
14684TIP3    H143995   3.859   0.857   4.035
14684TIP3    H243996   3.908   0.931   4.157
14685TIP3   OH243997   3.954   2.868   3.570
14685TIP3    H143998   4.007   2.926   3.625
14685TIP3    H243999   4.003   2.786   3.567
14686TIP3   OH244000   7.910   4.548   3.687
14686TIP3    H144001   7.817   4.543   3.663
14686TIP3    H244002   7.937   4.635   3.660
14687TIP3   OH244003  -0.042   5.960   4.034
14687TIP3    H144004  -0.080   5.914   4.109
14687TIP3    H244005  -0.087   6.045   4.033
14688TIP3   OH244006   0.098   2.822   4.353
14688TIP3    H144007   0.088   2.831   4.448
14688TIP3    H244008   0.159   2.749   4.342
14689TIP3   OH244009   0.356   0.375   2.041
14689TIP3    H144010   0.387   0.438   2.106
14689TIP3    H244011   0.363   0.422   1.957
14690TIP3   OH244012   0.344   5.304   1.013
14690TIP3    H144013   0.401   5.271   0.943
14690TIP3    H244014   0.278   5.355   0.967
14691TIP3   OH244015   2.540   2.726   5.452
14691TIP3    H144016   2.452   2.717   5.417
14691TIP3    H244017   2.568   2.814   5.425
14692TIP3   OH244018   4.227   7.480   2.358
14692TIP3    H144019   4.219   7.554   2.298
14692TIP3    H244020   4.301   7.504   2.415
14693TIP3   OH244021   4.180   7.418   6.314
14693TIP3    H144022   4.201   7.408   6.221
14693TIP3    H244023   4.128   7.499   6.318
14694TIP3   OH244024   7.571   2.031   0.959
14694TIP3    H144025   7.647   2.038   1.017
14694TIP3    H244026   7.544   2.122   0.944
14695TIP3   OH244027   1.734   7.824   0.604
14695TIP3    H144028   1.692   7.765   0.542
14695TIP3    H244029   1.827   7.800   0.602
14696TIP3   OH244030   2.631   7.061   3.388
14696TIP3    H144031   2.611   7.131   3.450
14696TIP3    H244032   2.577   7.080   3.311
14697TIP3   OH244033   2.494   7.316   5.427
14697TIP3    H144034   2.467   7.243   5.484
14697TIP3    H244035   2.481   7.283   5.338
14698TIP3   OH244036   5.432   4.692   1.059
14698TIP3    H144037   5.492   4.629   1.097
14698TIP3    H244038   5.482   4.734   0.989
14699TIP3   OH244039   0.456   4.188   0.689
14699TIP3    H144040   0.549   4.188   0.666
14699TIP3    H244041   0.444   4.105   0.736
14700TIP3   OH244042   6.220   6.949   1.073
14700TIP3    H144043   6.225   6.859   1.041
14700TIP3    H244044   6.200   6.941   1.166
14701TIP3   OH244045   5.954   2.921   4.049
14701TIP3    H144046   5.961   2.861   4.122
14701TIP3    H244047   5.931   2.865   3.974
14702TIP3   OH244048   0.432   6.103   6.542
14702TIP3    H144049   0.456   6.070   6.455
14702TIP3    H244050   0.348   6.148   6.528
14703TIP3   OH244051   1.910   2.510   3.605
14703TIP3    H144052   1.867   2.441   3.656
14703TIP3    H244053   1.908   2.587   3.662
14704TIP3   OH244054   2.158   1.876   2.468
14704TIP3    H144055   2.119   1.822   2.399
14704TIP3    H244056   2.212   1.939   2.420
14705TIP3   OH244057   5.677   5.249   2.448
14705TIP3    H144058   5.743   5.233   2.515
14705TIP3    H244059   5.597   5.209   2.483
14706TIP3   OH244060   3.514   1.198   0.794
14706TIP3    H144061   3.609   1.198   0.801
14706TIP3    H244062   3.487   1.116   0.836
14707TIP3   OH244063   7.929   3.982   2.185
14707TIP3    H144064   7.966   4.060   2.144
14707TIP3    H244065   7.885   4.015   2.263
14708TIP3   OH244066   6.905   2.739   0.386
14708TIP3    H144067   6.997   2.755   0.406
14708TIP3    H244068   6.880   2.809   0.326
14709TIP3   OH244069   5.778   5.404   0.818
14709TIP3    H144070   5.759   5.402   0.912
14709TIP3    H244071   5.747   5.489   0.789
14710TIP3   OH244072   6.721   5.000   2.555
14710TIP3    H144073   6.755   5.049   2.630
14710TIP3    H244074   6.738   4.908   2.576
14711TIP3   OH244075   4.794   0.292   5.197
14711TIP3    H144076   4.882   0.304   5.233
14711TIP3    H244077   4.797   0.207   5.154
14712TIP3   OH244078   1.585   2.881   1.327
14712TIP3    H144079   1.641   2.885   1.404
14712TIP3    H244080   1.639   2.916   1.256
14713TIP3   OH244081   7.929   7.389   0.692
14713TIP3    H144082   7.930   7.484   0.703
14713TIP3    H244083   7.836   7.367   0.686
14714TIP3   OH244084   2.966   0.526   5.203
14714TIP3    H144085   2.958   0.442   5.249
14714TIP3    H244086   2.888   0.575   5.231
14715TIP3   OH244087   4.406   4.311   0.064
14715TIP3    H144088   4.483   4.256   0.054
14715TIP3    H244089   4.386   4.308   0.157
14716TIP3   OH244090   3.118   7.262   3.665
14716TIP3    H144091   3.101   7.180   3.619
14716TIP3    H244092   3.094   7.243   3.756
14717TIP3   OH244093   3.041   6.589   5.291
14717TIP3    H144094   3.061   6.659   5.353
14717TIP3    H244095   3.016   6.634   5.210
14718TIP3   OH244096   2.068   5.432   0.826
14718TIP3    H144097   2.027   5.505   0.872
14718TIP3    H244098   2.082   5.465   0.737
14719TIP3   OH244099   6.319   3.898   2.995
14719TIP3    H144100   6.271   3.893   2.912
14719TIP3    H244101   6.273   3.964   3.046
14720TIP3   OH244102   6.995   1.940   6.681
14720TIP3    H144103   7.080   1.953   6.639
14720TIP3    H244104   6.939   2.009   6.646
14721TIP3   OH244105   7.521   5.839   1.413
14721TIP3    H144106   7.436   5.870   1.383
14721TIP3    H244107   7.509   5.744   1.423
14722TIP3   OH244108   6.946   1.967   0.817
14722TIP3    H144109   7.039   1.985   0.801
14722TIP3    H244110   6.925   1.896   0.756
14723TIP3   OH244111   4.874   2.866   1.781
14723TIP3    H144112   4.932   2.853   1.706
14723TIP3    H244113   4.922   2.926   1.838
14724TIP3   OH244114   3.473   4.254   3.742
14724TIP3    H144115   3.426   4.214   3.669
14724TIP3    H244116   3.472   4.188   3.811
14725TIP3   OH244117   3.667   0.050   5.749
14725TIP3    H144118   3.749   0.093   5.723
14725TIP3    H244119   3.680  -0.042   5.725
14726TIP3   OH244120   3.440   6.192   5.883
14726TIP3    H144121   3.433   6.158   5.795
14726TIP3    H244122   3.533   6.181   5.906
14727TIP3   OH244123   6.292   6.119   5.786
14727TIP3    H144124   6.356   6.049   5.778
14727TIP3    H244125   6.276   6.147   5.696
14728TIP3   OH244126   2.957   0.082   5.700
14728TIP3    H144127   2.938  -0.010   5.682
14728TIP3    H244128   3.048   0.094   5.670
14729TIP3   OH244129   2.721   0.786   2.934
14729TIP3    H144130   2.654   0.798   3.001
14729TIP3    H244131   2.803   0.807   2.978
14730TIP3   OH244132   4.571   2.033   0.636
14730TIP3    H144133   4.582   2.105   0.574
14730TIP3    H244134   4.546   2.075   0.718
14731TIP3   OH244135   7.880   5.005   3.830
14731TIP3    H144136   7.898   4.933   3.769
14731TIP3    H244137   7.865   5.080   3.773
14732TIP3   OH244138   7.374   0.430   2.697
14732TIP3    H144139   7.288   0.444   2.737
14732TIP3    H244140   7.362   0.453   2.605
14733TIP3   OH244141   5.005   0.830   0.233
14733TIP3    H144142   5.040   0.811   0.146
14733TIP3    H244143   4.960   0.914   0.223
14734TIP3   OH244144   1.443   3.743   1.827
14734TIP3    H144145   1.372   3.686   1.799
14734TIP3    H244146   1.400   3.812   1.877
14735TIP3   OH244147   6.439   5.590   0.416
14735TIP3    H144148   6.415   5.536   0.341
14735TIP3    H244149   6.535   5.591   0.416
14736TIP3   OH244150   2.646   4.793   5.779
14736TIP3    H144151   2.588   4.864   5.807
14736TIP3    H244152   2.714   4.789   5.846
14737TIP3   OH244153   3.908   0.549   2.351
14737TIP3    H144154   3.917   0.606   2.275
14737TIP3    H244155   3.922   0.460   2.317
14738TIP3   OH244156   7.298   0.315   0.277
14738TIP3    H144157   7.320   0.319   0.370
14738TIP3    H244158   7.325   0.400   0.242
14739TIP3   OH244159   5.438   4.964   3.492
14739TIP3    H144160   5.516   5.017   3.509
14739TIP3    H244161   5.470   4.873   3.492
14740TIP3   OH244162   4.667   2.945   4.123
14740TIP3    H144163   4.685   2.913   4.034
14740TIP3    H244164   4.571   2.948   4.127
14741TIP3   OH244165   7.997   5.074   5.538
14741TIP3    H144166   7.975   5.065   5.631
14741TIP3    H244167   8.092   5.072   5.536
14742TIP3   OH244168   4.255   1.807   1.649
14742TIP3    H144169   4.167   1.843   1.637
14742TIP3    H244170   4.244   1.737   1.714
14743TIP3   OH244171   2.085   2.630   1.271
14743TIP3    H144172   2.023   2.700   1.251
14743TIP3    H244173   2.143   2.668   1.337
14744TIP3   OH244174   8.022   7.335   6.241
14744TIP3    H144175   7.933   7.369   6.234
14744TIP3    H244176   8.013   7.254   6.291
14745TIP3   OH244177   7.717   7.595   2.031
14745TIP3    H144178   7.693   7.620   1.942
14745TIP3    H244179   7.734   7.501   2.026
14746TIP3   OH244180   1.256   6.353   0.122
14746TIP3    H144181   1.207   6.362   0.040
14746TIP3    H244182   1.311   6.276   0.108
14747TIP3   OH244183   4.796   5.592   1.542
14747TIP3    H144184   4.798   5.630   1.630
14747TIP3    H244185   4.848   5.652   1.488
14748TIP3   OH244186   2.190   6.310   3.763
14748TIP3    H144187   2.201   6.314   3.858
14748TIP3    H244188   2.168   6.218   3.745
14749TIP3   OH244189   2.210   5.073   6.454
14749TIP3    H144190   2.224   5.168   6.461
14749TIP3    H244191   2.286   5.042   6.406
14750TIP3   OH244192   1.538   1.671   0.965
14750TIP3    H144193   1.472   1.718   0.913
14750TIP3    H244194   1.585   1.618   0.901
14751TIP3   OH244195   5.680   2.634   1.177
14751TIP3    H144196   5.662   2.543   1.201
14751TIP3    H244197   5.733   2.668   1.249
14752TIP3   OH244198   7.917   6.955   0.702
14752TIP3    H144199   7.976   6.895   0.655
14752TIP3    H244200   7.976   7.012   0.752
14753TIP3   OH244201   6.764   0.513   1.339
14753TIP3    H144202   6.702   0.523   1.411
14753TIP3    H244203   6.719   0.456   1.277
14754TIP3   OH244204   4.370   2.138   1.902
14754TIP3    H144205   4.360   2.193   1.979
14754TIP3    H244206   4.425   2.189   1.843
14755TIP3   OH244207   3.948   7.106   3.542
14755TIP3    H144208   3.883   7.114   3.472
14755TIP3    H244209   4.012   7.174   3.522
14756TIP3   OH244210   5.436   1.487   1.392
14756TIP3    H144211   5.426   1.434   1.313
14756TIP3    H244212   5.470   1.426   1.458
14757TIP3   OH244213   3.550   6.075   6.742
14757TIP3    H144214   3.560   6.123   6.824
14757TIP3    H244215   3.622   6.011   6.743
14758TIP3   OH244216   3.206   1.718   6.740
14758TIP3    H144217   3.287   1.750   6.779
14758TIP3    H244218   3.137   1.746   6.800
14759TIP3   OH244219   4.830   7.169   5.135
14759TIP3    H144220   4.752   7.122   5.107
14759TIP3    H244221   4.814   7.260   5.109
14760TIP3   OH244222   6.346   2.148   0.955
14760TIP3    H144223   6.316   2.198   1.031
14760TIP3    H244224   6.340   2.209   0.882
14761TIP3   OH244225   3.169   2.566   4.778
14761TIP3    H144226   3.117   2.500   4.823
14761TIP3    H244227   3.238   2.516   4.734
14762TIP3   OH244228   4.234   5.338   0.656
14762TIP3    H144229   4.303   5.288   0.611
14762TIP3    H244230   4.201   5.398   0.589
14763TIP3   OH244231   5.332   3.195   5.438
14763TIP3    H144232   5.256   3.254   5.433
14763TIP3    H244233   5.407   3.251   5.417
14764TIP3   OH244234   1.323   4.239   2.247
14764TIP3    H144235   1.289   4.149   2.249
14764TIP3    H244236   1.294   4.274   2.163
14765TIP3   OH244237   6.583   2.703   2.381
14765TIP3    H144238   6.490   2.715   2.365
14765TIP3    H244239   6.600   2.612   2.359
14766TIP3   OH244240   2.463   5.343   1.851
14766TIP3    H144241   2.400   5.336   1.778
14766TIP3    H244242   2.469   5.436   1.868
14767TIP3   OH244243   4.065   5.009   0.067
14767TIP3    H144244   4.058   4.924   0.111
14767TIP3    H244245   4.030   4.993  -0.021
14768TIP3   OH244246   7.871   3.963   4.087
14768TIP3    H144247   7.898   4.004   4.005
14768TIP3    H244248   7.952   3.951   4.136
14769TIP3   OH244249   7.353   2.093   4.107
14769TIP3    H144250   7.397   2.178   4.098
14769TIP3    H244251   7.424   2.031   4.123
14770TIP3   OH244252   2.560   6.358   2.539
14770TIP3    H144253   2.604   6.398   2.464
14770TIP3    H244254   2.627   6.301   2.578
14771TIP3   OH244255   6.178   7.023   3.749
14771TIP3    H144256   6.119   6.951   3.730
14771TIP3    H244257   6.127   7.082   3.805
14772TIP3   OH244258   5.589   3.350   4.095
14772TIP3    H144259   5.572   3.287   4.024
14772TIP3    H244260   5.623   3.297   4.167
14773TIP3   OH244261   5.935   0.441   5.358
14773TIP3    H144262   5.860   0.397   5.399
14773TIP3    H244263   6.010   0.385   5.378
14774TIP3   OH244264   6.550   1.083   1.518
14774TIP3    H144265   6.477   1.062   1.460
14774TIP3    H244266   6.538   1.026   1.594
14775TIP3   OH244267   4.461   6.001   3.221
14775TIP3    H144268   4.425   6.038   3.140
14775TIP3    H244269   4.556   6.008   3.210
14776TIP3   OH244270   5.208   7.025   0.368
14776TIP3    H144271   5.149   7.089   0.408
14776TIP3    H244272   5.191   7.031   0.274
14777TIP3   OH244273   1.182   5.470   6.355
14777TIP3    H144274   1.115   5.535   6.373
14777TIP3    H244275   1.221   5.451   6.440
14778TIP3   OH244276   1.152   7.449   6.618
14778TIP3    H144277   1.110   7.533   6.638
14778TIP3    H244278   1.080   7.392   6.592
14779TIP3   OH244279   2.661   5.108   4.810
14779TIP3    H144280   2.703   5.139   4.730
14779TIP3    H244281   2.618   5.185   4.846
14780TIP3   OH244282   2.044   4.120   0.602
14780TIP3    H144283   2.029   4.054   0.535
14780TIP3    H244284   2.138   4.136   0.600
14781TIP3   OH244285   4.405   5.637   4.529
14781TIP3    H144286   4.401   5.656   4.623
14781TIP3    H244287   4.463   5.704   4.494
14782TIP3   OH244288   6.262   6.311   3.572
14782TIP3    H144289   6.348   6.273   3.550
14782TIP3    H244290   6.278   6.405   3.576
14783TIP3   OH244291   6.965   3.829   4.799
14783TIP3    H144292   6.962   3.922   4.774
14783TIP3    H244293   6.877   3.809   4.830
14784TIP3   OH244294   6.283   4.811   6.447
14784TIP3    H144295   6.299   4.718   6.430
14784TIP3    H244296   6.290   4.853   6.361
14785TIP3   OH244297   2.322   3.638   6.164
14785TIP3    H144298   2.237   3.605   6.138
14785TIP3    H244299   2.356   3.573   6.225
14786TIP3   OH244300   1.920   1.948   0.457
14786TIP3    H144301   1.950   1.862   0.484
14786TIP3    H244302   1.832   1.956   0.494
14787TIP3   OH244303   3.063   5.926   3.709
14787TIP3    H144304   3.133   5.889   3.655
14787TIP3    H244305   3.010   5.850   3.734
14788TIP3   OH244306   0.832   7.139   0.015
14788TIP3    H144307   0.911   7.186   0.041
14788TIP3    H244308   0.859   7.047   0.009
14789TIP3   OH244309   5.703   3.874   1.868
14789TIP3    H144310   5.703   3.961   1.827
14789TIP3    H244311   5.615   3.866   1.905
14790TIP3   OH244312   1.854   0.497   5.201
14790TIP3    H144313   1.867   0.459   5.288
14790TIP3    H244314   1.942   0.503   5.164
14791TIP3   OH244315   8.035   6.996   3.646
14791TIP3    H144316   7.994   6.944   3.714
14791TIP3    H244317   8.127   6.969   3.645
14792TIP3   OH244318   3.899   3.087   4.540
14792TIP3    H144319   3.963   3.158   4.543
14792TIP3    H244320   3.952   3.007   4.537
14793TIP3   OH244321   7.155   4.237   3.541
14793TIP3    H144322   7.181   4.175   3.474
14793TIP3    H244323   7.203   4.317   3.520
14794TIP3   OH244324   6.768   4.550   6.600
14794TIP3    H144325   6.712   4.524   6.673
14794TIP3    H244326   6.708   4.575   6.531
14795TIP3   OH244327   8.074   6.699   4.866
14795TIP3    H144328   7.986   6.672   4.842
14795TIP3    H244329   8.062   6.753   4.944
14796TIP3   OH244330   7.010   6.241   0.283
14796TIP3    H144331   7.027   6.334   0.293
14796TIP3    H244332   6.973   6.232   0.195
14797TIP3   OH244333   5.254   5.727   6.256
14797TIP3    H144334   5.295   5.643   6.276
14797TIP3    H244335   5.194   5.743   6.329
14798TIP3   OH244336   6.585   0.994   2.470
14798TIP3    H144337   6.576   0.946   2.388
14798TIP3    H244338   6.563   1.085   2.448
14799TIP3   OH244339   0.084   0.971   1.564
14799TIP3    H144340   0.061   0.879   1.563
14799TIP3    H244341   0.071   1.000   1.473
14800TIP3   OH244342   2.969   5.941   4.595
14800TIP3    H144343   2.913   5.972   4.524
14800TIP3    H244344   2.914   5.950   4.673
14801TIP3   OH244345   0.288   1.264   1.275
14801TIP3    H144346   0.281   1.208   1.197
14801TIP3    H244347   0.203   1.256   1.317
14802TIP3   OH244348   1.674   5.804   1.593
14802TIP3    H144349   1.587   5.834   1.566
14802TIP3    H244350   1.667   5.790   1.688
14803TIP3   OH244351   4.397   2.028   2.556
14803TIP3    H144352   4.419   1.971   2.482
14803TIP3    H244353   4.367   1.968   2.624
14804TIP3   OH244354   5.808   1.507   0.464
14804TIP3    H144355   5.829   1.515   0.557
14804TIP3    H244356   5.730   1.561   0.452
14805TIP3   OH244357   7.206   0.149   1.959
14805TIP3    H144358   7.216   0.201   2.039
14805TIP3    H244359   7.295   0.124   1.935
14806TIP3   OH244360   6.053   3.979   4.891
14806TIP3    H144361   6.113   4.004   4.961
14806TIP3    H244362   6.018   4.063   4.859
14807TIP3   OH244363   0.108   0.647   4.624
14807TIP3    H144364   0.151   0.718   4.577
14807TIP3    H244365   0.027   0.686   4.657
14808TIP3   OH244366   5.721   3.897   1.071
14808TIP3    H144367   5.775   3.853   1.006
14808TIP3    H244368   5.784   3.937   1.131
14809TIP3   OH244369   6.401   5.838   5.785
14809TIP3    H144370   6.316   5.799   5.765
14809TIP3    H244371   6.393   5.865   5.876
14810TIP3   OH244372   2.508   3.395   1.815
14810TIP3    H144373   2.454   3.435   1.883
14810TIP3    H244374   2.596   3.431   1.831
14811TIP3   OH244375   5.331   3.464   4.117
14811TIP3    H144376   5.418   3.501   4.128
14811TIP3    H244377   5.338   3.411   4.037
14812TIP3   OH244378   0.445   3.383   1.565
14812TIP3    H144379   0.425   3.466   1.609
14812TIP3    H244380   0.373   3.325   1.589
14813TIP3   OH244381   7.770   2.687   0.622
14813TIP3    H144382   7.853   2.658   0.661
14813TIP3    H244383   7.729   2.607   0.589
14814TIP3   OH244384   4.397   6.884   3.990
14814TIP3    H144385   4.376   6.861   3.900
14814TIP3    H244386   4.409   6.800   4.034
14815TIP3   OH244387   8.077   2.838   6.658
14815TIP3    H144388   8.018   2.847   6.734
14815TIP3    H244389   8.076   2.745   6.639
   8.29042   7.81628   6.76910   0.00000   0.00000  -2.76347   0.00000  -2.76347  -3.90814
