Generated by CHARMM-GUI FF-Converter
44418
    1GLY      N    1   2.149   3.923   4.838
    1GLY    HT1    2   2.085   3.940   4.918
    1GLY    HT2    3   2.215   3.846   4.864
    1GLY    HT3    4   2.097   3.883   4.757
    1GLY     CA    5   2.227   4.040   4.799
    1GLY    HA1    6   2.277   4.076   4.887
    1GLY    HA2    7   2.156   4.110   4.757
    1GLY      C    8   2.335   4.009   4.697
    1GLY      O    9   2.364   3.892   4.671
    2PRO      N   10   2.405   4.100   4.629
    2PRO     CD   11   2.352   4.225   4.625
    2PRO    HD1   12   2.368   4.273   4.725
    2PRO    HD2   13   2.244   4.227   4.596
    2PRO     CA   14   2.518   4.077   4.538
    2PRO     HA   15   2.485   4.007   4.462
    2PRO     CB   16   2.550   4.217   4.485
    2PRO    HB1   17   2.567   4.216   4.375
    2PRO    HB2   18   2.640   4.260   4.534
    2PRO     CG   19   2.431   4.300   4.522
    2PRO    HG1   20   2.462   4.401   4.558
    2PRO    HG2   21   2.368   4.315   4.432
    2PRO      C   22   2.639   4.016   4.608
    2PRO      O   23   2.653   4.029   4.730
    3GLY      N   24   2.717   3.944   4.526
    3GLY     HN   25   2.684   3.917   4.436
    3GLY     CA   26   2.839   3.886   4.579
    3GLY    HA1   27   2.883   3.826   4.500
    3GLY    HA2   28   2.815   3.826   4.666
    3GLY      C   29   2.942   3.989   4.619
    3GLY      O   30   2.927   4.108   4.587
    4ASP      N   31   3.036   3.940   4.701
    4ASP     HN   32   3.032   3.850   4.744
    4ASP     CA   33   3.148   4.026   4.734
    4ASP     HA   34   3.102   4.111   4.783
    4ASP     CB   35   3.242   3.957   4.834
    4ASP    HB1   36   3.337   4.012   4.848
    4ASP    HB2   37   3.267   3.855   4.796
    4ASP     CG   38   3.180   3.940   4.972
    4ASP    OD1   39   3.088   4.017   5.006
    4ASP    OD2   40   3.225   3.851   5.046
    4ASP      C   41   3.226   4.066   4.609
    4ASP      O   42   3.236   3.988   4.514
    5PRO      N   43   3.281   4.170   4.599
    5PRO     CD   44   3.274   4.261   4.698
    5PRO    HD1   45   3.331   4.225   4.788
    5PRO    HD2   46   3.169   4.288   4.725
    5PRO     CA   47   3.368   4.204   4.486
    5PRO     HA   48   3.309   4.204   4.396
    5PRO     CB   49   3.418   4.345   4.521
    5PRO    HB1   50   3.401   4.415   4.437
    5PRO    HB2   51   3.527   4.345   4.545
    5PRO     CG   52   3.341   4.384   4.643
    5PRO    HG1   53   3.400   4.439   4.717
    5PRO    HG2   54   3.259   4.453   4.609
    5PRO      C   55   3.485   4.107   4.470
    5PRO      O   56   3.524   4.041   4.567
    6GLY      N   57   3.524   4.106   4.342
    6GLY     HN   58   3.495   4.172   4.274
    6GLY     CA   59   3.641   4.024   4.316
    6GLY    HA1   60   3.661   4.030   4.210
    6GLY    HA2   61   3.621   3.922   4.349
    6GLY      C   62   3.766   4.073   4.387
    6GLY      O   63   3.769   4.186   4.436
    7SER      N   64   3.862   3.990   4.387
    7SER     HN   65   3.858   3.900   4.345
    7SER     CA   66   3.990   4.030   4.445
    7SER     HA   67   3.971   4.075   4.542
    7SER     CB   68   4.081   3.909   4.464
    7SER    HB1   69   4.170   3.933   4.524
    7SER    HB2   70   4.116   3.875   4.364
    7SER     OG   71   4.009   3.801   4.522
    7SER    HG1   72   3.988   3.827   4.613
    7SER      C   73   4.060   4.134   4.359
    7SER      O   74   4.030   4.147   4.240
    8ASP      N   75   4.153   4.193   4.424
    8ASP     HN   76   4.164   4.192   4.523
    8ASP     CA   77   4.236   4.285   4.348
    8ASP     HA   78   4.172   4.355   4.294
    8ASP     CB   79   4.328   4.364   4.441
    8ASP    HB1   80   4.402   4.424   4.383
    8ASP    HB2   81   4.385   4.294   4.506
    8ASP     CG   82   4.253   4.461   4.530
    8ASP    OD1   83   4.132   4.483   4.509
    8ASP    OD2   84   4.316   4.517   4.623
    8ASP      C   85   4.319   4.211   4.243
    8ASP      O   86   4.353   4.094   4.261
    9GLY      N   87   4.350   4.287   4.131
    9GLY     HN   88   4.318   4.380   4.120
    9GLY     CA   89   4.434   4.228   4.028
    9GLY    HA1   90   4.439   4.298   3.947
    9GLY    HA2   91   4.392   4.132   3.999
    9GLY      C   92   4.577   4.204   4.075
    9GLY      O   93   4.617   4.251   4.181
   10SER      N   94   4.645   4.140   3.987
   10SER     HN   95   4.607   4.102   3.904
   10SER     CA   96   4.787   4.120   4.014
   10SER     HA   97   4.799   4.081   4.114
   10SER     CB   98   4.846   4.017   3.917
   10SER    HB1   99   4.953   3.996   3.941
   10SER    HB2  100   4.843   4.058   3.813
   10SER     OG  101   4.772   3.897   3.920
   10SER    HG1  102   4.807   3.850   3.999
   10SER      C  103   4.865   4.251   4.004
   10SER      O  104   4.825   4.342   3.932
   11GLY      N  105   4.965   4.273   4.088
   11GLY     HN  106   4.995   4.202   4.151
   11GLY     CA  107   5.049   4.392   4.080
   11GLY    HA1  108   5.119   4.383   4.161
   11GLY    HA2  109   4.982   4.476   4.086
   11GLY      C  110   5.129   4.400   3.951
   11GLY      O  111   5.123   4.310   3.868
   12PRO      N  112   5.191   4.490   3.920
   12PRO     CD  113   5.207   4.594   4.018
   12PRO    HD1  114   5.255   4.556   4.112
   12PRO    HD2  115   5.110   4.645   4.039
   12PRO     CA  116   5.278   4.507   3.803
   12PRO     HA  117   5.223   4.481   3.714
   12PRO     CB  118   5.316   4.655   3.809
   12PRO    HB1  119   5.242   4.713   3.748
   12PRO    HB2  120   5.418   4.677   3.769
   12PRO     CG  121   5.299   4.693   3.953
   12PRO    HG1  122   5.399   4.682   4.003
   12PRO    HG2  123   5.267   4.798   3.966
   12PRO      C  124   5.402   4.418   3.807
   12PRO      O  125   5.443   4.375   3.915
   13GLY      N  126   5.458   4.381   3.699
   13GLY     HN  127   5.419   4.412   3.612
   13GLY     CA  128   5.581   4.305   3.689
   13GLY    HA1  129   5.600   4.285   3.584
   13GLY    HA2  130   5.570   4.216   3.749
   13GLY      C  131   5.702   4.379   3.743
   13GLY      O  132   5.696   4.501   3.765
   14ASP      N  133   5.800   4.332   3.774
   14ASP     HN  134   5.807   4.234   3.769
   14ASP     CA  135   5.927   4.389   3.817
   14ASP     HA  136   5.905   4.454   3.900
   14ASP     CB  137   6.021   4.279   3.867
   14ASP    HB1  138   6.122   4.321   3.887
   14ASP    HB2  139   6.031   4.200   3.790
   14ASP     CG  140   5.975   4.216   3.997
   14ASP    OD1  141   5.902   4.283   4.075
   14ASP    OD2  142   6.011   4.100   4.023
   14ASP      C  143   5.994   4.467   3.704
   14ASP      O  144   5.981   4.431   3.587
   15PRO      N  145   6.034   4.608   3.725
   15PRO     CD  146   6.016   4.669   3.851
   15PRO    HD1  147   6.084   4.620   3.924
   15PRO    HD2  148   5.910   4.661   3.883
   15PRO     CA  149   6.103   4.689   3.625
   15PRO     HA  150   6.037   4.705   3.541
   15PRO     CB  151   6.139   4.817   3.701
   15PRO    HB1  152   6.121   4.907   3.639
   15PRO    HB2  153   6.247   4.816   3.730
   15PRO     CG  154   6.055   4.812   3.825
   15PRO    HG1  155   6.109   4.856   3.912
   15PRO    HG2  156   5.964   4.872   3.808
   15PRO      C  157   6.228   4.621   3.570
   15PRO    OT1  158   6.258   4.507   3.614
   15PRO    OT2  159   6.295   4.683   3.483
   16LIT    LIT  160   3.668   4.091   6.949
   17LIT    LIT  161   2.454   1.420   5.933
   18LIT    LIT  162   4.610   3.453   3.521
   19LIT    LIT  163   4.197   8.043   6.070
   20LIT    LIT  164   6.076   3.794   8.104
   21LIT    LIT  165   2.390   1.812   3.598
   22LIT    LIT  166   4.997   1.773   7.431
   23LIT    LIT  167   7.798   4.769   6.022
   24LIT    LIT  168   2.609   2.203   5.398
   25LIT    LIT  169   4.682   5.716   2.743
   26LIT    LIT  170   3.081   2.412   5.138
   27LIT    LIT  171   2.994   7.611   1.680
   28LIT    LIT  172   4.974  -0.114   3.583
   29LIT    LIT  173   1.140   1.432   6.289
   30LIT    LIT  174   0.529   2.705   5.151
   31LIT    LIT  175   5.089   1.389   2.201
   32LIT    LIT  176   2.130   6.730   3.379
   33LIT    LIT  177   0.364   4.935   1.433
   34LIT    LIT  178   1.266   4.243   1.867
   35LIT    LIT  179   0.493   6.706   5.084
   36LIT    LIT  180   0.688   4.746   6.009
   37LIT    LIT  181   4.963   6.684   4.866
   38LIT    LIT  182   2.663   2.333   1.044
   39LIT    LIT  183   4.152   2.178   6.395
   40LIT    LIT  184   3.015   5.017   5.362
   41LIT    LIT  185   7.548   6.806   3.166
   42LIT    LIT  186   3.060   0.662   2.833
   43LIT    LIT  187   1.779   1.650   2.750
   44LIT    LIT  188   8.135   5.065   3.544
   45LIT    LIT  189   3.391   1.387   0.786
   46LIT    LIT  190   0.200   5.120   3.764
   47LIT    LIT  191   8.388   6.354   4.335
   48LIT    LIT  192   6.615   2.999   2.013
   49LIT    LIT  193   6.650   5.711   5.751
   50LIT    LIT  194   1.617   1.685   2.198
   51LIT    LIT  195   4.468   7.866   1.885
   52LIT    LIT  196   3.513   3.547   2.881
   53LIT    LIT  197   5.897   3.676   0.641
   54LIT    LIT  198  -0.373   4.650   2.769
   55LIT    LIT  199   2.180   5.608   7.002
   56LIT    LIT  200   3.602   5.833   8.242
   57LIT    LIT  201   3.874   4.220   5.818
   58LIT    LIT  202   5.884   6.994   5.658
   59LIT    LIT  203   3.017   1.855   3.761
   60LIT    LIT  204   5.623   2.330   0.625
   61CLA    CLA  205   4.026   8.320   3.209
   62CLA    CLA  206   6.397   6.602   2.110
   63CLA    CLA  207   7.214   4.476   1.690
   64CLA    CLA  208   3.401   0.153   2.392
   65CLA    CLA  209   5.121   1.994   7.995
   66CLA    CLA  210   0.856   1.290   5.736
   67CLA    CLA  211   5.023   0.883   4.801
   68CLA    CLA  212   5.291   7.433   5.188
   69CLA    CLA  213   3.732   0.507   3.741
   70CLA    CLA  214   1.123   4.456   0.407
   71CLA    CLA  215   4.240   7.845   6.871
   72CLA    CLA  216   4.895   5.549   6.151
   73CLA    CLA  217   5.116   2.085   0.362
   74CLA    CLA  218   4.919   1.484   6.967
   75CLA    CLA  219   2.298   2.748   0.443
   76CLA    CLA  220   5.396   3.186   0.904
   77CLA    CLA  221   3.167   1.837   2.895
   78CLA    CLA  222   5.116   8.197   1.346
   79CLA    CLA  223   2.356   3.754   4.319
   80CLA    CLA  224   2.341   0.454   5.291
   81CLA    CLA  225   5.777   3.101   6.180
   82CLA    CLA  226   3.250   5.120   6.921
   83CLA    CLA  227   1.150   5.213   3.319
   84CLA    CLA  228   3.320   7.424   7.568
   85CLA    CLA  229   8.309   4.231   3.050
   86CLA    CLA  230   8.120   6.539   3.792
   87CLA    CLA  231   1.102   4.985   6.673
   88CLA    CLA  232   3.497   0.961   5.608
   89CLA    CLA  233   4.381   4.992   8.398
   90CLA    CLA  234   2.768   2.016   5.984
   91CLA    CLA  235   3.333  -0.050   5.214
   92CLA    CLA  236   6.722   5.909   5.752
   93CLA    CLA  237   3.690   6.198   2.808
   94CLA    CLA  238   3.916   4.323   7.656
   95CLA    CLA  239   2.520   3.442   7.046
   96CLA    CLA  240  -0.006   4.943   2.382
   97CLA    CLA  241   6.471   6.952   3.503
   98CLA    CLA  242   7.125   7.336   2.729
   99CLA    CLA  243   5.936   2.291  -0.003
  100CLA    CLA  244   4.322   3.548   3.728
  101CLA    CLA  245   7.663   6.328   5.942
  102CLA    CLA  246   7.483   6.433   1.560
  103TIP3   OH2  247   2.959   0.726   2.335
  103TIP3    H1  248   2.955   0.756   2.242
  103TIP3    H2  249   3.044   0.767   2.362
  104TIP3   OH2  250   2.732   0.272   2.512
  104TIP3    H1  251   2.710   0.210   2.585
  104TIP3    H2  252   2.803   0.324   2.554
  105TIP3   OH2  253   3.073   0.499   2.028
  105TIP3    H1  254   3.064   0.429   1.960
  105TIP3    H2  255   3.159   0.475   2.065
  106TIP3   OH2  256   3.191  -0.149   2.408
  106TIP3    H1  257   3.262  -0.216   2.399
  106TIP3    H2  258   3.219  -0.078   2.348
  107TIP3   OH2  259   3.364  -0.360   2.423
  107TIP3    H1  260   3.329  -0.440   2.467
  107TIP3    H2  261   3.460  -0.370   2.436
  108TIP3   OH2  262   2.581   0.649   2.269
  108TIP3    H1  263   2.589   0.552   2.273
  108TIP3    H2  264   2.618   0.677   2.354
  109TIP3   OH2  265   3.004   0.454   2.366
  109TIP3    H1  266   2.983   0.405   2.286
  109TIP3    H2  267   2.988   0.547   2.340
  110TIP3   OH2  268   4.234  -0.177   1.483
  110TIP3    H1  269   4.276  -0.196   1.570
  110TIP3    H2  270   4.201  -0.265   1.458
  111TIP3   OH2  271   4.502   0.127   1.193
  111TIP3    H1  272   4.528   0.066   1.263
  111TIP3    H2  273   4.535   0.211   1.232
  112TIP3   OH2  274   4.177   0.585   1.178
  112TIP3    H1  275   4.234   0.519   1.132
  112TIP3    H2  276   4.176   0.552   1.269
  113TIP3   OH2  277   4.093   0.060   1.533
  113TIP3    H1  278   4.126  -0.026   1.500
  113TIP3    H2  279   4.179   0.101   1.553
  114TIP3   OH2  280   3.940  -0.031   1.750
  114TIP3    H1  281   3.879   0.028   1.799
  114TIP3    H2  282   3.993   0.033   1.698
  115TIP3   OH2  283   3.763   0.156   1.847
  115TIP3    H1  284   3.748   0.249   1.821
  115TIP3    H2  285   3.690   0.146   1.912
  116TIP3   OH2  286   4.607   0.363   1.326
  116TIP3    H1  287   4.519   0.360   1.371
  116TIP3    H2  288   4.601   0.451   1.282
  117TIP3   OH2  289   4.310   0.406   1.020
  117TIP3    H1  290   4.371   0.333   1.005
  117TIP3    H2  291   4.352   0.477   0.965
  118TIP3   OH2  292   4.832   0.311   1.705
  118TIP3    H1  293   4.827   0.230   1.648
  118TIP3    H2  294   4.814   0.381   1.638
  119TIP3   OH2  295   4.722  -0.211   1.842
  119TIP3    H1  296   4.700  -0.126   1.883
  119TIP3    H2  297   4.663  -0.212   1.765
  120TIP3   OH2  298   3.883   0.219   1.434
  120TIP3    H1  299   3.822   0.144   1.450
  120TIP3    H2  300   3.968   0.179   1.463
  121TIP3   OH2  301   4.372   0.362   1.454
  121TIP3    H1  302   4.353   0.444   1.503
  121TIP3    H2  303   4.348   0.291   1.517
  122TIP3   OH2  304   3.976   0.278   1.998
  122TIP3    H1  305   3.918   0.341   2.047
  122TIP3    H2  306   3.909   0.228   1.948
  123TIP3   OH2  307   3.722  -0.148   2.082
  123TIP3    H1  308   3.733  -0.073   2.144
  123TIP3    H2  309   3.629  -0.166   2.093
  124TIP3   OH2  310   4.091   0.251   1.114
  124TIP3    H1  311   4.165   0.313   1.100
  124TIP3    H2  312   4.013   0.307   1.108
  125TIP3   OH2  313   3.769   0.447   2.092
  125TIP3    H1  314   3.744   0.448   1.997
  125TIP3    H2  315   3.684   0.425   2.135
  126TIP3   OH2  316   5.063   0.621   1.717
  126TIP3    H1  317   5.069   0.526   1.737
  126TIP3    H2  318   4.982   0.645   1.766
  127TIP3   OH2  319   4.176   0.409   1.858
  127TIP3    H1  320   4.173   0.502   1.889
  127TIP3    H2  321   4.102   0.370   1.910
  128TIP3   OH2  322   4.220   0.483   0.749
  128TIP3    H1  323   4.131   0.445   0.736
  128TIP3    H2  324   4.277   0.405   0.752
  129TIP3   OH2  325   4.961  -0.258   1.988
  129TIP3    H1  326   4.878  -0.235   1.941
  129TIP3    H2  327   4.965  -0.354   1.974
  130TIP3   OH2  328   3.569   0.161   2.036
  130TIP3    H1  329   3.609   0.140   2.122
  130TIP3    H2  330   3.478   0.128   2.049
  131TIP3   OH2  331   4.708  -0.474   1.928
  131TIP3    H1  332   4.705  -0.447   2.020
  131TIP3    H2  333   4.711  -0.388   1.882
  132TIP3   OH2  334   4.445  -0.217   2.142
  132TIP3    H1  335   4.421  -0.302   2.186
  132TIP3    H2  336   4.541  -0.213   2.163
  133TIP3   OH2  337   4.405  -0.249   1.709
  133TIP3    H1  338   4.475  -0.302   1.668
  133TIP3    H2  339   4.396  -0.294   1.795
  134TIP3   OH2  340   4.759   0.975   1.818
  134TIP3    H1  341   4.752   0.995   1.723
  134TIP3    H2  342   4.841   1.022   1.841
  135TIP3   OH2  343   3.710   0.071   2.260
  135TIP3    H1  344   3.786   0.107   2.310
  135TIP3    H2  345   3.641   0.069   2.328
  136TIP3   OH2  346   4.149  -0.586   1.854
  136TIP3    H1  347   4.099  -0.561   1.774
  136TIP3    H2  348   4.218  -0.518   1.857
  137TIP3   OH2  349   4.804   0.104   1.537
  137TIP3    H1  350   4.845   0.155   1.463
  137TIP3    H2  351   4.712   0.093   1.507
  138TIP3   OH2  352   4.295   0.149   1.877
  138TIP3    H1  353   4.314   0.117   1.966
  138TIP3    H2  354   4.257   0.237   1.893
  139TIP3   OH2  355   4.194  -0.116   2.193
  139TIP3    H1  356   4.138  -0.165   2.130
  139TIP3    H2  357   4.283  -0.144   2.164
  140TIP3   OH2  358   4.454   0.400   1.776
  140TIP3    H1  359   4.358   0.401   1.790
  140TIP3    H2  360   4.483   0.454   1.852
  141TIP3   OH2  361   5.089   0.340   1.775
  141TIP3    H1  362   4.991   0.336   1.767
  141TIP3    H2  363   5.117   0.310   1.685
  142TIP3   OH2  364   4.572  -0.008   1.446
  142TIP3    H1  365   4.491  -0.043   1.487
  142TIP3    H2  366   4.620  -0.089   1.427
  143TIP3   OH2  367   3.960   0.502   1.650
  143TIP3    H1  368   4.004   0.572   1.597
  143TIP3    H2  369   4.036   0.464   1.697
  144TIP3   OH2  370   4.347   0.127   1.614
  144TIP3    H1  371   4.327   0.127   1.710
  144TIP3    H2  372   4.443   0.114   1.616
  145TIP3   OH2  373   4.595   0.662   1.659
  145TIP3    H1  374   4.514   0.607   1.651
  145TIP3    H2  375   4.580   0.727   1.587
  146TIP3   OH2  376   3.447   0.389   1.798
  146TIP3    H1  377   3.451   0.296   1.822
  146TIP3    H2  378   3.440   0.431   1.885
  147TIP3   OH2  379   4.379  -0.412   1.930
  147TIP3    H1  380   4.357  -0.348   2.000
  147TIP3    H2  381   4.421  -0.481   1.983
  148TIP3   OH2  382   4.615   0.631   1.251
  148TIP3    H1  383   4.573   0.683   1.179
  148TIP3    H2  384   4.709   0.655   1.234
  149TIP3   OH2  385   3.392   0.668   2.241
  149TIP3    H1  386   3.480   0.679   2.283
  149TIP3    H2  387   3.388   0.571   2.239
  150TIP3   OH2  388   3.866   0.631   2.277
  150TIP3    H1  389   3.960   0.613   2.285
  150TIP3    H2  390   3.841   0.569   2.206
  151TIP3   OH2  391   4.510   0.535   2.009
  151TIP3    H1  392   4.499   0.466   2.079
  151TIP3    H2  393   4.585   0.587   2.044
  152TIP3   OH2  394   4.125   0.159   2.206
  152TIP3    H1  395   4.082   0.174   2.120
  152TIP3    H2  396   4.154   0.065   2.200
  153TIP3   OH2  397   4.614   0.166   1.805
  153TIP3    H1  398   4.689   0.222   1.778
  153TIP3    H2  399   4.542   0.231   1.802
  154TIP3   OH2  400   3.649  -0.239   2.420
  154TIP3    H1  401   3.744  -0.252   2.409
  154TIP3    H2  402   3.647  -0.167   2.485
  155TIP3   OH2  403   3.961  -0.282   2.069
  155TIP3    H1  404   3.877  -0.232   2.066
  155TIP3    H2  405   4.009  -0.249   1.990
  156TIP3   OH2  406   4.493   0.097   2.211
  156TIP3    H1  407   4.567   0.063   2.158
  156TIP3    H2  408   4.480   0.024   2.275
  157TIP3   OH2  409   4.059  -0.493   2.198
  157TIP3    H1  410   4.006  -0.541   2.133
  157TIP3    H2  411   4.037  -0.402   2.166
  158TIP3   OH2  412   4.134  -0.178   1.889
  158TIP3    H1  413   4.195  -0.208   1.820
  158TIP3    H2  414   4.071  -0.125   1.836
  159TIP3   OH2  415   4.699  -0.227   2.240
  159TIP3    H1  416   4.731  -0.285   2.313
  159TIP3    H2  417   4.778  -0.177   2.218
  160TIP3   OH2  418   4.749   0.033   2.001
  160TIP3    H1  419   4.692   0.082   1.938
  160TIP3    H2  420   4.837   0.047   1.959
  161TIP3   OH2  421   3.942  -0.376   2.432
  161TIP3    H1  422   3.894  -0.455   2.457
  161TIP3    H2  423   4.003  -0.410   2.365
  162TIP3   OH2  424   4.341  -0.448   2.229
  162TIP3    H1  425   4.370  -0.478   2.317
  162TIP3    H2  426   4.245  -0.462   2.235
  163TIP3   OH2  427   4.868   0.730   1.226
  163TIP3    H1  428   4.897   0.772   1.309
  163TIP3    H2  429   4.921   0.776   1.160
  164TIP3   OH2  430   4.899   0.751   1.505
  164TIP3    H1  431   4.856   0.664   1.490
  164TIP3    H2  432   4.975   0.723   1.557
  165TIP3   OH2  433   4.945   0.425   2.068
  165TIP3    H1  434   4.872   0.433   2.133
  165TIP3    H2  435   4.986   0.513   2.072
  166TIP3   OH2  436   4.957   0.224   1.351
  166TIP3    H1  437   5.022   0.183   1.290
  166TIP3    H2  438   4.941   0.308   1.302
  167TIP3   OH2  439   4.771   0.499   1.514
  167TIP3    H1  440   4.700   0.546   1.561
  167TIP3    H2  441   4.721   0.453   1.443
  168TIP3   OH2  442   5.000   0.081   1.891
  168TIP3    H1  443   5.074   0.017   1.884
  168TIP3    H2  444   5.029   0.150   1.829
  169TIP3   OH2  445   5.189  -0.121   1.930
  169TIP3    H1  446   5.114  -0.178   1.957
  169TIP3    H2  447   5.265  -0.181   1.930
  170TIP3   OH2  448   3.555  -0.587   2.483
  170TIP3    H1  449   3.627  -0.590   2.418
  170TIP3    H2  450   3.597  -0.625   2.562
  171TIP3   OH2  451   4.464   0.592   0.891
  171TIP3    H1  452   4.534   0.540   0.846
  171TIP3    H2  453   4.512   0.670   0.921
  172TIP3   OH2  454   3.523   0.402   2.253
  172TIP3    H1  455   3.468   0.320   2.259
  172TIP3    H2  456   3.561   0.398   2.341
  173TIP3   OH2  457   3.746   0.426   1.809
  173TIP3    H1  458   3.674   0.479   1.770
  173TIP3    H2  459   3.821   0.460   1.756
  174TIP3   OH2  460   4.175   0.675   1.938
  174TIP3    H1  461   4.217   0.676   2.027
  174TIP3    H2  462   4.240   0.727   1.886
  175TIP3   OH2  463   4.354   0.827   1.798
  175TIP3    H1  464   4.425   0.779   1.754
  175TIP3    H2  465   4.406   0.885   1.859
  176TIP3   OH2  466   3.420   0.702   1.821
  176TIP3    H1  467   3.326   0.722   1.801
  176TIP3    H2  468   3.424   0.732   1.912
  177TIP3   OH2  469   3.651   0.667   1.682
  177TIP3    H1  470   3.565   0.678   1.728
  177TIP3    H2  471   3.630   0.701   1.593
  178TIP3   OH2  472   4.072   0.696   1.478
  178TIP3    H1  473   4.003   0.715   1.412
  178TIP3    H2  474   4.082   0.784   1.520
  179TIP3   OH2  475   4.339   0.632   1.530
  179TIP3    H1  476   4.245   0.653   1.512
  179TIP3    H2  477   4.383   0.707   1.487
  180TIP3   OH2  478   4.545   0.824   1.444
  180TIP3    H1  479   4.530   0.910   1.399
  180TIP3    H2  480   4.571   0.767   1.369
  181TIP3   OH2  481   3.350   0.494   1.566
  181TIP3    H1  482   3.384   0.466   1.654
  181TIP3    H2  483   3.342   0.410   1.519
  182TIP3   OH2  484   3.784   0.474   1.427
  182TIP3    H1  485   3.819   0.385   1.407
  182TIP3    H2  486   3.827   0.490   1.513
  183TIP3   OH2  487   4.820   0.704   1.828
  183TIP3    H1  488   4.744   0.672   1.774
  183TIP3    H2  489   4.802   0.800   1.826
  184TIP3   OH2  490   5.540   0.419   1.311
  184TIP3    H1  491   5.530   0.515   1.301
  184TIP3    H2  492   5.477   0.402   1.384
  185TIP3   OH2  493   5.749   0.524   1.496
  185TIP3    H1  494   5.690   0.596   1.527
  185TIP3    H2  495   5.687   0.466   1.450
  186TIP3   OH2  496   5.559   0.715   1.571
  186TIP3    H1  497   5.526   0.716   1.479
  186TIP3    H2  498   5.478   0.692   1.622
  187TIP3   OH2  499   5.158   0.247   1.533
  187TIP3    H1  500   5.084   0.226   1.473
  187TIP3    H2  501   5.185   0.158   1.567
  188TIP3   OH2  502   4.996   0.431   1.175
  188TIP3    H1  503   5.092   0.434   1.164
  188TIP3    H2  504   4.978   0.518   1.214
  189TIP3   OH2  505   5.933   0.721   1.306
  189TIP3    H1  506   5.959   0.808   1.344
  189TIP3    H2  507   5.951   0.665   1.384
  190TIP3   OH2  508   5.353   0.433   1.507
  190TIP3    H1  509   5.408   0.416   1.587
  190TIP3    H2  510   5.286   0.362   1.518
  191TIP3   OH2  511   6.536   1.252   1.324
  191TIP3    H1  512   6.524   1.247   1.228
  191TIP3    H2  513   6.633   1.250   1.331
  192TIP3   OH2  514   5.496   0.378   1.734
  192TIP3    H1  515   5.588   0.372   1.763
  192TIP3    H2  516   5.449   0.354   1.815
  193TIP3   OH2  517   5.229   0.033   1.680
  193TIP3    H1  518   5.295   0.048   1.749
  193TIP3    H2  519   5.221  -0.063   1.679
  194TIP3   OH2  520   5.722   0.787   1.154
  194TIP3    H1  521   5.755   0.846   1.082
  194TIP3    H2  522   5.803   0.778   1.208
  195TIP3   OH2  523   5.204   0.604   1.306
  195TIP3    H1  524   5.253   0.541   1.363
  195TIP3    H2  525   5.229   0.688   1.348
  196TIP3   OH2  526   5.183   0.919   1.729
  196TIP3    H1  527   5.273   0.915   1.768
  196TIP3    H2  528   5.168   0.823   1.716
  197TIP3   OH2  529   5.660   0.884   1.766
  197TIP3    H1  530   5.756   0.871   1.770
  197TIP3    H2  531   5.637   0.827   1.689
  198TIP3   OH2  532   6.259   0.824   1.511
  198TIP3    H1  533   6.260   0.742   1.564
  198TIP3    H2  534   6.349   0.823   1.474
  199TIP3   OH2  535   5.307   0.340   1.936
  199TIP3    H1  536   5.331   0.245   1.928
  199TIP3    H2  537   5.224   0.341   1.884
  200TIP3   OH2  538   5.910   0.418   1.712
  200TIP3    H1  539   5.899   0.460   1.624
  200TIP3    H2  540   5.931   0.326   1.686
  201TIP3   OH2  541   5.407   0.090   1.909
  201TIP3    H1  542   5.424  -0.006   1.903
  201TIP3    H2  543   5.453   0.113   1.993
  202TIP3   OH2  544   4.760   0.722   0.777
  202TIP3    H1  545   4.732   0.665   0.703
  202TIP3    H2  546   4.788   0.657   0.845
  203TIP3   OH2  547   4.888   0.583   0.963
  203TIP3    H1  548   4.902   0.491   0.993
  203TIP3    H2  549   4.952   0.631   1.019
  204TIP3   OH2  550   5.342   0.671   1.742
  204TIP3    H1  551   5.259   0.625   1.721
  204TIP3    H2  552   5.370   0.628   1.823
  205TIP3   OH2  553   5.515   0.692   1.291
  205TIP3    H1  554   5.468   0.767   1.249
  205TIP3    H2  555   5.602   0.713   1.250
  206TIP3   OH2  556   5.971   0.958   1.441
  206TIP3    H1  557   6.018   0.946   1.525
  206TIP3    H2  558   6.038   1.006   1.388
  207TIP3   OH2  559   6.134   1.102   1.277
  207TIP3    H1  560   6.203   1.053   1.227
  207TIP3    H2  561   6.191   1.152   1.340
  208TIP3   OH2  562   5.196   0.937   1.316
  208TIP3    H1  563   5.108   0.973   1.293
  208TIP3    H2  564   5.216   0.990   1.395
  209TIP3   OH2  565   5.431   0.922   1.169
  209TIP3    H1  566   5.343   0.940   1.208
  209TIP3    H2  567   5.422   0.960   1.079
  210TIP3   OH2  568   5.826   0.946   0.957
  210TIP3    H1  569   5.790   1.001   0.887
  210TIP3    H2  570   5.878   1.011   1.008
  211TIP3   OH2  571   5.107   0.735   1.073
  211TIP3    H1  572   5.149   0.710   1.158
  211TIP3    H2  573   5.174   0.708   1.009
  212TIP3   OH2  574   0.826   2.243   2.472
  212TIP3    H1  575   0.779   2.291   2.402
  212TIP3    H2  576   0.880   2.313   2.513
  213TIP3   OH2  577   1.031   1.722   2.755
  213TIP3    H1  578   0.980   1.710   2.838
  213TIP3    H2  579   1.059   1.816   2.764
  214TIP3   OH2  580   2.318   1.689   1.375
  214TIP3    H1  581   2.353   1.645   1.454
  214TIP3    H2  582   2.364   1.774   1.379
  215TIP3   OH2  583   2.014   2.101   1.330
  215TIP3    H1  584   2.087   2.054   1.287
  215TIP3    H2  585   2.041   2.101   1.422
  216TIP3   OH2  586   2.992   0.946   1.725
  216TIP3    H1  587   2.996   1.035   1.765
  216TIP3    H2  588   3.004   0.965   1.631
  217TIP3   OH2  589   3.035   1.173   1.867
  217TIP3    H1  590   2.949   1.215   1.847
  217TIP3    H2  591   3.045   1.194   1.961
  218TIP3   OH2  592   2.443   1.924   1.490
  218TIP3    H1  593   2.349   1.918   1.520
  218TIP3    H2  594   2.440   2.003   1.433
  219TIP3   OH2  595   2.672   1.844   1.833
  219TIP3    H1  596   2.672   1.765   1.774
  219TIP3    H2  597   2.658   1.917   1.769
  220TIP3   OH2  598   2.876   1.470   1.667
  220TIP3    H1  599   2.794   1.523   1.680
  220TIP3    H2  600   2.900   1.497   1.577
  221TIP3   OH2  601   2.565   1.359   1.976
  221TIP3    H1  602   2.559   1.442   2.026
  221TIP3    H2  603   2.475   1.357   1.936
  222TIP3   OH2  604   2.194   1.922   1.602
  222TIP3    H1  605   2.194   2.006   1.651
  222TIP3    H2  606   2.205   1.855   1.673
  223TIP3   OH2  607   1.755   1.805   2.144
  223TIP3    H1  608   1.751   1.877   2.210
  223TIP3    H2  609   1.721   1.854   2.066
  224TIP3   OH2  610   1.621   2.012   2.252
  224TIP3    H1  611   1.591   2.021   2.160
  224TIP3    H2  612   1.537   1.995   2.301
  225TIP3   OH2  613   2.913   2.180   1.876
  225TIP3    H1  614   2.911   2.084   1.890
  225TIP3    H2  615   2.829   2.207   1.918
  226TIP3   OH2  616   2.023   1.974   2.006
  226TIP3    H1  617   2.026   2.068   2.036
  226TIP3    H2  618   1.952   1.939   2.061
  227TIP3   OH2  619   2.800   1.310   2.146
  227TIP3    H1  620   2.723   1.321   2.086
  227TIP3    H2  621   2.814   1.213   2.139
  228TIP3   OH2  622   2.581   1.091   2.069
  228TIP3    H1  623   2.523   1.080   2.148
  228TIP3    H2  624   2.554   1.178   2.034
  229TIP3   OH2  625   2.282   1.317   2.315
  229TIP3    H1  626   2.265   1.239   2.372
  229TIP3    H2  627   2.379   1.327   2.329
  230TIP3   OH2  628   2.312   1.312   1.898
  230TIP3    H1  629   2.324   1.247   1.828
  230TIP3    H2  630   2.258   1.262   1.963
  231TIP3   OH2  631   2.603   2.532   1.971
  231TIP3    H1  632   2.603   2.558   1.877
  231TIP3    H2  633   2.682   2.580   2.004
  232TIP3   OH2  634   1.587   1.650   2.383
  232TIP3    H1  635   1.629   1.658   2.471
  232TIP3    H2  636   1.505   1.602   2.410
  233TIP3   OH2  637   2.658   1.631   1.671
  233TIP3    H1  638   2.676   1.675   1.585
  233TIP3    H2  639   2.566   1.601   1.661
  234TIP3   OH2  640   2.101   1.701   2.059
  234TIP3    H1  641   2.184   1.686   2.108
  234TIP3    H2  642   2.110   1.793   2.030
  235TIP3   OH2  643   2.038   1.435   2.341
  235TIP3    H1  644   1.990   1.381   2.278
  235TIP3    H2  645   2.131   1.407   2.321
  236TIP3   OH2  646   2.293   1.957   1.930
  236TIP3    H1  647   2.197   1.968   1.939
  236TIP3    H2  648   2.325   2.012   2.005
  237TIP3   OH2  649   2.924   1.889   1.916
  237TIP3    H1  650   2.826   1.886   1.908
  237TIP3    H2  651   2.949   1.860   1.825
  238TIP3   OH2  652   2.408   1.529   1.649
  238TIP3    H1  653   2.322   1.502   1.609
  238TIP3    H2  654   2.455   1.443   1.642
  239TIP3   OH2  655   1.826   2.056   1.801
  239TIP3    H1  656   1.850   2.130   1.742
  239TIP3    H2  657   1.910   2.040   1.848
  240TIP3   OH2  658   2.210   1.698   1.768
  240TIP3    H1  659   2.190   1.665   1.856
  240TIP3    H2  660   2.288   1.645   1.745
  241TIP3   OH2  661   2.433   2.219   1.814
  241TIP3    H1  662   2.352   2.168   1.797
  241TIP3    H2  663   2.425   2.288   1.744
  242TIP3   OH2  664   2.202   1.164   2.100
  242TIP3    H1  665   2.236   1.220   2.174
  242TIP3    H2  666   2.258   1.085   2.109
  243TIP3   OH2  667   2.844   1.039   2.057
  243TIP3    H1  668   2.746   1.041   2.068
  243TIP3    H2  669   2.851   1.029   1.961
  244TIP3   OH2  670   2.456   2.188   1.396
  244TIP3    H1  671   2.407   2.244   1.334
  244TIP3    H2  672   2.540   2.233   1.411
  245TIP3   OH2  673   1.233   2.243   2.376
  245TIP3    H1  674   1.316   2.235   2.429
  245TIP3    H2  675   1.198   2.153   2.378
  246TIP3   OH2  676   1.711   2.182   2.446
  246TIP3    H1  677   1.807   2.183   2.435
  246TIP3    H2  678   1.684   2.129   2.367
  247TIP3   OH2  679   2.345   2.094   2.166
  247TIP3    H1  680   2.342   2.024   2.234
  247TIP3    H2  681   2.425   2.145   2.191
  248TIP3   OH2  682   1.376   1.632   2.596
  248TIP3    H1  683   1.408   1.541   2.576
  248TIP3    H2  684   1.280   1.617   2.588
  249TIP3   OH2  685   1.963   1.709   2.342
  249TIP3    H1  686   1.951   1.722   2.246
  249TIP3    H2  687   2.006   1.621   2.341
  250TIP3   OH2  688   2.455   1.733   1.968
  250TIP3    H1  689   2.537   1.767   1.925
  250TIP3    H2  690   2.393   1.804   1.942
  251TIP3   OH2  691   1.516   1.394   2.570
  251TIP3    H1  692   1.517   1.299   2.553
  251TIP3    H2  693   1.530   1.398   2.667
  252TIP3   OH2  694   2.330   1.649   2.360
  252TIP3    H1  695   2.410   1.630   2.310
  252TIP3    H2  696   2.334   1.582   2.431
  253TIP3   OH2  697   2.548   1.328   2.416
  253TIP3    H1  698   2.592   1.242   2.417
  253TIP3    H2  699   2.618   1.385   2.380
  254TIP3   OH2  700   2.586   1.584   2.152
  254TIP3    H1  701   2.531   1.639   2.092
  254TIP3    H2  702   2.675   1.601   2.113
  255TIP3   OH2  703   1.828   1.140   2.590
  255TIP3    H1  704   1.754   1.113   2.648
  255TIP3    H2  705   1.828   1.067   2.525
  256TIP3   OH2  706   2.197   1.091   2.451
  256TIP3    H1  707   2.206   1.084   2.548
  256TIP3    H2  708   2.113   1.047   2.436
  257TIP3   OH2  709   2.437   1.053   2.298
  257TIP3    H1  710   2.367   1.039   2.364
  257TIP3    H2  711   2.516   1.016   2.344
  258TIP3   OH2  712   2.658   0.984   2.449
  258TIP3    H1  713   2.676   0.889   2.466
  258TIP3    H2  714   2.659   1.021   2.540
  259TIP3   OH2  715   2.244   0.809   2.642
  259TIP3    H1  716   2.224   0.729   2.588
  259TIP3    H2  717   2.158   0.854   2.650
  260TIP3   OH2  718   2.724   2.307   1.650
  260TIP3    H1  719   2.694   2.214   1.647
  260TIP3    H2  720   2.813   2.295   1.687
  261TIP3   OH2  721   2.783   1.983   2.216
  261TIP3    H1  722   2.712   1.993   2.282
  261TIP3    H2  723   2.827   2.071   2.220
  262TIP3   OH2  724   2.778   1.754   1.463
  262TIP3    H1  725   2.833   1.689   1.416
  262TIP3    H2  726   2.786   1.834   1.407
  263TIP3   OH2  727   2.613   2.054   1.667
  263TIP3    H1  728   2.542   2.093   1.721
  263TIP3    H2  729   2.563   2.004   1.599
  264TIP3   OH2  730   2.831   1.644   2.043
  264TIP3    H1  731   2.902   1.577   2.034
  264TIP3    H2  732   2.860   1.714   1.982
  265TIP3   OH2  733   3.015   1.448   2.059
  265TIP3    H1  734   2.941   1.397   2.098
  265TIP3    H2  735   3.090   1.388   2.079
  266TIP3   OH2  736   2.753   1.066   1.584
  266TIP3    H1  737   2.824   1.122   1.546
  266TIP3    H2  738   2.715   1.130   1.647
  267TIP3   OH2  739   2.778   1.259   1.819
  267TIP3    H1  740   2.694   1.292   1.856
  267TIP3    H2  741   2.802   1.333   1.759
  268TIP3   OH2  742   3.212   0.829   2.374
  268TIP3    H1  743   3.279   0.774   2.327
  268TIP3    H2  744   3.188   0.894   2.303
  269TIP3   OH2  745   3.097   0.986   2.178
  269TIP3    H1  746   3.011   1.029   2.197
  269TIP3    H2  747   3.066   0.918   2.115
  270TIP3   OH2  748   2.258   2.213   0.968
  270TIP3    H1  749   2.307   2.154   0.907
  270TIP3    H2  750   2.322   2.235   1.036
  271TIP3   OH2  751   1.407   1.952   2.420
  271TIP3    H1  752   1.339   1.890   2.393
  271TIP3    H2  753   1.394   1.957   2.516
  272TIP3   OH2  754   1.620   1.967   1.969
  272TIP3    H1  755   1.526   1.985   1.947
  272TIP3    H2  756   1.667   2.034   1.914
  273TIP3   OH2  757   2.018   2.234   2.086
  273TIP3    H1  758   2.058   2.238   2.175
  273TIP3    H2  759   2.083   2.286   2.034
  274TIP3   OH2  760   2.199   2.382   1.949
  274TIP3    H1  761   2.274   2.336   1.910
  274TIP3    H2  762   2.247   2.443   2.010
  275TIP3   OH2  763   2.997   0.758   2.060
  275TIP3    H1  764   2.908   0.757   2.021
  275TIP3    H2  765   3.025   0.664   2.055
  276TIP3   OH2  766   1.277   2.249   1.989
  276TIP3    H1  767   1.211   2.264   1.919
  276TIP3    H2  768   1.240   2.296   2.065
  277TIP3   OH2  769   1.490   2.236   1.818
  277TIP3    H1  770   1.426   2.239   1.892
  277TIP3    H2  771   1.430   2.236   1.743
  278TIP3   OH2  772   1.918   2.252   1.632
  278TIP3    H1  773   1.848   2.269   1.565
  278TIP3    H2  774   1.927   2.342   1.672
  279TIP3   OH2  775   2.183   2.192   1.680
  279TIP3    H1  776   2.088   2.207   1.662
  279TIP3    H2  777   2.220   2.277   1.653
  280TIP3   OH2  778   2.381   2.391   1.605
  280TIP3    H1  779   2.366   2.480   1.564
  280TIP3    H2  780   2.388   2.335   1.527
  281TIP3   OH2  781   2.732   0.721   2.496
  281TIP3    H1  782   2.759   0.686   2.583
  281TIP3    H2  783   2.814   0.711   2.443
  282TIP3   OH2  784   2.664   2.263   1.975
  282TIP3    H1  785   2.586   2.233   1.923
  282TIP3    H2  786   2.648   2.359   1.976
  283TIP3   OH2  787   3.928   1.631   0.742
  283TIP3    H1  788   3.901   1.723   0.723
  283TIP3    H2  789   3.855   1.583   0.700
  284TIP3   OH2  790   3.925   1.637   1.123
  284TIP3    H1  791   3.963   1.612   1.209
  284TIP3    H2  792   3.897   1.551   1.088
  285TIP3   OH2  793   3.230   1.530   1.483
  285TIP3    H1  794   3.262   1.463   1.547
  285TIP3    H2  795   3.306   1.589   1.478
  286TIP3   OH2  796   4.172   1.935   0.803
  286TIP3    H1  797   4.165   1.869   0.873
  286TIP3    H2  798   4.205   2.013   0.852
  287TIP3   OH2  799   3.203   1.948   1.211
  287TIP3    H1  800   3.204   1.851   1.222
  287TIP3    H2  801   3.299   1.963   1.204
  288TIP3   OH2  802   3.037   1.468   1.163
  288TIP3    H1  803   3.057   1.376   1.193
  288TIP3    H2  804   2.948   1.455   1.123
  289TIP3   OH2  805   3.824   2.400   0.820
  289TIP3    H1  806   3.866   2.330   0.767
  289TIP3    H2  807   3.820   2.359   0.907
  290TIP3   OH2  808   3.730   1.859   1.168
  290TIP3    H1  809   3.775   1.782   1.128
  290TIP3    H2  810   3.810   1.909   1.194
  291TIP3   OH2  811   4.742   1.180   1.166
  291TIP3    H1  812   4.772   1.263   1.207
  291TIP3    H2  813   4.764   1.196   1.072
  292TIP3   OH2  814   4.138   1.360   1.201
  292TIP3    H1  815   4.183   1.276   1.222
  292TIP3    H2  816   4.111   1.343   1.109
  293TIP3   OH2  817   3.476   1.000   1.194
  293TIP3    H1  818   3.446   1.039   1.110
  293TIP3    H2  819   3.432   0.913   1.191
  294TIP3   OH2  820   4.173   1.116   0.788
  294TIP3    H1  821   4.245   1.100   0.854
  294TIP3    H2  822   4.227   1.149   0.713
  295TIP3   OH2  823   3.109   1.221   1.261
  295TIP3    H1  824   3.192   1.199   1.308
  295TIP3    H2  825   3.087   1.135   1.220
  296TIP3   OH2  826   3.570   1.432   1.068
  296TIP3    H1  827   3.664   1.424   1.096
  296TIP3    H2  828   3.565   1.351   1.015
  297TIP3   OH2  829   4.816   1.386   1.340
  297TIP3    H1  830   4.734   1.435   1.318
  297TIP3    H2  831   4.840   1.428   1.425
  298TIP3   OH2  832   3.479   1.013   1.602
  298TIP3    H1  833   3.418   1.056   1.540
  298TIP3    H2  834   3.428   1.021   1.686
  299TIP3   OH2  835   3.804   1.845   0.613
  299TIP3    H1  836   3.798   1.853   0.516
  299TIP3    H2  837   3.772   1.934   0.641
  300TIP3   OH2  838   3.582   1.782   1.396
  300TIP3    H1  839   3.520   1.849   1.432
  300TIP3    H2  840   3.624   1.831   1.322
  301TIP3   OH2  841   4.378   1.123   0.961
  301TIP3    H1  842   4.380   1.063   1.037
  301TIP3    H2  843   4.437   1.195   0.989
  302TIP3   OH2  844   3.347   1.137   1.388
  302TIP3    H1  845   3.407   1.210   1.416
  302TIP3    H2  846   3.409   1.088   1.328
  303TIP3   OH2  847   3.410   1.976   1.492
  303TIP3    H1  848   3.386   2.063   1.455
  303TIP3    H2  849   3.331   1.960   1.549
  304TIP3   OH2  850   4.243   2.180   0.968
  304TIP3    H1  851   4.152   2.173   1.006
  304TIP3    H2  852   4.237   2.266   0.922
  305TIP3   OH2  853   4.536   1.079   1.333
  305TIP3    H1  854   4.449   1.106   1.300
  305TIP3    H2  855   4.596   1.112   1.262
  306TIP3   OH2  856   3.832   0.725   1.316
  306TIP3    H1  857   3.815   0.631   1.341
  306TIP3    H2  858   3.757   0.767   1.364
  307TIP3   OH2  859   3.942   2.227   0.640
  307TIP3    H1  860   3.991   2.144   0.620
  307TIP3    H2  861   4.006   2.292   0.602
  308TIP3   OH2  862   4.077   2.006   0.553
  308TIP3    H1  863   4.076   1.927   0.496
  308TIP3    H2  864   4.118   1.972   0.636
  309TIP3   OH2  865   4.469   2.091   1.314
  309TIP3    H1  866   4.460   2.016   1.252
  309TIP3    H2  867   4.453   2.167   1.254
  310TIP3   OH2  868   3.764   1.478   0.567
  310TIP3    H1  869   3.690   1.534   0.538
  310TIP3    H2  870   3.813   1.464   0.483
  311TIP3   OH2  871   4.665   1.728   1.158
  311TIP3    H1  872   4.583   1.782   1.161
  311TIP3    H2  873   4.697   1.753   1.068
  312TIP3   OH2  874   4.114   1.573   0.548
  312TIP3    H1  875   4.060   1.595   0.627
  312TIP3    H2  876   4.199   1.546   0.590
  313TIP3   OH2  877   4.344   1.608   1.455
  313TIP3    H1  878   4.342   1.692   1.505
  313TIP3    H2  879   4.258   1.614   1.407
  314TIP3   OH2  880   3.349   1.513   0.920
  314TIP3    H1  881   3.265   1.516   0.970
  314TIP3    H2  882   3.417   1.518   0.993
  315TIP3   OH2  883   3.471   1.977   1.109
  315TIP3    H1  884   3.454   1.945   1.020
  315TIP3    H2  885   3.561   1.944   1.127
  316TIP3   OH2  886   3.493   1.535   1.320
  316TIP3    H1  887   3.525   1.524   1.229
  316TIP3    H2  888   3.522   1.627   1.341
  317TIP3   OH2  889   4.000   2.176   1.089
  317TIP3    H1  890   3.990   2.258   1.142
  317TIP3    H2  891   3.987   2.105   1.154
  318TIP3   OH2  892   3.617   2.095   1.637
  318TIP3    H1  893   3.556   2.157   1.683
  318TIP3    H2  894   3.552   2.041   1.587
  319TIP3   OH2  895   3.965   1.426   0.373
  319TIP3    H1  896   4.020   1.489   0.424
  319TIP3    H2  897   3.987   1.451   0.280
  320TIP3   OH2  898   3.370   1.649   1.739
  320TIP3    H1  899   3.376   1.737   1.781
  320TIP3    H2  900   3.275   1.630   1.752
  321TIP3   OH2  901   3.693   2.107   0.654
  321TIP3    H1  902   3.775   2.160   0.658
  321TIP3    H2  903   3.636   2.161   0.597
  322TIP3   OH2  904   3.410   2.262   1.723
  322TIP3    H1  905   3.374   2.264   1.632
  322TIP3    H2  906   3.330   2.241   1.776
  323TIP3   OH2  907   4.264   2.040  -0.040
  323TIP3    H1  908   4.278   2.136  -0.057
  323TIP3    H2  909   4.355   2.006  -0.048
  324TIP3   OH2  910   2.987   1.792   1.671
  324TIP3    H1  911   2.925   1.767   1.600
  324TIP3    H2  912   3.026   1.706   1.697
  325TIP3   OH2  913   2.850   1.985   1.326
  325TIP3    H1  914   2.928   1.970   1.272
  325TIP3    H2  915   2.878   2.060   1.380
  326TIP3   OH2  916   4.709   2.439   1.363
  326TIP3    H1  917   4.706   2.342   1.373
  326TIP3    H2  918   4.625   2.465   1.406
  327TIP3   OH2  919   3.814   2.223   1.494
  327TIP3    H1  920   3.812   2.316   1.526
  327TIP3    H2  921   3.743   2.183   1.548
  328TIP3   OH2  922   3.573   2.351   0.447
  328TIP3    H1  923   3.535   2.337   0.358
  328TIP3    H2  924   3.544   2.441   0.469
  329TIP3   OH2  925   3.021   2.217   0.827
  329TIP3    H1  926   3.065   2.200   0.913
  329TIP3    H2  927   2.967   2.136   0.816
  330TIP3   OH2  928   3.767   2.247   0.095
  330TIP3    H1  929   3.826   2.189   0.043
  330TIP3    H2  930   3.814   2.253   0.181
  331TIP3   OH2  931   3.829   2.306   0.363
  331TIP3    H1  932   3.739   2.311   0.402
  331TIP3    H2  933   3.879   2.265   0.435
  332TIP3   OH2  934   4.596   1.565   1.637
  332TIP3    H1  935   4.517   1.582   1.584
  332TIP3    H2  936   4.611   1.470   1.621
  333TIP3   OH2  937   3.193   1.975   1.658
  333TIP3    H1  938   3.243   1.960   1.741
  333TIP3    H2  939   3.119   1.913   1.667
  334TIP3   OH2  940   3.604   0.813   1.449
  334TIP3    H1  941   3.513   0.783   1.428
  334TIP3    H2  942   3.580   0.891   1.502
  335TIP3   OH2  943   4.128   0.915   1.637
  335TIP3    H1  944   4.196   0.886   1.702
  335TIP3    H2  945   4.044   0.895   1.683
  336TIP3   OH2  946   4.367   1.344   1.556
  336TIP3    H1  947   4.315   1.342   1.640
  336TIP3    H2  948   4.344   1.431   1.519
  337TIP3   OH2  949   4.040   1.485   0.114
  337TIP3    H1  950   4.020   1.471   0.021
  337TIP3    H2  951   4.119   1.541   0.106
  338TIP3   OH2  952   3.530   1.318   1.469
  338TIP3    H1  953   3.481   1.343   1.550
  338TIP3    H2  954   3.518   1.400   1.415
  339TIP3   OH2  955   3.445   1.242   0.900
  339TIP3    H1  956   3.390   1.246   0.979
  339TIP3    H2  957   3.459   1.144   0.893
  340TIP3   OH2  958   3.902   1.281   0.703
  340TIP3    H1  959   3.856   1.354   0.656
  340TIP3    H2  960   3.958   1.244   0.631
  341TIP3   OH2  961   4.074   1.564   1.788
  341TIP3    H1  962   4.052   1.492   1.851
  341TIP3    H2  963   4.167   1.580   1.810
  342TIP3   OH2  964   4.053   1.314   0.943
  342TIP3    H1  965   3.997   1.343   0.868
  342TIP3    H2  966   4.091   1.234   0.901
  343TIP3   OH2  967   3.343   1.345   1.671
  343TIP3    H1  968   3.372   1.409   1.737
  343TIP3    H2  969   3.331   1.264   1.724
  344TIP3   OH2  970   4.062   1.560   1.363
  344TIP3    H1  971   4.096   1.488   1.305
  344TIP3    H2  972   4.034   1.508   1.441
  345TIP3   OH2  973   3.739   1.024   1.042
  345TIP3    H1  974   3.672   1.011   1.112
  345TIP3    H2  975   3.820   1.024   1.095
  346TIP3   OH2  976   4.229   1.100   1.244
  346TIP3    H1  977   4.191   1.112   1.333
  346TIP3    H2  978   4.165   1.035   1.206
  347TIP3   OH2  979   4.399   2.789   1.458
  347TIP3    H1  980   4.397   2.812   1.363
  347TIP3    H2  981   4.479   2.837   1.488
  348TIP3   OH2  982   3.356   1.898   1.879
  348TIP3    H1  983   3.436   1.928   1.926
  348TIP3    H2  984   3.292   1.897   1.953
  349TIP3   OH2  985   3.822   1.353   1.132
  349TIP3    H1  986   3.896   1.317   1.082
  349TIP3    H2  987   3.832   1.309   1.218
  350TIP3   OH2  988   3.796   1.250   1.425
  350TIP3    H1  989   3.708   1.288   1.442
  350TIP3    H2  990   3.856   1.310   1.474
  351TIP3   OH2  991   3.520   1.620   0.525
  351TIP3    H1  992   3.440   1.659   0.485
  351TIP3    H2  993   3.521   1.667   0.612
  352TIP3   OH2  994   4.433   1.876   1.147
  352TIP3    H1  995   4.460   1.926   1.067
  352TIP3    H2  996   4.348   1.835   1.120
  353TIP3   OH2  997   3.926   1.954   1.518
  353TIP3    H1  998   3.960   1.941   1.607
  353TIP3    H2  999   3.894   2.046   1.521
  354TIP3   OH2 1000   4.055   1.188   0.486
  354TIP3    H1 1001   4.151   1.199   0.498
  354TIP3    H2 1002   4.030   1.269   0.435
  355TIP3   OH2 1003   3.251   1.680   1.209
  355TIP3    H1 1004   3.233   1.647   1.121
  355TIP3    H2 1005   3.227   1.605   1.265
  356TIP3   OH2 1006   3.663   1.788   0.349
  356TIP3    H1 1007   3.629   1.879   0.365
  356TIP3    H2 1008   3.619   1.738   0.419
  357TIP3   OH2 1009   3.106   1.582   1.808
  357TIP3    H1 1010   3.125   1.567   1.903
  357TIP3    H2 1011   3.039   1.513   1.791
  358TIP3   OH2 1012   3.832   1.696   1.828
  358TIP3    H1 1013   3.773   1.637   1.778
  358TIP3    H2 1014   3.920   1.662   1.799
  359TIP3   OH2 1015   4.091   2.211   1.417
  359TIP3    H1 1016   3.994   2.216   1.427
  359TIP3    H2 1017   4.120   2.267   1.491
  360TIP3   OH2 1018   4.493   1.295   0.324
  360TIP3    H1 1019   4.450   1.238   0.257
  360TIP3    H2 1020   4.481   1.383   0.281
  361TIP3   OH2 1021   4.720   2.146   1.402
  361TIP3    H1 1022   4.623   2.142   1.393
  361TIP3    H2 1023   4.747   2.117   1.312
  362TIP3   OH2 1024   4.205   2.108   0.225
  362TIP3    H1 1025   4.174   2.035   0.280
  362TIP3    H2 1026   4.210   2.067   0.136
  363TIP3   OH2 1027   4.198   1.738   1.066
  363TIP3    H1 1028   4.104   1.715   1.078
  363TIP3    H2 1029   4.232   1.658   1.022
  364TIP3   OH2 1030   3.327   1.965   0.817
  364TIP3    H1 1031   3.332   2.049   0.767
  364TIP3    H2 1032   3.232   1.951   0.818
  365TIP3   OH2 1033   3.463   1.734   0.758
  365TIP3    H1 1034   3.435   1.826   0.776
  365TIP3    H2 1035   3.426   1.687   0.834
  366TIP3   OH2 1036   3.595   2.309   1.288
  366TIP3    H1 1037   3.636   2.382   1.237
  366TIP3    H2 1038   3.672   2.274   1.336
  367TIP3   OH2 1039   3.252   2.203   0.671
  367TIP3    H1 1040   3.166   2.218   0.715
  367TIP3    H2 1041   3.287   2.294   0.670
  368TIP3   OH2 1042   3.981   1.943   1.249
  368TIP3    H1 1043   3.972   1.939   1.347
  368TIP3    H2 1044   4.064   1.896   1.236
  369TIP3   OH2 1045   3.971   1.851   0.126
  369TIP3    H1 1046   4.006   1.821   0.212
  369TIP3    H2 1047   3.892   1.794   0.115
  370TIP3   OH2 1048   4.230   2.477   1.297
  370TIP3    H1 1049   4.149   2.424   1.286
  370TIP3    H2 1050   4.218   2.543   1.225
  371TIP3   OH2 1051   4.297   2.317  -0.059
  371TIP3    H1 1052   4.347   2.393  -0.094
  371TIP3    H2 1053   4.219   2.364  -0.022
  372TIP3   OH2 1054   3.313   1.088   1.816
  372TIP3    H1 1055   3.219   1.105   1.837
  372TIP3    H2 1056   3.339   1.028   1.887
  373TIP3   OH2 1057   4.119   1.775   0.360
  373TIP3    H1 1058   4.113   1.704   0.428
  373TIP3    H2 1059   4.215   1.771   0.339
  374TIP3   OH2 1060   3.024   2.167   1.450
  374TIP3    H1 1061   3.087   2.099   1.482
  374TIP3    H2 1062   3.055   2.245   1.499
  375TIP3   OH2 1063   3.315   1.819   0.413
  375TIP3    H1 1064   3.306   1.827   0.509
  375TIP3    H2 1065   3.287   1.909   0.389
  376TIP3   OH2 1066   4.151   1.155   1.503
  376TIP3    H1 1067   4.235   1.190   1.536
  376TIP3    H2 1068   4.140   1.072   1.554
  377TIP3   OH2 1069   4.014   0.937   0.653
  377TIP3    H1 1070   4.023   0.970   0.562
  377TIP3    H2 1071   4.064   1.005   0.702
  378TIP3   OH2 1072   3.543   2.026   0.378
  378TIP3    H1 1073   3.454   2.057   0.403
  378TIP3    H2 1074   3.543   2.044   0.282
  379TIP3   OH2 1075   3.698   1.099   0.757
  379TIP3    H1 1076   3.774   1.160   0.745
  379TIP3    H2 1077   3.710   1.072   0.850
  380TIP3   OH2 1078   3.992   1.400   1.572
  380TIP3    H1 1079   4.015   1.452   1.651
  380TIP3    H2 1080   4.047   1.320   1.582
  381TIP3   OH2 1081   3.934   0.846   0.900
  381TIP3    H1 1082   3.873   0.919   0.919
  381TIP3    H2 1083   3.954   0.862   0.805
  382TIP3   OH2 1084   3.273   2.089   0.415
  382TIP3    H1 1085   3.248   2.161   0.353
  382TIP3    H2 1086   3.259   2.132   0.502
  383TIP3   OH2 1087   4.634   1.300   1.560
  383TIP3    H1 1088   4.536   1.296   1.561
  383TIP3    H2 1089   4.651   1.269   1.470
  384TIP3   OH2 1090   4.283   1.495   0.944
  384TIP3    H1 1091   4.209   1.433   0.955
  384TIP3    H2 1092   4.356   1.449   0.990
  385TIP3   OH2 1093   4.252   2.451   0.890
  385TIP3    H1 1094   4.210   2.499   0.815
  385TIP3    H2 1095   4.346   2.471   0.870
  386TIP3   OH2 1096   3.332   0.749   1.479
  386TIP3    H1 1097   3.328   0.698   1.396
  386TIP3    H2 1098   3.331   0.673   1.542
  387TIP3   OH2 1099   2.857   1.997   0.790
  387TIP3    H1 1100   2.801   1.920   0.812
  387TIP3    H2 1101   2.908   1.958   0.716
  388TIP3   OH2 1102   3.025   2.481   1.872
  388TIP3    H1 1103   3.112   2.482   1.918
  388TIP3    H2 1104   3.007   2.386   1.869
  389TIP3   OH2 1105   3.504   2.444   1.915
  389TIP3    H1 1106   3.599   2.427   1.922
  389TIP3    H2 1107   3.479   2.384   1.842
  390TIP3   OH2 1108   3.495   2.025   0.104
  390TIP3    H1 1109   3.429   1.955   0.095
  390TIP3    H2 1110   3.537   2.017   0.017
  391TIP3   OH2 1111   4.143   2.352   1.649
  391TIP3    H1 1112   4.136   2.282   1.718
  391TIP3    H2 1113   4.221   2.403   1.678
  392TIP3   OH2 1114   3.933   2.069  -0.043
  392TIP3    H1 1115   3.950   1.992   0.015
  392TIP3    H2 1116   4.019   2.080  -0.085
  393TIP3   OH2 1117   3.154   1.886   2.070
  393TIP3    H1 1118   3.171   1.790   2.076
  393TIP3    H2 1119   3.067   1.888   2.025
  394TIP3   OH2 1120   3.761   1.972   1.844
  394TIP3    H1 1121   3.722   1.991   1.757
  394TIP3    H2 1122   3.793   1.880   1.834
  395TIP3   OH2 1123   3.738   1.697   0.097
  395TIP3    H1 1124   3.708   1.735   0.182
  395TIP3    H2 1125   3.656   1.662   0.061
  396TIP3   OH2 1126   4.254   1.981   1.451
  396TIP3    H1 1127   4.330   2.022   1.406
  396TIP3    H2 1128   4.186   2.051   1.436
  397TIP3   OH2 1129   3.273   1.620   2.053
  397TIP3    H1 1130   3.351   1.567   2.031
  397TIP3    H2 1131   3.299   1.654   2.141
  398TIP3   OH2 1132   3.608   1.503   1.711
  398TIP3    H1 1133   3.532   1.565   1.713
  398TIP3    H2 1134   3.660   1.539   1.635
  399TIP3   OH2 1135   4.125   1.907   1.848
  399TIP3    H1 1136   4.205   1.882   1.800
  399TIP3    H2 1137   4.123   1.841   1.919
  400TIP3   OH2 1138   4.268   1.575  -0.032
  400TIP3    H1 1139   4.289   1.537  -0.119
  400TIP3    H2 1140   4.271   1.670  -0.050
  401TIP3   OH2 1141   3.733   1.295   1.839
  401TIP3    H1 1142   3.734   1.215   1.782
  401TIP3    H2 1143   3.689   1.361   1.781
  402TIP3   OH2 1144   3.738   1.081   1.649
  402TIP3    H1 1145   3.766   1.122   1.565
  402TIP3    H2 1146   3.643   1.061   1.630
  403TIP3   OH2 1147   3.761   1.614   1.519
  403TIP3    H1 1148   3.846   1.627   1.476
  403TIP3    H2 1149   3.705   1.682   1.475
  404TIP3   OH2 1150   4.343   1.584   1.901
  404TIP3    H1 1151   4.393   1.501   1.908
  404TIP3    H2 1152   4.409   1.644   1.864
  405TIP3   OH2 1153   4.384   1.835   1.636
  405TIP3    H1 1154   4.326   1.890   1.578
  405TIP3    H2 1155   4.472   1.857   1.597
  406TIP3   OH2 1156   3.610   1.405   2.070
  406TIP3    H1 1157   3.542   1.336   2.085
  406TIP3    H2 1158   3.645   1.378   1.982
  407TIP3   OH2 1159   3.868   0.843   1.716
  407TIP3    H1 1160   3.818   0.924   1.693
  407TIP3    H2 1161   3.800   0.774   1.704
  408TIP3   OH2 1162   3.994   1.346   1.931
  408TIP3    H1 1163   3.980   1.334   2.027
  408TIP3    H2 1164   3.904   1.323   1.899
  409TIP3   OH2 1165   4.233   1.298   1.787
  409TIP3    H1 1166   4.156   1.300   1.848
  409TIP3    H2 1167   4.305   1.266   1.844
  410TIP3   OH2 1168   4.470   1.240   1.936
  410TIP3    H1 1169   4.476   1.144   1.953
  410TIP3    H2 1170   4.459   1.277   2.026
  411TIP3   OH2 1171   3.450   1.185   2.123
  411TIP3    H1 1172   3.454   1.092   2.091
  411TIP3    H2 1173   3.486   1.174   2.214
  412TIP3   OH2 1174   3.961   0.853   1.973
  412TIP3    H1 1175   4.027   0.781   1.966
  412TIP3    H2 1176   3.921   0.848   1.884
  413TIP3   OH2 1177   4.027   1.068   2.131
  413TIP3    H1 1178   4.006   0.997   2.067
  413TIP3    H2 1179   3.949   1.127   2.125
  414TIP3   OH2 1180   3.240   2.284   0.225
  414TIP3    H1 1181   3.334   2.299   0.203
  414TIP3    H2 1182   3.194   2.339   0.162
  415TIP3   OH2 1183   2.651   2.210   0.897
  415TIP3    H1 1184   2.584   2.206   0.827
  415TIP3    H2 1185   2.724   2.165   0.855
  416TIP3   OH2 1186   4.503   2.547   0.850
  416TIP3    H1 1187   4.538   2.583   0.933
  416TIP3    H2 1188   4.569   2.576   0.785
  417TIP3   OH2 1189   4.532   2.565   1.135
  417TIP3    H1 1190   4.492   2.476   1.126
  417TIP3    H2 1191   4.614   2.542   1.180
  418TIP3   OH2 1192   4.582   2.238   1.706
  418TIP3    H1 1193   4.508   2.249   1.769
  418TIP3    H2 1194   4.623   2.327   1.707
  419TIP3   OH2 1195   4.396   1.750   0.320
  419TIP3    H1 1196   4.460   1.818   0.290
  419TIP3    H2 1197   4.442   1.716   0.400
  420TIP3   OH2 1198   4.524   1.621   0.526
  420TIP3    H1 1199   4.461   1.581   0.589
  420TIP3    H2 1200   4.593   1.660   0.584
  421TIP3   OH2 1201   4.579   2.010   0.958
  421TIP3    H1 1202   4.631   1.946   0.907
  421TIP3    H2 1203   4.579   2.088   0.899
  422TIP3   OH2 1204   4.410   2.310   1.155
  422TIP3    H1 1205   4.338   2.355   1.203
  422TIP3    H2 1206   4.362   2.265   1.083
  423TIP3   OH2 1207   4.444   1.521   0.176
  423TIP3    H1 1208   4.382   1.539   0.103
  423TIP3    H2 1209   4.430   1.602   0.231
  424TIP3   OH2 1210   4.332   1.171   0.119
  424TIP3    H1 1211   4.302   1.256   0.083
  424TIP3    H2 1212   4.246   1.125   0.134
  425TIP3   OH2 1213   4.340   1.477   0.676
  425TIP3    H1 1214   4.346   1.381   0.668
  425TIP3    H2 1215   4.326   1.490   0.772
  426TIP3   OH2 1216   2.969   1.556   1.420
  426TIP3    H1 1217   2.978   1.532   1.325
  426TIP3    H2 1218   3.063   1.553   1.446
  427TIP3   OH2 1219   4.628   1.901   1.530
  427TIP3    H1 1220   4.701   1.836   1.520
  427TIP3    H2 1221   4.653   1.970   1.467
  428TIP3   OH2 1222   4.811   1.704   1.547
  428TIP3    H1 1223   4.737   1.653   1.588
  428TIP3    H2 1224   4.885   1.640   1.561
  429TIP3   OH2 1225   4.330   1.198   0.565
  429TIP3    H1 1226   4.371   1.110   0.581
  429TIP3    H2 1227   4.391   1.233   0.498
  430TIP3   OH2 1228   4.497   1.368   1.063
  430TIP3    H1 1229   4.583   1.392   1.021
  430TIP3    H2 1230   4.513   1.405   1.152
  431TIP3   OH2 1231   4.568   1.511   1.296
  431TIP3    H1 1232   4.489   1.546   1.341
  431TIP3    H2 1233   4.600   1.591   1.248
  432TIP3   OH2 1234   3.184   1.241   2.111
  432TIP3    H1 1235   3.282   1.234   2.107
  432TIP3    H2 1236   3.163   1.153   2.147
  433TIP3   OH2 1237   5.013   1.087   1.857
  433TIP3    H1 1238   5.073   1.031   1.803
  433TIP3    H2 1239   4.988   1.157   1.793
  434TIP3   OH2 1240   4.440   0.953   0.611
  434TIP3    H1 1241   4.482   0.940   0.699
  434TIP3    H2 1242   4.381   0.875   0.609
  435TIP3   OH2 1243   3.157   0.948   1.448
  435TIP3    H1 1244   3.220   0.883   1.487
  435TIP3    H2 1245   3.210   1.029   1.453
  436TIP3   OH2 1246   2.967   1.213   1.503
  436TIP3    H1 1247   3.005   1.220   1.413
  436TIP3    H2 1248   2.979   1.303   1.537
  437TIP3   OH2 1249   4.885   1.238   1.668
  437TIP3    H1 1250   4.797   1.280   1.674
  437TIP3    H2 1251   4.865   1.167   1.605
  438TIP3   OH2 1252   4.091   2.409   0.508
  438TIP3    H1 1253   4.139   2.395   0.423
  438TIP3    H2 1254   4.148   2.474   0.551
  439TIP3   OH2 1255   3.163   0.773   1.832
  439TIP3    H1 1256   3.115   0.773   1.916
  439TIP3    H2 1257   3.101   0.828   1.778
  440TIP3   OH2 1258   3.190   2.214   1.890
  440TIP3    H1 1259   3.098   2.187   1.874
  440TIP3    H2 1260   3.201   2.195   1.984
  441TIP3   OH2 1261   3.368   2.246   1.436
  441TIP3    H1 1262   3.322   2.323   1.397
  441TIP3    H2 1263   3.455   2.259   1.393
  442TIP3   OH2 1264   3.812   2.490   1.575
  442TIP3    H1 1265   3.855   2.491   1.664
  442TIP3    H2 1266   3.878   2.541   1.523
  443TIP3   OH2 1267   3.992   2.642   1.436
  443TIP3    H1 1268   4.062   2.593   1.391
  443TIP3    H2 1269   4.044   2.699   1.496
  444TIP3   OH2 1270   4.785   1.004   1.536
  444TIP3    H1 1271   4.697   0.998   1.495
  444TIP3    H2 1272   4.818   0.912   1.525
  445TIP3   OH2 1273   3.043   2.497   1.463
  445TIP3    H1 1274   2.954   2.530   1.438
  445TIP3    H2 1275   3.056   2.545   1.545
  446TIP3   OH2 1276   3.281   2.480   1.320
  446TIP3    H1 1277   3.193   2.493   1.363
  446TIP3    H2 1278   3.263   2.514   1.230
  447TIP3   OH2 1279   3.706   2.508   1.119
  447TIP3    H1 1280   3.639   2.528   1.051
  447TIP3    H2 1281   3.719   2.597   1.159
  448TIP3   OH2 1282   3.976   2.447   1.171
  448TIP3    H1 1283   3.883   2.467   1.149
  448TIP3    H2 1284   4.022   2.520   1.125
  449TIP3   OH2 1285   4.180   2.639   1.082
  449TIP3    H1 1286   4.167   2.724   1.035
  449TIP3    H2 1287   4.209   2.580   1.009
  450TIP3   OH2 1288   2.939   2.295   1.198
  450TIP3    H1 1289   2.964   2.275   1.291
  450TIP3    H2 1290   3.010   2.245   1.152
  451TIP3   OH2 1291   3.146   2.170   1.065
  451TIP3    H1 1292   3.164   2.088   1.116
  451TIP3    H2 1293   3.236   2.208   1.061
  452TIP3   OH2 1294   3.413   2.262   1.069
  452TIP3    H1 1295   3.449   2.173   1.055
  452TIP3    H2 1296   3.461   2.286   1.151
  453TIP3   OH2 1297   3.992   0.930   1.170
  453TIP3    H1 1298   3.949   0.855   1.214
  453TIP3    H2 1299   4.033   0.887   1.093
  454TIP3   OH2 1300   4.516   0.808   1.071
  454TIP3    H1 1301   4.547   0.861   0.994
  454TIP3    H2 1302   4.419   0.814   1.059
  455TIP3   OH2 1303   4.592   0.920   0.837
  455TIP3    H1 1304   4.665   0.859   0.812
  455TIP3    H2 1305   4.633   1.008   0.821
  456TIP3   OH2 1306   3.667   0.695   1.094
  456TIP3    H1 1307   3.707   0.724   1.010
  456TIP3    H2 1308   3.735   0.718   1.160
  457TIP3   OH2 1309   4.244   0.808   1.033
  457TIP3    H1 1310   4.220   0.780   0.943
  457TIP3    H2 1311   4.214   0.731   1.086
  458TIP3   OH2 1312   4.269   0.741   0.636
  458TIP3    H1 1313   4.181   0.775   0.615
  458TIP3    H2 1314   4.254   0.671   0.703
  459TIP3   OH2 1315   3.510   2.289   0.175
  459TIP3    H1 1316   3.603   2.303   0.143
  459TIP3    H2 1317   3.501   2.196   0.146
  460TIP3   OH2 1318   4.232   2.375   0.273
  460TIP3    H1 1319   4.227   2.277   0.260
  460TIP3    H2 1320   4.189   2.407   0.192
  461TIP3   OH2 1321   3.447   0.911   2.063
  461TIP3    H1 1322   3.413   0.839   2.119
  461TIP3    H2 1323   3.542   0.909   2.089
  462TIP3   OH2 1324   3.698   0.905   2.179
  462TIP3    H1 1325   3.783   0.881   2.138
  462TIP3    H2 1326   3.688   0.834   2.246
  463TIP3   OH2 1327   4.522   0.967   1.967
  463TIP3    H1 1328   4.541   0.935   2.058
  463TIP3    H2 1329   4.611   0.961   1.925
  464TIP3   OH2 1330   4.459   2.519   1.462
  464TIP3    H1 1331   4.382   2.488   1.409
  464TIP3    H2 1332   4.442   2.615   1.463
  465TIP3   OH2 1333   5.685   1.909   0.279
  465TIP3    H1 1334   5.662   1.990   0.229
  465TIP3    H2 1335   5.643   1.842   0.224
  466TIP3   OH2 1336   5.711   1.912   0.625
  466TIP3    H1 1337   5.750   1.857   0.695
  466TIP3    H2 1338   5.686   1.848   0.557
  467TIP3   OH2 1339   5.022   1.787   0.980
  467TIP3    H1 1340   5.061   1.719   1.039
  467TIP3    H2 1341   5.102   1.834   0.950
  468TIP3   OH2 1342   4.997   2.194   0.712
  468TIP3    H1 1343   4.987   2.096   0.705
  468TIP3    H2 1344   5.088   2.204   0.680
  469TIP3   OH2 1345   4.700   1.406   0.484
  469TIP3    H1 1346   4.659   1.493   0.501
  469TIP3    H2 1347   4.623   1.358   0.448
  470TIP3   OH2 1348   4.764   1.689   0.650
  470TIP3    H1 1349   4.815   1.611   0.683
  470TIP3    H2 1350   4.831   1.733   0.594
  471TIP3   OH2 1351   5.616   2.666   0.301
  471TIP3    H1 1352   5.658   2.587   0.258
  471TIP3    H2 1353   5.610   2.639   0.392
  472TIP3   OH2 1354   5.580   2.148   0.642
  472TIP3    H1 1355   5.557   2.089   0.568
  472TIP3    H2 1356   5.632   2.080   0.692
  473TIP3   OH2 1357   5.938   1.628   0.692
  473TIP3    H1 1358   5.971   1.541   0.722
  473TIP3    H2 1359   5.890   1.598   0.612
  474TIP3   OH2 1360   5.252   1.301   0.679
  474TIP3    H1 1361   5.231   1.366   0.608
  474TIP3    H2 1362   5.240   1.216   0.631
  475TIP3   OH2 1363   4.905   1.478   0.757
  475TIP3    H1 1364   4.986   1.465   0.809
  475TIP3    H2 1365   4.924   1.420   0.680
  476TIP3   OH2 1366   5.359   1.692   0.567
  476TIP3    H1 1367   5.451   1.657   0.574
  476TIP3    H2 1368   5.311   1.612   0.534
  477TIP3   OH2 1369   6.586   1.620   0.849
  477TIP3    H1 1370   6.524   1.689   0.820
  477TIP3    H2 1371   6.653   1.670   0.898
  478TIP3   OH2 1372   5.270   1.263   1.092
  478TIP3    H1 1373   5.211   1.304   1.025
  478TIP3    H2 1374   5.219   1.283   1.173
  479TIP3   OH2 1375   5.594   2.106   0.115
  479TIP3    H1 1376   5.591   2.098   0.018
  479TIP3    H2 1377   5.558   2.196   0.127
  480TIP3   OH2 1378   5.380   2.041   0.878
  480TIP3    H1 1379   5.310   2.088   0.928
  480TIP3    H2 1380   5.415   2.115   0.827
  481TIP3   OH2 1381   5.129   1.391   0.895
  481TIP3    H1 1382   5.193   1.463   0.916
  481TIP3    H2 1383   5.174   1.354   0.815
  482TIP3   OH2 1384   5.209   2.228   0.983
  482TIP3    H1 1385   5.181   2.311   0.940
  482TIP3    H2 1386   5.128   2.213   1.038
  483TIP3   OH2 1387   4.596   1.920   0.223
  483TIP3    H1 1388   4.565   1.951   0.136
  483TIP3    H2 1389   4.628   2.003   0.264
  484TIP3   OH2 1390   6.033   2.453   0.484
  484TIP3    H1 1391   5.993   2.384   0.429
  484TIP3    H2 1392   6.032   2.530   0.423
  485TIP3   OH2 1393   5.750   2.468   0.166
  485TIP3    H1 1394   5.797   2.387   0.134
  485TIP3    H2 1395   5.804   2.533   0.115
  486TIP3   OH2 1396   6.267   2.350   0.800
  486TIP3    H1 1397   6.255   2.272   0.741
  486TIP3    H2 1398   6.251   2.424   0.739
  487TIP3   OH2 1399   6.461   1.994   0.659
  487TIP3    H1 1400   6.375   2.042   0.653
  487TIP3    H2 1401   6.492   2.003   0.566
  488TIP3   OH2 1402   6.130   1.871   0.943
  488TIP3    H1 1403   6.126   1.952   0.997
  488TIP3    H2 1404   6.045   1.877   0.896
  489TIP3   OH2 1405   5.098   1.772   0.472
  489TIP3    H1 1406   5.092   1.828   0.392
  489TIP3    H2 1407   5.194   1.767   0.484
  490TIP3   OH2 1408   5.258   2.240   0.574
  490TIP3    H1 1409   5.203   2.203   0.499
  490TIP3    H2 1410   5.324   2.170   0.575
  491TIP3   OH2 1411   5.269   1.794   0.805
  491TIP3    H1 1412   5.301   1.766   0.716
  491TIP3    H2 1413   5.315   1.880   0.816
  492TIP3   OH2 1414   5.414   2.355   1.122
  492TIP3    H1 1415   5.353   2.416   1.168
  492TIP3    H2 1416   5.348   2.300   1.073
  493TIP3   OH2 1417   5.171   1.905   1.231
  493TIP3    H1 1418   5.172   1.994   1.272
  493TIP3    H2 1419   5.074   1.888   1.230
  494TIP3   OH2 1420   5.491   2.370   0.148
  494TIP3    H1 1421   5.574   2.418   0.136
  494TIP3    H2 1422   5.429   2.416   0.089
  495TIP3   OH2 1423   5.207   2.519   1.211
  495TIP3    H1 1424   5.173   2.521   1.119
  495TIP3    H2 1425   5.127   2.496   1.262
  496TIP3   OH2 1426   5.007   1.640   0.202
  496TIP3    H1 1427   4.940   1.705   0.170
  496TIP3    H2 1428   4.961   1.603   0.278
  497TIP3   OH2 1429   4.784   2.051   1.158
  497TIP3    H1 1430   4.722   2.031   1.085
  497TIP3    H2 1431   4.823   1.964   1.178
  498TIP3   OH2 1432   4.642   2.236   0.802
  498TIP3    H1 1433   4.735   2.231   0.776
  498TIP3    H2 1434   4.639   2.322   0.846
  499TIP3   OH2 1435   6.504   2.696   0.847
  499TIP3    H1 1436   6.503   2.599   0.856
  499TIP3    H2 1437   6.420   2.720   0.891
  500TIP3   OH2 1438   5.605   2.484   0.973
  500TIP3    H1 1439   5.607   2.574   1.013
  500TIP3    H2 1440   5.538   2.440   1.031
  501TIP3   OH2 1441   5.376   2.619  -0.063
  501TIP3    H1 1442   5.311   2.581  -0.123
  501TIP3    H2 1443   5.339   2.707  -0.042
  502TIP3   OH2 1444   4.803   2.455   0.319
  502TIP3    H1 1445   4.857   2.447   0.401
  502TIP3    H2 1446   4.755   2.370   0.324
  503TIP3   OH2 1447   5.607   2.513  -0.166
  503TIP3    H1 1448   5.530   2.555  -0.122
  503TIP3    H2 1449   5.674   2.513  -0.096
  504TIP3   OH2 1450   6.394   1.826   1.130
  504TIP3    H1 1451   6.324   1.834   1.064
  504TIP3    H2 1452   6.414   1.730   1.123
  505TIP3   OH2 1453   4.991   2.231   1.146
  505TIP3    H1 1454   5.039   2.214   1.230
  505TIP3    H2 1455   4.915   2.170   1.152
  506TIP3   OH2 1456   5.377   1.056   0.938
  506TIP3    H1 1457   5.289   1.029   0.906
  506TIP3    H2 1458   5.356   1.140   0.983
  507TIP3   OH2 1459   5.921   1.162   1.113
  507TIP3    H1 1460   5.992   1.142   1.179
  507TIP3    H2 1461   5.839   1.145   1.164
  508TIP3   OH2 1462   6.155   1.598   1.034
  508TIP3    H1 1463   6.114   1.597   1.123
  508TIP3    H2 1464   6.139   1.689   1.004
  509TIP3   OH2 1465   5.327   1.573   0.952
  509TIP3    H1 1466   5.278   1.599   1.034
  509TIP3    H2 1467   5.310   1.652   0.896
  510TIP3   OH2 1468   5.205   1.476   0.482
  510TIP3    H1 1469   5.110   1.457   0.471
  510TIP3    H2 1470   5.240   1.460   0.392
  511TIP3   OH2 1471   5.871   1.823   1.277
  511TIP3    H1 1472   5.849   1.749   1.338
  511TIP3    H2 1473   5.966   1.833   1.295
  512TIP3   OH2 1474   5.821   1.547   0.463
  512TIP3    H1 1475   5.833   1.601   0.380
  512TIP3    H2 1476   5.832   1.457   0.426
  513TIP3   OH2 1477   5.143   1.602   1.158
  513TIP3    H1 1478   5.172   1.667   1.225
  513TIP3    H2 1479   5.132   1.521   1.210
  514TIP3   OH2 1480   4.723   1.140   0.762
  514TIP3    H1 1481   4.806   1.166   0.807
  514TIP3    H2 1482   4.753   1.107   0.676
  515TIP3   OH2 1483   4.754   1.189   0.299
  515TIP3    H1 1484   4.796   1.272   0.271
  515TIP3    H2 1485   4.661   1.217   0.308
  516TIP3   OH2 1486   5.852   1.820   0.857
  516TIP3    H1 1487   5.894   1.753   0.797
  516TIP3    H2 1488   5.828   1.762   0.932
  517TIP3   OH2 1489   5.520   1.276   0.620
  517TIP3    H1 1490   5.430   1.303   0.646
  517TIP3    H2 1491   5.574   1.327   0.681
  518TIP3   OH2 1492   4.955   1.326   0.529
  518TIP3    H1 1493   4.861   1.348   0.510
  518TIP3    H2 1494   4.970   1.249   0.472
  519TIP3   OH2 1495   5.951   1.357   0.728
  519TIP3    H1 1496   5.949   1.380   0.824
  519TIP3    H2 1497   5.950   1.261   0.732
  520TIP3   OH2 1498   6.196   3.045   0.945
  520TIP3    H1 1499   6.194   3.065   0.850
  520TIP3    H2 1500   6.276   3.093   0.974
  521TIP3   OH2 1501   5.152   2.153   1.368
  521TIP3    H1 1502   5.232   2.185   1.414
  521TIP3    H2 1503   5.087   2.156   1.441
  522TIP3   OH2 1504   5.609   1.596   0.631
  522TIP3    H1 1505   5.684   1.572   0.572
  522TIP3    H2 1506   5.637   1.562   0.717
  523TIP3   OH2 1507   5.595   1.500   0.910
  523TIP3    H1 1508   5.505   1.538   0.921
  523TIP3    H2 1509   5.651   1.561   0.961
  524TIP3   OH2 1510   5.303   1.917  -0.007
  524TIP3    H1 1511   5.253   1.833  -0.012
  524TIP3    H2 1512   5.323   1.924   0.087
  525TIP3   OH2 1513   6.229   2.134   0.638
  525TIP3    H1 1514   6.248   2.184   0.555
  525TIP3    H2 1515   6.141   2.094   0.618
  526TIP3   OH2 1516   5.699   2.208   1.002
  526TIP3    H1 1517   5.753   2.185   1.078
  526TIP3    H2 1518   5.689   2.304   1.012
  527TIP3   OH2 1519   5.015   1.916   0.692
  527TIP3    H1 1520   5.035   1.895   0.599
  527TIP3    H2 1521   5.069   1.849   0.737
  528TIP3   OH2 1522   5.480   2.068  -0.155
  528TIP3    H1 1523   5.427   2.151  -0.158
  528TIP3    H2 1524   5.415   2.009  -0.110
  529TIP3   OH2 1525   4.901   1.839   1.296
  529TIP3    H1 1526   4.922   1.824   1.390
  529TIP3    H2 1527   4.833   1.772   1.279
  530TIP3   OH2 1528   5.628   1.952   1.316
  530TIP3    H1 1529   5.569   1.896   1.264
  530TIP3    H2 1530   5.716   1.918   1.288
  531TIP3   OH2 1531   5.879   2.470   0.897
  531TIP3    H1 1532   5.784   2.481   0.916
  531TIP3    H2 1533   5.918   2.522   0.971
  532TIP3   OH2 1534   6.518   2.406   0.887
  532TIP3    H1 1535   6.420   2.399   0.880
  532TIP3    H2 1536   6.543   2.374   0.797
  533TIP3   OH2 1537   5.995   2.010   0.576
  533TIP3    H1 1538   5.900   1.989   0.585
  533TIP3    H2 1539   6.026   1.930   0.528
  534TIP3   OH2 1540   4.697   1.513   0.038
  534TIP3    H1 1541   4.739   1.601   0.036
  534TIP3    H2 1542   4.613   1.531   0.083
  535TIP3   OH2 1543   5.405   2.549   0.771
  535TIP3    H1 1544   5.431   2.629   0.722
  535TIP3    H2 1545   5.472   2.545   0.841
  536TIP3   OH2 1546   5.024   2.482   0.125
  536TIP3    H1 1547   4.964   2.453   0.196
  536TIP3    H2 1548   5.051   2.571   0.155
  537TIP3   OH2 1549   6.022   2.735   0.787
  537TIP3    H1 1550   5.947   2.674   0.772
  537TIP3    H2 1551   6.010   2.798   0.713
  538TIP3   OH2 1552   5.112   1.345   1.306
  538TIP3    H1 1553   5.015   1.346   1.315
  538TIP3    H2 1554   5.139   1.285   1.377
  539TIP3   OH2 1555   4.824   2.431   0.938
  539TIP3    H1 1556   4.881   2.356   0.959
  539TIP3    H2 1557   4.865   2.502   0.989
  540TIP3   OH2 1558   5.172   2.020  -0.341
  540TIP3    H1 1559   5.100   1.988  -0.399
  540TIP3    H2 1560   5.124   2.035  -0.257
  541TIP3   OH2 1561   5.052   2.080  -0.091
  541TIP3    H1 1562   5.117   2.051  -0.024
  541TIP3    H2 1563   5.064   2.178  -0.088
  542TIP3   OH2 1564   4.799   1.778   0.094
  542TIP3    H1 1565   4.737   1.829   0.151
  542TIP3    H2 1566   4.821   1.845   0.027
  543TIP3   OH2 1567   5.946   1.412   0.994
  543TIP3    H1 1568   6.030   1.451   1.024
  543TIP3    H2 1569   5.940   1.330   1.048
  544TIP3   OH2 1570   5.334   2.300  -0.170
  544TIP3    H1 1571   5.244   2.312  -0.132
  544TIP3    H2 1572   5.323   2.333  -0.260
  545TIP3   OH2 1573   5.787   1.653   1.061
  545TIP3    H1 1574   5.812   1.706   1.140
  545TIP3    H2 1575   5.844   1.575   1.070
  546TIP3   OH2 1576   5.076   2.350  -0.103
  546TIP3    H1 1577   5.048   2.423  -0.162
  546TIP3    H2 1578   5.057   2.390  -0.015
  547TIP3   OH2 1579   6.429   1.561   1.065
  547TIP3    H1 1580   6.335   1.547   1.044
  547TIP3    H2 1581   6.471   1.552   0.977
  548TIP3   OH2 1582   6.076   1.770   0.474
  548TIP3    H1 1583   6.008   1.703   0.487
  548TIP3    H2 1584   6.147   1.733   0.530
  549TIP3   OH2 1585   4.787   2.004  -0.092
  549TIP3    H1 1586   4.871   2.053  -0.076
  549TIP3    H2 1587   4.824   1.938  -0.155
  550TIP3   OH2 1588   6.046   2.719   0.372
  550TIP3    H1 1589   6.003   2.766   0.297
  550TIP3    H2 1590   6.140   2.742   0.353
  551TIP3   OH2 1591   5.115   0.971   0.905
  551TIP3    H1 1592   5.092   0.930   0.820
  551TIP3    H2 1593   5.105   0.897   0.966
  552TIP3   OH2 1594   4.652   2.194   0.300
  552TIP3    H1 1595   4.568   2.241   0.296
  552TIP3    H2 1596   4.686   2.214   0.212
  553TIP3   OH2 1597   4.820   2.738   1.361
  553TIP3    H1 1598   4.908   2.737   1.405
  553TIP3    H2 1599   4.802   2.642   1.355
  554TIP3   OH2 1600   5.299   2.697   1.409
  554TIP3    H1 1601   5.395   2.684   1.408
  554TIP3    H2 1602   5.273   2.642   1.331
  555TIP3   OH2 1603   5.943   2.605   1.131
  555TIP3    H1 1604   5.933   2.536   1.201
  555TIP3    H2 1605   6.019   2.657   1.164
  556TIP3   OH2 1606   4.950   2.142   1.559
  556TIP3    H1 1607   4.965   2.046   1.560
  556TIP3    H2 1608   4.863   2.146   1.512
  557TIP3   OH2 1609   4.920   1.816  -0.223
  557TIP3    H1 1610   4.992   1.762  -0.187
  557TIP3    H2 1611   4.945   1.821  -0.318
  558TIP3   OH2 1612   5.556   2.229   1.331
  558TIP3    H1 1613   5.519   2.247   1.242
  558TIP3    H2 1614   5.589   2.137   1.321
  559TIP3   OH2 1615   6.052   2.238   0.946
  559TIP3    H1 1616   6.125   2.281   0.897
  559TIP3    H2 1617   5.977   2.294   0.918
  560TIP3   OH2 1618   5.069   1.874   1.542
  560TIP3    H1 1619   5.150   1.832   1.510
  560TIP3    H2 1620   5.097   1.909   1.629
  561TIP3   OH2 1621   5.145   1.688  -0.023
  561TIP3    H1 1622   5.101   1.676   0.065
  561TIP3    H2 1623   5.133   1.600  -0.061
  562TIP3   OH2 1624   5.405   1.760   1.202
  562TIP3    H1 1625   5.328   1.821   1.203
  562TIP3    H2 1626   5.456   1.795   1.125
  563TIP3   OH2 1627   5.925   2.165   1.334
  563TIP3    H1 1628   6.001   2.136   1.283
  563TIP3    H2 1629   5.919   2.097   1.403
  564TIP3   OH2 1630   5.525   1.550   1.329
  564TIP3    H1 1631   5.529   1.471   1.270
  564TIP3    H2 1632   5.484   1.617   1.269
  565TIP3   OH2 1633   5.529   1.339   1.137
  565TIP3    H1 1634   5.558   1.378   1.052
  565TIP3    H2 1635   5.436   1.315   1.117
  566TIP3   OH2 1636   5.556   1.871   1.009
  566TIP3    H1 1637   5.641   1.878   0.965
  566TIP3    H2 1638   5.503   1.938   0.961
  567TIP3   OH2 1639   6.143   1.838   1.389
  567TIP3    H1 1640   6.187   1.752   1.395
  567TIP3    H2 1641   6.211   1.892   1.348
  568TIP3   OH2 1642   6.181   2.094   1.132
  568TIP3    H1 1643   6.125   2.148   1.071
  568TIP3    H2 1644   6.269   2.110   1.091
  569TIP3   OH2 1645   5.404   1.661   1.561
  569TIP3    H1 1646   5.337   1.591   1.571
  569TIP3    H2 1647   5.440   1.639   1.472
  570TIP3   OH2 1648   5.664   1.103   1.206
  570TIP3    H1 1649   5.611   1.181   1.181
  570TIP3    H2 1650   5.602   1.029   1.187
  571TIP3   OH2 1651   5.788   1.605   1.418
  571TIP3    H1 1652   5.778   1.590   1.514
  571TIP3    H2 1653   5.698   1.579   1.388
  572TIP3   OH2 1654   6.030   1.560   1.273
  572TIP3    H1 1655   5.956   1.556   1.336
  572TIP3    H2 1656   6.105   1.527   1.327
  573TIP3   OH2 1657   6.248   1.495   1.424
  573TIP3    H1 1658   6.265   1.399   1.439
  573TIP3    H2 1659   6.256   1.531   1.515
  574TIP3   OH2 1660   5.241   1.443   1.611
  574TIP3    H1 1661   5.253   1.354   1.573
  574TIP3    H2 1662   5.284   1.431   1.698
  575TIP3   OH2 1663   5.743   1.111   1.468
  575TIP3    H1 1664   5.819   1.048   1.465
  575TIP3    H2 1665   5.712   1.106   1.375
  576TIP3   OH2 1666   5.822   1.325   1.621
  576TIP3    H1 1667   5.800   1.253   1.557
  576TIP3    H2 1668   5.745   1.384   1.612
  577TIP3   OH2 1669   5.058   2.547  -0.297
  577TIP3    H1 1670   5.145   2.537  -0.342
  577TIP3    H2 1671   5.013   2.608  -0.356
  578TIP3   OH2 1672   4.527   1.934  -0.056
  578TIP3    H1 1673   4.615   1.976  -0.070
  578TIP3    H2 1674   4.537   1.857  -0.113
  579TIP3   OH2 1675   4.435   2.550   0.347
  579TIP3    H1 1676   4.371   2.485   0.312
  579TIP3    H2 1677   4.481   2.496   0.415
  580TIP3   OH2 1678   4.564   2.410   0.539
  580TIP3    H1 1679   4.569   2.323   0.580
  580TIP3    H2 1680   4.626   2.461   0.594
  581TIP3   OH2 1681   6.298   2.811   0.339
  581TIP3    H1 1682   6.336   2.840   0.424
  581TIP3    H2 1683   6.375   2.816   0.279
  582TIP3   OH2 1684   6.335   2.825   0.622
  582TIP3    H1 1685   6.288   2.738   0.615
  582TIP3    H2 1686   6.415   2.796   0.668
  583TIP3   OH2 1687   6.378   2.497   1.191
  583TIP3    H1 1688   6.304   2.504   1.255
  583TIP3    H2 1689   6.418   2.586   1.195
  584TIP3   OH2 1690   6.371   2.273   0.448
  584TIP3    H1 1691   6.424   2.206   0.402
  584TIP3    H2 1692   6.373   2.348   0.384
  585TIP3   OH2 1693   6.212   2.578   0.649
  585TIP3    H1 1694   6.141   2.618   0.702
  585TIP3    H2 1695   6.159   2.529   0.582
  586TIP3   OH2 1696   4.760   1.801   0.908
  586TIP3    H1 1697   4.759   1.775   0.814
  586TIP3    H2 1698   4.857   1.807   0.924
  587TIP3   OH2 1699   6.422   2.159   1.018
  587TIP3    H1 1700   6.493   2.092   1.009
  587TIP3    H2 1701   6.447   2.225   0.951
  588TIP3   OH2 1702   6.606   1.966   1.034
  588TIP3    H1 1703   6.532   1.914   1.073
  588TIP3    H2 1704   6.678   1.901   1.048
  589TIP3   OH2 1705   6.279   1.644   0.612
  589TIP3    H1 1706   6.373   1.630   0.586
  589TIP3    H2 1707   6.294   1.686   0.699
  590TIP3   OH2 1708   6.369   1.797   0.822
  590TIP3    H1 1709   6.285   1.835   0.854
  590TIP3    H2 1710   6.405   1.870   0.766
  591TIP3   OH2 1711   4.974   1.487   1.579
  591TIP3    H1 1712   5.072   1.485   1.580
  591TIP3    H2 1713   4.954   1.403   1.624
  592TIP3   OH2 1714   6.830   1.361   1.338
  592TIP3    H1 1715   6.848   1.278   1.291
  592TIP3    H2 1716   6.787   1.414   1.268
  593TIP3   OH2 1717   4.942   1.187   0.923
  593TIP3    H1 1718   5.006   1.113   0.924
  593TIP3    H2 1719   5.001   1.264   0.917
  594TIP3   OH2 1720   4.744   1.458   0.986
  594TIP3    H1 1721   4.790   1.452   0.900
  594TIP3    H2 1722   4.770   1.547   1.014
  595TIP3   OH2 1723   6.684   1.514   1.159
  595TIP3    H1 1724   6.588   1.534   1.150
  595TIP3    H2 1725   6.687   1.429   1.110
  596TIP3   OH2 1726   4.700   1.001   0.516
  596TIP3    H1 1727   4.607   0.978   0.538
  596TIP3    H2 1728   4.686   1.067   0.446
  597TIP3   OH2 1729   5.868   2.647  -0.000
  597TIP3    H1 1730   5.907   2.579  -0.057
  597TIP3    H2 1731   5.928   2.722  -0.017
  598TIP3   OH2 1732   4.944   1.040   1.300
  598TIP3    H1 1733   4.892   1.041   1.382
  598TIP3    H2 1734   4.880   1.081   1.238
  599TIP3   OH2 1735   4.987   2.468   1.377
  599TIP3    H1 1736   4.895   2.443   1.358
  599TIP3    H2 1737   4.993   2.455   1.472
  600TIP3   OH2 1738   5.170   2.498   0.925
  600TIP3    H1 1739   5.118   2.570   0.882
  600TIP3    H2 1740   5.254   2.510   0.877
  601TIP3   OH2 1741   5.612   2.745   1.058
  601TIP3    H1 1742   5.651   2.750   1.148
  601TIP3    H2 1743   5.677   2.798   1.007
  602TIP3   OH2 1744   5.795   2.897   0.920
  602TIP3    H1 1745   5.868   2.846   0.882
  602TIP3    H2 1746   5.844   2.955   0.982
  603TIP3   OH2 1747   4.839   2.756   0.955
  603TIP3    H1 1748   4.752   2.792   0.926
  603TIP3    H2 1749   4.851   2.806   1.036
  604TIP3   OH2 1750   5.062   2.707   0.795
  604TIP3    H1 1751   4.983   2.738   0.843
  604TIP3    H2 1752   5.063   2.767   0.718
  605TIP3   OH2 1753   5.498   2.755   0.598
  605TIP3    H1 1754   5.428   2.779   0.536
  605TIP3    H2 1755   5.508   2.838   0.650
  606TIP3   OH2 1756   5.769   2.698   0.641
  606TIP3    H1 1757   5.676   2.723   0.627
  606TIP3    H2 1758   5.816   2.775   0.605
  607TIP3   OH2 1759   5.983   2.900   0.570
  607TIP3    H1 1760   5.962   2.982   0.521
  607TIP3    H2 1761   6.007   2.838   0.497
  608TIP3   OH2 1762   4.749   2.551   0.695
  608TIP3    H1 1763   4.780   2.528   0.786
  608TIP3    H2 1764   4.823   2.511   0.643
  609TIP3   OH2 1765   4.944   2.428   0.550
  609TIP3    H1 1766   4.962   2.336   0.579
  609TIP3    H2 1767   5.035   2.463   0.539
  610TIP3   OH2 1768   5.215   2.522   0.540
  610TIP3    H1 1769   5.236   2.428   0.526
  610TIP3    H2 1770   5.246   2.534   0.632
  611TIP3   OH2 1771   4.533   2.324   0.086
  611TIP3    H1 1772   4.448   2.292   0.050
  611TIP3    H2 1773   4.524   2.419   0.068
  612TIP3   OH2 1774   5.245   1.162   1.545
  612TIP3    H1 1775   5.212   1.093   1.605
  612TIP3    H2 1776   5.340   1.164   1.570
  613TIP3   OH2 1777   5.495   1.161   1.663
  613TIP3    H1 1778   5.579   1.143   1.616
  613TIP3    H2 1779   5.494   1.089   1.729
  614TIP3   OH2 1780   4.658   2.366  -0.239
  614TIP3    H1 1781   4.605   2.397  -0.165
  614TIP3    H2 1782   4.681   2.276  -0.211
  615TIP3   OH2 1783   6.304   1.225   1.458
  615TIP3    H1 1784   6.329   1.193   1.547
  615TIP3    H2 1785   6.392   1.230   1.414
  616TIP3   OH2 1786   6.254   2.775   0.950
  616TIP3    H1 1787   6.177   2.744   0.899
  616TIP3    H2 1788   6.236   2.871   0.952
  617TIP3   OH2 1789   6.838   2.066   0.464
  617TIP3    H1 1790   6.880   2.042   0.548
  617TIP3    H2 1791   6.887   2.147   0.444
  618TIP3   OH2 1792   6.786   2.456   0.205
  618TIP3    H1 1793   6.760   2.387   0.142
  618TIP3    H2 1794   6.882   2.443   0.213
  619TIP3   OH2 1795   7.067   2.307   0.304
  619TIP3    H1 1796   7.045   2.377   0.370
  619TIP3    H2 1797   7.161   2.291   0.331
  620TIP3   OH2 1798   6.995   2.504   0.484
  620TIP3    H1 1799   6.973   2.593   0.448
  620TIP3    H2 1800   6.917   2.490   0.542
  621TIP3   OH2 1801   7.210   2.609   0.625
  621TIP3    H1 1802   7.146   2.675   0.661
  621TIP3    H2 1803   7.149   2.555   0.571
  622TIP3   OH2 1804   6.953   2.179   0.707
  622TIP3    H1 1805   6.963   2.262   0.758
  622TIP3    H2 1806   6.863   2.151   0.736
  623TIP3   OH2 1807   7.002   2.780   0.698
  623TIP3    H1 1808   6.968   2.785   0.606
  623TIP3    H2 1809   6.921   2.757   0.748
  624TIP3   OH2 1810   6.580   2.303   0.645
  624TIP3    H1 1811   6.512   2.284   0.577
  624TIP3    H2 1812   6.614   2.214   0.666
  625TIP3   OH2 1813   6.441   2.494   0.288
  625TIP3    H1 1814   6.534   2.498   0.262
  625TIP3    H2 1815   6.429   2.579   0.333
  626TIP3   OH2 1816   7.402   2.730   0.467
  626TIP3    H1 1817   7.399   2.823   0.497
  626TIP3    H2 1818   7.331   2.690   0.523
  627TIP3   OH2 1819   6.775   2.496   0.644
  627TIP3    H1 1820   6.827   2.471   0.724
  627TIP3    H2 1821   6.704   2.429   0.645
  628TIP3   OH2 1822   6.960   1.879   0.721
  628TIP3    H1 1823   6.905   1.915   0.791
  628TIP3    H2 1824   6.925   1.789   0.709
  629TIP3   OH2 1825   6.946   2.416   0.856
  629TIP3    H1 1826   7.027   2.445   0.902
  629TIP3    H2 1827   6.883   2.412   0.930
  630TIP3   OH2 1828   7.519   2.448   0.569
  630TIP3    H1 1829   7.496   2.481   0.657
  630TIP3    H2 1830   7.502   2.524   0.512
  631TIP3   OH2 1831   6.700   2.089   0.784
  631TIP3    H1 1832   6.712   2.077   0.880
  631TIP3    H2 1833   6.626   2.028   0.765
  632TIP3   OH2 1834   7.419   2.206   0.801
  632TIP3    H1 1835   7.339   2.157   0.769
  632TIP3    H2 1836   7.480   2.183   0.728
  633TIP3   OH2 1837   7.186   2.834   0.305
  633TIP3    H1 1838   7.188   2.843   0.208
  633TIP3    H2 1839   7.272   2.795   0.324
  634TIP3   OH2 1840   6.625   2.684   0.436
  634TIP3    H1 1841   6.677   2.606   0.461
  634TIP3    H2 1842   6.669   2.754   0.487
  635TIP3   OH2 1843   6.616   2.993   0.846
  635TIP3    H1 1844   6.704   2.990   0.890
  635TIP3    H2 1845   6.595   2.898   0.840
  636TIP3   OH2 1846   7.097   2.953   0.893
  636TIP3    H1 1847   7.192   2.935   0.891
  636TIP3    H2 1848   7.066   2.899   0.817
  637TIP3   OH2 1849   6.746   2.401   1.046
  637TIP3    H1 1850   6.762   2.305   1.051
  637TIP3    H2 1851   6.659   2.403   0.999
  638TIP3   OH2 1852   7.368   2.484   0.813
  638TIP3    H1 1853   7.312   2.501   0.734
  638TIP3    H2 1854   7.384   2.387   0.807
  639TIP3   OH2 1855   6.869   2.135   1.024
  639TIP3    H1 1856   6.946   2.081   1.002
  639TIP3    H2 1857   6.893   2.167   1.114
  640TIP3   OH2 1858   7.215   2.068   0.688
  640TIP3    H1 1859   7.120   2.090   0.697
  640TIP3    H2 1860   7.211   1.994   0.625
  641TIP3   OH2 1861   7.171   1.944   1.056
  641TIP3    H1 1862   7.112   1.873   1.089
  641TIP3    H2 1863   7.197   1.908   0.969
  642TIP3   OH2 1864   7.031   1.719   1.120
  642TIP3    H1 1865   7.060   1.661   1.046
  642TIP3    H2 1866   7.073   1.676   1.198
  643TIP3   OH2 1867   6.362   2.658   0.028
  643TIP3    H1 1868   6.341   2.578   0.077
  643TIP3    H2 1869   6.425   2.703   0.086
  644TIP3   OH2 1870   6.562   2.067   0.411
  644TIP3    H1 1871   6.565   2.002   0.339
  644TIP3    H2 1872   6.658   2.079   0.428
  645TIP3   OH2 1873   6.769   1.756   1.067
  645TIP3    H1 1874   6.865   1.745   1.081
  645TIP3    H2 1875   6.738   1.671   1.107
  646TIP3   OH2 1876   6.783   2.732   0.865
  646TIP3    H1 1877   6.694   2.701   0.841
  646TIP3    H2 1878   6.789   2.705   0.958
  647TIP3   OH2 1879   6.951   2.767   0.420
  647TIP3    H1 1880   6.904   2.837   0.370
  647TIP3    H2 1881   7.041   2.784   0.383
  648TIP3   OH2 1882   7.410   3.005   0.550
  648TIP3    H1 1883   7.459   3.014   0.634
  648TIP3    H2 1884   7.469   3.049   0.486
  649TIP3   OH2 1885   7.581   3.139   0.364
  649TIP3    H1 1886   7.620   3.105   0.282
  649TIP3    H2 1887   7.594   3.235   0.351
  650TIP3   OH2 1888   6.633   3.010   0.450
  650TIP3    H1 1889   6.549   3.048   0.415
  650TIP3    H2 1890   6.636   3.055   0.535
  651TIP3   OH2 1891   6.855   2.995   0.289
  651TIP3    H1 1892   6.778   3.002   0.350
  651TIP3    H2 1893   6.825   3.055   0.220
  652TIP3   OH2 1894   6.534   2.795   0.199
  652TIP3    H1 1895   6.574   2.773   0.285
  652TIP3    H2 1896   6.612   2.780   0.141
  653TIP3   OH2 1897   6.754   2.698   0.068
  653TIP3    H1 1898   6.763   2.610   0.111
  653TIP3    H2 1899   6.834   2.702   0.013
  654TIP3   OH2 1900   0.883   2.671   2.051
  654TIP3    H1 1901   0.812   2.708   1.995
  654TIP3    H2 1902   0.897   2.743   2.115
  655TIP3   OH2 1903   0.356   3.488   1.650
  655TIP3    H1 1904   0.294   3.414   1.662
  655TIP3    H2 1905   0.333   3.520   1.559
  656TIP3   OH2 1906   0.517   3.401   1.984
  656TIP3    H1 1907   0.509   3.323   1.926
  656TIP3    H2 1908   0.505   3.476   1.922
  657TIP3   OH2 1909   0.725   3.024   1.828
  657TIP3    H1 1910   0.645   3.081   1.832
  657TIP3    H2 1911   0.757   3.044   1.738
  658TIP3   OH2 1912   0.436   2.906   2.150
  658TIP3    H1 1913   0.402   2.986   2.194
  658TIP3    H2 1914   0.361   2.885   2.090
  659TIP3   OH2 1915   0.755   3.741   2.023
  659TIP3    H1 1916   0.751   3.645   2.036
  659TIP3    H2 1917   0.670   3.766   2.067
  660TIP3   OH2 1918  -0.130   3.532   2.176
  660TIP3    H1 1919  -0.138   3.628   2.195
  660TIP3    H2 1920  -0.222   3.505   2.181
  661TIP3   OH2 1921   0.652   2.867   2.307
  661TIP3    H1 1922   0.572   2.885   2.253
  661TIP3    H2 1923   0.656   2.769   2.299
  662TIP3   OH2 1924   0.112   2.862   2.501
  662TIP3    H1 1925   0.115   2.771   2.533
  662TIP3    H2 1926   0.206   2.884   2.497
  663TIP3   OH2 1927   0.443   4.089   2.123
  663TIP3    H1 1928   0.439   4.114   2.028
  663TIP3    H2 1929   0.518   4.141   2.154
  664TIP3   OH2 1930   0.500   3.172   1.828
  664TIP3    H1 1931   0.496   3.200   1.733
  664TIP3    H2 1932   0.442   3.094   1.825
  665TIP3   OH2 1933   0.032   3.312   2.196
  665TIP3    H1 1934   0.009   3.263   2.276
  665TIP3    H2 1935  -0.034   3.385   2.200
  666TIP3   OH2 1936   0.129   3.556   2.062
  666TIP3    H1 1937   0.041   3.544   2.102
  666TIP3    H2 1938   0.177   3.587   2.142
  667TIP3   OH2 1939   0.765   3.456   2.076
  667TIP3    H1 1940   0.668   3.448   2.065
  667TIP3    H2 1941   0.795   3.422   1.988
  668TIP3   OH2 1942   0.274   3.781   1.965
  668TIP3    H1 1943   0.200   3.716   1.961
  668TIP3    H2 1944   0.249   3.844   1.894
  669TIP3   OH2 1945   0.659   2.597   2.230
  669TIP3    H1 1946   0.569   2.563   2.221
  669TIP3    H2 1947   0.689   2.604   2.138
  670TIP3   OH2 1948   0.290   3.793   1.578
  670TIP3    H1 1949   0.246   3.791   1.492
  670TIP3    H2 1950   0.384   3.798   1.551
  671TIP3   OH2 1951  -0.450   3.742   2.588
  671TIP3    H1 1952  -0.356   3.730   2.608
  671TIP3    H2 1953  -0.451   3.720   2.494
  672TIP3   OH2 1954   0.197   3.650   2.310
  672TIP3    H1 1955   0.183   3.581   2.379
  672TIP3    H2 1956   0.270   3.702   2.347
  673TIP3   OH2 1957  -0.182   3.288   2.521
  673TIP3    H1 1958  -0.212   3.270   2.429
  673TIP3    H2 1959  -0.131   3.208   2.539
  674TIP3   OH2 1960   0.297   3.262   2.097
  674TIP3    H1 1961   0.353   3.338   2.073
  674TIP3    H2 1962   0.211   3.302   2.121
  675TIP3   OH2 1963   0.165   3.208   2.514
  675TIP3    H1 1964   0.240   3.183   2.458
  675TIP3    H2 1965   0.169   3.140   2.584
  676TIP3   OH2 1966   0.388   2.880   2.566
  676TIP3    H1 1967   0.441   2.800   2.582
  676TIP3    H2 1968   0.454   2.939   2.526
  677TIP3   OH2 1969   0.426   3.151   2.307
  677TIP3    H1 1970   0.369   3.190   2.237
  677TIP3    H2 1971   0.514   3.166   2.266
  678TIP3   OH2 1972   0.538   2.550   2.594
  678TIP3    H1 1973   0.538   2.453   2.609
  678TIP3    H2 1974   0.517   2.586   2.682
  679TIP3   OH2 1975   0.550   3.846   1.515
  679TIP3    H1 1976   0.580   3.877   1.602
  679TIP3    H2 1977   0.608   3.894   1.454
  680TIP3   OH2 1978   0.594   3.874   1.792
  680TIP3    H1 1979   0.544   3.790   1.793
  680TIP3    H2 1980   0.662   3.850   1.857
  681TIP3   OH2 1981   0.626   3.540   2.368
  681TIP3    H1 1982   0.553   3.549   2.432
  681TIP3    H2 1983   0.667   3.629   2.371
  682TIP3   OH2 1984   0.711   3.362   1.612
  682TIP3    H1 1985   0.724   3.271   1.582
  682TIP3    H2 1986   0.663   3.403   1.538
  683TIP3   OH2 1987   0.475   3.635   1.840
  683TIP3    H1 1988   0.396   3.673   1.885
  683TIP3    H2 1989   0.433   3.589   1.763
  684TIP3   OH2 1990   0.672   3.203   2.197
  684TIP3    H1 1991   0.743   3.136   2.182
  684TIP3    H2 1992   0.695   3.271   2.131
  685TIP3   OH2 1993   0.858   3.007   2.206
  685TIP3    H1 1994   0.783   2.959   2.246
  685TIP3    H2 1995   0.932   2.947   2.231
  686TIP3   OH2 1996   0.645   2.799   1.967
  686TIP3    H1 1997   0.565   2.825   2.016
  686TIP3    H2 1998   0.662   2.882   1.916
  687TIP3   OH2 1999   1.074   2.417   2.516
  687TIP3    H1 2000   1.129   2.352   2.468
  687TIP3    H2 2001   1.028   2.462   2.441
  688TIP3   OH2 2002   0.927   2.541   2.325
  688TIP3    H1 2003   0.843   2.582   2.354
  688TIP3    H2 2004   0.903   2.516   2.234
  689TIP3   OH2 2005  -0.140   3.797   2.241
  689TIP3    H1 2006  -0.098   3.797   2.329
  689TIP3    H2 2007  -0.074   3.847   2.188
  690TIP3   OH2 2008   0.043   3.937   2.096
  690TIP3    H1 2009   0.119   3.888   2.061
  690TIP3    H2 2010   0.088   4.000   2.156
  691TIP3   OH2 2011   0.018   3.766   1.812
  691TIP3    H1 2012  -0.073   3.770   1.845
  691TIP3    H2 2013   0.041   3.859   1.803
  692TIP3   OH2 2014   0.230   3.971   1.769
  692TIP3    H1 2015   0.211   4.050   1.714
  692TIP3    H2 2016   0.248   3.904   1.699
  693TIP3   OH2 2017   0.594   2.284   2.645
  693TIP3    H1 2018   0.601   2.249   2.736
  693TIP3    H2 2019   0.663   2.235   2.598
  694TIP3   OH2 2020   0.507   3.821   2.123
  694TIP3    H1 2021   0.427   3.789   2.075
  694TIP3    H2 2022   0.486   3.916   2.128
  695TIP3   OH2 2023   1.772   3.202   0.899
  695TIP3    H1 2024   1.753   3.293   0.867
  695TIP3    H2 2025   1.683   3.172   0.915
  696TIP3   OH2 2026   1.778   3.194   1.269
  696TIP3    H1 2027   1.804   3.163   1.357
  696TIP3    H2 2028   1.733   3.116   1.233
  697TIP3   OH2 2029   1.077   3.092   1.636
  697TIP3    H1 2030   1.103   3.020   1.696
  697TIP3    H2 2031   1.162   3.139   1.627
  698TIP3   OH2 2032   2.017   3.495   0.953
  698TIP3    H1 2033   2.000   3.425   1.017
  698TIP3    H2 2034   2.045   3.569   1.008
  699TIP3   OH2 2035   1.045   3.492   1.359
  699TIP3    H1 2036   1.040   3.395   1.367
  699TIP3    H2 2037   1.141   3.504   1.342
  700TIP3   OH2 2038   1.664   3.959   0.971
  700TIP3    H1 2039   1.708   3.891   0.915
  700TIP3    H2 2040   1.661   3.913   1.056
  701TIP3   OH2 2041   1.568   3.422   1.324
  701TIP3    H1 2042   1.598   3.350   1.266
  701TIP3    H2 2043   1.655   3.462   1.346
  702TIP3   OH2 2044   2.584   2.736   1.315
  702TIP3    H1 2045   2.611   2.819   1.359
  702TIP3    H2 2046   2.604   2.757   1.222
  703TIP3   OH2 2047   1.984   2.918   1.353
  703TIP3    H1 2048   2.025   2.831   1.369
  703TIP3    H2 2049   1.951   2.908   1.262
  704TIP3   OH2 2050   2.015   2.676   0.959
  704TIP3    H1 2051   2.100   2.661   1.006
  704TIP3    H2 2052   2.040   2.656   0.868
  705TIP3   OH2 2053   1.403   2.970   1.235
  705TIP3    H1 2054   1.498   2.952   1.249
  705TIP3    H2 2055   1.392   2.933   1.146
  706TIP3   OH2 2056   2.654   2.942   1.491
  706TIP3    H1 2057   2.574   2.994   1.467
  706TIP3    H2 2058   2.679   2.984   1.575
  707TIP3   OH2 2059   1.315   2.551   1.759
  707TIP3    H1 2060   1.253   2.597   1.699
  707TIP3    H2 2061   1.269   2.571   1.843
  708TIP3   OH2 2062   1.652   3.413   0.772
  708TIP3    H1 2063   1.617   3.406   0.683
  708TIP3    H2 2064   1.618   3.501   0.797
  709TIP3   OH2 2065   1.427   3.340   1.546
  709TIP3    H1 2066   1.365   3.408   1.581
  709TIP3    H2 2067   1.469   3.387   1.471
  710TIP3   OH2 2068   2.236   2.661   1.121
  710TIP3    H1 2069   2.217   2.624   1.208
  710TIP3    H2 2070   2.277   2.747   1.143
  711TIP3   OH2 2071   1.162   2.689   1.586
  711TIP3    H1 2072   1.226   2.762   1.580
  711TIP3    H2 2073   1.171   2.644   1.501
  712TIP3   OH2 2074   1.254   3.534   1.643
  712TIP3    H1 2075   1.226   3.618   1.602
  712TIP3    H2 2076   1.175   3.517   1.699
  713TIP3   OH2 2077   2.086   3.739   1.122
  713TIP3    H1 2078   1.995   3.731   1.159
  713TIP3    H2 2079   2.078   3.823   1.073
  714TIP3   OH2 2080   2.372   2.630   1.475
  714TIP3    H1 2081   2.285   2.662   1.446
  714TIP3    H2 2082   2.432   2.672   1.409
  715TIP3   OH2 2083   1.698   2.289   1.456
  715TIP3    H1 2084   1.657   2.202   1.444
  715TIP3    H2 2085   1.619   2.346   1.466
  716TIP3   OH2 2086   1.785   3.786   0.796
  716TIP3    H1 2087   1.832   3.702   0.774
  716TIP3    H2 2088   1.849   3.849   0.754
  717TIP3   OH2 2089   1.923   3.570   0.703
  717TIP3    H1 2090   1.927   3.494   0.642
  717TIP3    H2 2091   1.960   3.531   0.785
  718TIP3   OH2 2092   2.311   3.650   1.463
  718TIP3    H1 2093   2.300   3.573   1.403
  718TIP3    H2 2094   2.293   3.725   1.403
  719TIP3   OH2 2095   2.506   3.288   1.309
  719TIP3    H1 2096   2.423   3.339   1.312
  719TIP3    H2 2097   2.537   3.312   1.219
  720TIP3   OH2 2098   1.944   3.129   0.693
  720TIP3    H1 2099   1.894   3.153   0.774
  720TIP3    H2 2100   2.030   3.101   0.729
  721TIP3   OH2 2101   2.186   3.165   1.605
  721TIP3    H1 2102   2.182   3.250   1.652
  721TIP3    H2 2103   2.099   3.168   1.559
  722TIP3   OH2 2104   1.307   3.524   1.260
  722TIP3    H1 2105   1.295   3.505   1.165
  722TIP3    H2 2106   1.397   3.490   1.276
  723TIP3   OH2 2107   1.312   3.101   1.463
  723TIP3    H1 2108   1.346   3.068   1.377
  723TIP3    H2 2109   1.363   3.184   1.476
  724TIP3   OH2 2110   1.843   3.735   1.241
  724TIP3    H1 2111   1.831   3.814   1.297
  724TIP3    H2 2112   1.829   3.661   1.302
  725TIP3   OH2 2113   1.457   3.655   1.787
  725TIP3    H1 2114   1.395   3.715   1.833
  725TIP3    H2 2115   1.394   3.600   1.736
  726TIP3   OH2 2116   1.214   3.209   1.892
  726TIP3    H1 2117   1.215   3.297   1.934
  726TIP3    H2 2118   1.120   3.185   1.901
  727TIP3   OH2 2119   1.533   3.670   0.789
  727TIP3    H1 2120   1.615   3.719   0.804
  727TIP3    H2 2121   1.473   3.739   0.758
  728TIP3   OH2 2122   1.248   3.825   1.873
  728TIP3    H1 2123   1.215   3.817   1.781
  728TIP3    H2 2124   1.169   3.798   1.926
  729TIP3   OH2 2125   2.095   3.600   0.107
  729TIP3    H1 2126   2.115   3.695   0.094
  729TIP3    H2 2127   2.184   3.560   0.104
  730TIP3   OH2 2128   0.849   3.356   1.843
  730TIP3    H1 2129   0.796   3.352   1.761
  730TIP3    H2 2130   0.880   3.263   1.854
  731TIP3   OH2 2131   0.711   3.584   1.421
  731TIP3    H1 2132   0.802   3.560   1.445
  731TIP3    H2 2133   0.687   3.644   1.492
  732TIP3   OH2 2134   2.549   3.997   1.511
  732TIP3    H1 2135   2.547   3.900   1.523
  732TIP3    H2 2136   2.465   4.022   1.556
  733TIP3   OH2 2137   1.655   3.785   1.646
  733TIP3    H1 2138   1.649   3.877   1.679
  733TIP3    H2 2139   1.583   3.742   1.698
  734TIP3   OH2 2140   1.416   3.903   0.603
  734TIP3    H1 2141   1.378   3.888   0.514
  734TIP3    H2 2142   1.389   3.995   0.621
  735TIP3   OH2 2143   0.849   3.769   0.974
  735TIP3    H1 2144   0.888   3.744   1.060
  735TIP3    H2 2145   0.805   3.686   0.946
  736TIP3   OH2 2146   1.615   3.805   0.242
  736TIP3    H1 2147   1.674   3.747   0.190
  736TIP3    H2 2148   1.661   3.813   0.327
  737TIP3   OH2 2149   1.671   3.863   0.513
  737TIP3    H1 2150   1.580   3.870   0.550
  737TIP3    H2 2151   1.717   3.817   0.584
  738TIP3   OH2 2152   2.438   3.125   1.785
  738TIP3    H1 2153   2.357   3.139   1.733
  738TIP3    H2 2154   2.451   3.028   1.775
  739TIP3   OH2 2155   1.040   3.545   1.812
  739TIP3    H1 2156   1.092   3.526   1.892
  739TIP3    H2 2157   0.967   3.479   1.822
  740TIP3   OH2 2158   1.969   2.473   1.789
  740TIP3    H1 2159   2.036   2.449   1.856
  740TIP3    H2 2160   1.884   2.456   1.834
  741TIP3   OH2 2161   2.207   2.901   1.705
  741TIP3    H1 2162   2.156   2.900   1.790
  741TIP3    H2 2163   2.183   2.989   1.668
  742TIP3   OH2 2164   1.370   2.880   1.611
  742TIP3    H1 2165   1.320   2.899   1.693
  742TIP3    H2 2166   1.351   2.961   1.558
  743TIP3   OH2 2167   1.768   2.880   0.843
  743TIP3    H1 2168   1.680   2.908   0.817
  743TIP3    H2 2169   1.816   2.886   0.759
  744TIP3   OH2 2170   1.915   3.122   1.939
  744TIP3    H1 2171   1.894   3.050   2.002
  744TIP3    H2 2172   2.009   3.137   1.961
  745TIP3   OH2 2173   1.895   2.880   1.095
  745TIP3    H1 2174   1.846   2.912   1.016
  745TIP3    H2 2175   1.934   2.799   1.055
  746TIP3   OH2 2176   1.192   2.907   1.818
  746TIP3    H1 2177   1.204   2.966   1.894
  746TIP3    H2 2178   1.169   2.823   1.860
  747TIP3   OH2 2179   1.910   3.118   1.517
  747TIP3    H1 2180   1.942   3.047   1.457
  747TIP3    H2 2181   1.878   3.064   1.592
  748TIP3   OH2 2182   2.070   2.655   1.391
  748TIP3    H1 2183   2.034   2.671   1.481
  748TIP3    H2 2184   2.004   2.590   1.358
  749TIP3   OH2 2185   2.240   4.347   1.608
  749TIP3    H1 2186   2.237   4.370   1.514
  749TIP3    H2 2187   2.319   4.394   1.638
  750TIP3   OH2 2188   1.198   3.460   2.029
  750TIP3    H1 2189   1.277   3.487   2.080
  750TIP3    H2 2190   1.132   3.454   2.101
  751TIP3   OH2 2191   1.668   2.910   1.284
  751TIP3    H1 2192   1.740   2.877   1.229
  751TIP3    H2 2193   1.679   2.860   1.367
  752TIP3   OH2 2194   1.636   2.803   1.584
  752TIP3    H1 2195   1.548   2.845   1.590
  752TIP3    H2 2196   1.695   2.869   1.627
  753TIP3   OH2 2197   2.273   3.432   1.298
  753TIP3    H1 2198   2.297   3.483   1.218
  753TIP3    H2 2199   2.188   3.390   1.272
  754TIP3   OH2 2200   1.773   3.515   1.667
  754TIP3    H1 2201   1.798   3.496   1.758
  754TIP3    H2 2202   1.735   3.604   1.673
  755TIP3   OH2 2203   1.054   3.212   1.341
  755TIP3    H1 2204   1.108   3.184   1.265
  755TIP3    H2 2205   1.096   3.163   1.414
  756TIP3   OH2 2206   0.954   3.125   1.959
  756TIP3    H1 2207   0.962   3.114   2.055
  756TIP3    H2 2208   0.879   3.066   1.938
  757TIP3   OH2 2209   1.673   3.254   1.979
  757TIP3    H1 2210   1.611   3.196   1.932
  757TIP3    H2 2211   1.759   3.219   1.948
  758TIP3   OH2 2212   1.933   3.774   1.564
  758TIP3    H1 2213   1.837   3.773   1.575
  758TIP3    H2 2214   1.961   3.828   1.642
  759TIP3   OH2 2215   2.562   3.705   1.551
  759TIP3    H1 2216   2.464   3.700   1.542
  759TIP3    H2 2217   2.588   3.675   1.461
  760TIP3   OH2 2218   2.050   3.663   0.378
  760TIP3    H1 2219   2.014   3.593   0.435
  760TIP3    H2 2220   2.052   3.620   0.291
  761TIP3   OH2 2221   2.040   3.295   1.220
  761TIP3    H1 2222   1.946   3.270   1.231
  761TIP3    H2 2223   2.073   3.216   1.173
  762TIP3   OH2 2224   1.195   3.543   0.986
  762TIP3    H1 2225   1.172   3.629   0.943
  762TIP3    H2 2226   1.107   3.501   0.994
  763TIP3   OH2 2227   1.364   3.312   0.984
  763TIP3    H1 2228   1.328   3.398   0.961
  763TIP3    H2 2229   1.286   3.254   0.978
  764TIP3   OH2 2230   1.436   3.868   1.439
  764TIP3    H1 2231   1.478   3.939   1.385
  764TIP3    H2 2232   1.515   3.830   1.482
  765TIP3   OH2 2233   1.103   3.768   0.860
  765TIP3    H1 2234   1.008   3.781   0.877
  765TIP3    H2 2235   1.129   3.857   0.829
  766TIP3   OH2 2236   1.825   3.501   1.398
  766TIP3    H1 2237   1.816   3.497   1.495
  766TIP3    H2 2238   1.902   3.446   1.382
  767TIP3   OH2 2239   1.810   3.426   0.292
  767TIP3    H1 2240   1.862   3.393   0.367
  767TIP3    H2 2241   1.739   3.360   0.287
  768TIP3   OH2 2242   2.072   4.036   1.448
  768TIP3    H1 2243   1.992   3.980   1.439
  768TIP3    H2 2244   2.058   4.100   1.375
  769TIP3   OH2 2245   2.140   3.876   0.094
  769TIP3    H1 2246   2.191   3.953   0.062
  769TIP3    H2 2247   2.061   3.921   0.129
  770TIP3   OH2 2248   1.153   2.638   1.971
  770TIP3    H1 2249   1.056   2.645   1.984
  770TIP3    H2 2250   1.180   2.591   2.052
  771TIP3   OH2 2251   1.961   3.355   0.523
  771TIP3    H1 2252   1.941   3.271   0.569
  771TIP3    H2 2253   2.054   3.337   0.496
  772TIP3   OH2 2254   0.885   3.732   1.608
  772TIP3    H1 2255   0.930   3.650   1.630
  772TIP3    H2 2256   0.910   3.786   1.684
  773TIP3   OH2 2257   1.994   2.712   1.650
  773TIP3    H1 2258   2.075   2.750   1.688
  773TIP3    H2 2259   1.981   2.631   1.704
  774TIP3   OH2 2260   1.374   3.567   0.482
  774TIP3    H1 2261   1.345   3.595   0.570
  774TIP3    H2 2262   1.393   3.652   0.439
  775TIP3   OH2 2263   1.833   2.958   1.723
  775TIP3    H1 2264   1.855   3.012   1.801
  775TIP3    H2 2265   1.888   2.879   1.734
  776TIP3   OH2 2266   2.474   2.856   1.709
  776TIP3    H1 2267   2.375   2.854   1.711
  776TIP3    H2 2268   2.491   2.836   1.617
  777TIP3   OH2 2269   2.125   3.054   1.094
  777TIP3    H1 2270   2.048   2.995   1.102
  777TIP3    H2 2271   2.195   3.003   1.141
  778TIP3   OH2 2272   2.093   4.011   1.042
  778TIP3    H1 2273   2.050   4.058   0.967
  778TIP3    H2 2274   2.187   4.028   1.020
  779TIP3   OH2 2275   0.856   4.026   2.023
  779TIP3    H1 2276   0.945   4.033   2.063
  779TIP3    H2 2277   0.840   3.930   2.027
  780TIP3   OH2 2278   1.349   4.016   2.044
  780TIP3    H1 2279   1.437   3.984   2.072
  780TIP3    H2 2280   1.320   3.940   1.989
  781TIP3   OH2 2281   1.982   3.911   1.801
  781TIP3    H1 2282   1.976   3.840   1.869
  781TIP3    H2 2283   2.061   3.960   1.829
  782TIP3   OH2 2284   1.771   3.618   0.102
  782TIP3    H1 2285   1.793   3.557   0.176
  782TIP3    H2 2286   1.855   3.623   0.054
  783TIP3   OH2 2287   0.998   3.445   2.221
  783TIP3    H1 2288   1.012   3.348   2.226
  783TIP3    H2 2289   0.909   3.449   2.180
  784TIP3   OH2 2290   1.602   3.530   1.994
  784TIP3    H1 2291   1.562   3.547   1.907
  784TIP3    H2 2292   1.633   3.437   1.985
  785TIP3   OH2 2293   2.096   3.539   1.603
  785TIP3    H1 2294   2.171   3.582   1.557
  785TIP3    H2 2295   2.026   3.605   1.586
  786TIP3   OH2 2296   1.115   3.182   2.205
  786TIP3    H1 2297   1.189   3.125   2.181
  786TIP3    H2 2298   1.143   3.213   2.294
  787TIP3   OH2 2299   1.455   3.067   1.869
  787TIP3    H1 2300   1.373   3.121   1.867
  787TIP3    H2 2301   1.502   3.099   1.788
  788TIP3   OH2 2302   1.967   3.466   1.999
  788TIP3    H1 2303   2.044   3.439   1.948
  788TIP3    H2 2304   1.964   3.398   2.069
  789TIP3   OH2 2305   1.576   2.852   1.988
  789TIP3    H1 2306   1.572   2.773   1.930
  789TIP3    H2 2307   1.532   2.920   1.932
  790TIP3   OH2 2308   1.574   2.633   1.799
  790TIP3    H1 2309   1.600   2.680   1.717
  790TIP3    H2 2310   1.481   2.608   1.779
  791TIP3   OH2 2311   1.603   3.173   1.670
  791TIP3    H1 2312   1.687   3.185   1.623
  791TIP3    H2 2313   1.546   3.240   1.627
  792TIP3   OH2 2314   2.185   3.140   2.051
  792TIP3    H1 2315   2.236   3.058   2.059
  792TIP3    H2 2316   2.250   3.202   2.015
  793TIP3   OH2 2317   2.226   3.393   1.789
  793TIP3    H1 2318   2.168   3.447   1.730
  793TIP3    H2 2319   2.313   3.414   1.749
  794TIP3   OH2 2320   1.455   2.961   2.223
  794TIP3    H1 2321   1.385   2.894   2.236
  794TIP3    H2 2322   1.485   2.939   2.132
  795TIP3   OH2 2323   1.708   2.402   1.868
  795TIP3    H1 2324   1.661   2.485   1.844
  795TIP3    H2 2325   1.639   2.336   1.846
  796TIP3   OH2 2326   1.835   2.903   2.081
  796TIP3    H1 2327   1.819   2.893   2.177
  796TIP3    H2 2328   1.746   2.881   2.047
  797TIP3   OH2 2329   2.072   2.853   1.935
  797TIP3    H1 2330   1.997   2.857   1.998
  797TIP3    H2 2331   2.146   2.825   1.993
  798TIP3   OH2 2332   2.301   2.795   2.087
  798TIP3    H1 2333   2.314   2.700   2.106
  798TIP3    H2 2334   2.298   2.835   2.177
  799TIP3   OH2 2335   1.291   2.743   2.274
  799TIP3    H1 2336   1.293   2.651   2.242
  799TIP3    H2 2337   1.325   2.732   2.365
  800TIP3   OH2 2338   1.799   2.406   2.126
  800TIP3    H1 2339   1.869   2.339   2.114
  800TIP3    H2 2340   1.759   2.406   2.037
  801TIP3   OH2 2341   1.866   2.624   2.285
  801TIP3    H1 2342   1.843   2.555   2.219
  801TIP3    H2 2343   1.790   2.686   2.277
  802TIP3   OH2 2344   0.619   3.739   1.213
  802TIP3    H1 2345   0.646   3.668   1.274
  802TIP3    H2 2346   0.671   3.812   1.251
  803TIP3   OH2 2347   2.348   4.098   0.999
  803TIP3    H1 2348   2.375   4.135   1.085
  803TIP3    H2 2349   2.408   4.142   0.938
  804TIP3   OH2 2350   2.374   4.122   1.282
  804TIP3    H1 2351   2.331   4.034   1.275
  804TIP3    H2 2352   2.452   4.097   1.336
  805TIP3   OH2 2353   2.423   3.796   1.855
  805TIP3    H1 2354   2.349   3.806   1.919
  805TIP3    H2 2355   2.464   3.885   1.858
  806TIP3   OH2 2356   2.235   3.313   0.476
  806TIP3    H1 2357   2.305   3.372   0.443
  806TIP3    H2 2358   2.280   3.270   0.551
  807TIP3   OH2 2359   2.368   3.180   0.676
  807TIP3    H1 2360   2.297   3.138   0.729
  807TIP3    H2 2361   2.426   3.217   0.745
  808TIP3   OH2 2362   2.422   3.570   1.111
  808TIP3    H1 2363   2.472   3.504   1.060
  808TIP3    H2 2364   2.416   3.644   1.048
  809TIP3   OH2 2365   2.252   3.870   1.305
  809TIP3    H1 2366   2.179   3.913   1.354
  809TIP3    H2 2367   2.204   3.824   1.233
  810TIP3   OH2 2368   2.302   3.115   0.285
  810TIP3    H1 2369   2.223   3.115   0.227
  810TIP3    H2 2370   2.269   3.167   0.361
  811TIP3   OH2 2371   2.182   3.041   0.824
  811TIP3    H1 2372   2.201   2.946   0.816
  811TIP3    H2 2373   2.165   3.052   0.920
  812TIP3   OH2 2374   0.813   3.102   1.579
  812TIP3    H1 2375   0.813   3.072   1.488
  812TIP3    H2 2376   0.910   3.102   1.599
  813TIP3   OH2 2377   2.469   3.459   1.681
  813TIP3    H1 2378   2.542   3.394   1.670
  813TIP3    H2 2379   2.493   3.528   1.616
  814TIP3   OH2 2380   2.653   3.262   1.695
  814TIP3    H1 2381   2.579   3.212   1.736
  814TIP3    H2 2382   2.726   3.199   1.710
  815TIP3   OH2 2383   2.338   2.920   1.216
  815TIP3    H1 2384   2.423   2.946   1.172
  815TIP3    H2 2385   2.352   2.962   1.303
  816TIP3   OH2 2386   2.408   3.069   1.446
  816TIP3    H1 2387   2.329   3.104   1.492
  816TIP3    H2 2388   2.440   3.149   1.399
  817TIP3   OH2 2389   1.025   2.801   2.261
  817TIP3    H1 2390   1.123   2.791   2.255
  817TIP3    H2 2391   1.001   2.715   2.301
  818TIP3   OH2 2392   2.857   2.659   2.001
  818TIP3    H1 2393   2.918   2.594   1.959
  818TIP3    H2 2394   2.828   2.713   1.925
  819TIP3   OH2 2395   2.306   2.511   0.824
  819TIP3    H1 2396   2.269   2.438   0.876
  819TIP3    H2 2397   2.262   2.497   0.737
  820TIP3   OH2 2398   2.729   2.799   1.808
  820TIP3    H1 2399   2.642   2.840   1.826
  820TIP3    H2 2400   2.699   2.727   1.747
  821TIP3   OH2 2401   1.937   3.963   0.659
  821TIP3    H1 2402   1.982   3.949   0.573
  821TIP3    H2 2403   1.988   4.037   0.695
  822TIP3   OH2 2404   1.032   3.773   2.042
  822TIP3    H1 2405   0.941   3.744   2.023
  822TIP3    H2 2406   1.041   3.748   2.135
  823TIP3   OH2 2407   1.211   3.806   1.590
  823TIP3    H1 2408   1.161   3.878   1.546
  823TIP3    H2 2409   1.296   3.818   1.543
  824TIP3   OH2 2410   1.641   4.064   1.733
  824TIP3    H1 2411   1.691   4.052   1.816
  824TIP3    H2 2412   1.711   4.104   1.676
  825TIP3   OH2 2413   1.830   4.199   1.587
  825TIP3    H1 2414   1.898   4.150   1.538
  825TIP3    H2 2415   1.886   4.255   1.645
  826TIP3   OH2 2416   2.631   2.563   1.686
  826TIP3    H1 2417   2.541   2.559   1.651
  826TIP3    H2 2418   2.661   2.470   1.675
  827TIP3   OH2 2419   0.894   4.085   1.628
  827TIP3    H1 2420   0.808   4.118   1.594
  827TIP3    H2 2421   0.865   4.049   1.712
  828TIP3   OH2 2422   1.122   4.043   1.474
  828TIP3    H1 2423   1.036   4.062   1.518
  828TIP3    H2 2424   1.102   4.069   1.381
  829TIP3   OH2 2425   1.546   4.066   1.271
  829TIP3    H1 2426   1.482   4.081   1.199
  829TIP3    H2 2427   1.561   4.158   1.303
  830TIP3   OH2 2428   1.816   4.008   1.324
  830TIP3    H1 2429   1.723   4.024   1.300
  830TIP3    H2 2430   1.861   4.077   1.272
  831TIP3   OH2 2431   2.023   4.199   1.233
  831TIP3    H1 2432   2.008   4.283   1.185
  831TIP3    H2 2433   2.050   4.139   1.160
  832TIP3   OH2 2434   0.814   3.871   1.369
  832TIP3    H1 2435   0.836   3.833   1.456
  832TIP3    H2 2436   0.876   3.819   1.313
  833TIP3   OH2 2437   0.986   3.724   1.216
  833TIP3    H1 2438   1.006   3.641   1.264
  833TIP3    H2 2439   1.075   3.762   1.203
  834TIP3   OH2 2440   1.254   3.823   1.218
  834TIP3    H1 2441   1.286   3.736   1.188
  834TIP3    H2 2442   1.305   3.834   1.300
  835TIP3   OH2 2443   1.866   2.470   1.311
  835TIP3    H1 2444   1.807   2.416   1.366
  835TIP3    H2 2445   1.868   2.420   1.228
  836TIP3   OH2 2446   2.508   2.439   1.014
  836TIP3    H1 2447   2.494   2.452   0.917
  836TIP3    H2 2448   2.480   2.530   1.036
  837TIP3   OH2 2449   2.150   2.350   1.237
  837TIP3    H1 2450   2.106   2.401   1.167
  837TIP3    H2 2451   2.084   2.280   1.251
  838TIP3   OH2 2452   1.365   3.821   0.344
  838TIP3    H1 2453   1.451   3.822   0.295
  838TIP3    H2 2454   1.303   3.791   0.275
  839TIP3   OH2 2455   2.077   3.932   0.422
  839TIP3    H1 2456   2.070   3.834   0.410
  839TIP3    H2 2457   2.029   3.963   0.343
  840TIP3   OH2 2458   1.284   2.471   2.214
  840TIP3    H1 2459   1.252   2.398   2.271
  840TIP3    H2 2460   1.380   2.469   2.237
  841TIP3   OH2 2461   1.537   2.463   2.331
  841TIP3    H1 2462   1.622   2.442   2.289
  841TIP3    H2 2463   1.527   2.389   2.394
  842TIP3   OH2 2464   2.364   2.523   2.118
  842TIP3    H1 2465   2.384   2.493   2.209
  842TIP3    H2 2466   2.453   2.521   2.076
  843TIP3   OH2 2467   2.301   4.077   1.611
  843TIP3    H1 2468   2.223   4.046   1.559
  843TIP3    H2 2469   2.282   4.173   1.614
  844TIP3   OH2 2470   3.569   3.450   0.375
  844TIP3    H1 2471   3.540   3.541   0.355
  844TIP3    H2 2472   3.493   3.400   0.343
  845TIP3   OH2 2473   3.568   3.450   0.757
  845TIP3    H1 2474   3.601   3.422   0.845
  845TIP3    H2 2475   3.527   3.368   0.725
  846TIP3   OH2 2476   2.867   3.345   1.123
  846TIP3    H1 2477   2.899   3.277   1.184
  846TIP3    H2 2478   2.947   3.399   1.111
  847TIP3   OH2 2479   3.812   3.753   0.438
  847TIP3    H1 2480   3.797   3.684   0.504
  847TIP3    H2 2481   3.841   3.828   0.493
  848TIP3   OH2 2482   2.839   3.756   0.848
  848TIP3    H1 2483   2.831   3.658   0.849
  848TIP3    H2 2484   2.936   3.765   0.840
  849TIP3   OH2 2485   2.535   2.954   0.636
  849TIP3    H1 2486   2.485   3.037   0.638
  849TIP3    H2 2487   2.468   2.894   0.601
  850TIP3   OH2 2488   2.606   3.248   0.811
  850TIP3    H1 2489   2.654   3.167   0.840
  850TIP3    H2 2490   2.652   3.269   0.729
  851TIP3   OH2 2491   3.461   4.213   0.454
  851TIP3    H1 2492   3.507   4.142   0.405
  851TIP3    H2 2493   3.455   4.175   0.543
  852TIP3   OH2 2494   3.366   3.675   0.806
  852TIP3    H1 2495   3.405   3.599   0.760
  852TIP3    H2 2496   3.449   3.721   0.831
  853TIP3   OH2 2497   4.378   2.994   0.803
  853TIP3    H1 2498   4.409   3.077   0.846
  853TIP3    H2 2499   4.404   3.010   0.710
  854TIP3   OH2 2500   3.777   3.176   0.838
  854TIP3    H1 2501   3.822   3.091   0.857
  854TIP3    H2 2502   3.748   3.160   0.746
  855TIP3   OH2 2503   3.117   2.835   0.803
  855TIP3    H1 2504   3.097   2.907   0.741
  855TIP3    H2 2505   3.072   2.761   0.758
  856TIP3   OH2 2506   3.811   2.928   0.424
  856TIP3    H1 2507   3.882   2.912   0.490
  856TIP3    H2 2508   3.864   2.962   0.350
  857TIP3   OH2 2509   2.748   3.034   0.910
  857TIP3    H1 2510   2.833   3.016   0.955
  857TIP3    H2 2511   2.761   2.980   0.828
  858TIP3   OH2 2512   3.190   3.235   0.704
  858TIP3    H1 2513   3.284   3.210   0.716
  858TIP3    H2 2514   3.151   3.151   0.672
  859TIP3   OH2 2515   4.452   3.201   0.975
  859TIP3    H1 2516   4.369   3.249   0.956
  859TIP3    H2 2517   4.474   3.236   1.062
  860TIP3   OH2 2518   3.113   2.820   1.237
  860TIP3    H1 2519   3.054   2.858   1.169
  860TIP3    H2 2520   3.060   2.839   1.318
  861TIP3   OH2 2521   3.462   3.673   0.244
  861TIP3    H1 2522   3.415   3.653   0.161
  861TIP3    H2 2523   3.417   3.755   0.272
  862TIP3   OH2 2524   3.220   3.595   1.032
  862TIP3    H1 2525   3.159   3.662   1.068
  862TIP3    H2 2526   3.262   3.644   0.958
  863TIP3   OH2 2527   4.019   2.932   0.598
  863TIP3    H1 2528   4.014   2.881   0.680
  863TIP3    H2 2529   4.074   3.008   0.624
  864TIP3   OH2 2530   2.985   2.934   1.021
  864TIP3    H1 2531   3.047   3.007   1.044
  864TIP3    H2 2532   3.034   2.895   0.945
  865TIP3   OH2 2533   3.048   3.790   1.131
  865TIP3    H1 2534   3.023   3.875   1.091
  865TIP3    H2 2535   2.969   3.774   1.186
  866TIP3   OH2 2536   2.443   3.477   0.369
  866TIP3    H1 2537   2.401   3.498   0.283
  866TIP3    H2 2538   2.471   3.565   0.401
  867TIP3   OH2 2539   3.881   3.994   0.604
  867TIP3    H1 2540   3.791   3.986   0.644
  867TIP3    H2 2541   3.874   4.081   0.560
  868TIP3   OH2 2542   4.173   2.894   0.970
  868TIP3    H1 2543   4.086   2.923   0.937
  868TIP3    H2 2544   4.234   2.926   0.900
  869TIP3   OH2 2545   3.469   2.538   0.951
  869TIP3    H1 2546   3.454   2.443   0.967
  869TIP3    H2 2547   3.392   2.577   0.998
  870TIP3   OH2 2548   3.584   4.041   0.276
  870TIP3    H1 2549   3.633   3.957   0.258
  870TIP3    H2 2550   3.650   4.105   0.241
  871TIP3   OH2 2551   3.728   3.824   0.185
  871TIP3    H1 2552   3.681   3.746   0.153
  871TIP3    H2 2553   3.765   3.791   0.270
  872TIP3   OH2 2554   4.107   3.907   0.950
  872TIP3    H1 2555   4.096   3.830   0.890
  872TIP3    H2 2556   4.090   3.982   0.890
  873TIP3   OH2 2557   3.400   3.301   0.208
  873TIP3    H1 2558   3.320   3.353   0.188
  873TIP3    H2 2559   3.444   3.297   0.121
  874TIP3   OH2 2560   3.350   3.075  -0.061
  874TIP3    H1 2561   3.422   3.134  -0.033
  874TIP3    H2 2562   3.399   2.998  -0.091
  875TIP3   OH2 2563   4.302   3.544   0.795
  875TIP3    H1 2564   4.219   3.596   0.799
  875TIP3    H2 2565   4.332   3.568   0.705
  876TIP3   OH2 2566   3.746   3.381   0.177
  876TIP3    H1 2567   3.692   3.406   0.256
  876TIP3    H2 2568   3.830   3.357   0.221
  877TIP3   OH2 2569   3.981   3.422   1.092
  877TIP3    H1 2570   3.979   3.506   1.142
  877TIP3    H2 2571   3.895   3.427   1.046
  878TIP3   OH2 2572   2.978   3.380   0.595
  878TIP3    H1 2573   2.937   3.322   0.527
  878TIP3    H2 2574   3.055   3.327   0.624
  879TIP3   OH2 2575   3.108   3.792   0.745
  879TIP3    H1 2576   3.087   3.754   0.658
  879TIP3    H2 2577   3.198   3.757   0.761
  880TIP3   OH2 2578   3.117   3.351   0.952
  880TIP3    H1 2579   3.148   3.330   0.861
  880TIP3    H2 2580   3.159   3.438   0.968
  881TIP3   OH2 2581   3.640   3.991   0.726
  881TIP3    H1 2582   3.627   4.071   0.780
  881TIP3    H2 2583   3.625   3.918   0.790
  882TIP3   OH2 2584   3.254   3.909   1.275
  882TIP3    H1 2585   3.193   3.971   1.320
  882TIP3    H2 2586   3.189   3.856   1.224
  883TIP3   OH2 2587   3.585   3.242  -0.000
  883TIP3    H1 2588   3.643   3.300   0.053
  883TIP3    H2 2589   3.616   3.265  -0.092
  884TIP3   OH2 2590   3.009   3.463   1.379
  884TIP3    H1 2591   3.013   3.552   1.420
  884TIP3    H2 2592   2.913   3.445   1.386
  885TIP3   OH2 2593   3.331   3.918   0.284
  885TIP3    H1 2594   3.409   3.975   0.296
  885TIP3    H2 2595   3.269   3.977   0.239
  886TIP3   OH2 2596   3.048   4.077   1.361
  886TIP3    H1 2597   3.013   4.078   1.269
  886TIP3    H2 2598   2.967   4.054   1.413
  887TIP3   OH2 2599   4.107   2.486   0.051
  887TIP3    H1 2600   4.024   2.505   0.100
  887TIP3    H2 2601   4.119   2.567  -0.002
  888TIP3   OH2 2602   2.847   3.221   0.395
  888TIP3    H1 2603   2.780   3.271   0.343
  888TIP3    H2 2604   2.798   3.140   0.413
  889TIP3   OH2 2605   2.626   3.609   1.307
  889TIP3    H1 2606   2.559   3.589   1.238
  889TIP3    H2 2607   2.663   3.521   1.328
  890TIP3   OH2 2608   2.480   3.799   0.944
  890TIP3    H1 2609   2.576   3.795   0.930
  890TIP3    H2 2610   2.471   3.882   0.994
  891TIP3   OH2 2611   4.345   4.253   0.997
  891TIP3    H1 2612   4.343   4.156   1.011
  891TIP3    H2 2613   4.262   4.278   1.043
  892TIP3   OH2 2614   3.451   4.037   1.132
  892TIP3    H1 2615   3.449   4.130   1.163
  892TIP3    H2 2616   3.379   3.998   1.186
  893TIP3   OH2 2617   3.207   4.167   0.083
  893TIP3    H1 2618   3.160   4.150  -0.000
  893TIP3    H2 2619   3.177   4.257   0.106
  894TIP3   OH2 2620   2.650   4.016   0.467
  894TIP3    H1 2621   2.696   4.007   0.553
  894TIP3    H2 2622   2.597   3.934   0.465
  895TIP3   OH2 2623   3.424   4.030  -0.232
  895TIP3    H1 2624   3.512   3.992  -0.242
  895TIP3    H2 2625   3.432   4.063  -0.140
  896TIP3   OH2 2626   3.463   4.115   0.021
  896TIP3    H1 2627   3.372   4.128   0.057
  896TIP3    H2 2628   3.510   4.082   0.099
  897TIP3   OH2 2629   4.233   3.382   1.272
  897TIP3    H1 2630   4.153   3.394   1.219
  897TIP3    H2 2631   4.250   3.286   1.261
  898TIP3   OH2 2632   2.831   3.791   1.295
  898TIP3    H1 2633   2.880   3.774   1.378
  898TIP3    H2 2634   2.756   3.728   1.302
  899TIP3   OH2 2635   3.232   2.613   1.082
  899TIP3    H1 2636   3.142   2.584   1.055
  899TIP3    H2 2637   3.208   2.697   1.126
  900TIP3   OH2 2638   3.766   2.729   1.275
  900TIP3    H1 2639   3.834   2.701   1.338
  900TIP3    H2 2640   3.682   2.709   1.322
  901TIP3   OH2 2641   4.001   3.157   1.191
  901TIP3    H1 2642   3.952   3.156   1.276
  901TIP3    H2 2643   3.980   3.246   1.156
  902TIP3   OH2 2644   3.670   3.302  -0.252
  902TIP3    H1 2645   3.661   3.263  -0.339
  902TIP3    H2 2646   3.713   3.387  -0.272
  903TIP3   OH2 2647   3.388   2.685   0.056
  903TIP3    H1 2648   3.351   2.673   0.146
  903TIP3    H2 2649   3.355   2.606   0.011
  904TIP3   OH2 2650   3.162   3.129   1.100
  904TIP3    H1 2651   3.111   3.152   1.180
  904TIP3    H2 2652   3.148   3.210   1.045
  905TIP3   OH2 2653   3.044   3.016   0.616
  905TIP3    H1 2654   2.950   2.991   0.631
  905TIP3    H2 2655   3.058   2.977   0.527
  906TIP3   OH2 2656   3.537   3.101   0.342
  906TIP3    H1 2657   3.486   3.172   0.298
  906TIP3    H2 2658   3.592   3.068   0.268
  907TIP3   OH2 2659   3.711   3.379   1.426
  907TIP3    H1 2660   3.690   3.306   1.488
  907TIP3    H2 2661   3.806   3.393   1.447
  908TIP3   OH2 2662   3.692   3.129   0.579
  908TIP3    H1 2663   3.632   3.158   0.508
  908TIP3    H2 2664   3.728   3.049   0.536
  909TIP3   OH2 2665   2.982   3.159   1.307
  909TIP3    H1 2666   3.010   3.225   1.373
  909TIP3    H2 2667   2.972   3.078   1.361
  910TIP3   OH2 2668   3.036   2.614   0.027
  910TIP3    H1 2669   3.037   2.626   0.123
  910TIP3    H2 2670   2.957   2.663   0.003
  911TIP3   OH2 2671   2.574   2.679   0.911
  911TIP3    H1 2672   2.656   2.716   0.946
  911TIP3    H2 2673   2.590   2.669   0.816
  912TIP3   OH2 2674   2.596   2.711   0.439
  912TIP3    H1 2675   2.623   2.754   0.356
  912TIP3    H2 2676   2.501   2.737   0.443
  913TIP3   OH2 2677   3.703   3.375   1.002
  913TIP3    H1 2678   3.736   3.304   0.943
  913TIP3    H2 2679   3.673   3.322   1.078
  914TIP3   OH2 2680   3.374   2.838   0.673
  914TIP3    H1 2681   3.293   2.837   0.727
  914TIP3    H2 2682   3.443   2.836   0.741
  915TIP3   OH2 2683   2.801   2.894   0.678
  915TIP3    H1 2684   2.707   2.904   0.650
  915TIP3    H2 2685   2.821   2.804   0.648
  916TIP3   OH2 2686   3.079   2.893   0.376
  916TIP3    H1 2687   3.174   2.908   0.354
  916TIP3    H2 2688   3.033   2.911   0.290
  917TIP3   OH2 2689   3.865   2.915   0.878
  917TIP3    H1 2690   3.830   2.927   0.968
  917TIP3    H2 2691   3.800   2.853   0.840
  918TIP3   OH2 2692   2.923   2.910   0.156
  918TIP3    H1 2693   2.826   2.898   0.147
  918TIP3    H2 2694   2.949   2.955   0.074
  919TIP3   OH2 2695   4.036   4.603   1.095
  919TIP3    H1 2696   4.034   4.627   1.001
  919TIP3    H2 2697   4.116   4.651   1.126
  920TIP3   OH2 2698   2.993   3.712   1.516
  920TIP3    H1 2699   3.072   3.743   1.564
  920TIP3    H2 2700   2.928   3.713   1.590
  921TIP3   OH2 2701   3.456   3.166   0.770
  921TIP3    H1 2702   3.530   3.129   0.719
  921TIP3    H2 2703   3.467   3.122   0.857
  922TIP3   OH2 2704   2.989   2.652   0.645
  922TIP3    H1 2705   2.948   2.568   0.671
  922TIP3    H2 2706   3.028   2.629   0.560
  923TIP3   OH2 2707   3.433   3.061   1.065
  923TIP3    H1 2708   3.343   3.100   1.075
  923TIP3    H2 2709   3.490   3.125   1.112
  924TIP3   OH2 2710   3.172   3.454   0.156
  924TIP3    H1 2711   3.098   3.390   0.146
  924TIP3    H2 2712   3.153   3.489   0.247
  925TIP3   OH2 2713   4.069   3.690   0.784
  925TIP3    H1 2714   4.093   3.741   0.704
  925TIP3    H2 2715   3.985   3.648   0.758
  926TIP3   OH2 2716   3.647   2.763   0.014
  926TIP3    H1 2717   3.552   2.740   0.015
  926TIP3    H2 2718   3.647   2.858   0.036
  927TIP3   OH2 2719   3.567   3.771   1.153
  927TIP3    H1 2720   3.595   3.754   1.244
  927TIP3    H2 2721   3.531   3.861   1.159
  928TIP3   OH2 2722   3.695   3.015   0.125
  928TIP3    H1 2723   3.792   3.017   0.139
  928TIP3    H2 2724   3.681   3.094   0.069
  929TIP3   OH2 2725   2.866   3.480   0.832
  929TIP3    H1 2726   2.899   3.450   0.745
  929TIP3    H2 2727   2.901   3.413   0.892
  930TIP3   OH2 2728   3.313   3.604  -0.027
  930TIP3    H1 2729   3.268   3.691  -0.017
  930TIP3    H2 2730   3.260   3.550   0.036
  931TIP3   OH2 2731   2.743   3.396   1.445
  931TIP3    H1 2732   2.761   3.381   1.540
  931TIP3    H2 2733   2.672   3.331   1.428
  932TIP3   OH2 2734   3.469   3.510   1.466
  932TIP3    H1 2735   3.409   3.453   1.415
  932TIP3    H2 2736   3.556   3.476   1.437
  933TIP3   OH2 2737   3.729   4.029   1.051
  933TIP3    H1 2738   3.632   4.030   1.063
  933TIP3    H2 2739   3.757   4.083   1.128
  934TIP3   OH2 2740   4.132   3.103  -0.043
  934TIP3    H1 2741   4.071   3.060  -0.107
  934TIP3    H2 2742   4.131   3.193  -0.082
  935TIP3   OH2 2743   4.358   3.962   1.039
  935TIP3    H1 2744   4.260   3.956   1.030
  935TIP3    H2 2745   4.384   3.932   0.949
  936TIP3   OH2 2746   3.864   3.914  -0.145
  936TIP3    H1 2747   3.828   3.864  -0.071
  936TIP3    H2 2748   3.816   3.878  -0.221
  937TIP3   OH2 2749   3.835   3.552   0.703
  937TIP3    H1 2750   3.741   3.528   0.716
  937TIP3    H2 2751   3.869   3.472   0.658
  938TIP3   OH2 2752   2.963   3.780   0.458
  938TIP3    H1 2753   2.961   3.862   0.403
  938TIP3    H2 2754   2.869   3.761   0.466
  939TIP3   OH2 2755   2.546   3.086   0.170
  939TIP3    H1 2756   2.576   3.177   0.187
  939TIP3    H2 2757   2.455   3.089   0.210
  940TIP3   OH2 2758   3.100   3.545   0.400
  940TIP3    H1 2759   3.066   3.635   0.419
  940TIP3    H2 2760   3.063   3.495   0.475
  941TIP3   OH2 2761   3.232   4.124   0.926
  941TIP3    H1 2762   3.274   4.196   0.875
  941TIP3    H2 2763   3.309   4.088   0.973
  942TIP3   OH2 2764   2.883   4.019   0.310
  942TIP3    H1 2765   2.796   4.028   0.356
  942TIP3    H2 2766   2.914   4.112   0.311
  943TIP3   OH2 2767   3.619   3.757   0.885
  943TIP3    H1 2768   3.610   3.755   0.983
  943TIP3    H2 2769   3.700   3.705   0.872
  944TIP3   OH2 2770   3.578   3.621  -0.229
  944TIP3    H1 2771   3.640   3.612  -0.154
  944TIP3    H2 2772   3.493   3.625  -0.183
  945TIP3   OH2 2773   3.868   4.291   0.934
  945TIP3    H1 2774   3.788   4.236   0.926
  945TIP3    H2 2775   3.854   4.356   0.862
  946TIP3   OH2 2776   2.954   2.902   1.454
  946TIP3    H1 2777   2.857   2.903   1.466
  946TIP3    H2 2778   2.982   2.842   1.525
  947TIP3   OH2 2779   3.753   3.582  -0.017
  947TIP3    H1 2780   3.745   3.516   0.056
  947TIP3    H2 2781   3.851   3.583  -0.027
  948TIP3   OH2 2782   2.670   3.987   1.085
  948TIP3    H1 2783   2.723   3.911   1.115
  948TIP3    H2 2784   2.702   4.056   1.144
  949TIP3   OH2 2785   2.971   3.640  -0.225
  949TIP3    H1 2786   2.959   3.555  -0.268
  949TIP3    H2 2787   2.937   3.624  -0.135
  950TIP3   OH2 2788   2.904   3.639   0.045
  950TIP3    H1 2789   2.977   3.614   0.104
  950TIP3    H2 2790   2.910   3.737   0.047
  951TIP3   OH2 2791   2.648   3.338   0.246
  951TIP3    H1 2792   2.577   3.377   0.302
  951TIP3    H2 2793   2.654   3.407   0.176
  952TIP3   OH2 2794   3.789   2.968   1.137
  952TIP3    H1 2795   3.872   3.005   1.171
  952TIP3    H2 2796   3.779   2.886   1.191
  953TIP3   OH2 2797   3.665   2.719   0.299
  953TIP3    H1 2798   3.659   2.738   0.203
  953TIP3    H2 2799   3.707   2.800   0.333
  954TIP3   OH2 2800   3.177   3.834  -0.006
  954TIP3    H1 2801   3.089   3.864   0.026
  954TIP3    H2 2802   3.184   3.885  -0.088
  955TIP3   OH2 2803   3.359   2.897   0.402
  955TIP3    H1 2804   3.424   2.968   0.384
  955TIP3    H2 2805   3.366   2.889   0.499
  956TIP3   OH2 2806   3.629   3.215   1.209
  956TIP3    H1 2807   3.653   3.267   1.288
  956TIP3    H2 2808   3.684   3.135   1.219
  957TIP3   OH2 2809   3.504   2.622   0.504
  957TIP3    H1 2810   3.499   2.699   0.563
  957TIP3    H2 2811   3.565   2.657   0.434
  958TIP3   OH2 2812   2.920   3.910   0.058
  958TIP3    H1 2813   2.889   3.980  -0.004
  958TIP3    H2 2814   2.902   3.952   0.145
  959TIP3   OH2 2815   3.030   2.634   0.307
  959TIP3    H1 2816   3.028   2.727   0.338
  959TIP3    H2 2817   3.127   2.617   0.312
  960TIP3   OH2 2818   4.269   3.116   1.194
  960TIP3    H1 2819   4.171   3.112   1.197
  960TIP3    H2 2820   4.285   3.078   1.106
  961TIP3   OH2 2821   3.920   3.310   0.578
  961TIP3    H1 2822   3.845   3.250   0.590
  961TIP3    H2 2823   3.992   3.263   0.626
  962TIP3   OH2 2824   2.633   3.544   0.052
  962TIP3    H1 2825   2.705   3.608   0.062
  962TIP3    H2 2826   2.677   3.484  -0.012
  963TIP3   OH2 2827   2.619   2.829   0.164
  963TIP3    H1 2828   2.594   2.924   0.168
  963TIP3    H2 2829   2.533   2.791   0.138
  964TIP3   OH2 2830   3.890   4.263   0.529
  964TIP3    H1 2831   3.845   4.313   0.457
  964TIP3    H2 2832   3.984   4.284   0.507
  965TIP3   OH2 2833   2.965   2.534   1.059
  965TIP3    H1 2834   2.931   2.500   0.974
  965TIP3    H2 2835   2.959   2.455   1.117
  966TIP3   OH2 2836   2.507   3.759   0.436
  966TIP3    H1 2837   2.433   3.784   0.493
  966TIP3    H2 2838   2.476   3.796   0.350
  967TIP3   OH2 2839   2.662   4.296   1.508
  967TIP3    H1 2840   2.748   4.296   1.554
  967TIP3    H2 2841   2.642   4.201   1.506
  968TIP3   OH2 2842   3.141   4.257   1.553
  968TIP3    H1 2843   3.236   4.241   1.558
  968TIP3    H2 2844   3.116   4.198   1.479
  969TIP3   OH2 2845   3.140   3.834  -0.305
  969TIP3    H1 2846   3.063   3.779  -0.280
  969TIP3    H2 2847   3.202   3.764  -0.328
  970TIP3   OH2 2848   3.780   4.166   1.286
  970TIP3    H1 2849   3.773   4.096   1.355
  970TIP3    H2 2850   3.859   4.217   1.316
  971TIP3   OH2 2851   2.791   3.700   1.708
  971TIP3    H1 2852   2.807   3.604   1.711
  971TIP3    H2 2853   2.704   3.704   1.662
  972TIP3   OH2 2854   2.782   3.369  -0.086
  972TIP3    H1 2855   2.841   3.327  -0.022
  972TIP3    H2 2856   2.807   3.330  -0.170
  973TIP3   OH2 2857   3.398   3.786   1.482
  973TIP3    H1 2858   3.358   3.806   1.394
  973TIP3    H2 2859   3.429   3.694   1.471
  974TIP3   OH2 2860   3.266   3.545  -0.293
  974TIP3    H1 2861   3.276   3.575  -0.201
  974TIP3    H2 2862   3.274   3.450  -0.282
  975TIP3   OH2 2863   3.891   3.796   1.088
  975TIP3    H1 2864   3.967   3.838   1.044
  975TIP3    H2 2865   3.822   3.863   1.073
  976TIP3   OH2 2866   2.910   3.434   1.692
  976TIP3    H1 2867   2.989   3.386   1.664
  976TIP3    H2 2868   2.938   3.469   1.779
  977TIP3   OH2 2869   2.979   3.256   0.122
  977TIP3    H1 2870   2.947   3.221   0.208
  977TIP3    H2 2871   3.014   3.176   0.078
  978TIP3   OH2 2872   3.246   3.319   1.351
  978TIP3    H1 2873   3.168   3.379   1.352
  978TIP3    H2 2874   3.297   3.353   1.274
  979TIP3   OH2 2875   3.074   3.046  -0.041
  979TIP3    H1 2876   3.073   3.009  -0.130
  979TIP3    H2 2877   3.171   3.061  -0.031
  980TIP3   OH2 2878   3.763   3.722   1.486
  980TIP3    H1 2879   3.842   3.697   1.435
  980TIP3    H2 2880   3.761   3.654   1.555
  981TIP3   OH2 2881   3.369   3.108   1.477
  981TIP3    H1 2882   3.370   3.029   1.419
  981TIP3    H2 2883   3.326   3.175   1.419
  982TIP3   OH2 2884   3.372   2.894   1.286
  982TIP3    H1 2885   3.400   2.937   1.203
  982TIP3    H2 2886   3.278   2.873   1.266
  983TIP3   OH2 2887   3.398   3.430   1.159
  983TIP3    H1 2888   3.482   3.440   1.113
  983TIP3    H2 2889   3.341   3.496   1.114
  984TIP3   OH2 2890   3.982   3.397   1.539
  984TIP3    H1 2891   4.031   3.313   1.544
  984TIP3    H2 2892   4.048   3.456   1.502
  985TIP3   OH2 2893   4.021   3.650   1.275
  985TIP3    H1 2894   3.964   3.704   1.216
  985TIP3    H2 2895   4.109   3.671   1.236
  986TIP3   OH2 2896   3.248   3.218   1.710
  986TIP3    H1 2897   3.179   3.150   1.723
  986TIP3    H2 2898   3.281   3.196   1.621
  987TIP3   OH2 2899   3.504   2.658   1.353
  987TIP3    H1 2900   3.455   2.740   1.329
  987TIP3    H2 2901   3.435   2.589   1.340
  988TIP3   OH2 2902   3.630   3.161   1.568
  988TIP3    H1 2903   3.617   3.148   1.664
  988TIP3    H2 2904   3.540   3.137   1.536
  989TIP3   OH2 2905   3.869   3.114   1.423
  989TIP3    H1 2906   3.794   3.114   1.486
  989TIP3    H2 2907   3.943   3.083   1.479
  990TIP3   OH2 2908   4.096   3.052   1.574
  990TIP3    H1 2909   4.110   2.957   1.591
  990TIP3    H2 2910   4.095   3.090   1.665
  991TIP3   OH2 2911   3.085   2.999   1.762
  991TIP3    H1 2912   3.092   2.909   1.726
  991TIP3    H2 2913   3.122   2.986   1.851
  992TIP3   OH2 2914   3.597   2.666   1.611
  992TIP3    H1 2915   3.665   2.596   1.604
  992TIP3    H2 2916   3.558   2.662   1.521
  993TIP3   OH2 2917   3.664   2.882   1.770
  993TIP3    H1 2918   3.643   2.811   1.705
  993TIP3    H2 2919   3.586   2.941   1.762
  994TIP3   OH2 2920   2.877   4.110  -0.126
  994TIP3    H1 2921   2.969   4.113  -0.159
  994TIP3    H2 2922   2.827   4.143  -0.201
  995TIP3   OH2 2923   2.363   3.497   0.102
  995TIP3    H1 2924   2.453   3.525   0.073
  995TIP3    H2 2925   2.355   3.410   0.060
  996TIP3   OH2 2926   2.280   4.106   0.497
  996TIP3    H1 2927   2.213   4.044   0.460
  996TIP3    H2 2928   2.324   4.048   0.563
  997TIP3   OH2 2929   2.414   3.958   0.685
  997TIP3    H1 2930   2.401   3.883   0.746
  997TIP3    H2 2931   2.467   4.017   0.741
  998TIP3   OH2 2932   4.143   4.356   0.484
  998TIP3    H1 2933   4.168   4.390   0.572
  998TIP3    H2 2934   4.204   4.402   0.426
  999TIP3   OH2 2935   4.170   4.377   0.767
  999TIP3    H1 2936   4.128   4.289   0.764
  999TIP3    H2 2937   4.248   4.356   0.821
 1000TIP3   OH2 2938   4.218   4.053   1.341
 1000TIP3    H1 2939   4.145   4.063   1.405
 1000TIP3    H2 2940   4.260   4.142   1.344
 1001TIP3   OH2 2941   4.033   3.563  -0.034
 1001TIP3    H1 2942   4.104   3.626  -0.057
 1001TIP3    H2 2943   4.072   3.520   0.045
 1002TIP3   OH2 2944   4.162   3.432   0.166
 1002TIP3    H1 2945   4.096   3.391   0.226
 1002TIP3    H2 2946   4.227   3.470   0.229
 1003TIP3   OH2 2947   4.217   3.827   0.595
 1003TIP3    H1 2948   4.270   3.761   0.547
 1003TIP3    H2 2949   4.211   3.900   0.531
 1004TIP3   OH2 2950   4.047   4.126   0.791
 1004TIP3    H1 2951   3.975   4.169   0.841
 1004TIP3    H2 2952   3.998   4.080   0.720
 1005TIP3   OH2 2953   4.094   3.346  -0.193
 1005TIP3    H1 2954   4.019   3.336  -0.254
 1005TIP3    H2 2955   4.064   3.423  -0.139
 1006TIP3   OH2 2956   3.972   3.024  -0.249
 1006TIP3    H1 2957   3.965   3.043  -0.345
 1006TIP3    H2 2958   3.942   2.930  -0.246
 1007TIP3   OH2 2959   3.976   3.291   0.310
 1007TIP3    H1 2960   3.983   3.194   0.302
 1007TIP3    H2 2961   3.962   3.303   0.406
 1008TIP3   OH2 2962   2.602   3.360   1.061
 1008TIP3    H1 2963   2.599   3.330   0.968
 1008TIP3    H2 2964   2.699   3.364   1.075
 1009TIP3   OH2 2965   4.265   3.716   1.167
 1009TIP3    H1 2966   4.337   3.650   1.158
 1009TIP3    H2 2967   4.292   3.785   1.104
 1010TIP3   OH2 2968   4.449   3.519   1.183
 1010TIP3    H1 2969   4.375   3.469   1.223
 1010TIP3    H2 2970   4.522   3.456   1.198
 1011TIP3   OH2 2971   3.913   2.758  -0.229
 1011TIP3    H1 2972   4.000   2.722  -0.201
 1011TIP3    H2 2973   3.850   2.705  -0.178
 1012TIP3   OH2 2974   3.972   3.007   0.204
 1012TIP3    H1 2975   4.012   2.918   0.220
 1012TIP3    H2 2976   4.030   3.037   0.132
 1013TIP3   OH2 2977   4.133   3.181   0.700
 1013TIP3    H1 2978   4.219   3.206   0.659
 1013TIP3    H2 2979   4.148   3.217   0.789
 1014TIP3   OH2 2980   4.203   3.325   0.932
 1014TIP3    H1 2981   4.125   3.360   0.979
 1014TIP3    H2 2982   4.236   3.405   0.886
 1015TIP3   OH2 2983   2.818   3.048   1.727
 1015TIP3    H1 2984   2.916   3.044   1.731
 1015TIP3    H2 2985   2.795   2.963   1.770
 1016TIP3   OH2 2986   4.654   2.916   1.488
 1016TIP3    H1 2987   4.714   2.851   1.445
 1016TIP3    H2 2988   4.625   2.969   1.411
 1017TIP3   OH2 2989   4.080   2.758   0.243
 1017TIP3    H1 2990   4.130   2.741   0.326
 1017TIP3    H2 2991   4.021   2.680   0.241
 1018TIP3   OH2 2992   2.787   2.744   1.073
 1018TIP3    H1 2993   2.852   2.672   1.077
 1018TIP3    H2 2994   2.845   2.821   1.059
 1019TIP3   OH2 2995   2.585   3.015   1.138
 1019TIP3    H1 2996   2.632   3.010   1.052
 1019TIP3    H2 2997   2.608   3.105   1.165
 1020TIP3   OH2 2998   4.523   3.054   1.294
 1020TIP3    H1 2999   4.436   3.096   1.308
 1020TIP3    H2 3000   4.497   2.982   1.234
 1021TIP3   OH2 3001   4.171   2.688  -0.140
 1021TIP3    H1 3002   4.222   2.637  -0.205
 1021TIP3    H2 3003   4.228   2.767  -0.131
 1022TIP3   OH2 3004   2.555   2.540   0.653
 1022TIP3    H1 3005   2.459   2.549   0.667
 1022TIP3    H2 3006   2.568   2.599   0.576
 1023TIP3   OH2 3007   3.738   4.221   0.147
 1023TIP3    H1 3008   3.775   4.210   0.057
 1023TIP3    H2 3009   3.782   4.302   0.176
 1024TIP3   OH2 3010   2.790   2.605   1.450
 1024TIP3    H1 3011   2.739   2.598   1.533
 1024TIP3    H2 3012   2.725   2.646   1.391
 1025TIP3   OH2 3013   2.827   4.028   1.527
 1025TIP3    H1 3014   2.735   4.001   1.509
 1025TIP3    H2 3015   2.836   4.011   1.621
 1026TIP3   OH2 3016   3.006   4.061   1.075
 1026TIP3    H1 3017   2.958   4.137   1.035
 1026TIP3    H2 3018   3.092   4.075   1.030
 1027TIP3   OH2 3019   3.449   4.304   1.212
 1027TIP3    H1 3020   3.492   4.305   1.301
 1027TIP3    H2 3021   3.515   4.355   1.160
 1028TIP3   OH2 3022   3.629   4.457   1.072
 1028TIP3    H1 3023   3.699   4.407   1.029
 1028TIP3    H2 3024   3.681   4.514   1.133
 1029TIP3   OH2 3025   4.423   2.818   1.173
 1029TIP3    H1 3026   4.333   2.810   1.135
 1029TIP3    H2 3027   4.456   2.725   1.162
 1030TIP3   OH2 3028   2.682   4.317   1.098
 1030TIP3    H1 3029   2.592   4.350   1.074
 1030TIP3    H2 3030   2.691   4.357   1.186
 1031TIP3   OH2 3031   2.918   4.296   0.957
 1031TIP3    H1 3032   2.831   4.309   1.000
 1031TIP3    H2 3033   2.900   4.327   0.866
 1032TIP3   OH2 3034   3.344   4.323   0.755
 1032TIP3    H1 3035   3.274   4.342   0.689
 1032TIP3    H2 3036   3.356   4.411   0.796
 1033TIP3   OH2 3037   3.613   4.262   0.807
 1033TIP3    H1 3038   3.519   4.281   0.786
 1033TIP3    H2 3039   3.658   4.337   0.763
 1034TIP3   OH2 3040   3.818   4.454   0.720
 1034TIP3    H1 3041   3.805   4.539   0.672
 1034TIP3    H2 3042   3.846   4.395   0.646
 1035TIP3   OH2 3043   2.593   4.111   0.844
 1035TIP3    H1 3044   2.620   4.084   0.934
 1035TIP3    H2 3045   2.665   4.067   0.792
 1036TIP3   OH2 3046   2.787   3.983   0.702
 1036TIP3    H1 3047   2.803   3.899   0.751
 1036TIP3    H2 3048   2.878   4.019   0.695
 1037TIP3   OH2 3049   3.054   4.077   0.704
 1037TIP3    H1 3050   3.085   3.985   0.691
 1037TIP3    H2 3051   3.100   4.098   0.788
 1038TIP3   OH2 3052   3.629   2.733   0.790
 1038TIP3    H1 3053   3.587   2.662   0.841
 1038TIP3    H2 3054   3.703   2.687   0.746
 1039TIP3   OH2 3055   4.151   2.616   0.698
 1039TIP3    H1 3056   4.189   2.666   0.622
 1039TIP3    H2 3057   4.055   2.633   0.687
 1040TIP3   OH2 3058   4.246   2.716   0.461
 1040TIP3    H1 3059   4.319   2.663   0.421
 1040TIP3    H2 3060   4.280   2.807   0.445
 1041TIP3   OH2 3061   2.853   2.432   0.824
 1041TIP3    H1 3062   2.808   2.431   0.736
 1041TIP3    H2 3063   2.918   2.359   0.810
 1042TIP3   OH2 3064   2.768   2.394   0.551
 1042TIP3    H1 3065   2.768   2.405   0.454
 1042TIP3    H2 3066   2.679   2.429   0.571
 1043TIP3   OH2 3067   3.324   2.471   0.688
 1043TIP3    H1 3068   3.380   2.520   0.625
 1043TIP3    H2 3069   3.347   2.515   0.771
 1044TIP3   OH2 3070   3.865   2.621   0.670
 1044TIP3    H1 3071   3.869   2.582   0.581
 1044TIP3    H2 3072   3.853   2.541   0.726
 1045TIP3   OH2 3073   3.900   2.543   0.234
 1045TIP3    H1 3074   3.811   2.581   0.236
 1045TIP3    H2 3075   3.886   2.458   0.280
 1046TIP3   OH2 3076   2.382   3.883   0.233
 1046TIP3    H1 3077   2.300   3.843   0.198
 1046TIP3    H2 3078   2.363   3.977   0.217
 1047TIP3   OH2 3079   2.800   2.491   0.276
 1047TIP3    H1 3080   2.851   2.428   0.223
 1047TIP3    H2 3081   2.866   2.562   0.290
 1048TIP3   OH2 3082   3.301   2.645   0.317
 1048TIP3    H1 3083   3.363   2.601   0.378
 1048TIP3    H2 3084   3.321   2.739   0.341
 1049TIP3   OH2 3085   3.147   4.081  -0.193
 1049TIP3    H1 3086   3.241   4.092  -0.214
 1049TIP3    H2 3087   3.129   4.000  -0.246
 1050TIP3   OH2 3088   3.870   4.186  -0.096
 1050TIP3    H1 3089   3.863   4.090  -0.117
 1050TIP3    H2 3090   3.863   4.227  -0.184
 1051TIP3   OH2 3091   3.085   2.721   1.697
 1051TIP3    H1 3092   3.050   2.651   1.755
 1051TIP3    H2 3093   3.179   2.722   1.724
 1052TIP3   OH2 3094   3.334   2.720   1.817
 1052TIP3    H1 3095   3.419   2.697   1.776
 1052TIP3    H2 3096   3.324   2.649   1.883
 1053TIP3   OH2 3097   2.460   3.927  -0.108
 1053TIP3    H1 3098   2.446   3.951  -0.016
 1053TIP3    H2 3099   2.540   3.874  -0.105
 1054TIP3   OH2 3100   4.161   2.782   1.604
 1054TIP3    H1 3101   4.180   2.750   1.695
 1054TIP3    H2 3102   4.249   2.778   1.562
 1055TIP3   OH2 3103   4.097   4.333   1.097
 1055TIP3    H1 3104   4.019   4.303   1.047
 1055TIP3    H2 3105   4.079   4.430   1.101
 1056TIP3   OH2 3106   5.363   3.695   0.240
 1056TIP3    H1 3107   5.391   3.687   0.334
 1056TIP3    H2 3108   5.312   3.612   0.230
 1057TIP3   OH2 3109   4.662   3.601   0.611
 1057TIP3    H1 3110   4.691   3.531   0.672
 1057TIP3    H2 3111   4.742   3.656   0.609
 1058TIP3   OH2 3112   4.634   4.007   0.335
 1058TIP3    H1 3113   4.626   3.910   0.339
 1058TIP3    H2 3114   4.731   4.017   0.330
 1059TIP3   OH2 3115   4.344   3.219   0.110
 1059TIP3    H1 3116   4.291   3.298   0.133
 1059TIP3    H2 3117   4.273   3.158   0.082
 1060TIP3   OH2 3118   4.399   3.500   0.292
 1060TIP3    H1 3119   4.446   3.422   0.329
 1060TIP3    H2 3120   4.468   3.540   0.238
 1061TIP3   OH2 3121   5.165   3.930   0.286
 1061TIP3    H1 3122   5.209   3.852   0.249
 1061TIP3    H2 3123   5.246   3.980   0.313
 1062TIP3   OH2 3124   6.179   3.230   0.306
 1062TIP3    H1 3125   6.207   3.317   0.345
 1062TIP3    H2 3126   6.209   3.238   0.216
 1063TIP3   OH2 3127   5.561   3.430   0.354
 1063TIP3    H1 3128   5.633   3.340   0.352
 1063TIP3    H2 3129   5.487   3.376   0.316
 1064TIP3   OH2 3130   4.916   3.088   0.291
 1064TIP3    H1 3131   4.886   3.167   0.242
 1064TIP3    H2 3132   4.867   3.017   0.245
 1065TIP3   OH2 3133   5.594   3.162  -0.043
 1065TIP3    H1 3134   5.679   3.155   0.010
 1065TIP3    H2 3135   5.631   3.173  -0.132
 1066TIP3   OH2 3136   4.547   3.295   0.395
 1066TIP3    H1 3137   4.629   3.275   0.444
 1066TIP3    H2 3138   4.557   3.234   0.319
 1067TIP3   OH2 3139   4.990   3.504   0.193
 1067TIP3    H1 3140   5.084   3.480   0.208
 1067TIP3    H2 3141   4.949   3.417   0.175
 1068TIP3   OH2 3142   6.272   3.445   0.456
 1068TIP3    H1 3143   6.248   3.527   0.407
 1068TIP3    H2 3144   6.244   3.464   0.546
 1069TIP3   OH2 3145   4.902   3.061   0.722
 1069TIP3    H1 3146   4.848   3.111   0.658
 1069TIP3    H2 3147   4.866   3.093   0.806
 1070TIP3   OH2 3148   5.017   3.852   0.518
 1070TIP3    H1 3149   4.954   3.917   0.556
 1070TIP3    H2 3150   5.056   3.904   0.445
 1071TIP3   OH2 3151   5.830   3.190   0.088
 1071TIP3    H1 3152   5.832   3.122   0.156
 1071TIP3    H2 3153   5.886   3.260   0.128
 1072TIP3   OH2 3154   4.779   3.191   0.506
 1072TIP3    H1 3155   4.842   3.262   0.533
 1072TIP3    H2 3156   4.834   3.145   0.439
 1073TIP3   OH2 3157   4.844   4.046   0.617
 1073TIP3    H1 3158   4.820   4.132   0.577
 1073TIP3    H2 3159   4.765   4.031   0.672
 1074TIP3   OH2 3160   4.234   3.735  -0.127
 1074TIP3    H1 3161   4.171   3.758  -0.197
 1074TIP3    H2 3162   4.235   3.816  -0.071
 1075TIP3   OH2 3163   5.958   3.167   0.468
 1075TIP3    H1 3164   5.873   3.169   0.421
 1075TIP3    H2 3165   6.021   3.186   0.395
 1076TIP3   OH2 3166   5.263   2.793   0.437
 1076TIP3    H1 3167   5.246   2.699   0.457
 1076TIP3    H2 3168   5.188   2.834   0.486
 1077TIP3   OH2 3169   5.926   4.169   0.459
 1077TIP3    H1 3170   5.906   4.092   0.405
 1077TIP3    H2 3171   5.892   4.242   0.400
 1078TIP3   OH2 3172   6.083   3.884   0.388
 1078TIP3    H1 3173   6.168   3.915   0.426
 1078TIP3    H2 3174   6.111   3.859   0.299
 1079TIP3   OH2 3175   4.771   3.621   0.086
 1079TIP3    H1 3176   4.737   3.549   0.030
 1079TIP3    H2 3177   4.852   3.580   0.125
 1080TIP3   OH2 3178   4.899   4.028   0.253
 1080TIP3    H1 3179   4.879   4.006   0.161
 1080TIP3    H2 3180   4.994   4.006   0.259
 1081TIP3   OH2 3181   4.909   3.613   0.437
 1081TIP3    H1 3182   4.949   3.589   0.350
 1081TIP3    H2 3183   4.954   3.697   0.458
 1082TIP3   OH2 3184   5.373   4.249   0.223
 1082TIP3    H1 3185   5.416   4.320   0.273
 1082TIP3    H2 3186   5.400   4.169   0.272
 1083TIP3   OH2 3187   5.049   4.164   0.762
 1083TIP3    H1 3188   4.988   4.227   0.807
 1083TIP3    H2 3189   4.985   4.111   0.711
 1084TIP3   OH2 3190   4.803   3.726   0.860
 1084TIP3    H1 3191   4.807   3.812   0.905
 1084TIP3    H2 3192   4.709   3.703   0.873
 1085TIP3   OH2 3193   4.844   4.333   0.847
 1085TIP3    H1 3194   4.809   4.335   0.756
 1085TIP3    H2 3195   4.764   4.311   0.900
 1086TIP3   OH2 3196   4.599   3.463  -0.093
 1086TIP3    H1 3197   4.518   3.509  -0.066
 1086TIP3    H2 3198   4.580   3.372  -0.066
 1087TIP3   OH2 3199   4.422   3.865   0.795
 1087TIP3    H1 3200   4.356   3.842   0.726
 1087TIP3    H2 3201   4.460   3.778   0.819
 1088TIP3   OH2 3202   4.276   4.060   0.424
 1088TIP3    H1 3203   4.373   4.053   0.419
 1088TIP3    H2 3204   4.266   4.137   0.482
 1089TIP3   OH2 3205   6.145   4.510   0.503
 1089TIP3    H1 3206   6.149   4.417   0.534
 1089TIP3    H2 3207   6.062   4.540   0.547
 1090TIP3   OH2 3208   5.249   4.291   0.621
 1090TIP3    H1 3209   5.247   4.385   0.651
 1090TIP3    H2 3210   5.176   4.253   0.674
 1091TIP3   OH2 3211   4.430   4.253  -0.033
 1091TIP3    H1 3212   4.502   4.258   0.034
 1091TIP3    H2 3213   4.355   4.232   0.026
 1092TIP3   OH2 3214   4.626   4.048   0.781
 1092TIP3    H1 3215   4.676   4.031   0.864
 1092TIP3    H2 3216   4.553   3.984   0.790
 1093TIP3   OH2 3217   5.031   2.873   0.570
 1093TIP3    H1 3218   4.941   2.843   0.544
 1093TIP3    H2 3219   5.007   2.951   0.625
 1094TIP3   OH2 3220   5.553   2.964   0.762
 1094TIP3    H1 3221   5.629   2.952   0.822
 1094TIP3    H2 3222   5.496   3.025   0.813
 1095TIP3   OH2 3223   5.795   3.521   0.684
 1095TIP3    H1 3224   5.771   3.482   0.772
 1095TIP3    H2 3225   5.732   3.470   0.630
 1096TIP3   OH2 3226   4.955   3.385   0.583
 1096TIP3    H1 3227   4.910   3.408   0.668
 1096TIP3    H2 3228   4.942   3.469   0.533
 1097TIP3   OH2 3229   4.827   3.291   0.132
 1097TIP3    H1 3230   4.735   3.261   0.151
 1097TIP3    H2 3231   4.849   3.228   0.059
 1098TIP3   OH2 3232   5.513   3.645   0.916
 1098TIP3    H1 3233   5.484   3.577   0.981
 1098TIP3    H2 3234   5.608   3.648   0.935
 1099TIP3   OH2 3235   5.427   3.350   0.091
 1099TIP3    H1 3236   5.454   3.435   0.052
 1099TIP3    H2 3237   5.514   3.298   0.088
 1100TIP3   OH2 3238   4.775   3.416   0.796
 1100TIP3    H1 3239   4.815   3.475   0.861
 1100TIP3    H2 3240   4.769   3.332   0.846
 1101TIP3   OH2 3241   4.370   2.941   0.374
 1101TIP3    H1 3242   4.448   2.967   0.427
 1101TIP3    H2 3243   4.408   2.899   0.295
 1102TIP3   OH2 3244   4.338   2.918  -0.096
 1102TIP3    H1 3245   4.385   2.947  -0.177
 1102TIP3    H2 3246   4.278   2.993  -0.082
 1103TIP3   OH2 3247   5.468   3.639   0.488
 1103TIP3    H1 3248   5.511   3.564   0.435
 1103TIP3    H2 3249   5.476   3.597   0.574
 1104TIP3   OH2 3250   5.169   3.099   0.164
 1104TIP3    H1 3251   5.089   3.090   0.219
 1104TIP3    H2 3252   5.239   3.099   0.230
 1105TIP3   OH2 3253   4.601   3.147   0.169
 1105TIP3    H1 3254   4.507   3.152   0.140
 1105TIP3    H2 3255   4.627   3.055   0.146
 1106TIP3   OH2 3256   4.870   3.133  -0.079
 1106TIP3    H1 3257   4.967   3.118  -0.087
 1106TIP3    H2 3258   4.862   3.210  -0.139
 1107TIP3   OH2 3259   5.676   3.164   0.363
 1107TIP3    H1 3260   5.657   3.160   0.456
 1107TIP3    H2 3261   5.603   3.110   0.325
 1108TIP3   OH2 3262   5.840   4.851   0.593
 1108TIP3    H1 3263   5.825   4.879   0.500
 1108TIP3    H2 3264   5.912   4.913   0.616
 1109TIP3   OH2 3265   4.788   3.970   1.003
 1109TIP3    H1 3266   4.869   4.000   1.050
 1109TIP3    H2 3267   4.724   3.970   1.077
 1110TIP3   OH2 3268   5.243   3.442   0.262
 1110TIP3    H1 3269   5.301   3.384   0.206
 1110TIP3    H2 3270   5.241   3.392   0.349
 1111TIP3   OH2 3271   4.774   2.908   0.139
 1111TIP3    H1 3272   4.737   2.831   0.188
 1111TIP3    H2 3273   4.842   2.865   0.085
 1112TIP3   OH2 3274   5.232   3.338   0.511
 1112TIP3    H1 3275   5.141   3.341   0.550
 1112TIP3    H2 3276   5.287   3.356   0.587
 1113TIP3   OH2 3277   5.797   3.988   0.304
 1113TIP3    H1 3278   5.772   4.052   0.231
 1113TIP3    H2 3279   5.729   3.920   0.283
 1114TIP3   OH2 3280   5.373   4.034   0.640
 1114TIP3    H1 3281   5.384   4.010   0.733
 1114TIP3    H2 3282   5.329   4.121   0.645
 1115TIP3   OH2 3283   4.652   3.726   0.320
 1115TIP3    H1 3284   4.696   3.697   0.237
 1115TIP3    H2 3285   4.700   3.674   0.387
 1116TIP3   OH2 3286   4.539   3.655   0.933
 1116TIP3    H1 3287   4.561   3.640   1.027
 1116TIP3    H2 3288   4.472   3.586   0.917
 1117TIP3   OH2 3289   5.263   3.768   0.952
 1117TIP3    H1 3290   5.203   3.706   0.907
 1117TIP3    H2 3291   5.350   3.735   0.922
 1118TIP3   OH2 3292   5.528   4.290   0.533
 1118TIP3    H1 3293   5.432   4.285   0.545
 1118TIP3    H2 3294   5.555   4.338   0.613
 1119TIP3   OH2 3295   6.168   4.232   0.561
 1119TIP3    H1 3296   6.071   4.221   0.574
 1119TIP3    H2 3297   6.172   4.199   0.470
 1120TIP3   OH2 3298   5.614   3.801   0.166
 1120TIP3    H1 3299   5.516   3.784   0.188
 1120TIP3    H2 3300   5.654   3.744   0.240
 1121TIP3   OH2 3301   4.746   4.019  -0.007
 1121TIP3    H1 3302   4.795   4.102  -0.027
 1121TIP3    H2 3303   4.664   4.056   0.028
 1122TIP3   OH2 3304   4.331   3.325  -0.321
 1122TIP3    H1 3305   4.350   3.419  -0.337
 1122TIP3    H2 3306   4.248   3.330  -0.269
 1123TIP3   OH2 3307   4.886   3.802  -0.090
 1123TIP3    H1 3308   4.831   3.873  -0.052
 1123TIP3    H2 3309   4.863   3.728  -0.030
 1124TIP3   OH2 3310   5.031   4.375   0.414
 1124TIP3    H1 3311   5.070   4.449   0.364
 1124TIP3    H2 3312   5.110   4.339   0.457
 1125TIP3   OH2 3313   5.416   4.006   0.372
 1125TIP3    H1 3314   5.405   4.011   0.469
 1125TIP3    H2 3315   5.503   3.964   0.365
 1126TIP3   OH2 3316   5.661   4.555   0.425
 1126TIP3    H1 3317   5.583   4.497   0.420
 1126TIP3    H2 3318   5.642   4.620   0.357
 1127TIP3   OH2 3319   4.750   3.165   0.940
 1127TIP3    H1 3320   4.653   3.161   0.951
 1127TIP3    H2 3321   4.780   3.101   1.007
 1128TIP3   OH2 3322   4.467   4.241   0.572
 1128TIP3    H1 3323   4.522   4.170   0.609
 1128TIP3    H2 3324   4.495   4.316   0.625
 1129TIP3   OH2 3325   5.610   3.207   0.625
 1129TIP3    H1 3326   5.650   3.245   0.707
 1129TIP3    H2 3327   5.555   3.134   0.672
 1130TIP3   OH2 3328   5.145   3.142  -0.104
 1130TIP3    H1 3329   5.197   3.219  -0.130
 1130TIP3    H2 3330   5.165   3.137  -0.007
 1131TIP3   OH2 3331   5.456   3.471   0.704
 1131TIP3    H1 3332   5.455   3.530   0.784
 1131TIP3    H2 3333   5.446   3.384   0.745
 1132TIP3   OH2 3334   5.313   2.891   0.002
 1132TIP3    H1 3335   5.298   2.955   0.074
 1132TIP3    H2 3336   5.384   2.936  -0.046
 1133TIP3   OH2 3337   4.807   2.886  -0.228
 1133TIP3    H1 3338   4.792   2.951  -0.157
 1133TIP3    H2 3339   4.897   2.856  -0.201
 1134TIP3   OH2 3340   6.065   3.381   0.658
 1134TIP3    H1 3341   5.975   3.390   0.690
 1134TIP3    H2 3342   6.056   3.305   0.597
 1135TIP3   OH2 3343   5.715   3.543   0.179
 1135TIP3    H1 3344   5.747   3.487   0.087
 1135TIP3    H2 3345   5.638   3.565   0.160
 1136TIP3   OH2 3346   4.381   3.059  -0.327
 1136TIP3    H1 3347   4.364   3.156  -0.324
 1136TIP3    H2 3348   4.307   3.029  -0.382
 1137TIP3   OH2 3349   4.761   2.791   0.541
 1137TIP3    H1 3350   4.733   2.755   0.455
 1137TIP3    H2 3351   4.752   2.712   0.599
 1138TIP3   OH2 3352   4.265   3.990  -0.028
 1138TIP3    H1 3353   4.225   4.054   0.034
 1138TIP3    H2 3354   4.315   4.051  -0.085
 1139TIP3   OH2 3355   4.458   4.553   0.996
 1139TIP3    H1 3356   4.545   4.553   1.042
 1139TIP3    H2 3357   4.439   4.457   0.993
 1140TIP3   OH2 3358   4.936   4.514   1.041
 1140TIP3    H1 3359   5.032   4.500   1.045
 1140TIP3    H2 3360   4.912   4.454   0.967
 1141TIP3   OH2 3361   5.578   4.421   0.771
 1141TIP3    H1 3362   5.570   4.353   0.841
 1141TIP3    H2 3363   5.655   4.474   0.803
 1142TIP3   OH2 3364   4.587   3.957   1.195
 1142TIP3    H1 3365   4.604   3.861   1.200
 1142TIP3    H2 3366   4.500   3.960   1.149
 1143TIP3   OH2 3367   5.195   4.044   0.968
 1143TIP3    H1 3368   5.153   4.062   0.882
 1143TIP3    H2 3369   5.225   3.951   0.959
 1144TIP3   OH2 3370   5.704   4.037   0.607
 1144TIP3    H1 3371   5.766   4.083   0.551
 1144TIP3    H2 3372   5.623   4.090   0.595
 1145TIP3   OH2 3373   4.708   3.690   1.176
 1145TIP3    H1 3374   4.786   3.640   1.150
 1145TIP3    H2 3375   4.735   3.724   1.264
 1146TIP3   OH2 3376   5.039   3.579   0.832
 1146TIP3    H1 3377   4.962   3.641   0.834
 1146TIP3    H2 3378   5.093   3.615   0.758
 1147TIP3   OH2 3379   5.548   3.981   0.982
 1147TIP3    H1 3380   5.628   3.961   0.933
 1147TIP3    H2 3381   5.544   3.909   1.047
 1148TIP3   OH2 3382   5.134   3.359   0.982
 1148TIP3    H1 3383   5.197   3.293   0.945
 1148TIP3    H2 3384   5.113   3.416   0.906
 1149TIP3   OH2 3385   5.199   3.690   0.647
 1149TIP3    H1 3386   5.280   3.690   0.592
 1149TIP3    H2 3387   5.143   3.755   0.600
 1150TIP3   OH2 3388   5.788   3.655   1.014
 1150TIP3    H1 3389   5.824   3.570   1.045
 1150TIP3    H2 3390   5.858   3.716   1.041
 1151TIP3   OH2 3391   5.036   3.482   1.203
 1151TIP3    H1 3392   4.969   3.411   1.218
 1151TIP3    H2 3393   5.069   3.456   1.115
 1152TIP3   OH2 3394   5.425   3.445   1.069
 1152TIP3    H1 3395   5.390   3.425   1.158
 1152TIP3    H2 3396   5.391   3.366   1.020
 1153TIP3   OH2 3397   5.683   3.359   0.888
 1153TIP3    H1 3398   5.598   3.333   0.929
 1153TIP3    H2 3399   5.746   3.328   0.958
 1154TIP3   OH2 3400   5.908   3.309   1.055
 1154TIP3    H1 3401   5.914   3.213   1.076
 1154TIP3    H2 3402   5.894   3.349   1.143
 1155TIP3   OH2 3403   4.879   3.258   1.252
 1155TIP3    H1 3404   4.891   3.171   1.209
 1155TIP3    H2 3405   4.918   3.240   1.340
 1156TIP3   OH2 3406   5.377   2.915   1.109
 1156TIP3    H1 3407   5.441   2.846   1.082
 1156TIP3    H2 3408   5.367   2.968   1.028
 1157TIP3   OH2 3409   5.460   3.139   1.258
 1157TIP3    H1 3410   5.438   3.074   1.189
 1157TIP3    H2 3411   5.386   3.203   1.248
 1158TIP3   OH2 3412   4.069   4.354  -0.011
 1158TIP3    H1 3413   4.002   4.295  -0.052
 1158TIP3    H2 3414   4.111   4.295   0.053
 1159TIP3   OH2 3415   4.224   4.205   0.164
 1159TIP3    H1 3416   4.201   4.142   0.235
 1159TIP3    H2 3417   4.265   4.275   0.219
 1160TIP3   OH2 3418   5.970   4.627   0.312
 1160TIP3    H1 3419   5.937   4.535   0.324
 1160TIP3    H2 3420   6.051   4.623   0.365
 1161TIP3   OH2 3421   6.008   4.305   0.836
 1161TIP3    H1 3422   5.933   4.319   0.898
 1161TIP3    H2 3423   6.049   4.394   0.835
 1162TIP3   OH2 3424   5.826   4.378   0.297
 1162TIP3    H1 3425   5.760   4.422   0.355
 1162TIP3    H2 3426   5.787   4.393   0.210
 1163TIP3   OH2 3427   4.398   3.621   0.545
 1163TIP3    H1 3428   4.396   3.590   0.452
 1163TIP3    H2 3429   4.495   3.622   0.562
 1164TIP3   OH2 3430   6.166   3.730   0.706
 1164TIP3    H1 3431   6.223   3.660   0.745
 1164TIP3    H2 3432   6.236   3.777   0.655
 1165TIP3   OH2 3433   5.974   3.408   0.207
 1165TIP3    H1 3434   5.995   3.458   0.130
 1165TIP3    H2 3435   5.992   3.476   0.279
 1166TIP3   OH2 3436   4.613   3.306   1.218
 1166TIP3    H1 3437   4.711   3.301   1.219
 1166TIP3    H2 3438   4.591   3.220   1.259
 1167TIP3   OH2 3439   6.452   3.172   0.974
 1167TIP3    H1 3440   6.511   3.106   0.932
 1167TIP3    H2 3441   6.424   3.225   0.897
 1168TIP3   OH2 3442   4.577   2.999   0.550
 1168TIP3    H1 3443   4.638   2.923   0.559
 1168TIP3    H2 3444   4.642   3.072   0.544
 1169TIP3   OH2 3445   4.378   3.274   0.620
 1169TIP3    H1 3446   4.429   3.267   0.537
 1169TIP3    H2 3447   4.411   3.357   0.656
 1170TIP3   OH2 3448   6.321   3.309   0.779
 1170TIP3    H1 3449   6.235   3.352   0.797
 1170TIP3    H2 3450   6.292   3.238   0.718
 1171TIP3   OH2 3451   4.365   2.781   0.133
 1171TIP3    H1 3452   4.270   2.771   0.153
 1171TIP3    H2 3453   4.362   2.835   0.051
 1172TIP3   OH2 3454   4.584   2.860   0.939
 1172TIP3    H1 3455   4.531   2.854   1.020
 1172TIP3    H2 3456   4.518   2.894   0.876
 1173TIP3   OH2 3457   4.623   4.285   1.013
 1173TIP3    H1 3458   4.531   4.258   0.997
 1173TIP3    H2 3459   4.633   4.267   1.107
 1174TIP3   OH2 3460   4.802   4.318   0.561
 1174TIP3    H1 3461   4.755   4.394   0.520
 1174TIP3    H2 3462   4.889   4.331   0.518
 1175TIP3   OH2 3463   5.243   4.558   0.700
 1175TIP3    H1 3464   5.285   4.560   0.789
 1175TIP3    H2 3465   5.305   4.616   0.651
 1176TIP3   OH2 3466   5.416   4.724   0.567
 1176TIP3    H1 3467   5.481   4.668   0.523
 1176TIP3    H2 3468   5.473   4.777   0.626
 1177TIP3   OH2 3469   6.216   3.069   0.663
 1177TIP3    H1 3470   6.127   3.051   0.626
 1177TIP3    H2 3471   6.257   2.980   0.651
 1178TIP3   OH2 3472   4.475   4.569   0.587
 1178TIP3    H1 3473   4.387   4.605   0.563
 1178TIP3    H2 3474   4.489   4.615   0.671
 1179TIP3   OH2 3475   4.712   4.553   0.446
 1179TIP3    H1 3476   4.626   4.566   0.490
 1179TIP3    H2 3477   4.693   4.588   0.356
 1180TIP3   OH2 3478   5.138   4.575   0.255
 1180TIP3    H1 3479   5.059   4.589   0.201
 1180TIP3    H2 3480   5.154   4.667   0.290
 1181TIP3   OH2 3481   5.409   4.534   0.312
 1181TIP3    H1 3482   5.313   4.522   0.303
 1181TIP3    H2 3483   5.415   4.628   0.292
 1182TIP3   OH2 3484   4.389   4.362   0.330
 1182TIP3    H1 3485   4.414   4.338   0.422
 1182TIP3    H2 3486   4.463   4.320   0.281
 1183TIP3   OH2 3487   4.586   4.232   0.190
 1183TIP3    H1 3488   4.600   4.152   0.247
 1183TIP3    H2 3489   4.672   4.278   0.202
 1184TIP3   OH2 3490   4.833   4.342   0.215
 1184TIP3    H1 3491   4.877   4.296   0.142
 1184TIP3    H2 3492   4.898   4.334   0.288
 1185TIP3   OH2 3493   5.422   2.985   0.272
 1185TIP3    H1 3494   5.381   2.917   0.327
 1185TIP3    H2 3495   5.497   2.937   0.231
 1186TIP3   OH2 3496   5.944   2.902   0.190
 1186TIP3    H1 3497   5.978   2.901   0.098
 1186TIP3    H2 3498   5.848   2.893   0.174
 1187TIP3   OH2 3499   4.674   2.697   0.292
 1187TIP3    H1 3500   4.582   2.664   0.294
 1187TIP3    H2 3501   4.723   2.612   0.289
 1188TIP3   OH2 3502   4.451   2.562  -0.060
 1188TIP3    H1 3503   4.494   2.617  -0.131
 1188TIP3    H2 3504   4.433   2.631   0.006
 1189TIP3   OH2 3505   5.110   2.749   0.180
 1189TIP3    H1 3506   5.183   2.782   0.127
 1189TIP3    H2 3507   5.138   2.772   0.270
 1190TIP3   OH2 3508   5.666   2.877   0.147
 1190TIP3    H1 3509   5.674   2.832   0.061
 1190TIP3    H2 3510   5.651   2.800   0.206
 1191TIP3   OH2 3511   4.577   2.715  -0.251
 1191TIP3    H1 3512   4.588   2.665  -0.333
 1191TIP3    H2 3513   4.658   2.770  -0.249
 1192TIP3   OH2 3514   5.062   2.879  -0.140
 1192TIP3    H1 3515   5.125   2.823  -0.093
 1192TIP3    H2 3516   5.108   2.965  -0.134
 1193TIP3   OH2 3517   4.881   2.977   1.184
 1193TIP3    H1 3518   4.849   2.907   1.243
 1193TIP3    H2 3519   4.976   2.979   1.209
 1194TIP3   OH2 3520   5.133   2.978   1.303
 1194TIP3    H1 3521   5.213   2.955   1.254
 1194TIP3    H2 3522   5.125   2.904   1.366
 1195TIP3   OH2 3523   5.958   3.038   1.092
 1195TIP3    H1 3524   5.976   3.007   1.183
 1195TIP3    H2 3525   6.046   3.033   1.051
 1196TIP3   OH2 3526   5.893   4.585   0.596
 1196TIP3    H1 3527   5.813   4.562   0.544
 1196TIP3    H2 3528   5.885   4.683   0.597
 1197TIP3   OH2 3529   6.721   3.297   0.255
 1197TIP3    H1 3530   6.670   3.304   0.173
 1197TIP3    H2 3531   6.662   3.343   0.317
 1198TIP3   OH2 3532   6.613   3.969   0.374
 1198TIP3    H1 3533   6.619   4.055   0.421
 1198TIP3    H2 3534   6.527   3.981   0.330
 1199TIP3   OH2 3535   6.275   4.048   0.220
 1199TIP3    H1 3536   6.285   4.144   0.201
 1199TIP3    H2 3537   6.294   4.042   0.315
 1200TIP3   OH2 3538   6.471   4.304   0.306
 1200TIP3    H1 3539   6.545   4.314   0.368
 1200TIP3    H2 3540   6.396   4.318   0.366
 1201TIP3   OH2 3541   7.339   3.252   0.267
 1201TIP3    H1 3542   7.404   3.190   0.304
 1201TIP3    H2 3543   7.254   3.212   0.296
 1202TIP3   OH2 3544   7.303   3.908   0.400
 1202TIP3    H1 3545   7.272   3.825   0.442
 1202TIP3    H2 3546   7.398   3.890   0.406
 1203TIP3   OH2 3547   6.501   3.694   0.340
 1203TIP3    H1 3548   6.582   3.748   0.342
 1203TIP3    H2 3549   6.537   3.605   0.355
 1204TIP3   OH2 3550   6.609   4.201   0.523
 1204TIP3    H1 3551   6.686   4.245   0.564
 1204TIP3    H2 3552   6.540   4.221   0.590
 1205TIP3   OH2 3553   6.339   3.914   0.470
 1205TIP3    H1 3554   6.399   3.931   0.547
 1205TIP3    H2 3555   6.384   3.836   0.432
 1206TIP3   OH2 3556   7.060   4.029   0.450
 1206TIP3    H1 3557   6.992   3.964   0.420
 1206TIP3    H2 3558   7.143   3.983   0.428
 1207TIP3   OH2 3559   6.547   3.419   0.438
 1207TIP3    H1 3560   6.449   3.418   0.444
 1207TIP3    H2 3561   6.571   3.353   0.505
 1208TIP3   OH2 3562   6.234   4.784   0.505
 1208TIP3    H1 3563   6.326   4.806   0.532
 1208TIP3    H2 3564   6.240   4.689   0.486
 1209TIP3   OH2 3565   6.730   4.762   0.556
 1209TIP3    H1 3566   6.811   4.733   0.600
 1209TIP3    H2 3567   6.712   4.687   0.497
 1210TIP3   OH2 3568   6.399   4.209   0.705
 1210TIP3    H1 3569   6.403   4.113   0.707
 1210TIP3    H2 3570   6.311   4.225   0.662
 1211TIP3   OH2 3571   6.987   4.304   0.451
 1211TIP3    H1 3572   6.953   4.303   0.360
 1211TIP3    H2 3573   7.027   4.214   0.458
 1212TIP3   OH2 3574   6.506   3.921   0.684
 1212TIP3    H1 3575   6.591   3.882   0.660
 1212TIP3    H2 3576   6.530   3.967   0.767
 1213TIP3   OH2 3577   6.864   3.865   0.355
 1213TIP3    H1 3578   6.777   3.902   0.384
 1213TIP3    H2 3579   6.853   3.874   0.259
 1214TIP3   OH2 3580   7.290   4.226   0.485
 1214TIP3    H1 3581   7.373   4.271   0.468
 1214TIP3    H2 3582   7.312   4.167   0.561
 1215TIP3   OH2 3583   6.956   3.618   0.463
 1215TIP3    H1 3584   6.961   3.536   0.408
 1215TIP3    H2 3585   6.933   3.686   0.397
 1216TIP3   OH2 3586   6.970   3.401   0.293
 1216TIP3    H1 3587   7.005   3.440   0.211
 1216TIP3    H2 3588   6.881   3.367   0.267
 1217TIP3   OH2 3589   7.568   3.891   0.555
 1217TIP3    H1 3590   7.578   3.817   0.492
 1217TIP3    H2 3591   7.645   3.947   0.532
 1218TIP3   OH2 3592   6.831   3.735   0.680
 1218TIP3    H1 3593   6.766   3.664   0.697
 1218TIP3    H2 3594   6.870   3.705   0.596
 1219TIP3   OH2 3595   7.091   3.158   0.340
 1219TIP3    H1 3596   7.041   3.240   0.321
 1219TIP3    H2 3597   7.027   3.089   0.313
 1220TIP3   OH2 3598   7.211   3.687   0.539
 1220TIP3    H1 3599   7.205   3.672   0.635
 1220TIP3    H2 3600   7.124   3.652   0.512
 1221TIP3   OH2 3601   7.469   3.662   0.412
 1221TIP3    H1 3602   7.384   3.630   0.448
 1221TIP3    H2 3603   7.533   3.598   0.448
 1222TIP3   OH2 3604   7.666   3.531   0.560
 1222TIP3    H1 3605   7.699   3.449   0.599
 1222TIP3    H2 3606   7.674   3.595   0.634
 1223TIP3   OH2 3607   6.674   3.516   0.737
 1223TIP3    H1 3608   6.679   3.426   0.698
 1223TIP3    H2 3609   6.712   3.499   0.826
 1224TIP3   OH2 3610   7.187   3.176   0.593
 1224TIP3    H1 3611   7.253   3.106   0.581
 1224TIP3    H2 3612   7.145   3.174   0.504
 1225TIP3   OH2 3613   7.258   3.395   0.745
 1225TIP3    H1 3614   7.236   3.325   0.680
 1225TIP3    H2 3615   7.181   3.455   0.737
 1226TIP3   OH2 3616   6.402   3.570   0.721
 1226TIP3    H1 3617   6.499   3.569   0.708
 1226TIP3    H2 3618   6.388   3.477   0.748
 1227TIP3   OH2 3619   6.384   3.120   0.438
 1227TIP3    H1 3620   6.333   3.108   0.519
 1227TIP3    H2 3621   6.312   3.143   0.376
 1228TIP3   OH2 3622   6.418   4.505   0.546
 1228TIP3    H1 3623   6.329   4.514   0.508
 1228TIP3    H2 3624   6.408   4.554   0.629
 1229TIP3   OH2 3625   6.674   3.237   0.676
 1229TIP3    H1 3626   6.644   3.164   0.732
 1229TIP3    H2 3627   6.770   3.238   0.698
 1230TIP3   OH2 3628   6.928   3.235   0.790
 1230TIP3    H1 3629   7.010   3.210   0.744
 1230TIP3    H2 3630   6.917   3.162   0.854
 1231TIP3   OH2 3631   0.433   4.292   1.469
 1231TIP3    H1 3632   0.456   4.379   1.507
 1231TIP3    H2 3633   0.451   4.307   1.374
 1232TIP3   OH2 3634  -0.100   4.496   1.522
 1232TIP3    H1 3635  -0.088   4.399   1.529
 1232TIP3    H2 3636  -0.075   4.512   1.430
 1233TIP3   OH2 3637   0.502   4.513   1.631
 1233TIP3    H1 3638   0.420   4.562   1.608
 1233TIP3    H2 3639   0.500   4.523   1.728
 1234TIP3   OH2 3640   0.053   4.244   1.252
 1234TIP3    H1 3641   0.086   4.179   1.318
 1234TIP3    H2 3642   0.099   4.326   1.280
 1235TIP3   OH2 3643   0.218   4.217   1.639
 1235TIP3    H1 3644   0.131   4.226   1.597
 1235TIP3    H2 3645   0.278   4.229   1.562
 1236TIP3   OH2 3646   0.169   5.252   1.582
 1236TIP3    H1 3647   0.147   5.157   1.578
 1236TIP3    H2 3648   0.102   5.293   1.525
 1237TIP3   OH2 3649   0.041   4.715   1.749
 1237TIP3    H1 3650   0.047   4.794   1.807
 1237TIP3    H2 3651  -0.053   4.720   1.722
 1238TIP3   OH2 3652   0.412   5.538   1.676
 1238TIP3    H1 3653   0.415   5.441   1.686
 1238TIP3    H2 3654   0.317   5.553   1.701
 1239TIP3   OH2 3655   0.288   4.682   1.927
 1239TIP3    H1 3656   0.194   4.704   1.917
 1239TIP3    H2 3657   0.288   4.585   1.921
 1240TIP3   OH2 3658  -0.185   4.037   1.937
 1240TIP3    H1 3659  -0.123   4.001   2.004
 1240TIP3    H2 3660  -0.271   4.000   1.965
 1241TIP3   OH2 3661   0.057   4.463   1.861
 1241TIP3    H1 3662   0.004   4.459   1.944
 1241TIP3    H2 3663   0.027   4.546   1.820
 1242TIP3   OH2 3664  -0.235   4.697   2.105
 1242TIP3    H1 3665  -0.244   4.617   2.161
 1242TIP3    H2 3666  -0.149   4.733   2.131
 1243TIP3   OH2 3667  -0.217   4.681   1.681
 1243TIP3    H1 3668  -0.183   4.599   1.638
 1243TIP3    H2 3669  -0.271   4.642   1.753
 1244TIP3   OH2 3670  -0.108   4.223   1.540
 1244TIP3    H1 3671  -0.133   4.243   1.633
 1244TIP3    H2 3672  -0.149   4.136   1.529
 1245TIP3   OH2 3673  -0.472   4.346   1.794
 1245TIP3    H1 3674  -0.490   4.423   1.733
 1245TIP3    H2 3675  -0.381   4.369   1.819
 1246TIP3   OH2 3676   0.178   4.977   1.454
 1246TIP3    H1 3677   0.134   5.035   1.388
 1246TIP3    H2 3678   0.104   4.963   1.517
 1247TIP3   OH2 3679  -0.454   4.804   2.244
 1247TIP3    H1 3680  -0.508   4.777   2.167
 1247TIP3    H2 3681  -0.365   4.782   2.210
 1248TIP3   OH2 3682   0.413   5.261   1.697
 1248TIP3    H1 3683   0.315   5.274   1.697
 1248TIP3    H2 3684   0.420   5.204   1.619
 1249TIP3   OH2 3685  -0.159   4.271   1.802
 1249TIP3    H1 3686  -0.080   4.304   1.847
 1249TIP3    H2 3687  -0.177   4.188   1.852
 1250TIP3   OH2 3688  -0.291   4.531   1.894
 1250TIP3    H1 3689  -0.282   4.596   1.967
 1250TIP3    H2 3690  -0.236   4.458   1.927
 1251TIP3   OH2 3691   0.317   4.405   1.840
 1251TIP3    H1 3692   0.221   4.414   1.859
 1251TIP3    H2 3693   0.311   4.345   1.764
 1252TIP3   OH2 3694  -0.181   5.538   2.088
 1252TIP3    H1 3695  -0.159   5.444   2.094
 1252TIP3    H2 3696  -0.102   5.575   2.043
 1253TIP3   OH2 3697  -0.010   5.071   1.697
 1253TIP3    H1 3698   0.023   5.156   1.728
 1253TIP3    H2 3699  -0.107   5.086   1.700
 1254TIP3   OH2 3700  -0.601   4.140   1.905
 1254TIP3    H1 3701  -0.545   4.214   1.870
 1254TIP3    H2 3702  -0.683   4.186   1.929
 1255TIP3   OH2 3703   0.086   4.918   1.916
 1255TIP3    H1 3704   0.025   4.981   1.874
 1255TIP3    H2 3705   0.171   4.950   1.880
 1256TIP3   OH2 3706  -0.440   3.950   2.017
 1256TIP3    H1 3707  -0.491   4.027   1.985
 1256TIP3    H2 3708  -0.509   3.883   2.011
 1257TIP3   OH2 3709  -0.316   4.461   2.232
 1257TIP3    H1 3710  -0.299   4.449   2.327
 1257TIP3    H2 3711  -0.402   4.418   2.220
 1258TIP3   OH2 3712  -0.084   4.410   2.083
 1258TIP3    H1 3713  -0.157   4.410   2.148
 1258TIP3    H2 3714  -0.007   4.388   2.139
 1259TIP3   OH2 3715   0.145   4.355   2.240
 1259TIP3    H1 3716   0.155   4.260   2.260
 1259TIP3    H2 3717   0.138   4.396   2.329
 1260TIP3   OH2 3718  -0.347   3.972   2.274
 1260TIP3    H1 3719  -0.282   3.900   2.259
 1260TIP3    H2 3720  -0.397   3.970   2.190
 1261TIP3   OH2 3721  -0.278   4.184   2.423
 1261TIP3    H1 3722  -0.295   4.106   2.365
 1261TIP3    H2 3723  -0.365   4.228   2.419
 1262TIP3   OH2 3724   0.266   5.351   1.998
 1262TIP3    H1 3725   0.196   5.358   2.067
 1262TIP3    H2 3726   0.309   5.438   2.006
 1263TIP3   OH2 3727   0.311   5.010   1.780
 1263TIP3    H1 3728   0.383   4.947   1.802
 1263TIP3    H2 3729   0.357   5.094   1.794
 1264TIP3   OH2 3730   0.496   4.831   1.853
 1264TIP3    H1 3731   0.423   4.775   1.887
 1264TIP3    H2 3732   0.570   4.768   1.859
 1265TIP3   OH2 3733   0.187   4.462   1.363
 1265TIP3    H1 3734   0.264   4.508   1.324
 1265TIP3    H2 3735   0.192   4.497   1.453
 1266TIP3   OH2 3736   0.247   4.639   1.582
 1266TIP3    H1 3737   0.198   4.642   1.667
 1266TIP3    H2 3738   0.187   4.692   1.528
 1267TIP3   OH2 3739   0.708   4.222   2.150
 1267TIP3    H1 3740   0.761   4.152   2.105
 1267TIP3    H2 3741   0.672   4.271   2.072
 1268TIP3   OH2 3742   0.573   4.357   1.956
 1268TIP3    H1 3743   0.493   4.401   1.992
 1268TIP3    H2 3744   0.531   4.290   1.899
 1269TIP3   OH2 3745   0.470   4.120   1.835
 1269TIP3    H1 3746   0.377   4.107   1.809
 1269TIP3    H2 3747   0.505   4.029   1.825
 1270TIP3   OH2 3748   0.146   4.025   1.390
 1270TIP3    H1 3749   0.222   4.033   1.329
 1270TIP3    H2 3750   0.100   3.949   1.351
 1271TIP3   OH2 3751   0.321   4.032   1.176
 1271TIP3    H1 3752   0.297   4.007   1.084
 1271TIP3    H2 3753   0.352   4.123   1.155
 1272TIP3   OH2 3754   0.203   4.082   2.269
 1272TIP3    H1 3755   0.223   4.050   2.360
 1272TIP3    H2 3756   0.292   4.077   2.227
 1273TIP3   OH2 3757   0.147   5.565   1.730
 1273TIP3    H1 3758   0.057   5.534   1.751
 1273TIP3    H2 3759   0.134   5.661   1.748
 1274TIP3   OH2 3760   1.410   5.003   0.540
 1274TIP3    H1 3761   1.377   5.090   0.508
 1274TIP3    H2 3762   1.343   4.944   0.501
 1275TIP3   OH2 3763   1.409   5.010   0.908
 1275TIP3    H1 3764   1.439   4.975   0.993
 1275TIP3    H2 3765   1.373   4.931   0.866
 1276TIP3   OH2 3766   0.716   4.928   1.301
 1276TIP3    H1 3767   0.751   4.847   1.344
 1276TIP3    H2 3768   0.787   4.949   1.238
 1277TIP3   OH2 3769   1.653   5.312   0.591
 1277TIP3    H1 3770   1.638   5.239   0.652
 1277TIP3    H2 3771   1.682   5.384   0.650
 1278TIP3   OH2 3772   0.695   5.293   1.080
 1278TIP3    H1 3773   0.690   5.197   1.061
 1278TIP3    H2 3774   0.788   5.307   1.052
 1279TIP3   OH2 3775   0.562   4.799   0.930
 1279TIP3    H1 3776   0.564   4.722   0.990
 1279TIP3    H2 3777   0.513   4.764   0.855
 1280TIP3   OH2 3778   1.349   5.747   0.665
 1280TIP3    H1 3779   1.423   5.710   0.613
 1280TIP3    H2 3780   1.357   5.696   0.747
 1281TIP3   OH2 3781   1.218   5.228   0.961
 1281TIP3    H1 3782   1.259   5.150   0.919
 1281TIP3    H2 3783   1.300   5.278   0.981
 1282TIP3   OH2 3784   2.222   4.552   0.954
 1282TIP3    H1 3785   2.251   4.636   0.994
 1282TIP3    H2 3786   2.242   4.568   0.860
 1283TIP3   OH2 3787   1.618   4.733   0.988
 1283TIP3    H1 3788   1.661   4.647   1.004
 1283TIP3    H2 3789   1.584   4.721   0.897
 1284TIP3   OH2 3790   0.962   4.395   0.957
 1284TIP3    H1 3791   0.943   4.467   0.893
 1284TIP3    H2 3792   0.917   4.321   0.910
 1285TIP3   OH2 3793   1.652   4.481   0.577
 1285TIP3    H1 3794   1.727   4.470   0.641
 1285TIP3    H2 3795   1.699   4.523   0.503
 1286TIP3   OH2 3796   0.590   4.578   1.087
 1286TIP3    H1 3797   0.680   4.563   1.123
 1286TIP3    H2 3798   0.594   4.519   1.008
 1287TIP3   OH2 3799   1.031   4.797   0.858
 1287TIP3    H1 3800   1.126   4.776   0.865
 1287TIP3    H2 3801   0.997   4.712   0.822
 1288TIP3   OH2 3802   2.296   4.762   1.124
 1288TIP3    H1 3803   2.212   4.807   1.103
 1288TIP3    H2 3804   2.310   4.790   1.215
 1289TIP3   OH2 3805   0.953   4.380   1.395
 1289TIP3    H1 3806   0.897   4.413   1.322
 1289TIP3    H2 3807   0.897   4.402   1.472
 1290TIP3   OH2 3808   1.307   5.209   0.399
 1290TIP3    H1 3809   1.286   5.175   0.311
 1290TIP3    H2 3810   1.301   5.305   0.388
 1291TIP3   OH2 3811   1.065   5.149   1.183
 1291TIP3    H1 3812   1.006   5.218   1.219
 1291TIP3    H2 3813   1.103   5.194   1.104
 1292TIP3   OH2 3814   1.864   4.489   0.747
 1292TIP3    H1 3815   1.854   4.435   0.826
 1292TIP3    H2 3816   1.915   4.565   0.778
 1293TIP3   OH2 3817   0.832   4.487   1.176
 1293TIP3    H1 3818   0.895   4.560   1.196
 1293TIP3    H2 3819   0.877   4.449   1.096
 1294TIP3   OH2 3820   0.899   5.342   1.293
 1294TIP3    H1 3821   0.872   5.425   1.249
 1294TIP3    H2 3822   0.815   5.315   1.335
 1295TIP3   OH2 3823   1.719   5.549   0.760
 1295TIP3    H1 3824   1.628   5.542   0.796
 1295TIP3    H2 3825   1.713   5.634   0.712
 1296TIP3   OH2 3826   2.013   4.454   1.121
 1296TIP3    H1 3827   1.925   4.478   1.087
 1296TIP3    H2 3828   2.072   4.485   1.049
 1297TIP3   OH2 3829   1.312   4.094   1.105
 1297TIP3    H1 3830   1.295   3.999   1.116
 1297TIP3    H2 3831   1.232   4.132   1.147
 1298TIP3   OH2 3832   1.518   5.631   0.483
 1298TIP3    H1 3833   1.557   5.549   0.444
 1298TIP3    H2 3834   1.523   5.693   0.409
 1299TIP3   OH2 3835   1.557   5.394   0.347
 1299TIP3    H1 3836   1.570   5.324   0.280
 1299TIP3    H2 3837   1.588   5.347   0.427
 1300TIP3   OH2 3838   1.949   5.465   1.100
 1300TIP3    H1 3839   1.936   5.387   1.041
 1300TIP3    H2 3840   1.931   5.539   1.038
 1301TIP3   OH2 3841   1.226   4.867   0.348
 1301TIP3    H1 3842   1.152   4.898   0.295
 1301TIP3    H2 3843   1.295   4.869   0.279
 1302TIP3   OH2 3844   1.168   4.634   0.147
 1302TIP3    H1 3845   1.175   4.648   0.243
 1302TIP3    H2 3846   1.186   4.539   0.144
 1303TIP3   OH2 3847   2.144   5.104   0.946
 1303TIP3    H1 3848   2.059   5.154   0.950
 1303TIP3    H2 3849   2.173   5.127   0.855
 1304TIP3   OH2 3850   1.599   4.955   0.346
 1304TIP3    H1 3851   1.542   4.967   0.426
 1304TIP3    H2 3852   1.681   4.920   0.387
 1305TIP3   OH2 3853   1.823   4.980   1.242
 1305TIP3    H1 3854   1.818   5.064   1.291
 1305TIP3    H2 3855   1.736   4.982   1.196
 1306TIP3   OH2 3856   0.804   4.925   0.753
 1306TIP3    H1 3857   0.798   4.877   0.669
 1306TIP3    H2 3858   0.888   4.889   0.788
 1307TIP3   OH2 3859   0.933   5.290   0.937
 1307TIP3    H1 3860   0.920   5.338   0.852
 1307TIP3    H2 3861   1.031   5.288   0.941
 1308TIP3   OH2 3862   0.954   4.907   1.111
 1308TIP3    H1 3863   0.978   4.886   1.019
 1308TIP3    H2 3864   0.993   4.996   1.122
 1309TIP3   OH2 3865   1.472   5.554   0.875
 1309TIP3    H1 3866   1.474   5.628   0.938
 1309TIP3    H2 3867   1.464   5.476   0.935
 1310TIP3   OH2 3868   1.100   5.468   1.428
 1310TIP3    H1 3869   1.038   5.530   1.472
 1310TIP3    H2 3870   1.036   5.414   1.377
 1311TIP3   OH2 3871   1.457   4.816   0.161
 1311TIP3    H1 3872   1.505   4.864   0.232
 1311TIP3    H2 3873   1.446   4.887   0.095
 1312TIP3   OH2 3874   0.870   5.020   1.541
 1312TIP3    H1 3875   0.862   5.104   1.591
 1312TIP3    H2 3876   0.795   5.027   1.480
 1313TIP3   OH2 3877   0.895   5.638   1.513
 1313TIP3    H1 3878   0.861   5.641   1.421
 1313TIP3    H2 3879   0.815   5.614   1.564
 1314TIP3   OH2 3880   1.947   4.043   0.202
 1314TIP3    H1 3881   1.863   4.058   0.252
 1314TIP3    H2 3882   1.953   4.126   0.151
 1315TIP3   OH2 3883   0.460   5.101   1.447
 1315TIP3    H1 3884   0.434   5.167   1.380
 1315TIP3    H2 3885   0.557   5.107   1.438
 1316TIP3   OH2 3886   2.185   5.811   1.146
 1316TIP3    H1 3887   2.184   5.714   1.160
 1316TIP3    H2 3888   2.102   5.836   1.192
 1317TIP3   OH2 3889   1.298   5.593   1.285
 1317TIP3    H1 3890   1.293   5.686   1.315
 1317TIP3    H2 3891   1.223   5.554   1.335
 1318TIP3   OH2 3892   2.075   4.940   1.421
 1318TIP3    H1 3893   1.994   4.952   1.369
 1318TIP3    H2 3894   2.091   4.844   1.409
 1319TIP3   OH2 3895   0.671   5.299   1.458
 1319TIP3    H1 3896   0.737   5.312   1.530
 1319TIP3    H2 3897   0.592   5.342   1.497
 1320TIP3   OH2 3898   1.072   4.169   1.231
 1320TIP3    H1 3899   0.983   4.139   1.202
 1320TIP3    H2 3900   1.047   4.255   1.271
 1321TIP3   OH2 3901   1.608   4.290   1.426
 1321TIP3    H1 3902   1.678   4.256   1.486
 1321TIP3    H2 3903   1.525   4.262   1.469
 1322TIP3   OH2 3904   1.844   4.716   1.343
 1322TIP3    H1 3905   1.793   4.714   1.426
 1322TIP3    H2 3906   1.821   4.803   1.306
 1323TIP3   OH2 3907   1.262   4.259   0.196
 1323TIP3    H1 3908   1.214   4.307   0.267
 1323TIP3    H2 3909   1.254   4.167   0.225
 1324TIP3   OH2 3910   1.005   4.685   1.252
 1324TIP3    H1 3911   0.958   4.711   1.333
 1324TIP3    H2 3912   0.992   4.766   1.197
 1325TIP3   OH2 3913   0.896   4.571   0.758
 1325TIP3    H1 3914   0.801   4.555   0.765
 1325TIP3    H2 3915   0.915   4.543   0.667
 1326TIP3   OH2 3916   1.427   4.708   0.480
 1326TIP3    H1 3917   1.335   4.731   0.459
 1326TIP3    H2 3918   1.446   4.638   0.415
 1327TIP3   OH2 3919   1.553   4.936   1.576
 1327TIP3    H1 3920   1.534   4.862   1.637
 1327TIP3    H2 3921   1.647   4.952   1.597
 1328TIP3   OH2 3922   1.539   4.691   0.729
 1328TIP3    H1 3923   1.482   4.720   0.654
 1328TIP3    H2 3924   1.566   4.606   0.690
 1329TIP3   OH2 3925   0.824   4.723   1.460
 1329TIP3    H1 3926   0.860   4.784   1.527
 1329TIP3    H2 3927   0.810   4.642   1.512
 1330TIP3   OH2 3928   0.419   4.250   1.051
 1330TIP3    H1 3929   0.492   4.281   1.111
 1330TIP3    H2 3930   0.466   4.237   0.969
 1331TIP3   OH2 3931   1.548   4.932   1.154
 1331TIP3    H1 3932   1.578   4.861   1.093
 1331TIP3    H2 3933   1.515   4.878   1.229
 1332TIP3   OH2 3934   1.216   4.347   0.856
 1332TIP3    H1 3935   1.130   4.360   0.901
 1332TIP3    H2 3936   1.279   4.385   0.919
 1333TIP3   OH2 3937   0.659   4.428   0.870
 1333TIP3    H1 3938   0.592   4.446   0.800
 1333TIP3    H2 3939   0.705   4.349   0.835
 1334TIP3   OH2 3940   1.708   4.471   1.032
 1334TIP3    H1 3941   1.667   4.486   1.120
 1334TIP3    H2 3942   1.644   4.407   0.995
 1335TIP3   OH2 3943   1.877   6.161   1.245
 1335TIP3    H1 3944   1.876   6.183   1.150
 1335TIP3    H2 3945   1.958   6.208   1.275
 1336TIP3   OH2 3946   0.840   5.273   1.671
 1336TIP3    H1 3947   0.918   5.304   1.720
 1336TIP3    H2 3948   0.775   5.267   1.744
 1337TIP3   OH2 3949   1.300   4.731   0.923
 1337TIP3    H1 3950   1.342   4.684   0.848
 1337TIP3    H2 3951   1.325   4.677   0.999
 1338TIP3   OH2 3952   0.830   4.214   0.802
 1338TIP3    H1 3953   0.792   4.134   0.843
 1338TIP3    H2 3954   0.873   4.176   0.723
 1339TIP3   OH2 3955   1.274   4.612   1.226
 1339TIP3    H1 3956   1.187   4.656   1.225
 1339TIP3    H2 3957   1.333   4.681   1.264
 1340TIP3   OH2 3958   1.910   5.248   0.935
 1340TIP3    H1 3959   1.933   5.298   0.854
 1340TIP3    H2 3960   1.826   5.204   0.910
 1341TIP3   OH2 3961   1.515   4.327   0.134
 1341TIP3    H1 3962   1.420   4.301   0.137
 1341TIP3    H2 3963   1.511   4.419   0.168
 1342TIP3   OH2 3964   1.413   5.331   1.302
 1342TIP3    H1 3965   1.435   5.311   1.394
 1342TIP3    H2 3966   1.371   5.419   1.309
 1343TIP3   OH2 3967   1.540   4.568   0.266
 1343TIP3    H1 3968   1.634   4.577   0.289
 1343TIP3    H2 3969   1.520   4.654   0.223
 1344TIP3   OH2 3970   0.712   5.041   0.985
 1344TIP3    H1 3971   0.748   5.018   0.897
 1344TIP3    H2 3972   0.691   4.952   1.016
 1345TIP3   OH2 3973   1.312   5.068   1.615
 1345TIP3    H1 3974   1.254   5.016   1.557
 1345TIP3    H2 3975   1.400   5.034   1.587
 1346TIP3   OH2 3976   1.571   5.593   1.198
 1346TIP3    H1 3977   1.475   5.586   1.214
 1346TIP3    H2 3978   1.598   5.643   1.277
 1347TIP3   OH2 3979   1.982   4.660   0.111
 1347TIP3    H1 3980   1.921   4.617   0.045
 1347TIP3    H2 3981   1.981   4.750   0.071
 1348TIP3   OH2 3982   2.199   5.521   1.188
 1348TIP3    H1 3983   2.101   5.514   1.180
 1348TIP3    H2 3984   2.225   5.490   1.098
 1349TIP3   OH2 3985   1.676   5.109   0.854
 1349TIP3    H1 3986   1.583   5.085   0.866
 1349TIP3    H2 3987   1.710   5.029   0.809
 1350TIP3   OH2 3988   1.071   5.692   1.111
 1350TIP3    H1 3989   1.081   5.714   1.017
 1350TIP3    H2 3990   1.159   5.656   1.132
 1351TIP3   OH2 3991   1.469   5.320   1.034
 1351TIP3    H1 3992   1.455   5.315   1.131
 1351TIP3    H2 3993   1.543   5.259   1.023
 1352TIP3   OH2 3994   1.713   5.848   1.088
 1352TIP3    H1 3995   1.632   5.793   1.082
 1352TIP3    H2 3996   1.697   5.912   1.015
 1353TIP3   OH2 3997   0.780   4.452   1.607
 1353TIP3    H1 3998   0.689   4.486   1.618
 1353TIP3    H2 3999   0.766   4.360   1.634
 1354TIP3   OH2 4000   1.622   5.181   0.185
 1354TIP3    H1 4001   1.602   5.101   0.238
 1354TIP3    H2 4002   1.707   5.155   0.145
 1355TIP3   OH2 4003   0.550   5.515   1.299
 1355TIP3    H1 4004   0.586   5.443   1.245
 1355TIP3    H2 4005   0.629   5.547   1.344
 1356TIP3   OH2 4006   1.627   4.531   1.292
 1356TIP3    H1 4007   1.715   4.564   1.320
 1356TIP3    H2 4008   1.619   4.448   1.342
 1357TIP3   OH2 4009   1.519   4.272   0.448
 1357TIP3    H1 4010   1.503   4.298   0.355
 1357TIP3    H2 4011   1.555   4.355   0.485
 1358TIP3   OH2 4012   1.245   4.555   0.676
 1358TIP3    H1 4013   1.214   4.538   0.584
 1358TIP3    H2 4014   1.223   4.470   0.719
 1359TIP3   OH2 4015   1.469   4.772   1.359
 1359TIP3    H1 4016   1.496   4.823   1.438
 1359TIP3    H2 4017   1.525   4.692   1.364
 1360TIP3   OH2 4018   1.371   4.184   0.677
 1360TIP3    H1 4019   1.350   4.263   0.730
 1360TIP3    H2 4020   1.426   4.222   0.605
 1361TIP3   OH2 4021   0.900   4.167   0.439
 1361TIP3    H1 4022   0.920   4.258   0.414
 1361TIP3    H2 4023   0.990   4.129   0.442
 1362TIP3   OH2 4024   2.111   4.673   1.341
 1362TIP3    H1 4025   2.013   4.672   1.347
 1362TIP3    H2 4026   2.122   4.631   1.255
 1363TIP3   OH2 4027   1.761   4.869   0.730
 1363TIP3    H1 4028   1.683   4.810   0.736
 1363TIP3    H2 4029   1.830   4.817   0.778
 1364TIP3   OH2 4030   1.740   5.817   0.687
 1364TIP3    H1 4031   1.705   5.867   0.610
 1364TIP3    H2 4032   1.835   5.832   0.670
 1365TIP3   OH2 4033   0.804   4.097   1.205
 1365TIP3    H1 4034   0.773   4.061   1.119
 1365TIP3    H2 4035   0.801   4.019   1.263
 1366TIP3   OH2 4036   0.489   5.826   1.670
 1366TIP3    H1 4037   0.579   5.831   1.710
 1366TIP3    H2 4038   0.475   5.729   1.666
 1367TIP3   OH2 4039   0.985   5.818   1.704
 1367TIP3    H1 4040   1.080   5.796   1.709
 1367TIP3    H2 4041   0.957   5.758   1.631
 1368TIP3   OH2 4042   1.622   5.725   1.436
 1368TIP3    H1 4043   1.613   5.654   1.504
 1368TIP3    H2 4044   1.700   5.774   1.467
 1369TIP3   OH2 4045   0.638   5.263   1.863
 1369TIP3    H1 4046   0.656   5.167   1.870
 1369TIP3    H2 4047   0.548   5.261   1.824
 1370TIP3   OH2 4048   1.241   5.344   1.632
 1370TIP3    H1 4049   1.199   5.365   1.546
 1370TIP3    H2 4050   1.270   5.252   1.621
 1371TIP3   OH2 4051   1.734   5.354   1.240
 1371TIP3    H1 4052   1.808   5.398   1.194
 1371TIP3    H2 4053   1.662   5.417   1.223
 1372TIP3   OH2 4054   0.758   5.012   1.840
 1372TIP3    H1 4055   0.815   4.938   1.817
 1372TIP3    H2 4056   0.785   5.032   1.932
 1373TIP3   OH2 4057   1.091   4.867   1.502
 1373TIP3    H1 4058   1.017   4.932   1.512
 1373TIP3    H2 4059   1.141   4.906   1.426
 1374TIP3   OH2 4060   1.604   5.280   1.636
 1374TIP3    H1 4061   1.682   5.254   1.586
 1374TIP3    H2 4062   1.602   5.213   1.707
 1375TIP3   OH2 4063   1.210   4.659   1.625
 1375TIP3    H1 4064   1.212   4.586   1.560
 1375TIP3    H2 4065   1.168   4.730   1.571
 1376TIP3   OH2 4066   1.212   4.448   1.438
 1376TIP3    H1 4067   1.241   4.496   1.357
 1376TIP3    H2 4068   1.118   4.430   1.417
 1377TIP3   OH2 4069   1.240   4.990   1.316
 1377TIP3    H1 4070   1.321   4.995   1.265
 1377TIP3    H2 4071   1.182   5.052   1.267
 1378TIP3   OH2 4072   1.822   4.954   1.689
 1378TIP3    H1 4073   1.872   4.871   1.695
 1378TIP3    H2 4074   1.888   5.014   1.652
 1379TIP3   OH2 4075   1.863   5.208   1.426
 1379TIP3    H1 4076   1.805   5.262   1.367
 1379TIP3    H2 4077   1.950   5.228   1.386
 1380TIP3   OH2 4078   1.095   4.779   1.859
 1380TIP3    H1 4079   1.020   4.718   1.876
 1380TIP3    H2 4080   1.119   4.755   1.768
 1381TIP3   OH2 4081   1.344   4.216   1.500
 1381TIP3    H1 4082   1.297   4.295   1.468
 1381TIP3    H2 4083   1.279   4.145   1.479
 1382TIP3   OH2 4084   1.473   4.714   1.718
 1382TIP3    H1 4085   1.465   4.718   1.815
 1382TIP3    H2 4086   1.381   4.695   1.692
 1383TIP3   OH2 4087   1.711   4.672   1.573
 1383TIP3    H1 4088   1.636   4.672   1.636
 1383TIP3    H2 4089   1.786   4.642   1.630
 1384TIP3   OH2 4090   1.935   4.609   1.725
 1384TIP3    H1 4091   1.952   4.514   1.742
 1384TIP3    H2 4092   1.935   4.648   1.815
 1385TIP3   OH2 4093   0.926   4.565   1.909
 1385TIP3    H1 4094   0.913   4.479   1.867
 1385TIP3    H2 4095   0.970   4.541   1.994
 1386TIP3   OH2 4096   1.411   4.220   1.757
 1386TIP3    H1 4097   1.490   4.160   1.766
 1386TIP3    H2 4098   1.401   4.216   1.658
 1387TIP3   OH2 4099   1.500   4.434   1.925
 1387TIP3    H1 4100   1.499   4.388   1.839
 1387TIP3    H2 4101   1.433   4.506   1.913
 1388TIP3   OH2 4102   1.992   5.907   0.640
 1388TIP3    H1 4103   2.015   5.944   0.727
 1388TIP3    H2 4104   2.044   5.961   0.580
 1389TIP3   OH2 4105   2.012   5.936   0.920
 1389TIP3    H1 4106   1.967   5.848   0.915
 1389TIP3    H2 4107   2.088   5.911   0.975
 1390TIP3   OH2 4108   2.059   5.611   1.491
 1390TIP3    H1 4109   1.986   5.621   1.556
 1390TIP3    H2 4110   2.101   5.700   1.495
 1391TIP3   OH2 4111   1.882   5.118   0.105
 1391TIP3    H1 4112   1.950   5.183   0.079
 1391TIP3    H2 4113   1.922   5.080   0.186
 1392TIP3   OH2 4114   2.004   4.992   0.316
 1392TIP3    H1 4115   1.938   4.947   0.374
 1392TIP3    H2 4116   2.067   5.029   0.381
 1393TIP3   OH2 4117   2.059   5.386   0.746
 1393TIP3    H1 4118   2.111   5.318   0.699
 1393TIP3    H2 4119   2.049   5.455   0.679
 1394TIP3   OH2 4120   1.888   5.685   0.940
 1394TIP3    H1 4121   1.817   5.726   0.993
 1394TIP3    H2 4122   1.838   5.638   0.871
 1395TIP3   OH2 4123   1.945   4.891  -0.038
 1395TIP3    H1 4124   1.864   4.865  -0.086
 1395TIP3    H2 4125   1.916   4.972   0.008
 1396TIP3   OH2 4126   1.820   4.584  -0.091
 1396TIP3    H1 4127   1.747   4.636  -0.129
 1396TIP3    H2 4128   1.786   4.492  -0.099
 1397TIP3   OH2 4129   1.826   4.845   0.464
 1397TIP3    H1 4130   1.824   4.748   0.453
 1397TIP3    H2 4131   1.808   4.856   0.560
 1398TIP3   OH2 4132   0.445   4.887   1.265
 1398TIP3    H1 4133   0.420   4.912   1.172
 1398TIP3    H2 4134   0.542   4.903   1.261
 1399TIP3   OH2 4135   2.107   5.274   1.318
 1399TIP3    H1 4136   2.178   5.207   1.308
 1399TIP3    H2 4137   2.132   5.342   1.253
 1400TIP3   OH2 4138   2.290   5.077   1.333
 1400TIP3    H1 4139   2.216   5.027   1.372
 1400TIP3    H2 4140   2.364   5.013   1.348
 1401TIP3   OH2 4141   1.749   4.319  -0.084
 1401TIP3    H1 4142   1.833   4.282  -0.050
 1401TIP3    H2 4143   1.682   4.280  -0.025
 1402TIP3   OH2 4144   1.814   4.566   0.356
 1402TIP3    H1 4145   1.852   4.476   0.372
 1402TIP3    H2 4146   1.871   4.596   0.283
 1403TIP3   OH2 4147   1.975   4.737   0.851
 1403TIP3    H1 4148   2.060   4.763   0.809
 1403TIP3    H2 4149   1.989   4.775   0.940
 1404TIP3   OH2 4150   2.046   4.883   1.083
 1404TIP3    H1 4151   1.967   4.917   1.129
 1404TIP3    H2 4152   2.078   4.964   1.036
 1405TIP3   OH2 4153   0.658   4.614   1.880
 1405TIP3    H1 4154   0.756   4.611   1.888
 1405TIP3    H2 4155   0.633   4.528   1.919
 1406TIP3   OH2 4156   2.494   4.473   1.637
 1406TIP3    H1 4157   2.555   4.409   1.595
 1406TIP3    H2 4158   2.466   4.527   1.561
 1407TIP3   OH2 4159   1.924   4.315   0.391
 1407TIP3    H1 4160   1.969   4.298   0.476
 1407TIP3    H2 4161   1.862   4.239   0.388
 1408TIP3   OH2 4162   0.621   4.305   1.224
 1408TIP3    H1 4163   0.681   4.227   1.225
 1408TIP3    H2 4164   0.686   4.375   1.207
 1409TIP3   OH2 4165   0.415   4.603   1.294
 1409TIP3    H1 4166   0.469   4.561   1.224
 1409TIP3    H2 4167   0.442   4.695   1.279
 1410TIP3   OH2 4168   2.365   4.612   1.442
 1410TIP3    H1 4169   2.279   4.654   1.460
 1410TIP3    H2 4170   2.336   4.540   1.384
 1411TIP3   OH2 4171   2.011   4.251   0.012
 1411TIP3    H1 4172   2.074   4.189  -0.028
 1411TIP3    H2 4173   2.065   4.331   0.019
 1412TIP3   OH2 4174   0.637   4.173   1.609
 1412TIP3    H1 4175   0.580   4.156   1.686
 1412TIP3    H2 4176   0.569   4.203   1.544
 1413TIP3   OH2 4177   0.679   5.572   1.671
 1413TIP3    H1 4178   0.583   5.556   1.665
 1413TIP3    H2 4179   0.692   5.572   1.767
 1414TIP3   OH2 4180   0.841   5.607   1.235
 1414TIP3    H1 4181   0.775   5.637   1.169
 1414TIP3    H2 4182   0.924   5.640   1.194
 1415TIP3   OH2 4183   1.293   5.861   1.364
 1415TIP3    H1 4184   1.336   5.860   1.452
 1415TIP3    H2 4185   1.359   5.912   1.312
 1416TIP3   OH2 4186   1.469   6.016   1.223
 1416TIP3    H1 4187   1.537   5.964   1.177
 1416TIP3    H2 4188   1.524   6.071   1.283
 1417TIP3   OH2 4189   2.264   4.375   1.323
 1417TIP3    H1 4190   2.174   4.369   1.285
 1417TIP3    H2 4191   2.296   4.283   1.311
 1418TIP3   OH2 4192   1.212   5.895   0.892
 1418TIP3    H1 4193   1.116   5.878   0.875
 1418TIP3    H2 4194   1.208   5.975   0.948
 1419TIP3   OH2 4195   1.464   5.822   0.962
 1419TIP3    H1 4196   1.371   5.840   0.936
 1419TIP3    H2 4197   1.511   5.891   0.913
 1420TIP3   OH2 4198   1.663   6.008   0.872
 1420TIP3    H1 4199   1.652   6.093   0.825
 1420TIP3    H2 4200   1.692   5.948   0.800
 1421TIP3   OH2 4201   1.487   4.295   0.964
 1421TIP3    H1 4202   1.430   4.226   1.001
 1421TIP3    H2 4203   1.534   4.247   0.894
 1422TIP3   OH2 4204   1.996   4.177   0.851
 1422TIP3    H1 4205   2.030   4.225   0.773
 1422TIP3    H2 4206   1.899   4.185   0.839
 1423TIP3   OH2 4207   2.088   4.270   0.611
 1423TIP3    H1 4208   2.161   4.220   0.569
 1423TIP3    H2 4209   2.120   4.362   0.595
 1424TIP3   OH2 4210   0.717   4.004   0.957
 1424TIP3    H1 4211   0.633   3.967   0.925
 1424TIP3    H2 4212   0.772   3.922   0.957
 1425TIP3   OH2 4213   1.165   4.037   0.831
 1425TIP3    H1 4214   1.233   4.085   0.780
 1425TIP3    H2 4215   1.176   4.076   0.918
 1426TIP3   OH2 4216   1.719   4.177   0.817
 1426TIP3    H1 4217   1.699   4.143   0.729
 1426TIP3    H2 4218   1.698   4.100   0.874
 1427TIP3   OH2 4219   1.742   4.102   0.386
 1427TIP3    H1 4220   1.656   4.147   0.394
 1427TIP3    H2 4221   1.722   4.016   0.430
 1428TIP3   OH2 4222   1.168   4.158   0.475
 1428TIP3    H1 4223   1.211   4.156   0.563
 1428TIP3    H2 4224   1.167   4.255   0.459
 1429TIP3   OH2 4225   2.001   4.339   1.755
 1429TIP3    H1 4226   2.021   4.307   1.845
 1429TIP3    H2 4227   2.090   4.335   1.713
 1430TIP3   OH2 4228   1.939   5.892   1.248
 1430TIP3    H1 4229   1.861   5.860   1.198
 1430TIP3    H2 4230   1.918   5.987   1.252
 1431TIP3   OH2 4231   3.220   5.273   0.070
 1431TIP3    H1 4232   3.198   5.361   0.032
 1431TIP3    H2 4233   3.138   5.227   0.050
 1432TIP3   OH2 4234   3.201   5.270   0.401
 1432TIP3    H1 4235   3.237   5.235   0.485
 1432TIP3    H2 4236   3.167   5.189   0.359
 1433TIP3   OH2 4237   2.503   5.159   0.760
 1433TIP3    H1 4238   2.533   5.090   0.822
 1433TIP3    H2 4239   2.584   5.212   0.751
 1434TIP3   OH2 4240   3.461   5.558   0.068
 1434TIP3    H1 4241   3.435   5.489   0.131
 1434TIP3    H2 4242   3.480   5.633   0.126
 1435TIP3   OH2 4243   2.476   5.570   0.482
 1435TIP3    H1 4244   2.468   5.472   0.485
 1435TIP3    H2 4245   2.572   5.579   0.476
 1436TIP3   OH2 4246   2.184   4.773   0.268
 1436TIP3    H1 4247   2.133   4.855   0.284
 1436TIP3    H2 4248   2.113   4.716   0.233
 1437TIP3   OH2 4249   2.242   5.060   0.444
 1437TIP3    H1 4250   2.290   4.981   0.479
 1437TIP3    H2 4251   2.299   5.086   0.370
 1438TIP3   OH2 4252   3.063   5.993   0.130
 1438TIP3    H1 4253   3.130   5.995   0.059
 1438TIP3    H2 4254   3.116   5.983   0.211
 1439TIP3   OH2 4255   3.004   5.490   0.442
 1439TIP3    H1 4256   3.043   5.411   0.402
 1439TIP3    H2 4257   3.087   5.536   0.467
 1440TIP3   OH2 4258   4.014   4.807   0.442
 1440TIP3    H1 4259   4.044   4.892   0.478
 1440TIP3    H2 4260   4.056   4.808   0.353
 1441TIP3   OH2 4261   3.414   4.990   0.477
 1441TIP3    H1 4262   3.460   4.906   0.497
 1441TIP3    H2 4263   3.386   4.973   0.385
 1442TIP3   OH2 4264   2.755   4.651   0.440
 1442TIP3    H1 4265   2.735   4.723   0.376
 1442TIP3    H2 4266   2.708   4.576   0.395
 1443TIP3   OH2 4267   3.448   4.743   0.059
 1443TIP3    H1 4268   3.521   4.727   0.123
 1443TIP3    H2 4269   3.500   4.771  -0.019
 1444TIP3   OH2 4270   2.387   4.852   0.546
 1444TIP3    H1 4271   2.470   4.832   0.594
 1444TIP3    H2 4272   2.400   4.796   0.467
 1445TIP3   OH2 4273   2.828   5.050   0.341
 1445TIP3    H1 4274   2.922   5.024   0.354
 1445TIP3    H2 4275   2.789   4.966   0.308
 1446TIP3   OH2 4276   4.092   5.017   0.611
 1446TIP3    H1 4277   4.008   5.063   0.590
 1446TIP3    H2 4278   4.107   5.048   0.702
 1447TIP3   OH2 4279   2.751   4.634   0.874
 1447TIP3    H1 4280   2.690   4.670   0.806
 1447TIP3    H2 4281   2.698   4.652   0.955
 1448TIP3   OH2 4282   3.113   5.468  -0.087
 1448TIP3    H1 4283   3.058   5.464  -0.166
 1448TIP3    H2 4284   3.085   5.554  -0.051
 1449TIP3   OH2 4285   2.858   5.410   0.668
 1449TIP3    H1 4286   2.796   5.476   0.706
 1449TIP3    H2 4287   2.899   5.460   0.595
 1450TIP3   OH2 4288   3.655   4.746   0.235
 1450TIP3    H1 4289   3.652   4.692   0.315
 1450TIP3    H2 4290   3.708   4.822   0.263
 1451TIP3   OH2 4291   2.622   4.749   0.658
 1451TIP3    H1 4292   2.684   4.821   0.682
 1451TIP3    H2 4293   2.670   4.708   0.583
 1452TIP3   OH2 4294   2.685   5.604   0.767
 1452TIP3    H1 4295   2.659   5.690   0.729
 1452TIP3    H2 4296   2.606   5.588   0.823
 1453TIP3   OH2 4297   2.082   5.289   0.003
 1453TIP3    H1 4298   2.040   5.308  -0.083
 1453TIP3    H2 4299   2.099   5.380   0.036
 1454TIP3   OH2 4300   3.520   5.799   0.243
 1454TIP3    H1 4301   3.432   5.784   0.286
 1454TIP3    H2 4302   3.508   5.891   0.214
 1455TIP3   OH2 4303   3.810   4.709   0.607
 1455TIP3    H1 4304   3.723   4.737   0.573
 1455TIP3    H2 4305   3.870   4.742   0.537
 1456TIP3   OH2 4306   3.106   4.352   0.589
 1456TIP3    H1 4307   3.091   4.257   0.606
 1456TIP3    H2 4308   3.029   4.390   0.636
 1457TIP3   OH2 4309   3.744   5.721   0.589
 1457TIP3    H1 4310   3.733   5.643   0.530
 1457TIP3    H2 4311   3.730   5.796   0.528
 1458TIP3   OH2 4312   3.050   5.139  -0.110
 1458TIP3    H1 4313   2.972   5.196  -0.134
 1458TIP3    H2 4314   3.122   5.182  -0.159
 1459TIP3   OH2 4315   3.940   5.363   0.437
 1459TIP3    H1 4316   3.856   5.413   0.442
 1459TIP3    H2 4317   3.965   5.379   0.344
 1460TIP3   OH2 4318   3.337   5.137  -0.137
 1460TIP3    H1 4319   3.311   5.188  -0.057
 1460TIP3    H2 4320   3.431   5.161  -0.143
 1461TIP3   OH2 4321   3.618   5.237   0.729
 1461TIP3    H1 4322   3.615   5.320   0.780
 1461TIP3    H2 4323   3.531   5.241   0.684
 1462TIP3   OH2 4324   2.616   5.196   0.232
 1462TIP3    H1 4325   2.574   5.137   0.166
 1462TIP3    H2 4326   2.693   5.142   0.262
 1463TIP3   OH2 4327   2.745   5.605   0.382
 1463TIP3    H1 4328   2.724   5.568   0.295
 1463TIP3    H2 4329   2.835   5.569   0.398
 1464TIP3   OH2 4330   2.752   5.167   0.588
 1464TIP3    H1 4331   2.784   5.143   0.498
 1464TIP3    H2 4332   2.796   5.253   0.605
 1465TIP3   OH2 4333   3.280   5.803   0.362
 1465TIP3    H1 4334   3.264   5.884   0.414
 1465TIP3    H2 4335   3.263   5.731   0.426
 1466TIP3   OH2 4336   2.891   5.724   0.910
 1466TIP3    H1 4337   2.830   5.786   0.957
 1466TIP3    H2 4338   2.826   5.670   0.861
 1467TIP3   OH2 4339   2.646   5.280   1.014
 1467TIP3    H1 4340   2.649   5.367   1.057
 1467TIP3    H2 4341   2.551   5.259   1.023
 1468TIP3   OH2 4342   2.980   5.733  -0.051
 1468TIP3    H1 4343   3.031   5.786   0.012
 1468TIP3    H2 4344   2.895   5.779  -0.049
 1469TIP3   OH2 4345   2.684   5.892   0.998
 1469TIP3    H1 4346   2.649   5.892   0.907
 1469TIP3    H2 4347   2.604   5.870   1.051
 1470TIP3   OH2 4348   2.481   5.036   0.041
 1470TIP3    H1 4349   2.411   5.073  -0.016
 1470TIP3    H2 4350   2.451   4.945   0.052
 1471TIP3   OH2 4351   2.263   5.423   0.944
 1471TIP3    H1 4352   2.197   5.401   0.876
 1471TIP3    H2 4353   2.301   5.335   0.968
 1472TIP3   OH2 4354   2.117   5.621   0.569
 1472TIP3    H1 4355   2.213   5.609   0.570
 1472TIP3    H2 4356   2.106   5.696   0.630
 1473TIP3   OH2 4357   3.986   6.064   0.637
 1473TIP3    H1 4358   3.981   5.968   0.652
 1473TIP3    H2 4359   3.902   6.093   0.680
 1474TIP3   OH2 4360   3.088   5.853   0.768
 1474TIP3    H1 4361   3.086   5.945   0.801
 1474TIP3    H2 4362   3.016   5.812   0.822
 1475TIP3   OH2 4363   2.274   5.809   0.113
 1475TIP3    H1 4364   2.347   5.812   0.179
 1475TIP3    H2 4365   2.203   5.776   0.172
 1476TIP3   OH2 4366   3.871   5.196   0.909
 1476TIP3    H1 4367   3.790   5.208   0.856
 1476TIP3    H2 4368   3.888   5.101   0.898
 1477TIP3   OH2 4369   2.467   5.606   0.933
 1477TIP3    H1 4370   2.517   5.588   1.015
 1477TIP3    H2 4371   2.394   5.542   0.940
 1478TIP3   OH2 4372   2.868   4.428   0.718
 1478TIP3    H1 4373   2.779   4.397   0.690
 1478TIP3    H2 4374   2.842   4.510   0.764
 1479TIP3   OH2 4375   3.402   4.544   0.912
 1479TIP3    H1 4376   3.471   4.515   0.976
 1479TIP3    H2 4377   3.319   4.524   0.959
 1480TIP3   OH2 4378   3.639   4.972   0.830
 1480TIP3    H1 4379   3.589   4.970   0.914
 1480TIP3    H2 4380   3.616   5.060   0.794
 1481TIP3   OH2 4381   3.023   4.504  -0.299
 1481TIP3    H1 4382   2.982   4.477  -0.215
 1481TIP3    H2 4383   2.985   4.440  -0.361
 1482TIP3   OH2 4384   2.800   4.945   0.736
 1482TIP3    H1 4385   2.749   4.966   0.817
 1482TIP3    H2 4386   2.784   5.026   0.683
 1483TIP3   OH2 4387   2.683   4.831   0.249
 1483TIP3    H1 4388   2.590   4.803   0.268
 1483TIP3    H2 4389   2.695   4.790   0.161
 1484TIP3   OH2 4390   3.179   4.913  -0.030
 1484TIP3    H1 4391   3.121   4.989  -0.051
 1484TIP3    H2 4392   3.257   4.936  -0.082
 1485TIP3   OH2 4393   3.348   5.194   1.064
 1485TIP3    H1 4394   3.327   5.121   1.126
 1485TIP3    H2 4395   3.443   5.208   1.085
 1486TIP3   OH2 4396   3.334   4.944   0.218
 1486TIP3    H1 4397   3.276   4.976   0.147
 1486TIP3    H2 4398   3.368   4.863   0.174
 1487TIP3   OH2 4399   2.618   4.973   0.944
 1487TIP3    H1 4400   2.648   5.036   1.012
 1487TIP3    H2 4401   2.607   4.891   0.996
 1488TIP3   OH2 4402   2.689   4.387  -0.329
 1488TIP3    H1 4403   2.667   4.421  -0.241
 1488TIP3    H2 4404   2.642   4.447  -0.388
 1489TIP3   OH2 4405   2.211   4.495   0.526
 1489TIP3    H1 4406   2.289   4.525   0.578
 1489TIP3    H2 4407   2.250   4.462   0.443
 1490TIP3   OH2 4408   2.180   4.477   0.042
 1490TIP3    H1 4409   2.235   4.512  -0.031
 1490TIP3    H2 4410   2.122   4.554   0.061
 1491TIP3   OH2 4411   3.342   5.190   0.640
 1491TIP3    H1 4412   3.374   5.118   0.581
 1491TIP3    H2 4413   3.311   5.137   0.716
 1492TIP3   OH2 4414   3.012   4.654   0.311
 1492TIP3    H1 4415   2.930   4.651   0.365
 1492TIP3    H2 4416   3.081   4.648   0.379
 1493TIP3   OH2 4417   2.445   4.709   0.318
 1493TIP3    H1 4418   2.351   4.716   0.291
 1493TIP3    H2 4419   2.467   4.616   0.297
 1494TIP3   OH2 4420   2.715   4.708   0.007
 1494TIP3    H1 4421   2.811   4.719  -0.010
 1494TIP3    H2 4422   2.674   4.741  -0.075
 1495TIP3   OH2 4423   3.503   4.729   0.516
 1495TIP3    H1 4424   3.466   4.741   0.607
 1495TIP3    H2 4425   3.438   4.668   0.477
 1496TIP3   OH2 4426   2.541   4.758  -0.201
 1496TIP3    H1 4427   2.461   4.704  -0.212
 1496TIP3    H2 4428   2.599   4.728  -0.275
 1497TIP3   OH2 4429   3.675   6.418   0.734
 1497TIP3    H1 4430   3.674   6.442   0.640
 1497TIP3    H2 4431   3.756   6.463   0.765
 1498TIP3   OH2 4432   2.630   5.528   1.153
 1498TIP3    H1 4433   2.710   5.557   1.201
 1498TIP3    H2 4434   2.565   5.526   1.226
 1499TIP3   OH2 4435   3.094   4.980   0.408
 1499TIP3    H1 4436   3.168   4.940   0.360
 1499TIP3    H2 4437   3.101   4.937   0.495
 1500TIP3   OH2 4438   2.617   4.468   0.288
 1500TIP3    H1 4439   2.581   4.390   0.335
 1500TIP3    H2 4440   2.660   4.427   0.212
 1501TIP3   OH2 4441   3.070   4.878   0.698
 1501TIP3    H1 4442   2.980   4.914   0.712
 1501TIP3    H2 4443   3.127   4.939   0.749
 1502TIP3   OH2 4444   2.827   5.260  -0.191
 1502TIP3    H1 4445   2.746   5.210  -0.214
 1502TIP3    H2 4446   2.796   5.309  -0.112
 1503TIP3   OH2 4447   3.704   5.504   0.424
 1503TIP3    H1 4448   3.728   5.552   0.342
 1503TIP3    H2 4449   3.620   5.460   0.399
 1504TIP3   OH2 4450   3.207   5.588   0.788
 1504TIP3    H1 4451   3.232   5.565   0.879
 1504TIP3    H2 4452   3.167   5.676   0.799
 1505TIP3   OH2 4453   2.500   5.293   0.468
 1505TIP3    H1 4454   2.537   5.262   0.383
 1505TIP3    H2 4455   2.539   5.230   0.530
 1506TIP3   OH2 4456   2.380   5.211   1.083
 1506TIP3    H1 4457   2.399   5.196   1.177
 1506TIP3    H2 4458   2.311   5.145   1.066
 1507TIP3   OH2 4459   3.106   5.326   1.102
 1507TIP3    H1 4460   3.047   5.266   1.053
 1507TIP3    H2 4461   3.194   5.290   1.074
 1508TIP3   OH2 4462   3.365   5.851   0.683
 1508TIP3    H1 4463   3.269   5.845   0.700
 1508TIP3    H2 4464   3.394   5.899   0.763
 1509TIP3   OH2 4465   3.995   5.775   0.678
 1509TIP3    H1 4466   3.897   5.770   0.670
 1509TIP3    H2 4467   4.020   5.744   0.587
 1510TIP3   OH2 4468   3.471   5.370   0.340
 1510TIP3    H1 4469   3.378   5.345   0.353
 1510TIP3    H2 4470   3.505   5.288   0.298
 1511TIP3   OH2 4471   2.606   5.589   0.106
 1511TIP3    H1 4472   2.599   5.666   0.045
 1511TIP3    H2 4473   2.513   5.566   0.114
 1512TIP3   OH2 4474   2.167   4.898  -0.204
 1512TIP3    H1 4475   2.210   4.982  -0.180
 1512TIP3    H2 4476   2.087   4.901  -0.146
 1513TIP3   OH2 4477   2.746   5.363   0.045
 1513TIP3    H1 4478   2.704   5.450   0.060
 1513TIP3    H2 4479   2.706   5.310   0.115
 1514TIP3   OH2 4480   2.868   5.937   0.563
 1514TIP3    H1 4481   2.909   6.011   0.513
 1514TIP3    H2 4482   2.946   5.902   0.610
 1515TIP3   OH2 4483   2.520   5.804  -0.033
 1515TIP3    H1 4484   2.428   5.821  -0.010
 1515TIP3    H2 4485   2.557   5.896  -0.030
 1516TIP3   OH2 4486   3.258   5.573   0.521
 1516TIP3    H1 4487   3.247   5.572   0.619
 1516TIP3    H2 4488   3.335   5.515   0.510
 1517TIP3   OH2 4489   3.507   6.097   0.581
 1517TIP3    H1 4490   3.429   6.038   0.575
 1517TIP3    H2 4491   3.489   6.163   0.511
 1518TIP3   OH2 4492   2.590   4.717   1.090
 1518TIP3    H1 4493   2.493   4.719   1.101
 1518TIP3    H2 4494   2.617   4.657   1.161
 1519TIP3   OH2 4495   2.308   5.799   0.721
 1519TIP3    H1 4496   2.362   5.726   0.755
 1519TIP3    H2 4497   2.336   5.871   0.778
 1520TIP3   OH2 4498   2.281   5.140  -0.118
 1520TIP3    H1 4499   2.211   5.188  -0.067
 1520TIP3    H2 4500   2.329   5.212  -0.160
 1521TIP3   OH2 4501   3.426   4.783   0.775
 1521TIP3    H1 4502   3.509   4.819   0.810
 1521TIP3    H2 4503   3.415   4.701   0.828
 1522TIP3   OH2 4504   3.300   4.543  -0.068
 1522TIP3    H1 4505   3.276   4.585  -0.152
 1522TIP3    H2 4506   3.352   4.614  -0.025
 1523TIP3   OH2 4507   2.994   4.710   0.038
 1523TIP3    H1 4508   3.063   4.776   0.017
 1523TIP3    H2 4509   3.002   4.703   0.136
 1524TIP3   OH2 4510   3.266   5.029   0.846
 1524TIP3    H1 4511   3.290   5.081   0.926
 1524TIP3    H2 4512   3.321   4.949   0.856
 1525TIP3   OH2 4513   3.143   4.437   0.138
 1525TIP3    H1 4514   3.140   4.513   0.199
 1525TIP3    H2 4515   3.201   4.474   0.068
 1526TIP3   OH2 4516   2.651   4.444  -0.057
 1526TIP3    H1 4517   2.656   4.536  -0.023
 1526TIP3    H2 4518   2.746   4.421  -0.054
 1527TIP3   OH2 4519   3.907   4.931   0.829
 1527TIP3    H1 4520   3.809   4.928   0.834
 1527TIP3    H2 4521   3.920   4.890   0.742
 1528TIP3   OH2 4522   3.555   5.127   0.226
 1528TIP3    H1 4523   3.480   5.064   0.234
 1528TIP3    H2 4524   3.626   5.078   0.273
 1529TIP3   OH2 4525   2.234   4.637  -0.191
 1529TIP3    H1 4526   2.217   4.733  -0.197
 1529TIP3    H2 4527   2.149   4.602  -0.221
 1530TIP3   OH2 4528   3.534   6.072   0.186
 1530TIP3    H1 4529   3.487   6.075   0.100
 1530TIP3    H2 4530   3.627   6.063   0.159
 1531TIP3   OH2 4531   2.603   4.349   0.691
 1531TIP3    H1 4532   2.572   4.315   0.605
 1531TIP3    H2 4533   2.592   4.270   0.749
 1532TIP3   OH2 4534   2.116   5.557   0.056
 1532TIP3    H1 4535   2.076   5.604   0.130
 1532TIP3    H2 4536   2.174   5.623   0.016
 1533TIP3   OH2 4537   2.299   6.110   1.145
 1533TIP3    H1 4538   2.385   6.109   1.191
 1533TIP3    H2 4539   2.278   6.015   1.143
 1534TIP3   OH2 4540   2.779   6.073   1.188
 1534TIP3    H1 4541   2.873   6.053   1.196
 1534TIP3    H2 4542   2.753   6.013   1.115
 1535TIP3   OH2 4543   3.418   5.980   0.922
 1535TIP3    H1 4544   3.410   5.910   0.991
 1535TIP3    H2 4545   3.496   6.030   0.952
 1536TIP3   OH2 4546   2.429   5.516   1.344
 1536TIP3    H1 4547   2.445   5.419   1.350
 1536TIP3    H2 4548   2.341   5.518   1.299
 1537TIP3   OH2 4549   3.035   5.601   1.118
 1537TIP3    H1 4550   2.995   5.618   1.031
 1537TIP3    H2 4551   3.067   5.508   1.110
 1538TIP3   OH2 4552   3.528   5.610   0.725
 1538TIP3    H1 4553   3.604   5.654   0.683
 1538TIP3    H2 4554   3.458   5.675   0.709
 1539TIP3   OH2 4555   2.548   5.251   1.327
 1539TIP3    H1 4556   2.624   5.196   1.303
 1539TIP3    H2 4557   2.575   5.283   1.415
 1540TIP3   OH2 4558   2.622   5.069  -0.234
 1540TIP3    H1 4559   2.585   5.027  -0.155
 1540TIP3    H2 4560   2.682   5.000  -0.266
 1541TIP3   OH2 4561   2.883   5.134   0.988
 1541TIP3    H1 4562   2.805   5.194   0.989
 1541TIP3    H2 4563   2.934   5.168   0.911
 1542TIP3   OH2 4564   3.401   5.537   1.122
 1542TIP3    H1 4565   3.480   5.510   1.074
 1542TIP3    H2 4566   3.397   5.470   1.193
 1543TIP3   OH2 4567   3.006   4.923   1.114
 1543TIP3    H1 4568   3.007   4.843   1.057
 1543TIP3    H2 4569   2.963   4.989   1.056
 1544TIP3   OH2 4570   3.009   4.709   0.922
 1544TIP3    H1 4571   3.037   4.750   0.838
 1544TIP3    H2 4572   2.916   4.687   0.903
 1545TIP3   OH2 4573   3.035   5.244   0.796
 1545TIP3    H1 4574   3.119   5.253   0.749
 1545TIP3    H2 4575   2.979   5.310   0.750
 1546TIP3   OH2 4576   3.618   5.211   1.175
 1546TIP3    H1 4577   3.666   5.127   1.185
 1546TIP3    H2 4578   3.686   5.269   1.139
 1547TIP3   OH2 4579   3.659   5.465   0.912
 1547TIP3    H1 4580   3.601   5.518   0.853
 1547TIP3    H2 4581   3.746   5.485   0.873
 1548TIP3   OH2 4582   2.884   5.033   1.346
 1548TIP3    H1 4583   2.816   4.964   1.360
 1548TIP3    H2 4584   2.918   5.008   1.257
 1549TIP3   OH2 4585   3.141   4.472   0.990
 1549TIP3    H1 4586   3.091   4.554   0.967
 1549TIP3    H2 4587   3.072   4.404   0.978
 1550TIP3   OH2 4588   3.267   4.976   1.205
 1550TIP3    H1 4589   3.254   4.963   1.301
 1550TIP3    H2 4590   3.177   4.952   1.174
 1551TIP3   OH2 4591   3.506   4.928   1.061
 1551TIP3    H1 4592   3.431   4.928   1.123
 1551TIP3    H2 4593   3.580   4.896   1.116
 1552TIP3   OH2 4594   3.734   4.867   1.210
 1552TIP3    H1 4595   3.748   4.771   1.227
 1552TIP3    H2 4596   3.731   4.905   1.301
 1553TIP3   OH2 4597   2.723   4.814   1.399
 1553TIP3    H1 4598   2.728   4.722   1.364
 1553TIP3    H2 4599   2.760   4.801   1.488
 1554TIP3   OH2 4600   3.234   4.481   1.248
 1554TIP3    H1 4601   3.302   4.411   1.241
 1554TIP3    H2 4602   3.195   4.476   1.158
 1555TIP3   OH2 4603   3.301   4.697   1.407
 1555TIP3    H1 4604   3.280   4.626   1.342
 1555TIP3    H2 4605   3.223   4.755   1.399
 1556TIP3   OH2 4606   2.012   5.307  -0.264
 1556TIP3    H1 4607   2.079   5.306  -0.333
 1556TIP3    H2 4608   1.957   5.230  -0.286
 1557TIP3   OH2 4609   1.921   5.901   0.126
 1557TIP3    H1 4610   1.833   5.936   0.151
 1557TIP3    H2 4611   1.951   5.855   0.207
 1558TIP3   OH2 4612   2.065   5.764   0.321
 1558TIP3    H1 4613   2.045   5.696   0.388
 1558TIP3    H2 4614   2.112   5.828   0.379
 1559TIP3   OH2 4615   3.802   6.195   0.403
 1559TIP3    H1 4616   3.769   6.103   0.400
 1559TIP3    H2 4617   3.889   6.180   0.442
 1560TIP3   OH2 4618   3.854   5.868   0.977
 1560TIP3    H1 4619   3.782   5.878   1.043
 1560TIP3    H2 4620   3.897   5.956   0.981
 1561TIP3   OH2 4621   3.857   5.636   0.233
 1561TIP3    H1 4622   3.901   5.567   0.179
 1561TIP3    H2 4623   3.816   5.693   0.167
 1562TIP3   OH2 4624   3.684   5.938   0.430
 1562TIP3    H1 4625   3.617   5.983   0.485
 1562TIP3    H2 4626   3.628   5.887   0.367
 1563TIP3   OH2 4627   3.617   5.088  -0.041
 1563TIP3    H1 4628   3.624   4.991  -0.047
 1563TIP3    H2 4629   3.604   5.103   0.055
 1564TIP3   OH2 4630   2.238   5.179   0.695
 1564TIP3    H1 4631   2.237   5.146   0.602
 1564TIP3    H2 4632   2.336   5.180   0.711
 1565TIP3   OH2 4633   3.902   5.530   0.804
 1565TIP3    H1 4634   3.974   5.463   0.795
 1565TIP3    H2 4635   3.932   5.600   0.743
 1566TIP3   OH2 4636   4.086   5.334   0.819
 1566TIP3    H1 4637   4.012   5.283   0.859
 1566TIP3    H2 4638   4.160   5.271   0.834
 1567TIP3   OH2 4639   3.605   4.813  -0.160
 1567TIP3    H1 4640   3.646   4.724  -0.143
 1567TIP3    H2 4641   3.676   4.853  -0.213
 1568TIP3   OH2 4642   3.760   4.990   0.345
 1568TIP3    H1 4643   3.845   5.020   0.304
 1568TIP3    H2 4644   3.776   5.024   0.435
 1569TIP3   OH2 4645   3.840   5.139   0.572
 1569TIP3    H1 4646   3.762   5.175   0.618
 1569TIP3    H2 4647   3.874   5.218   0.524
 1570TIP3   OH2 4648   2.457   4.865   1.370
 1570TIP3    H1 4649   2.555   4.859   1.371
 1570TIP3    H2 4650   2.433   4.779   1.409
 1571TIP3   OH2 4651   4.291   4.730   1.124
 1571TIP3    H1 4652   4.351   4.665   1.082
 1571TIP3    H2 4653   4.262   4.784   1.048
 1572TIP3   OH2 4654   3.702   4.570  -0.110
 1572TIP3    H1 4655   3.762   4.548  -0.037
 1572TIP3    H2 4656   3.651   4.486  -0.118
 1573TIP3   OH2 4657   2.418   4.557   0.701
 1573TIP3    H1 4658   2.480   4.482   0.708
 1573TIP3    H2 4659   2.481   4.631   0.692
 1574TIP3   OH2 4660   2.221   4.831   0.773
 1574TIP3    H1 4661   2.269   4.823   0.688
 1574TIP3    H2 4662   2.252   4.917   0.804
 1575TIP3   OH2 4663   4.162   4.869   0.929
 1575TIP3    H1 4664   4.075   4.911   0.947
 1575TIP3    H2 4665   4.133   4.797   0.871
 1576TIP3   OH2 4666   2.205   4.340   0.275
 1576TIP3    H1 4667   2.112   4.331   0.301
 1576TIP3    H2 4668   2.199   4.395   0.194
 1577TIP3   OH2 4669   2.425   4.415   1.088
 1577TIP3    H1 4670   2.373   4.410   1.170
 1577TIP3    H2 4671   2.360   4.452   1.026
 1578TIP3   OH2 4672   2.464   5.845   1.164
 1578TIP3    H1 4673   2.372   5.816   1.147
 1578TIP3    H2 4674   2.475   5.822   1.257
 1579TIP3   OH2 4675   2.642   5.875   0.712
 1579TIP3    H1 4676   2.596   5.952   0.672
 1579TIP3    H2 4677   2.729   5.888   0.667
 1580TIP3   OH2 4678   3.087   6.120   0.849
 1580TIP3    H1 4679   3.129   6.119   0.938
 1580TIP3    H2 4680   3.154   6.170   0.798
 1581TIP3   OH2 4681   3.269   6.270   0.708
 1581TIP3    H1 4682   3.342   6.218   0.672
 1581TIP3    H2 4683   3.318   6.329   0.770
 1582TIP3   OH2 4684   4.060   4.632   0.809
 1582TIP3    H1 4685   3.970   4.625   0.773
 1582TIP3    H2 4686   4.093   4.540   0.798
 1583TIP3   OH2 4687   2.317   6.130   0.735
 1583TIP3    H1 4688   2.228   6.166   0.712
 1583TIP3    H2 4689   2.328   6.168   0.823
 1584TIP3   OH2 4690   2.555   6.110   0.594
 1584TIP3    H1 4691   2.468   6.124   0.637
 1584TIP3    H2 4692   2.538   6.144   0.504
 1585TIP3   OH2 4693   2.980   6.138   0.401
 1585TIP3    H1 4694   2.922   6.151   0.324
 1585TIP3    H2 4695   2.987   6.229   0.437
 1586TIP3   OH2 4696   3.246   6.073   0.434
 1586TIP3    H1 4697   3.151   6.096   0.426
 1586TIP3    H2 4698   3.289   6.157   0.411
 1587TIP3   OH2 4699   3.456   6.264   0.374
 1587TIP3    H1 4700   3.436   6.345   0.322
 1587TIP3    H2 4701   3.487   6.201   0.305
 1588TIP3   OH2 4702   2.232   5.923   0.478
 1588TIP3    H1 4703   2.255   5.898   0.570
 1588TIP3    H2 4704   2.307   5.879   0.431
 1589TIP3   OH2 4705   2.427   5.796   0.335
 1589TIP3    H1 4706   2.443   5.713   0.386
 1589TIP3    H2 4707   2.517   5.834   0.332
 1590TIP3   OH2 4708   2.688   5.890   0.344
 1590TIP3    H1 4709   2.721   5.800   0.330
 1590TIP3    H2 4710   2.736   5.913   0.426
 1591TIP3   OH2 4711   3.264   4.547   0.425
 1591TIP3    H1 4712   3.223   4.476   0.478
 1591TIP3    H2 4713   3.339   4.501   0.383
 1592TIP3   OH2 4714   3.783   4.433   0.347
 1592TIP3    H1 4715   3.821   4.477   0.267
 1592TIP3    H2 4716   3.688   4.447   0.334
 1593TIP3   OH2 4717   3.877   4.512   0.102
 1593TIP3    H1 4718   3.948   4.461   0.058
 1593TIP3    H2 4719   3.912   4.603   0.086
 1594TIP3   OH2 4720   2.514   4.256   0.444
 1594TIP3    H1 4721   2.421   4.224   0.446
 1594TIP3    H2 4722   2.562   4.171   0.440
 1595TIP3   OH2 4723   2.287   4.123   0.090
 1595TIP3    H1 4724   2.334   4.175   0.021
 1595TIP3    H2 4725   2.271   4.193   0.157
 1596TIP3   OH2 4726   2.960   4.287   0.325
 1596TIP3    H1 4727   3.016   4.336   0.263
 1596TIP3    H2 4728   2.983   4.328   0.410
 1597TIP3   OH2 4729   3.501   4.435   0.307
 1597TIP3    H1 4730   3.506   4.400   0.217
 1597TIP3    H2 4731   3.488   4.353   0.361
 1598TIP3   OH2 4732   3.534   4.358  -0.096
 1598TIP3    H1 4733   3.445   4.393  -0.109
 1598TIP3    H2 4734   3.518   4.268  -0.060
 1599TIP3   OH2 4735   2.424   4.273  -0.097
 1599TIP3    H1 4736   2.447   4.231  -0.181
 1599TIP3    H2 4737   2.499   4.334  -0.083
 1600TIP3   OH2 4738   2.928   4.456  -0.042
 1600TIP3    H1 4739   2.991   4.411   0.017
 1600TIP3    H2 4740   2.950   4.549  -0.019
 1601TIP3   OH2 4741   2.722   4.538   1.336
 1601TIP3    H1 4742   2.687   4.466   1.392
 1601TIP3    H2 4743   2.816   4.537   1.363
 1602TIP3   OH2 4744   2.972   4.535   1.454
 1602TIP3    H1 4745   3.057   4.510   1.413
 1602TIP3    H2 4746   2.961   4.463   1.520
 1603TIP3   OH2 4747   3.798   4.596   1.241
 1603TIP3    H1 4748   3.817   4.565   1.332
 1603TIP3    H2 4749   3.887   4.591   1.200
 1604TIP3   OH2 4750   3.736   6.148   0.736
 1604TIP3    H1 4751   3.657   6.117   0.687
 1604TIP3    H2 4752   3.720   6.244   0.739
 1605TIP3   OH2 4753   4.312   5.417   0.239
 1605TIP3    H1 4754   4.338   5.350   0.306
 1605TIP3    H2 4755   4.355   5.496   0.274
 1606TIP3   OH2 4756   4.189   5.053   0.101
 1606TIP3    H1 4757   4.286   5.044   0.099
 1606TIP3    H2 4758   4.171   5.109   0.022
 1607TIP3   OH2 4759   4.547   4.889   0.373
 1607TIP3    H1 4760   4.495   4.922   0.297
 1607TIP3    H2 4761   4.487   4.912   0.448
 1608TIP3   OH2 4762   4.452   4.982   0.135
 1608TIP3    H1 4763   4.501   5.066   0.138
 1608TIP3    H2 4764   4.485   4.943   0.052
 1609TIP3   OH2 4765   4.485   5.839   0.299
 1609TIP3    H1 4766   4.469   5.907   0.230
 1609TIP3    H2 4767   4.398   5.836   0.341
 1610TIP3   OH2 4768   4.894   4.594   0.131
 1610TIP3    H1 4769   4.860   4.508   0.163
 1610TIP3    H2 4770   4.814   4.649   0.151
 1611TIP3   OH2 4771   4.647   5.941   0.493
 1611TIP3    H1 4772   4.615   6.033   0.488
 1611TIP3    H2 4773   4.594   5.898   0.423
 1612TIP3   OH2 4774   4.432   5.541   0.491
 1612TIP3    H1 4775   4.441   5.629   0.534
 1612TIP3    H2 4776   4.341   5.517   0.520
 1613TIP3   OH2 4777   4.471   6.163   0.485
 1613TIP3    H1 4778   4.434   6.149   0.396
 1613TIP3    H2 4779   4.395   6.139   0.542
 1614TIP3   OH2 4780   4.055   5.675   0.434
 1614TIP3    H1 4781   3.989   5.651   0.365
 1614TIP3    H2 4782   4.093   5.588   0.459
 1615TIP3   OH2 4783   5.620   5.474   0.429
 1615TIP3    H1 4784   5.683   5.502   0.359
 1615TIP3    H2 4785   5.629   5.377   0.428
 1616TIP3   OH2 4786   4.249   5.865   0.433
 1616TIP3    H1 4787   4.303   5.848   0.513
 1616TIP3    H2 4788   4.182   5.793   0.439
 1617TIP3   OH2 4789   4.655   4.694   0.214
 1617TIP3    H1 4790   4.566   4.663   0.187
 1617TIP3    H2 4791   4.628   4.773   0.266
 1618TIP3   OH2 4792   5.202   4.800   0.397
 1618TIP3    H1 4793   5.268   4.781   0.466
 1618TIP3    H2 4794   5.117   4.783   0.443
 1619TIP3   OH2 4795   5.462   5.223   0.340
 1619TIP3    H1 4796   5.404   5.209   0.418
 1619TIP3    H2 4797   5.399   5.256   0.274
 1620TIP3   OH2 4798   4.605   5.219   0.215
 1620TIP3    H1 4799   4.553   5.231   0.297
 1620TIP3    H2 4800   4.545   5.254   0.147
 1621TIP3   OH2 4801   5.144   5.452   0.553
 1621TIP3    H1 4802   5.123   5.375   0.610
 1621TIP3    H2 4803   5.239   5.462   0.570
 1622TIP3   OH2 4804   4.410   5.228   0.427
 1622TIP3    H1 4805   4.461   5.283   0.488
 1622TIP3    H2 4806   4.400   5.146   0.478
 1623TIP3   OH2 4807   4.010   4.735   0.029
 1623TIP3    H1 4808   4.079   4.765   0.090
 1623TIP3    H2 4809   4.022   4.797  -0.046
 1624TIP3   OH2 4810   4.420   5.781   0.638
 1624TIP3    H1 4811   4.504   5.817   0.673
 1624TIP3    H2 4812   4.365   5.783   0.719
 1625TIP3   OH2 4813   4.862   5.093   0.205
 1625TIP3    H1 4814   4.783   5.147   0.189
 1625TIP3    H2 4815   4.930   5.160   0.223
 1626TIP3   OH2 4816   4.999   5.818   0.333
 1626TIP3    H1 4817   5.018   5.814   0.429
 1626TIP3    H2 4818   4.920   5.876   0.331
 1627TIP3   OH2 4819   4.177   5.468   0.571
 1627TIP3    H1 4820   4.198   5.453   0.666
 1627TIP3    H2 4821   4.108   5.400   0.556
 1628TIP3   OH2 4822   4.903   5.577   0.595
 1628TIP3    H1 4823   4.848   5.531   0.531
 1628TIP3    H2 4824   4.992   5.543   0.571
 1629TIP3   OH2 4825   4.383   4.976   0.579
 1629TIP3    H1 4826   4.287   4.977   0.590
 1629TIP3    H2 4827   4.412   4.916   0.650
 1630TIP3   OH2 4828   4.079   6.036   0.286
 1630TIP3    H1 4829   4.115   5.948   0.308
 1630TIP3    H2 4830   4.137   6.089   0.341
 1631TIP3   OH2 4831   5.200   5.059   0.290
 1631TIP3    H1 4832   5.293   5.070   0.268
 1631TIP3    H2 4833   5.199   4.967   0.325
 1632TIP3   OH2 4834   5.042   5.289   0.336
 1632TIP3    H1 4835   5.091   5.336   0.406
 1632TIP3    H2 4836   5.100   5.211   0.322
 1633TIP3   OH2 4837   4.399   4.610   0.202
 1633TIP3    H1 4838   4.363   4.578   0.115
 1633TIP3    H2 4839   4.390   4.529   0.256
 1634TIP3   OH2 4840   4.082   6.351   0.669
 1634TIP3    H1 4841   4.176   6.359   0.694
 1634TIP3    H2 4842   4.075   6.258   0.645
 1635TIP3   OH2 4843   4.577   6.332   0.678
 1635TIP3    H1 4844   4.671   6.306   0.680
 1635TIP3    H2 4845   4.547   6.281   0.601
 1636TIP3   OH2 4846   4.224   5.772   0.835
 1636TIP3    H1 4847   4.241   5.676   0.838
 1636TIP3    H2 4848   4.137   5.775   0.788
 1637TIP3   OH2 4849   4.863   5.853   0.616
 1637TIP3    H1 4850   4.788   5.874   0.556
 1637TIP3    H2 4851   4.872   5.756   0.606
 1638TIP3   OH2 4852   4.344   5.505   0.813
 1638TIP3    H1 4853   4.422   5.452   0.789
 1638TIP3    H2 4854   4.371   5.539   0.901
 1639TIP3   OH2 4855   4.653   5.378   0.490
 1639TIP3    H1 4856   4.582   5.447   0.493
 1639TIP3    H2 4857   4.711   5.417   0.422
 1640TIP3   OH2 4858   5.196   5.794   0.607
 1640TIP3    H1 4859   5.293   5.796   0.599
 1640TIP3    H2 4860   5.185   5.725   0.675
 1641TIP3   OH2 4861   4.802   5.177   0.606
 1641TIP3    H1 4862   4.806   5.095   0.551
 1641TIP3    H2 4863   4.753   5.238   0.548
 1642TIP3   OH2 4864   4.803   4.957   0.433
 1642TIP3    H1 4865   4.833   4.999   0.349
 1642TIP3    H2 4866   4.710   4.934   0.411
 1643TIP3   OH2 4867   4.820   5.510   0.323
 1643TIP3    H1 4868   4.911   5.476   0.319
 1643TIP3    H2 4869   4.826   5.583   0.258
 1644TIP3   OH2 4870   5.421   5.469   0.665
 1644TIP3    H1 4871   5.446   5.375   0.662
 1644TIP3    H2 4872   5.499   5.509   0.624
 1645TIP3   OH2 4873   4.679   5.290   0.834
 1645TIP3    H1 4874   4.612   5.220   0.846
 1645TIP3    H2 4875   4.714   5.267   0.745
 1646TIP3   OH2 4876   4.941   4.724   0.477
 1646TIP3    H1 4877   4.890   4.807   0.461
 1646TIP3    H2 4878   4.872   4.656   0.464
 1647TIP3   OH2 4879   5.061   5.233   0.694
 1647TIP3    H1 4880   5.045   5.220   0.789
 1647TIP3    H2 4881   4.972   5.209   0.659
 1648TIP3   OH2 4882   5.307   5.195   0.561
 1648TIP3    H1 4883   5.226   5.184   0.615
 1648TIP3    H2 4884   5.376   5.153   0.616
 1649TIP3   OH2 4885   5.534   5.122   0.701
 1649TIP3    H1 4886   5.547   5.026   0.718
 1649TIP3    H2 4887   5.530   5.160   0.791
 1650TIP3   OH2 4888   4.519   5.070   0.886
 1650TIP3    H1 4889   4.526   4.980   0.850
 1650TIP3    H2 4890   4.556   5.057   0.975
 1651TIP3   OH2 4891   5.030   4.737   0.736
 1651TIP3    H1 4892   5.097   4.666   0.729
 1651TIP3    H2 4893   4.992   4.732   0.646
 1652TIP3   OH2 4894   5.097   4.952   0.894
 1652TIP3    H1 4895   5.076   4.882   0.829
 1652TIP3    H2 4896   5.020   5.012   0.886
 1653TIP3   OH2 4897   4.042   5.428   0.178
 1653TIP3    H1 4898   4.052   5.411   0.083
 1653TIP3    H2 4899   4.137   5.435   0.203
 1654TIP3   OH2 4900   4.252   5.122   0.857
 1654TIP3    H1 4901   4.350   5.116   0.857
 1654TIP3    H2 4902   4.229   5.036   0.896
 1655TIP3   OH2 4903   6.108   4.986   0.627
 1655TIP3    H1 4904   6.154   4.914   0.579
 1655TIP3    H2 4905   6.073   5.038   0.552
 1656TIP3   OH2 4906   4.201   4.798   0.230
 1656TIP3    H1 4907   4.275   4.734   0.223
 1656TIP3    H2 4908   4.239   4.877   0.187
 1657TIP3   OH2 4909   3.999   5.100   0.283
 1657TIP3    H1 4910   4.062   5.069   0.214
 1657TIP3    H2 4911   4.042   5.181   0.312
 1658TIP3   OH2 4912   5.911   5.096   0.472
 1658TIP3    H1 4913   5.834   5.155   0.471
 1658TIP3    H2 4914   5.965   5.124   0.396
 1659TIP3   OH2 4915   4.221   4.670   0.575
 1659TIP3    H1 4916   4.168   4.668   0.656
 1659TIP3    H2 4917   4.157   4.709   0.512
 1660TIP3   OH2 4918   4.261   6.098   0.651
 1660TIP3    H1 4919   4.168   6.070   0.636
 1660TIP3    H2 4920   4.271   6.084   0.745
 1661TIP3   OH2 4921   5.814   4.865   0.312
 1661TIP3    H1 4922   5.739   4.830   0.262
 1661TIP3    H2 4923   5.878   4.791   0.310
 1662TIP3   OH2 4924   4.092   6.394   0.335
 1662TIP3    H1 4925   4.031   6.454   0.290
 1662TIP3    H2 4926   4.076   6.312   0.285
 1663TIP3   OH2 4927   4.300   4.499  -0.019
 1663TIP3    H1 4928   4.207   4.470  -0.030
 1663TIP3    H2 4929   4.349   4.420  -0.049
 1664TIP3   OH2 4930   4.518   4.793   0.821
 1664TIP3    H1 4931   4.484   4.722   0.879
 1664TIP3    H2 4932   4.612   4.793   0.848
 1665TIP3   OH2 4933   4.767   4.792   0.941
 1665TIP3    H1 4934   4.852   4.769   0.899
 1665TIP3    H2 4935   4.758   4.719   1.006
 1666TIP3   OH2 4936   5.598   4.853   0.731
 1666TIP3    H1 4937   5.616   4.823   0.823
 1666TIP3    H2 4938   5.688   4.849   0.692
 1667TIP3   OH2 4939   0.391   6.055   1.800
 1667TIP3    H1 4940   0.422   5.968   1.767
 1667TIP3    H2 4941   0.294   6.046   1.794
 1668TIP3   OH2 4942   1.852   6.361   0.588
 1668TIP3    H1 4943   1.889   6.447   0.616
 1668TIP3    H2 4944   1.853   6.371   0.490
 1669TIP3   OH2 4945   1.939   6.580   0.748
 1669TIP3    H1 4946   1.870   6.634   0.705
 1669TIP3    H2 4947   1.925   6.600   0.842
 1670TIP3   OH2 4948   1.671   6.269   0.777
 1670TIP3    H1 4949   1.580   6.293   0.756
 1670TIP3    H2 4950   1.721   6.296   0.696
 1671TIP3   OH2 4951   1.715   6.755   1.061
 1671TIP3    H1 4952   1.628   6.765   1.020
 1671TIP3    H2 4953   1.730   6.659   1.050
 1672TIP3   OH2 4954   1.242   6.091   1.081
 1672TIP3    H1 4955   1.314   6.058   1.139
 1672TIP3    H2 4956   1.162   6.068   1.132
 1673TIP3   OH2 4957   1.495   6.549   0.987
 1673TIP3    H1 4958   1.448   6.516   1.067
 1673TIP3    H2 4959   1.431   6.617   0.959
 1674TIP3   OH2 4960   1.189   6.783   1.246
 1674TIP3    H1 4961   1.159   6.692   1.265
 1674TIP3    H2 4962   1.281   6.779   1.280
 1675TIP3   OH2 4963   1.353   6.288   0.931
 1675TIP3    H1 4964   1.395   6.329   1.009
 1675TIP3    H2 4965   1.312   6.209   0.973
 1676TIP3   OH2 4966   1.756   6.491   0.968
 1676TIP3    H1 4967   1.658   6.498   0.977
 1676TIP3    H2 4968   1.761   6.426   0.896
 1677TIP3   OH2 4969   1.243   7.113   1.334
 1677TIP3    H1 4970   1.291   7.103   1.251
 1677TIP3    H2 4971   1.263   7.031   1.382
 1678TIP3   OH2 4972   1.462   6.767   1.320
 1678TIP3    H1 4973   1.515   6.688   1.337
 1678TIP3    H2 4974   1.531   6.832   1.296
 1679TIP3   OH2 4975   1.514   7.019   1.060
 1679TIP3    H1 4976   1.448   7.083   1.027
 1679TIP3    H2 4977   1.591   7.046   1.007
 1680TIP3   OH2 4978   0.985   6.018   1.151
 1680TIP3    H1 4979   0.957   6.067   1.071
 1680TIP3    H2 4980   0.947   5.931   1.132
 1681TIP3   OH2 4981   1.102   6.545   1.358
 1681TIP3    H1 4982   1.125   6.546   1.452
 1681TIP3    H2 4983   1.040   6.470   1.358
 1682TIP3   OH2 4984   1.355   6.474   1.204
 1682TIP3    H1 4985   1.278   6.479   1.263
 1682TIP3    H2 4986   1.427   6.450   1.266
 1683TIP3   OH2 4987   1.575   6.423   1.359
 1683TIP3    H1 4988   1.589   6.327   1.378
 1683TIP3    H2 4989   1.571   6.462   1.449
 1684TIP3   OH2 4990   1.084   6.040   1.408
 1684TIP3    H1 4991   1.148   5.966   1.399
 1684TIP3    H2 4992   1.035   6.031   1.324
 1685TIP3   OH2 4993   1.149   6.260   1.553
 1685TIP3    H1 4994   1.130   6.181   1.498
 1685TIP3    H2 4995   1.062   6.306   1.553
 1686TIP3   OH2 4996   1.710   7.442   1.139
 1686TIP3    H1 4997   1.633   7.437   1.201
 1686TIP3    H2 4998   1.741   7.533   1.157
 1687TIP3   OH2 4999   1.769   7.102   0.936
 1687TIP3    H1 5000   1.828   7.024   0.953
 1687TIP3    H2 5001   1.790   7.117   0.842
 1688TIP3   OH2 5002   1.930   6.892   0.979
 1688TIP3    H1 5003   1.856   6.838   1.016
 1688TIP3    H2 5004   2.004   6.827   0.990
 1689TIP3   OH2 5005   2.132   6.288   1.275
 1689TIP3    H1 5006   2.192   6.223   1.233
 1689TIP3    H2 5007   2.104   6.342   1.197
 1690TIP3   OH2 5008   2.005   6.427   1.079
 1690TIP3    H1 5009   1.919   6.469   1.097
 1690TIP3    H2 5010   1.976   6.354   1.021
 1691TIP3   OH2 5011   1.902   6.189   0.960
 1691TIP3    H1 5012   1.813   6.182   0.921
 1691TIP3    H2 5013   1.935   6.097   0.950
 1692TIP3   OH2 5014   1.690   5.995   0.493
 1692TIP3    H1 5015   1.714   6.067   0.434
 1692TIP3    H2 5016   1.597   5.977   0.466
 1693TIP3   OH2 5017   6.929   2.833   8.065
 1693TIP3    H1 5018   6.966   2.825   8.155
 1693TIP3    H2 5019   7.005   2.870   8.016
 1694TIP3   OH2 5020   0.811   6.078   1.624
 1694TIP3    H1 5021   0.896   6.039   1.596
 1694TIP3    H2 5022   0.780   6.010   1.687
 1695TIP3   OH2 5023   1.639   6.154   1.392
 1695TIP3    H1 5024   1.657   6.122   1.483
 1695TIP3    H2 5025   1.728   6.148   1.351
 1696TIP3   OH2 5026   2.170   6.979   0.432
 1696TIP3    H1 5027   2.200   6.904   0.488
 1696TIP3    H2 5028   2.253   7.024   0.412
 1697TIP3   OH2 5029   2.412   6.480   0.082
 1697TIP3    H1 5030   2.344   6.522   0.026
 1697TIP3    H2 5031   2.392   6.386   0.063
 1698TIP3   OH2 5032   3.716   6.826   0.253
 1698TIP3    H1 5033   3.678   6.912   0.226
 1698TIP3    H2 5034   3.775   6.853   0.326
 1699TIP3   OH2 5035   2.390   6.443   0.519
 1699TIP3    H1 5036   2.337   6.482   0.446
 1699TIP3    H2 5037   2.333   6.464   0.596
 1700TIP3   OH2 5038   2.535   7.231   0.296
 1700TIP3    H1 5039   2.442   7.255   0.318
 1700TIP3    H2 5040   2.564   7.309   0.247
 1701TIP3   OH2 5041   2.264   6.548   0.305
 1701TIP3    H1 5042   2.293   6.640   0.316
 1701TIP3    H2 5043   2.314   6.524   0.225
 1702TIP3   OH2 5044   3.415   6.493   0.234
 1702TIP3    H1 5045   3.316   6.497   0.224
 1702TIP3    H2 5046   3.438   6.581   0.198
 1703TIP3   OH2 5047   2.746   6.175   0.225
 1703TIP3    H1 5048   2.739   6.079   0.239
 1703TIP3    H2 5049   2.667   6.207   0.275
 1704TIP3   OH2 5050   3.263   7.073   0.377
 1704TIP3    H1 5051   3.240   7.133   0.450
 1704TIP3    H2 5052   3.173   7.055   0.340
 1705TIP3   OH2 5053   2.437   6.978   0.227
 1705TIP3    H1 5054   2.419   6.969   0.132
 1705TIP3    H2 5055   2.482   7.064   0.232
 1706TIP3   OH2 5056   2.545   7.435   0.550
 1706TIP3    H1 5057   2.510   7.524   0.565
 1706TIP3    H2 5058   2.482   7.399   0.486
 1707TIP3   OH2 5059   2.289   7.108   0.659
 1707TIP3    H1 5060   2.289   7.192   0.708
 1707TIP3    H2 5061   2.194   7.086   0.658
 1708TIP3   OH2 5062   3.498   7.008   0.531
 1708TIP3    H1 5063   3.423   7.018   0.469
 1708TIP3    H2 5064   3.512   6.911   0.531
 1709TIP3   OH2 5065   2.089   7.419   0.605
 1709TIP3    H1 5066   2.165   7.398   0.663
 1709TIP3    H2 5067   2.036   7.339   0.612
 1710TIP3   OH2 5068   2.508   6.243   0.354
 1710TIP3    H1 5069   2.420   6.211   0.328
 1710TIP3    H2 5070   2.482   6.325   0.401
 1711TIP3   OH2 5071   3.040   6.363   0.550
 1711TIP3    H1 5072   3.108   6.331   0.613
 1711TIP3    H2 5073   2.956   6.339   0.596
 1712TIP3   OH2 5074   3.275   6.788   0.465
 1712TIP3    H1 5075   3.226   6.789   0.550
 1712TIP3    H2 5076   3.250   6.873   0.425
 1713TIP3   OH2 5077   2.437   6.758   0.385
 1713TIP3    H1 5078   2.380   6.782   0.460
 1713TIP3    H2 5079   2.431   6.838   0.326
 1714TIP3   OH2 5080   2.990   7.009   0.703
 1714TIP3    H1 5081   2.966   6.935   0.763
 1714TIP3    H2 5082   3.085   7.018   0.722
 1715TIP3   OH2 5083   2.267   6.782   0.608
 1715TIP3    H1 5084   2.311   6.826   0.681
 1715TIP3    H2 5085   2.251   6.692   0.645
 1716TIP3   OH2 5086   3.008   7.002   0.310
 1716TIP3    H1 5087   2.986   6.987   0.217
 1716TIP3    H2 5088   2.959   6.931   0.357
 1717TIP3   OH2 5089   2.665   6.471  -0.025
 1717TIP3    H1 5090   2.579   6.497   0.015
 1717TIP3    H2 5091   2.723   6.471   0.052
 1718TIP3   OH2 5092   3.142   6.512   0.198
 1718TIP3    H1 5093   3.103   6.567   0.268
 1718TIP3    H2 5094   3.063   6.467   0.163
 1719TIP3   OH2 5095   2.275   7.347   0.796
 1719TIP3    H1 5096   2.354   7.371   0.849
 1719TIP3    H2 5097   2.208   7.334   0.866
 1720TIP3   OH2 5098   2.834   6.766   0.126
 1720TIP3    H1 5099   2.786   6.713   0.061
 1720TIP3    H2 5100   2.799   6.730   0.210
 1721TIP3   OH2 5101   2.313   6.250  -0.029
 1721TIP3    H1 5102   2.282   6.159  -0.012
 1721TIP3    H2 5103   2.380   6.239  -0.099
 1722TIP3   OH2 5104   2.702   6.685   0.353
 1722TIP3    H1 5105   2.609   6.719   0.360
 1722TIP3    H2 5106   2.752   6.749   0.409
 1723TIP3   OH2 5107   2.863   7.441   0.432
 1723TIP3    H1 5108   2.879   7.366   0.491
 1723TIP3    H2 5109   2.776   7.471   0.463
 1724TIP3   OH2 5110   2.006   7.049   0.738
 1724TIP3    H1 5111   2.042   7.024   0.826
 1724TIP3    H2 5112   1.980   6.963   0.702
 1725TIP3   OH2 5113   2.746   7.131   0.744
 1725TIP3    H1 5114   2.685   7.081   0.687
 1725TIP3    H2 5115   2.833   7.097   0.712
 1726TIP3   OH2 5116   2.228   6.528   0.732
 1726TIP3    H1 5117   2.130   6.530   0.740
 1726TIP3    H2 5118   2.253   6.466   0.802
 1727TIP3   OH2 5119   3.051   6.614   0.438
 1727TIP3    H1 5120   3.142   6.640   0.461
 1727TIP3    H2 5121   3.044   6.525   0.479
 1728TIP3   OH2 5122   2.890   6.833   0.492
 1728TIP3    H1 5123   2.924   6.884   0.567
 1728TIP3    H2 5124   2.949   6.754   0.490
 1729TIP3   OH2 5125   3.541   6.739   0.480
 1729TIP3    H1 5126   3.443   6.736   0.476
 1729TIP3    H2 5127   3.564   6.728   0.386
 1730TIP3   OH2 5128   2.247   6.158   0.327
 1730TIP3    H1 5129   2.214   6.122   0.243
 1730TIP3    H2 5130   2.236   6.082   0.389
 1731TIP3   OH2 5131   2.058   7.300   0.965
 1731TIP3    H1 5132   2.095   7.209   0.962
 1731TIP3    H2 5133   1.967   7.280   0.992
 1732TIP3   OH2 5134   2.686   7.396   0.778
 1732TIP3    H1 5135   2.643   7.405   0.690
 1732TIP3    H2 5136   2.721   7.305   0.771
 1733TIP3   OH2 5137   3.150   7.434   0.393
 1733TIP3    H1 5138   3.185   7.486   0.319
 1733TIP3    H2 5139   3.057   7.462   0.395
 1734TIP3   OH2 5140   2.191   7.061   0.963
 1734TIP3    H1 5141   2.266   7.003   0.941
 1734TIP3    H2 5142   2.216   7.091   1.053
 1735TIP3   OH2 5143   2.519   6.950   0.630
 1735TIP3    H1 5144   2.444   7.013   0.629
 1735TIP3    H2 5145   2.572   6.981   0.553
 1736TIP3   OH2 5146   3.047   7.346   0.760
 1736TIP3    H1 5147   3.118   7.316   0.702
 1736TIP3    H2 5148   3.042   7.274   0.825
 1737TIP3   OH2 5149   2.642   6.737   0.753
 1737TIP3    H1 5150   2.643   6.656   0.697
 1737TIP3    H2 5151   2.600   6.802   0.694
 1738TIP3   OH2 5152   2.645   6.520   0.570
 1738TIP3    H1 5153   2.670   6.563   0.485
 1738TIP3    H2 5154   2.552   6.496   0.551
 1739TIP3   OH2 5155   2.685   7.060   0.447
 1739TIP3    H1 5156   2.768   7.050   0.398
 1739TIP3    H2 5157   2.636   7.124   0.391
 1740TIP3   OH2 5158   3.257   7.027   0.816
 1740TIP3    H1 5159   3.303   6.941   0.818
 1740TIP3    H2 5160   3.325   7.084   0.777
 1741TIP3   OH2 5161   3.272   7.276   0.572
 1741TIP3    H1 5162   3.225   7.337   0.509
 1741TIP3    H2 5163   3.364   7.288   0.540
 1742TIP3   OH2 5164   2.520   6.849   0.983
 1742TIP3    H1 5165   2.454   6.778   0.997
 1742TIP3    H2 5166   2.555   6.826   0.895
 1743TIP3   OH2 5167   2.780   6.285   0.626
 1743TIP3    H1 5168   2.729   6.367   0.607
 1743TIP3    H2 5169   2.712   6.216   0.615
 1744TIP3   OH2 5170   2.903   6.791   0.842
 1744TIP3    H1 5171   2.888   6.775   0.937
 1744TIP3    H2 5172   2.814   6.767   0.808
 1745TIP3   OH2 5173   3.147   6.751   0.701
 1745TIP3    H1 5174   3.070   6.743   0.761
 1745TIP3    H2 5175   3.220   6.715   0.756
 1746TIP3   OH2 5176   3.371   6.681   0.850
 1746TIP3    H1 5177   3.386   6.585   0.866
 1746TIP3    H2 5178   3.371   6.718   0.940
 1747TIP3   OH2 5179   2.363   6.628   1.035
 1747TIP3    H1 5180   2.366   6.537   0.999
 1747TIP3    H2 5181   2.399   6.613   1.125
 1748TIP3   OH2 5182   2.872   6.297   0.885
 1748TIP3    H1 5183   2.939   6.225   0.879
 1748TIP3    H2 5184   2.833   6.291   0.795
 1749TIP3   OH2 5185   2.939   6.512   1.042
 1749TIP3    H1 5186   2.918   6.440   0.979
 1749TIP3    H2 5187   2.861   6.570   1.035
 1750TIP3   OH2 5188   3.509   7.710   0.579
 1750TIP3    H1 5189   3.439   7.685   0.644
 1750TIP3    H2 5190   3.565   7.766   0.632
 1751TIP3   OH2 5191   3.532   7.337   0.498
 1751TIP3    H1 5192   3.605   7.271   0.506
 1751TIP3    H2 5193   3.550   7.365   0.407
 1752TIP3   OH2 5194   3.725   7.148   0.533
 1752TIP3    H1 5195   3.646   7.090   0.524
 1752TIP3    H2 5196   3.794   7.091   0.496
 1753TIP3   OH2 5197   2.097   6.683   1.012
 1753TIP3    H1 5198   2.195   6.672   1.010
 1753TIP3    H2 5199   2.071   6.594   1.044
 1754TIP3   OH2 5200   3.923   6.546   0.767
 1754TIP3    H1 5201   3.985   6.477   0.731
 1754TIP3    H2 5202   3.906   6.599   0.686
 1755TIP3   OH2 5203   2.059   6.366   0.338
 1755TIP3    H1 5204   2.131   6.302   0.353
 1755TIP3    H2 5205   2.111   6.447   0.323
 1756TIP3   OH2 5206   3.797   6.688   0.567
 1756TIP3    H1 5207   3.706   6.724   0.580
 1756TIP3    H2 5208   3.776   6.611   0.513
 1757TIP3   OH2 5209   2.061   6.230   0.724
 1757TIP3    H1 5210   2.009   6.225   0.806
 1757TIP3    H2 5211   1.995   6.268   0.662
 1758TIP3   OH2 5212   3.698   6.444   0.450
 1758TIP3    H1 5213   3.604   6.430   0.426
 1758TIP3    H2 5214   3.732   6.351   0.442
 1759TIP3   OH2 5215   2.936   6.345   0.075
 1759TIP3    H1 5216   2.871   6.298   0.132
 1759TIP3    H2 5217   2.942   6.283   0.001
 1760TIP3   OH2 5218   2.147   6.047   0.087
 1760TIP3    H1 5219   2.060   6.002   0.092
 1760TIP3    H2 5220   2.205   5.968   0.081
 1761TIP3   OH2 5221   2.598   6.063   0.006
 1761TIP3    H1 5222   2.682   6.050  -0.043
 1761TIP3    H2 5223   2.628   6.122   0.077
 1762TIP3   OH2 5224   2.358   6.352   0.974
 1762TIP3    H1 5225   2.324   6.280   1.030
 1762TIP3    H2 5226   2.453   6.352   1.000
 1763TIP3   OH2 5227   2.609   6.350   1.092
 1763TIP3    H1 5228   2.693   6.324   1.051
 1763TIP3    H2 5229   2.597   6.279   1.158
 1764TIP3   OH2 5230   3.435   6.411   0.878
 1764TIP3    H1 5231   3.454   6.379   0.969
 1764TIP3    H2 5232   3.524   6.406   0.837
 1765TIP3   OH2 5233   3.854   7.551   0.501
 1765TIP3    H1 5234   3.890   7.463   0.477
 1765TIP3    H2 5235   3.806   7.575   0.420
 1766TIP3   OH2 5236   3.987   7.320   0.455
 1766TIP3    H1 5237   4.033   7.238   0.439
 1766TIP3    H2 5238   4.017   7.345   0.545
 1767TIP3   OH2 5239   4.322   7.098   0.455
 1767TIP3    H1 5240   4.257   7.034   0.491
 1767TIP3    H2 5241   4.371   7.039   0.394
 1768TIP3   OH2 5242   4.152   6.899   0.532
 1768TIP3    H1 5243   4.152   6.806   0.498
 1768TIP3    H2 5244   4.191   6.884   0.620
 1769TIP3   OH2 5245   4.731   6.764   0.526
 1769TIP3    H1 5246   4.704   6.705   0.454
 1769TIP3    H2 5247   4.656   6.827   0.532
 1770TIP3   OH2 5248   3.888   6.931   0.471
 1770TIP3    H1 5249   3.985   6.929   0.488
 1770TIP3    H2 5250   3.862   6.851   0.522
 1771TIP3   OH2 5251   3.823   6.502   0.207
 1771TIP3    H1 5252   3.789   6.478   0.296
 1771TIP3    H2 5253   3.792   6.594   0.200
 1772TIP3   OH2 5254   4.155   6.633   0.482
 1772TIP3    H1 5255   4.130   6.542   0.460
 1772TIP3    H2 5256   4.247   6.621   0.513
 1773TIP3   OH2 5257   4.406   6.606   0.592
 1773TIP3    H1 5258   4.495   6.582   0.561
 1773TIP3    H2 5259   4.389   6.532   0.655
 1774TIP3   OH2 5260   1.395   0.040   3.986
 1774TIP3    H1 5261   1.386  -0.012   4.067
 1774TIP3    H2 5262   1.418   0.127   4.020
 1775TIP3   OH2 5263   1.052   0.508   3.978
 1775TIP3    H1 5264   1.085   0.420   3.956
 1775TIP3    H2 5265   1.025   0.496   4.070
 1776TIP3   OH2 5266   1.995  -0.508   4.519
 1776TIP3    H1 5267   1.920  -0.449   4.500
 1776TIP3    H2 5268   2.055  -0.451   4.571
 1777TIP3   OH2 5269   1.461   0.298   4.134
 1777TIP3    H1 5270   1.369   0.292   4.170
 1777TIP3    H2 5271   1.457   0.386   4.092
 1778TIP3   OH2 5272   1.684   0.211   4.479
 1778TIP3    H1 5273   1.674   0.133   4.420
 1778TIP3    H2 5274   1.667   0.286   4.419
 1779TIP3   OH2 5275   1.880  -0.154   4.322
 1779TIP3    H1 5276   1.798  -0.101   4.329
 1779TIP3    H2 5277   1.910  -0.129   4.233
 1780TIP3   OH2 5278   1.212   0.311   4.234
 1780TIP3    H1 5279   1.199   0.393   4.285
 1780TIP3    H2 5280   1.201   0.241   4.302
 1781TIP3   OH2 5281   1.921   0.556   4.520
 1781TIP3    H1 5282   1.925   0.461   4.542
 1781TIP3    H2 5283   1.840   0.581   4.570
 1782TIP3   OH2 5284   1.062   0.370   4.622
 1782TIP3    H1 5285   1.041   0.450   4.675
 1782TIP3    H2 5286   0.991   0.309   4.654
 1783TIP3   OH2 5287   1.816  -0.324   4.794
 1783TIP3    H1 5288   1.733  -0.274   4.795
 1783TIP3    H2 5289   1.786  -0.416   4.792
 1784TIP3   OH2 5290   1.614   0.906   4.626
 1784TIP3    H1 5291   1.614   0.929   4.532
 1784TIP3    H2 5292   1.694   0.952   4.658
 1785TIP3   OH2 5293   1.648  -0.003   4.308
 1785TIP3    H1 5294   1.682   0.049   4.233
 1785TIP3    H2 5295   1.562  -0.036   4.273
 1786TIP3   OH2 5296   1.330   0.340   4.591
 1786TIP3    H1 5297   1.231   0.344   4.590
 1786TIP3    H2 5298   1.347   0.396   4.669
 1787TIP3   OH2 5299   1.936   0.269   4.565
 1787TIP3    H1 5300   1.838   0.261   4.561
 1787TIP3    H2 5301   1.959   0.239   4.475
 1788TIP3   OH2 5302   1.423  -0.148   4.215
 1788TIP3    H1 5303   1.335  -0.163   4.256
 1788TIP3    H2 5304   1.433  -0.225   4.159
 1789TIP3   OH2 5305   0.817   0.464   4.473
 1789TIP3    H1 5306   0.871   0.508   4.406
 1789TIP3    H2 5307   0.882   0.420   4.530
 1790TIP3   OH2 5308   1.242   0.099   4.421
 1790TIP3    H1 5309   1.190   0.118   4.501
 1790TIP3    H2 5310   1.331   0.090   4.458
 1791TIP3   OH2 5311   1.446   0.593   4.465
 1791TIP3    H1 5312   1.367   0.537   4.457
 1791TIP3    H2 5313   1.431   0.657   4.392
 1792TIP3   OH2 5314   1.470   0.564   4.058
 1792TIP3    H1 5315   1.424   0.616   3.987
 1792TIP3    H2 5316   1.563   0.586   4.036
 1793TIP3   OH2 5317   1.363   0.467   4.838
 1793TIP3    H1 5318   1.393   0.389   4.886
 1793TIP3    H2 5319   1.437   0.529   4.854
 1794TIP3   OH2 5320   1.467   0.105   4.617
 1794TIP3    H1 5321   1.552   0.138   4.583
 1794TIP3    H2 5322   1.416   0.189   4.615
 1795TIP3   OH2 5323   1.627  -0.064   4.787
 1795TIP3    H1 5324   1.566  -0.013   4.730
 1795TIP3    H2 5325   1.713  -0.035   4.749
 1796TIP3   OH2 5326   1.722   0.657   4.017
 1796TIP3    H1 5327   1.747   0.686   4.107
 1796TIP3    H2 5328   1.782   0.708   3.961
 1797TIP3   OH2 5329   1.754   0.678   4.296
 1797TIP3    H1 5330   1.706   0.592   4.293
 1797TIP3    H2 5331   1.823   0.654   4.361
 1798TIP3   OH2 5332   1.793   0.355   4.866
 1798TIP3    H1 5333   1.724   0.362   4.936
 1798TIP3    H2 5334   1.838   0.442   4.876
 1799TIP3   OH2 5335   1.796   0.130   4.125
 1799TIP3    H1 5336   1.848   0.064   4.075
 1799TIP3    H2 5337   1.788   0.203   4.061
 1800TIP3   OH2 5338   1.624   0.431   4.320
 1800TIP3    H1 5339   1.555   0.472   4.374
 1800TIP3    H2 5340   1.572   0.384   4.251
 1801TIP3   OH2 5341   1.860   0.025   4.682
 1801TIP3    H1 5342   1.931  -0.043   4.678
 1801TIP3    H2 5343   1.897   0.099   4.631
 1802TIP3   OH2 5344   2.031  -0.179   4.705
 1802TIP3    H1 5345   1.958  -0.231   4.744
 1802TIP3    H2 5346   2.106  -0.239   4.726
 1803TIP3   OH2 5347   1.708  -0.515   4.240
 1803TIP3    H1 5348   1.790  -0.488   4.194
 1803TIP3    H2 5349   1.722  -0.470   4.325
 1804TIP3   OH2 5350   1.761  -0.361   4.463
 1804TIP3    H1 5351   1.679  -0.322   4.498
 1804TIP3    H2 5352   1.805  -0.284   4.422
 1805TIP3   OH2 5353   1.292   0.564   3.652
 1805TIP3    H1 5354   1.329   0.487   3.606
 1805TIP3    H2 5355   1.352   0.576   3.727
 1806TIP3   OH2 5356   1.029   0.621   4.749
 1806TIP3    H1 5357   1.068   0.608   4.838
 1806TIP3    H2 5358   1.099   0.668   4.701
 1807TIP3   OH2 5359   1.215   0.759   4.602
 1807TIP3    H1 5360   1.287   0.706   4.564
 1807TIP3    H2 5361   1.265   0.816   4.664
 1808TIP3   OH2 5362   0.936   0.633   4.272
 1808TIP3    H1 5363   0.853   0.649   4.222
 1808TIP3    H2 5364   0.943   0.717   4.322
 1809TIP3   OH2 5365   1.196   0.570   4.332
 1809TIP3    H1 5366   1.100   0.584   4.318
 1809TIP3    H2 5367   1.231   0.653   4.298
 1810TIP3   OH2 5368   1.407   0.762   4.250
 1810TIP3    H1 5369   1.387   0.844   4.201
 1810TIP3    H2 5370   1.426   0.698   4.178
 1811TIP3   OH2 5371   1.678   0.638   4.620
 1811TIP3    H1 5372   1.597   0.606   4.576
 1811TIP3    H2 5373   1.655   0.732   4.633
 1812TIP3   OH2 5374   2.942   0.005   3.395
 1812TIP3    H1 5375   2.914   0.097   3.376
 1812TIP3    H2 5376   2.869  -0.045   3.354
 1813TIP3   OH2 5377   2.936   0.010   3.776
 1813TIP3    H1 5378   2.972  -0.012   3.865
 1813TIP3    H2 5379   2.901  -0.076   3.747
 1814TIP3   OH2 5380   2.239  -0.097   4.136
 1814TIP3    H1 5381   2.267  -0.168   4.197
 1814TIP3    H2 5382   2.312  -0.035   4.148
 1815TIP3   OH2 5383   3.180   0.320   3.451
 1815TIP3    H1 5384   3.171   0.246   3.513
 1815TIP3    H2 5385   3.215   0.390   3.510
 1816TIP3   OH2 5386   2.210   0.309   3.858
 1816TIP3    H1 5387   2.200   0.212   3.865
 1816TIP3    H2 5388   2.306   0.320   3.867
 1817TIP3   OH2 5389   1.998  -0.188   3.777
 1817TIP3    H1 5390   2.023  -0.266   3.831
 1817TIP3    H2 5391   2.072  -0.126   3.793
 1818TIP3   OH2 5392   2.828   0.772   3.473
 1818TIP3    H1 5393   2.883   0.704   3.430
 1818TIP3    H2 5394   2.827   0.742   3.565
 1819TIP3   OH2 5395   2.742   0.235   3.820
 1819TIP3    H1 5396   2.784   0.155   3.781
 1819TIP3    H2 5397   2.824   0.282   3.845
 1820TIP3   OH2 5398   3.159  -0.263   3.867
 1820TIP3    H1 5399   3.179  -0.352   3.897
 1820TIP3    H2 5400   3.120  -0.276   3.779
 1821TIP3   OH2 5401   2.448  -0.656   3.798
 1821TIP3    H1 5402   2.437  -0.565   3.764
 1821TIP3    H2 5403   2.397  -0.708   3.735
 1822TIP3   OH2 5404   3.150  -0.484   3.489
 1822TIP3    H1 5405   3.213  -0.533   3.547
 1822TIP3    H2 5406   3.201  -0.482   3.406
 1823TIP3   OH2 5407   2.097  -0.405   3.912
 1823TIP3    H1 5408   2.188  -0.396   3.950
 1823TIP3    H2 5409   2.110  -0.486   3.861
 1824TIP3   OH2 5410   2.563  -0.208   3.713
 1824TIP3    H1 5411   2.658  -0.226   3.733
 1824TIP3    H2 5412   2.530  -0.299   3.703
 1825TIP3   OH2 5413   3.793  -0.257   4.021
 1825TIP3    H1 5414   3.723  -0.200   3.982
 1825TIP3    H2 5415   3.853  -0.192   4.061
 1826TIP3   OH2 5416   2.830   0.225   3.262
 1826TIP3    H1 5417   2.800   0.211   3.172
 1826TIP3    H2 5418   2.790   0.313   3.282
 1827TIP3   OH2 5419   2.593   0.153   4.047
 1827TIP3    H1 5420   2.531   0.218   4.088
 1827TIP3    H2 5421   2.636   0.207   3.978
 1828TIP3   OH2 5422   2.352  -0.433   3.984
 1828TIP3    H1 5423   2.420  -0.388   4.037
 1828TIP3    H2 5424   2.380  -0.526   3.998
 1829TIP3   OH2 5425   2.419   0.346   4.143
 1829TIP3    H1 5426   2.395   0.436   4.112
 1829TIP3    H2 5427   2.343   0.329   4.203
 1830TIP3   OH2 5428   3.250   0.550   3.617
 1830TIP3    H1 5429   3.161   0.544   3.660
 1830TIP3    H2 5430   3.247   0.641   3.581
 1831TIP3   OH2 5431   2.971   0.616   3.296
 1831TIP3    H1 5432   3.004   0.524   3.282
 1831TIP3    H2 5433   3.054   0.664   3.282
 1832TIP3   OH2 5434   3.098   0.395   3.199
 1832TIP3    H1 5435   3.082   0.313   3.150
 1832TIP3    H2 5436   3.134   0.359   3.283
 1833TIP3   OH2 5437   3.474   0.474   3.964
 1833TIP3    H1 5438   3.480   0.392   3.910
 1833TIP3    H2 5439   3.493   0.541   3.895
 1834TIP3   OH2 5440   2.780  -0.141   3.219
 1834TIP3    H1 5441   2.700  -0.090   3.195
 1834TIP3    H2 5442   2.823  -0.157   3.133
 1835TIP3   OH2 5443   3.682   0.106   3.825
 1835TIP3    H1 5444   3.604   0.166   3.825
 1835TIP3    H2 5445   3.717   0.125   3.735
 1836TIP3   OH2 5446   3.125  -0.050   3.197
 1836TIP3    H1 5447   3.070  -0.031   3.276
 1836TIP3    H2 5448   3.209  -0.076   3.240
 1837TIP3   OH2 5449   3.355  -0.018   4.112
 1837TIP3    H1 5450   3.353   0.062   4.168
 1837TIP3    H2 5451   3.269  -0.010   4.066
 1838TIP3   OH2 5452   2.358  -0.060   3.610
 1838TIP3    H1 5453   2.335  -0.109   3.530
 1838TIP3    H2 5454   2.435  -0.111   3.645
 1839TIP3   OH2 5455   2.488   0.358   3.757
 1839TIP3    H1 5456   2.465   0.313   3.676
 1839TIP3    H2 5457   2.576   0.321   3.778
 1840TIP3   OH2 5458   2.490  -0.088   3.964
 1840TIP3    H1 5459   2.529  -0.112   3.879
 1840TIP3    H2 5460   2.535  -0.004   3.988
 1841TIP3   OH2 5461   3.009   0.549   3.742
 1841TIP3    H1 5462   3.004   0.628   3.799
 1841TIP3    H2 5463   2.998   0.475   3.805
 1842TIP3   OH2 5464   2.627   0.471   4.286
 1842TIP3    H1 5465   2.569   0.530   4.339
 1842TIP3    H2 5466   2.560   0.415   4.241
 1843TIP3   OH2 5467   2.976  -0.196   3.020
 1843TIP3    H1 5468   3.032  -0.137   3.076
 1843TIP3    H2 5469   3.003  -0.171   2.930
 1844TIP3   OH2 5470   2.372   0.038   4.379
 1844TIP3    H1 5471   2.381   0.118   4.434
 1844TIP3    H2 5472   2.282   0.010   4.405
 1845TIP3   OH2 5473   2.715   0.477   3.286
 1845TIP3    H1 5474   2.770   0.543   3.331
 1845TIP3    H2 5475   2.641   0.529   3.253
 1846TIP3   OH2 5476   2.419   0.635   4.380
 1846TIP3    H1 5477   2.380   0.631   4.291
 1846TIP3    H2 5478   2.342   0.614   4.438
 1847TIP3   OH2 5479   2.002   0.167   4.324
 1847TIP3    H1 5480   1.935   0.142   4.257
 1847TIP3    H2 5481   2.039   0.080   4.350
 1848TIP3   OH2 5482   1.855   0.359   3.953
 1848TIP3    H1 5483   1.952   0.359   3.952
 1848TIP3    H2 5484   1.837   0.437   4.009
 1849TIP3   OH2 5485   3.719   0.816   4.008
 1849TIP3    H1 5486   3.717   0.719   4.005
 1849TIP3    H2 5487   3.637   0.835   4.058
 1850TIP3   OH2 5488   2.820   0.601   4.143
 1850TIP3    H1 5489   2.821   0.691   4.181
 1850TIP3    H2 5490   2.752   0.558   4.199
 1851TIP3   OH2 5491   2.610   0.742   3.086
 1851TIP3    H1 5492   2.552   0.710   3.015
 1851TIP3    H2 5493   2.562   0.821   3.119
 1852TIP3   OH2 5494   2.035   0.593   3.484
 1852TIP3    H1 5495   2.076   0.577   3.572
 1852TIP3    H2 5496   1.981   0.511   3.474
 1853TIP3   OH2 5497   2.809   0.629   2.753
 1853TIP3    H1 5498   2.848   0.549   2.710
 1853TIP3    H2 5499   2.797   0.599   2.845
 1854TIP3   OH2 5500   2.854   0.646   3.025
 1854TIP3    H1 5501   2.764   0.680   3.049
 1854TIP3    H2 5502   2.869   0.591   3.105
 1855TIP3   OH2 5503   3.610  -0.071   4.287
 1855TIP3    H1 5504   3.529  -0.035   4.248
 1855TIP3    H2 5505   3.595  -0.166   4.277
 1856TIP3   OH2 5506   2.205   0.351   4.312
 1856TIP3    H1 5507   2.255   0.337   4.395
 1856TIP3    H2 5508   2.132   0.287   4.322
 1857TIP3   OH2 5509   3.379  -0.277   4.232
 1857TIP3    H1 5510   3.355  -0.244   4.319
 1857TIP3    H2 5511   3.363  -0.200   4.175
 1858TIP3   OH2 5512   3.047  -0.129   2.756
 1858TIP3    H1 5513   3.042  -0.161   2.664
 1858TIP3    H2 5514   3.127  -0.073   2.749
 1859TIP3   OH2 5515   2.550  -0.303   4.130
 1859TIP3    H1 5516   2.493  -0.283   4.207
 1859TIP3    H2 5517   2.535  -0.224   4.075
 1860TIP3   OH2 5518   2.418  -0.444   3.622
 1860TIP3    H1 5519   2.323  -0.433   3.610
 1860TIP3    H2 5520   2.451  -0.454   3.532
 1861TIP3   OH2 5521   2.908  -0.343   3.352
 1861TIP3    H1 5522   2.864  -0.268   3.306
 1861TIP3    H2 5523   2.968  -0.377   3.283
 1862TIP3   OH2 5524   3.094  -0.035   4.427
 1862TIP3    H1 5525   3.071  -0.115   4.479
 1862TIP3    H2 5526   3.189  -0.025   4.451
 1863TIP3   OH2 5527   3.045  -0.272   3.617
 1863TIP3    H1 5528   2.994  -0.228   3.547
 1863TIP3    H2 5529   3.073  -0.353   3.567
 1864TIP3   OH2 5530   2.352  -0.277   4.326
 1864TIP3    H1 5531   2.378  -0.217   4.397
 1864TIP3    H2 5532   2.335  -0.360   4.374
 1865TIP3   OH2 5533   3.067  -0.059   4.017
 1865TIP3    H1 5534   3.109  -0.130   3.962
 1865TIP3    H2 5535   3.047  -0.111   4.098
 1866TIP3   OH2 5536   3.408   1.165   4.113
 1866TIP3    H1 5537   3.413   1.176   4.016
 1866TIP3    H2 5538   3.493   1.205   4.142
 1867TIP3   OH2 5539   2.369   0.274   4.532
 1867TIP3    H1 5540   2.448   0.303   4.582
 1867TIP3    H2 5541   2.304   0.270   4.605
 1868TIP3   OH2 5542   2.816  -0.275   3.790
 1868TIP3    H1 5543   2.900  -0.301   3.750
 1868TIP3    H2 5544   2.824  -0.310   3.882
 1869TIP3   OH2 5545   2.827  -0.348   4.053
 1869TIP3    H1 5546   2.736  -0.350   4.090
 1869TIP3    H2 5547   2.878  -0.305   4.124
 1870TIP3   OH2 5548   2.537   0.001   3.183
 1870TIP3    H1 5549   2.442  -0.008   3.180
 1870TIP3    H2 5550   2.544   0.043   3.272
 1871TIP3   OH2 5551   3.451   0.253   3.798
 1871TIP3    H1 5552   3.470   0.301   3.716
 1871TIP3    H2 5553   3.365   0.210   3.778
 1872TIP3   OH2 5554   2.942   0.332   4.169
 1872TIP3    H1 5555   2.973   0.306   4.257
 1872TIP3    H2 5556   2.902   0.419   4.185
 1873TIP3   OH2 5557   3.068  -0.427   3.145
 1873TIP3    H1 5558   3.165  -0.415   3.147
 1873TIP3    H2 5559   3.038  -0.353   3.088
 1874TIP3   OH2 5560   2.224   0.015   3.847
 1874TIP3    H1 5561   2.276  -0.002   3.766
 1874TIP3    H2 5562   2.280  -0.026   3.915
 1875TIP3   OH2 5563   2.685   0.168   3.016
 1875TIP3    H1 5564   2.644   0.256   3.028
 1875TIP3    H2 5565   2.628   0.112   3.073
 1876TIP3   OH2 5566   2.119  -0.044   4.463
 1876TIP3    H1 5567   2.144  -0.056   4.557
 1876TIP3    H2 5568   2.049  -0.111   4.453
 1877TIP3   OH2 5569   2.845   0.073   4.482
 1877TIP3    H1 5570   2.786   0.014   4.432
 1877TIP3    H2 5571   2.933   0.044   4.452
 1878TIP3   OH2 5572   3.099   0.601   4.060
 1878TIP3    H1 5573   3.004   0.593   4.078
 1878TIP3    H2 5574   3.130   0.646   4.141
 1879TIP3   OH2 5575   3.512  -0.339   2.962
 1879TIP3    H1 5576   3.456  -0.392   2.901
 1879TIP3    H2 5577   3.496  -0.250   2.926
 1880TIP3   OH2 5578   3.733   0.505   4.048
 1880TIP3    H1 5579   3.635   0.511   4.047
 1880TIP3    H2 5580   3.748   0.495   3.950
 1881TIP3   OH2 5581   3.210   0.115   3.717
 1881TIP3    H1 5582   3.117   0.089   3.731
 1881TIP3    H2 5583   3.245   0.035   3.673
 1882TIP3   OH2 5584   2.334   0.339   3.468
 1882TIP3    H1 5585   2.328   0.422   3.418
 1882TIP3    H2 5586   2.240   0.316   3.478
 1883TIP3   OH2 5587   2.476   0.109   3.420
 1883TIP3    H1 5588   2.438   0.198   3.435
 1883TIP3    H2 5589   2.444   0.062   3.499
 1884TIP3   OH2 5590   2.607   0.682   3.943
 1884TIP3    H1 5591   2.655   0.752   3.894
 1884TIP3    H2 5592   2.680   0.644   3.995
 1885TIP3   OH2 5593   2.258   0.579   3.324
 1885TIP3    H1 5594   2.173   0.586   3.372
 1885TIP3    H2 5595   2.286   0.673   3.325
 1886TIP3   OH2 5596   2.994   0.317   3.901
 1886TIP3    H1 5597   2.982   0.316   3.999
 1886TIP3    H2 5598   3.076   0.267   3.892
 1887TIP3   OH2 5599   2.959   0.232   2.795
 1887TIP3    H1 5600   3.017   0.197   2.867
 1887TIP3    H2 5601   2.877   0.182   2.810
 1888TIP3   OH2 5602   3.233   0.860   3.965
 1888TIP3    H1 5603   3.163   0.792   3.955
 1888TIP3    H2 5604   3.223   0.912   3.883
 1889TIP3   OH2 5605   3.256   0.726   2.643
 1889TIP3    H1 5606   3.341   0.759   2.609
 1889TIP3    H2 5607   3.202   0.749   2.566
 1890TIP3   OH2 5608   3.126   0.148   3.005
 1890TIP3    H1 5609   3.120   0.080   3.075
 1890TIP3    H2 5610   3.222   0.145   2.987
 1891TIP3   OH2 5611   2.049   0.544   4.101
 1891TIP3    H1 5612   2.100   0.469   4.135
 1891TIP3    H2 5613   2.064   0.609   4.170
 1892TIP3   OH2 5614   2.302   0.202   3.032
 1892TIP3    H1 5615   2.314   0.176   3.124
 1892TIP3    H2 5616   2.287   0.298   3.042
 1893TIP3   OH2 5617   2.559   0.406   3.023
 1893TIP3    H1 5618   2.467   0.426   3.052
 1893TIP3    H2 5619   2.549   0.407   2.926
 1894TIP3   OH2 5620   2.717  -0.529   3.404
 1894TIP3    H1 5621   2.785  -0.459   3.390
 1894TIP3    H2 5622   2.762  -0.585   3.469
 1895TIP3   OH2 5623   3.017  -0.222   4.228
 1895TIP3    H1 5624   3.013  -0.160   4.304
 1895TIP3    H2 5625   3.070  -0.293   4.268
 1896TIP3   OH2 5626   2.294   0.470   3.072
 1896TIP3    H1 5627   2.258   0.539   3.013
 1896TIP3    H2 5628   2.271   0.506   3.161
 1897TIP3   OH2 5629   3.296  -0.128   3.596
 1897TIP3    H1 5630   3.218  -0.181   3.621
 1897TIP3    H2 5631   3.369  -0.174   3.645
 1898TIP3   OH2 5632   3.262   0.825   3.541
 1898TIP3    H1 5633   3.222   0.879   3.469
 1898TIP3    H2 5634   3.356   0.848   3.526
 1899TIP3   OH2 5635   1.904   0.359   3.451
 1899TIP3    H1 5636   1.825   0.308   3.479
 1899TIP3    H2 5637   1.927   0.310   3.370
 1900TIP3   OH2 5638   2.036   0.856   4.521
 1900TIP3    H1 5639   2.121   0.854   4.571
 1900TIP3    H2 5640   2.012   0.762   4.524
 1901TIP3   OH2 5641   2.521   0.826   4.556
 1901TIP3    H1 5642   2.610   0.793   4.576
 1901TIP3    H2 5643   2.492   0.760   4.490
 1902TIP3   OH2 5644   2.519   0.401   2.751
 1902TIP3    H1 5645   2.446   0.337   2.760
 1902TIP3    H2 5646   2.541   0.382   2.658
 1903TIP3   OH2 5647   3.158   0.723   4.299
 1903TIP3    H1 5648   3.146   0.654   4.369
 1903TIP3    H2 5649   3.235   0.772   4.332
 1904TIP3   OH2 5650   2.964   0.449   2.636
 1904TIP3    H1 5651   2.980   0.359   2.675
 1904TIP3    H2 5652   2.994   0.437   2.542
 1905TIP3   OH2 5653   2.168   0.254   4.719
 1905TIP3    H1 5654   2.179   0.159   4.734
 1905TIP3    H2 5655   2.079   0.260   4.680
 1906TIP3   OH2 5656   2.777   0.347   4.496
 1906TIP3    H1 5657   2.733   0.359   4.410
 1906TIP3    H2 5658   2.808   0.254   4.493
 1907TIP3   OH2 5659   2.684   0.109   2.745
 1907TIP3    H1 5660   2.677   0.130   2.841
 1907TIP3    H2 5661   2.685   0.012   2.747
 1908TIP3   OH2 5662   3.264   0.354   4.100
 1908TIP3    H1 5663   3.339   0.398   4.055
 1908TIP3    H2 5664   3.195   0.422   4.088
 1909TIP3   OH2 5665   2.294  -0.010   4.704
 1909TIP3    H1 5666   2.375  -0.062   4.694
 1909TIP3    H2 5667   2.310   0.029   4.792
 1910TIP3   OH2 5668   2.614  -0.094   4.362
 1910TIP3    H1 5669   2.533  -0.039   4.358
 1910TIP3    H2 5670   2.664  -0.066   4.282
 1911TIP3   OH2 5671   3.137   0.282   4.501
 1911TIP3    H1 5672   3.220   0.255   4.459
 1911TIP3    H2 5673   3.130   0.218   4.574
 1912TIP3   OH2 5674   3.282  -0.030   2.633
 1912TIP3    H1 5675   3.248  -0.079   2.555
 1912TIP3    H2 5676   3.315   0.049   2.584
 1913TIP3   OH2 5677   2.710  -0.312   4.488
 1913TIP3    H1 5678   2.660  -0.371   4.429
 1913TIP3    H2 5679   2.680  -0.225   4.452
 1914TIP3   OH2 5680   2.780  -0.008   4.166
 1914TIP3    H1 5681   2.864  -0.000   4.119
 1914TIP3    H2 5682   2.725   0.059   4.122
 1915TIP3   OH2 5683   3.351  -0.047   4.520
 1915TIP3    H1 5684   3.375  -0.106   4.596
 1915TIP3    H2 5685   3.419   0.021   4.526
 1916TIP3   OH2 5686   3.399   0.208   4.284
 1916TIP3    H1 5687   3.338   0.262   4.228
 1916TIP3    H2 5688   3.485   0.233   4.244
 1917TIP3   OH2 5689   2.580  -0.185   4.710
 1917TIP3    H1 5690   2.547  -0.257   4.765
 1917TIP3    H2 5691   2.646  -0.229   4.654
 1918TIP3   OH2 5692   2.989  -0.261   4.523
 1918TIP3    H1 5693   3.018  -0.293   4.611
 1918TIP3    H2 5694   2.893  -0.273   4.531
 1919TIP3   OH2 5695   2.260   0.670   2.884
 1919TIP3    H1 5696   2.356   0.669   2.870
 1919TIP3    H2 5697   2.233   0.721   2.806
 1920TIP3   OH2 5698   1.652   0.650   3.498
 1920TIP3    H1 5699   1.574   0.595   3.491
 1920TIP3    H2 5700   1.700   0.606   3.573
 1921TIP3   OH2 5701   1.774   0.533   3.711
 1921TIP3    H1 5702   1.777   0.450   3.760
 1921TIP3    H2 5703   1.832   0.588   3.767
 1922TIP3   OH2 5704   3.509   0.938   3.502
 1922TIP3    H1 5705   3.546   0.948   3.591
 1922TIP3    H2 5706   3.588   0.946   3.446
 1923TIP3   OH2 5707   3.549   0.940   3.785
 1923TIP3    H1 5708   3.500   0.855   3.781
 1923TIP3    H2 5709   3.626   0.910   3.837
 1924TIP3   OH2 5710   3.590   0.613   4.357
 1924TIP3    H1 5711   3.519   0.622   4.424
 1924TIP3    H2 5712   3.633   0.701   4.362
 1925TIP3   OH2 5713   3.407   0.123   2.974
 1925TIP3    H1 5714   3.475   0.188   2.947
 1925TIP3    H2 5715   3.450   0.085   3.054
 1926TIP3   OH2 5716   3.534  -0.009   3.174
 1926TIP3    H1 5717   3.470  -0.046   3.240
 1926TIP3    H2 5718   3.601   0.034   3.231
 1927TIP3   OH2 5719   3.416   0.702   3.799
 1927TIP3    H1 5720   3.347   0.710   3.866
 1927TIP3    H2 5721   3.377   0.637   3.737
 1928TIP3   OH2 5722   3.461  -0.104   2.824
 1928TIP3    H1 5723   3.398  -0.081   2.752
 1928TIP3    H2 5724   3.443  -0.029   2.884
 1929TIP3   OH2 5725   3.339  -0.446   2.769
 1929TIP3    H1 5726   3.324  -0.358   2.733
 1929TIP3    H2 5727   3.246  -0.475   2.784
 1930TIP3   OH2 5728   3.350  -0.140   3.327
 1930TIP3    H1 5729   3.349  -0.235   3.307
 1930TIP3    H2 5730   3.337  -0.137   3.424
 1931TIP3   OH2 5731   1.975  -0.078   4.069
 1931TIP3    H1 5732   1.973  -0.103   3.976
 1931TIP3    H2 5733   2.072  -0.078   4.088
 1932TIP3   OH2 5734   3.640   0.276   4.179
 1932TIP3    H1 5735   3.712   0.209   4.173
 1932TIP3    H2 5736   3.673   0.345   4.118
 1933TIP3   OH2 5737   3.822   0.081   4.204
 1933TIP3    H1 5738   3.750   0.025   4.239
 1933TIP3    H2 5739   3.897   0.019   4.212
 1934TIP3   OH2 5740   3.343  -0.396   3.189
 1934TIP3    H1 5741   3.371  -0.475   3.241
 1934TIP3    H2 5742   3.412  -0.391   3.120
 1935TIP3   OH2 5743   3.507  -0.255   3.720
 1935TIP3    H1 5744   3.593  -0.231   3.681
 1935TIP3    H2 5745   3.519  -0.219   3.810
 1936TIP3   OH2 5746   3.569  -0.112   3.947
 1936TIP3    H1 5747   3.495  -0.074   3.998
 1936TIP3    H2 5748   3.608  -0.031   3.906
 1937TIP3   OH2 5749   2.192  -0.396   4.736
 1937TIP3    H1 5750   2.286  -0.393   4.754
 1937TIP3    H2 5751   2.164  -0.475   4.785
 1938TIP3   OH2 5752   1.952  -0.422   4.150
 1938TIP3    H1 5753   2.002  -0.413   4.066
 1938TIP3    H2 5754   1.982  -0.346   4.200
 1939TIP3   OH2 5755   2.202   0.588   4.550
 1939TIP3    H1 5756   2.110   0.560   4.535
 1939TIP3    H2 5757   2.211   0.566   4.645
 1940TIP3   OH2 5758   2.379   0.617   4.090
 1940TIP3    H1 5759   2.331   0.693   4.053
 1940TIP3    H2 5760   2.466   0.632   4.048
 1941TIP3   OH2 5761   2.824   0.866   4.229
 1941TIP3    H1 5762   2.866   0.862   4.318
 1941TIP3    H2 5763   2.893   0.916   4.179
 1942TIP3   OH2 5764   3.005   1.018   4.085
 1942TIP3    H1 5765   3.076   0.963   4.048
 1942TIP3    H2 5766   3.056   1.073   4.148
 1943TIP3   OH2 5767   2.057   0.884   4.110
 1943TIP3    H1 5768   1.966   0.915   4.093
 1943TIP3    H2 5769   2.065   0.904   4.204
 1944TIP3   OH2 5770   2.293   0.859   3.974
 1944TIP3    H1 5771   2.207   0.870   4.020
 1944TIP3    H2 5772   2.270   0.883   3.883
 1945TIP3   OH2 5773   2.720   0.885   3.766
 1945TIP3    H1 5774   2.645   0.904   3.708
 1945TIP3    H2 5775   2.731   0.970   3.814
 1946TIP3   OH2 5776   2.988   0.822   3.818
 1946TIP3    H1 5777   2.894   0.841   3.799
 1946TIP3    H2 5778   3.032   0.900   3.782
 1947TIP3   OH2 5779   3.196   1.017   3.735
 1947TIP3    H1 5780   3.181   1.099   3.683
 1947TIP3    H2 5781   3.224   0.954   3.666
 1948TIP3   OH2 5782   1.970   0.671   3.861
 1948TIP3    H1 5783   1.995   0.643   3.952
 1948TIP3    H2 5784   2.040   0.625   3.810
 1949TIP3   OH2 5785   2.164   0.542   3.720
 1949TIP3    H1 5786   2.176   0.456   3.767
 1949TIP3    H2 5787   2.256   0.575   3.716
 1950TIP3   OH2 5788   2.433   0.637   3.721
 1950TIP3    H1 5789   2.461   0.544   3.710
 1950TIP3    H2 5790   2.478   0.657   3.805
 1951TIP3   OH2 5791   1.715   0.446   3.221
 1951TIP3    H1 5792   1.634   0.420   3.267
 1951TIP3    H2 5793   1.741   0.525   3.271
 1952TIP3   OH2 5794   2.527   0.662   2.827
 1952TIP3    H1 5795   2.611   0.687   2.784
 1952TIP3    H2 5796   2.518   0.569   2.795
 1953TIP3   OH2 5797   3.471   0.894   4.114
 1953TIP3    H1 5798   3.391   0.862   4.067
 1953TIP3    H2 5799   3.450   0.989   4.122
 1954TIP3   OH2 5800   4.738   0.262   2.882
 1954TIP3    H1 5801   4.712   0.354   2.862
 1954TIP3    H2 5802   4.662   0.215   2.843
 1955TIP3   OH2 5803   4.748   0.259   3.249
 1955TIP3    H1 5804   4.759   0.247   3.345
 1955TIP3    H2 5805   4.683   0.192   3.226
 1956TIP3   OH2 5806   4.052   0.169   3.609
 1956TIP3    H1 5807   4.069   0.100   3.675
 1956TIP3    H2 5808   4.097   0.245   3.650
 1957TIP3   OH2 5809   4.982   0.571   2.941
 1957TIP3    H1 5810   4.964   0.504   3.008
 1957TIP3    H2 5811   5.011   0.647   2.994
 1958TIP3   OH2 5812   4.011   0.572   3.337
 1958TIP3    H1 5813   3.999   0.475   3.350
 1958TIP3    H2 5814   4.106   0.580   3.352
 1959TIP3   OH2 5815   3.712  -0.221   3.144
 1959TIP3    H1 5816   3.664  -0.138   3.161
 1959TIP3    H2 5817   3.644  -0.271   3.096
 1960TIP3   OH2 5818   3.766   0.069   3.290
 1960TIP3    H1 5819   3.804  -0.008   3.337
 1960TIP3    H2 5820   3.842   0.102   3.240
 1961TIP3   OH2 5821   4.630   1.031   2.958
 1961TIP3    H1 5822   4.677   0.957   2.914
 1961TIP3    H2 5823   4.619   0.997   3.048
 1962TIP3   OH2 5824   4.535   0.491   3.309
 1962TIP3    H1 5825   4.573   0.422   3.252
 1962TIP3    H2 5826   4.618   0.535   3.337
 1963TIP3   OH2 5827   4.957  -0.051   3.399
 1963TIP3    H1 5828   5.022  -0.098   3.344
 1963TIP3    H2 5829   4.903  -0.012   3.328
 1964TIP3   OH2 5830   4.295  -0.379   3.314
 1964TIP3    H1 5831   4.282  -0.290   3.275
 1964TIP3    H2 5832   4.210  -0.419   3.293
 1965TIP3   OH2 5833   4.941  -0.229   2.980
 1965TIP3    H1 5834   5.005  -0.277   3.036
 1965TIP3    H2 5835   4.991  -0.226   2.896
 1966TIP3   OH2 5836   3.889  -0.145   3.400
 1966TIP3    H1 5837   3.979  -0.138   3.440
 1966TIP3    H2 5838   3.909  -0.209   3.329
 1967TIP3   OH2 5839   4.361   0.052   3.190
 1967TIP3    H1 5840   4.451   0.024   3.218
 1967TIP3    H2 5841   4.318  -0.035   3.175
 1968TIP3   OH2 5842   5.602  -0.001   3.514
 1968TIP3    H1 5843   5.532   0.052   3.472
 1968TIP3    H2 5844   5.655   0.067   3.561
 1969TIP3   OH2 5845   4.634   0.487   2.747
 1969TIP3    H1 5846   4.587   0.466   2.665
 1969TIP3    H2 5847   4.589   0.570   2.773
 1970TIP3   OH2 5848   4.393   0.407   3.543
 1970TIP3    H1 5849   4.328   0.471   3.581
 1970TIP3    H2 5850   4.431   0.461   3.471
 1971TIP3   OH2 5851   4.143  -0.177   3.476
 1971TIP3    H1 5852   4.207  -0.123   3.526
 1971TIP3    H2 5853   4.171  -0.266   3.502
 1972TIP3   OH2 5854   4.218   0.603   3.627
 1972TIP3    H1 5855   4.192   0.691   3.594
 1972TIP3    H2 5856   4.142   0.588   3.689
 1973TIP3   OH2 5857   3.618   0.288   2.886
 1973TIP3    H1 5858   3.582   0.304   2.796
 1973TIP3    H2 5859   3.650   0.377   2.911
 1974TIP3   OH2 5860   5.051   0.808   3.105
 1974TIP3    H1 5861   4.962   0.801   3.148
 1974TIP3    H2 5862   5.043   0.897   3.064
 1975TIP3   OH2 5863   4.755   0.855   2.785
 1975TIP3    H1 5864   4.805   0.773   2.764
 1975TIP3    H2 5865   4.815   0.921   2.743
 1976TIP3   OH2 5866   4.900   0.642   2.687
 1976TIP3    H1 5867   4.853   0.564   2.655
 1976TIP3    H2 5868   4.936   0.609   2.772
 1977TIP3   OH2 5869   5.276   0.723   3.454
 1977TIP3    H1 5870   5.266   0.647   3.393
 1977TIP3    H2 5871   5.259   0.799   3.394
 1978TIP3   OH2 5872   4.571   0.121   2.709
 1978TIP3    H1 5873   4.489   0.171   2.690
 1978TIP3    H2 5874   4.611   0.115   2.621
 1979TIP3   OH2 5875   4.527  -0.102   2.431
 1979TIP3    H1 5876   4.600  -0.050   2.469
 1979TIP3    H2 5877   4.577  -0.169   2.381
 1980TIP3   OH2 5878   5.473   0.356   3.297
 1980TIP3    H1 5879   5.391   0.410   3.302
 1980TIP3    H2 5880   5.506   0.383   3.208
 1981TIP3   OH2 5881   4.914   0.200   2.680
 1981TIP3    H1 5882   4.861   0.224   2.759
 1981TIP3    H2 5883   5.000   0.180   2.722
 1982TIP3   OH2 5884   5.146   0.241   3.595
 1982TIP3    H1 5885   5.155   0.311   3.664
 1982TIP3    H2 5886   5.089   0.288   3.532
 1983TIP3   OH2 5887   4.148   0.196   3.097
 1983TIP3    H1 5888   4.107   0.138   3.029
 1983TIP3    H2 5889   4.227   0.143   3.123
 1984TIP3   OH2 5890   4.288   0.618   3.241
 1984TIP3    H1 5891   4.259   0.566   3.165
 1984TIP3    H2 5892   4.374   0.578   3.263
 1985TIP3   OH2 5893   4.324   0.154   3.456
 1985TIP3    H1 5894   4.326   0.152   3.358
 1985TIP3    H2 5895   4.338   0.248   3.477
 1986TIP3   OH2 5896   4.813   0.804   3.231
 1986TIP3    H1 5897   4.797   0.887   3.280
 1986TIP3    H2 5898   4.792   0.735   3.297
 1987TIP3   OH2 5899   4.423   0.724   3.774
 1987TIP3    H1 5900   4.365   0.785   3.824
 1987TIP3    H2 5901   4.356   0.672   3.726
 1988TIP3   OH2 5902   4.758   0.053   2.507
 1988TIP3    H1 5903   4.814   0.116   2.558
 1988TIP3    H2 5904   4.784   0.077   2.415
 1989TIP3   OH2 5905   4.170   0.289   3.863
 1989TIP3    H1 5906   4.177   0.371   3.916
 1989TIP3    H2 5907   4.081   0.258   3.892
 1990TIP3   OH2 5908   4.503   0.733   2.780
 1990TIP3    H1 5909   4.579   0.790   2.801
 1990TIP3    H2 5910   4.439   0.796   2.746
 1991TIP3   OH2 5911   4.218   0.892   3.865
 1991TIP3    H1 5912   4.182   0.887   3.774
 1991TIP3    H2 5913   4.139   0.870   3.919
 1992TIP3   OH2 5914   4.017   0.036   2.899
 1992TIP3    H1 5915   3.951   0.086   2.847
 1992TIP3    H2 5916   3.969  -0.045   2.918
 1993TIP3   OH2 5917   5.077   0.666   2.106
 1993TIP3    H1 5918   5.096   0.758   2.082
 1993TIP3    H2 5919   5.167   0.627   2.098
 1994TIP3   OH2 5920   3.654   0.635   3.417
 1994TIP3    H1 5921   3.722   0.570   3.438
 1994TIP3    H2 5922   3.629   0.661   3.506
 1995TIP3   OH2 5923   5.516   1.068   3.500
 1995TIP3    H1 5924   5.514   0.972   3.517
 1995TIP3    H2 5925   5.433   1.096   3.545
 1996TIP3   OH2 5926   4.620   0.853   3.633
 1996TIP3    H1 5927   4.619   0.945   3.667
 1996TIP3    H2 5928   4.549   0.812   3.688
 1997TIP3   OH2 5929   4.385   0.985   2.583
 1997TIP3    H1 5930   4.334   0.967   2.502
 1997TIP3    H2 5931   4.350   1.072   2.612
 1998TIP3   OH2 5932   3.820   0.831   2.971
 1998TIP3    H1 5933   3.868   0.825   3.056
 1998TIP3    H2 5934   3.772   0.746   2.973
 1999TIP3   OH2 5935   4.585   0.886   2.225
 1999TIP3    H1 5936   4.643   0.814   2.191
 1999TIP3    H2 5937   4.614   0.893   2.318
 2000TIP3   OH2 5938   4.635   0.929   2.495
 2000TIP3    H1 5939   4.545   0.943   2.533
 2000TIP3    H2 5940   4.680   0.888   2.570
 2001TIP3   OH2 5941   5.416   0.189   3.774
 2001TIP3    H1 5942   5.329   0.226   3.754
 2001TIP3    H2 5943   5.401   0.094   3.774
 2002TIP3   OH2 5944   4.015   0.615   3.803
 2002TIP3    H1 5945   4.049   0.580   3.887
 2002TIP3    H2 5946   3.928   0.570   3.792
 2003TIP3   OH2 5947   5.096  -0.013   3.691
 2003TIP3    H1 5948   5.122  -0.009   3.785
 2003TIP3    H2 5949   5.127   0.076   3.662
 2004TIP3   OH2 5950   4.837   0.101   2.254
 2004TIP3    H1 5951   4.797   0.081   2.167
 2004TIP3    H2 5952   4.917   0.149   2.227
 2005TIP3   OH2 5953   4.350  -0.060   3.615
 2005TIP3    H1 5954   4.294  -0.038   3.692
 2005TIP3    H2 5955   4.342   0.022   3.561
 2006TIP3   OH2 5956   4.226  -0.181   3.131
 2006TIP3    H1 5957   4.130  -0.196   3.146
 2006TIP3    H2 5958   4.233  -0.206   3.036
 2007TIP3   OH2 5959   4.699  -0.081   2.843
 2007TIP3    H1 5960   4.653  -0.006   2.799
 2007TIP3    H2 5961   4.766  -0.104   2.776
 2008TIP3   OH2 5962   4.897   0.213   3.894
 2008TIP3    H1 5963   4.865   0.130   3.936
 2008TIP3    H2 5964   4.985   0.223   3.937
 2009TIP3   OH2 5965   4.849  -0.016   3.120
 2009TIP3    H1 5966   4.800   0.038   3.054
 2009TIP3    H2 5967   4.871  -0.094   3.063
 2010TIP3   OH2 5968   4.164  -0.026   3.816
 2010TIP3    H1 5969   4.151   0.047   3.879
 2010TIP3    H2 5970   4.124  -0.100   3.863
 2011TIP3   OH2 5971   3.782  -0.420   2.943
 2011TIP3    H1 5972   3.794  -0.408   2.847
 2011TIP3    H2 5973   3.689  -0.392   2.951
 2012TIP3   OH2 5974   4.847   0.200   3.505
 2012TIP3    H1 5975   4.902   0.125   3.479
 2012TIP3    H2 5976   4.866   0.210   3.599
 2013TIP3   OH2 5977   3.969  -0.298   3.171
 2013TIP3    H1 5978   3.877  -0.264   3.157
 2013TIP3    H2 5979   3.964  -0.376   3.115
 2014TIP3   OH2 5980   4.259  -0.277   2.876
 2014TIP3    H1 5981   4.347  -0.281   2.835
 2014TIP3    H2 5982   4.199  -0.280   2.798
 2015TIP3   OH2 5983   4.092  -0.286   2.653
 2015TIP3    H1 5984   4.017  -0.305   2.593
 2015TIP3    H2 5985   4.150  -0.240   2.589
 2016TIP3   OH2 5986   5.207   1.417   3.600
 2016TIP3    H1 5987   5.206   1.444   3.506
 2016TIP3    H2 5988   5.286   1.466   3.633
 2017TIP3   OH2 5989   4.168   0.522   4.024
 2017TIP3    H1 5990   4.246   0.553   4.073
 2017TIP3    H2 5991   4.101   0.522   4.096
 2018TIP3   OH2 5992   4.614  -0.026   3.274
 2018TIP3    H1 5993   4.699  -0.039   3.229
 2018TIP3    H2 5994   4.629  -0.056   3.366
 2019TIP3   OH2 5995   4.620  -0.105   3.564
 2019TIP3    H1 5996   4.522  -0.115   3.563
 2019TIP3    H2 5997   4.626  -0.046   3.640
 2020TIP3   OH2 5998   4.341   0.269   2.660
 2020TIP3    H1 5999   4.268   0.204   2.649
 2020TIP3    H2 6000   4.321   0.303   2.751
 2021TIP3   OH2 6001   5.242   0.504   3.288
 2021TIP3    H1 6002   5.267   0.556   3.208
 2021TIP3    H2 6003   5.156   0.465   3.262
 2022TIP3   OH2 6004   4.770  -0.346   2.478
 2022TIP3    H1 6005   4.713  -0.399   2.537
 2022TIP3    H2 6006   4.809  -0.283   2.542
 2023TIP3   OH2 6007   4.742   0.587   3.658
 2023TIP3    H1 6008   4.766   0.568   3.750
 2023TIP3    H2 6009   4.699   0.674   3.665
 2024TIP3   OH2 6010   4.876  -0.157   2.644
 2024TIP3    H1 6011   4.974  -0.146   2.649
 2024TIP3    H2 6012   4.850  -0.081   2.587
 2025TIP3   OH2 6013   4.036   0.293   3.340
 2025TIP3    H1 6014   4.075   0.253   3.260
 2025TIP3    H2 6015   4.058   0.230   3.411
 2026TIP3   OH2 6016   4.485   0.419   2.481
 2026TIP3    H1 6017   4.436   0.505   2.486
 2026TIP3    H2 6018   4.430   0.364   2.542
 2027TIP3   OH2 6019   3.938   0.177   3.947
 2027TIP3    H1 6020   3.929   0.181   4.044
 2027TIP3    H2 6021   3.846   0.164   3.917
 2028TIP3   OH2 6022   4.643   0.326   3.969
 2028TIP3    H1 6023   4.578   0.269   3.924
 2028TIP3    H2 6024   4.728   0.295   3.932
 2029TIP3   OH2 6025   4.897   0.841   3.552
 2029TIP3    H1 6026   4.801   0.845   3.569
 2029TIP3    H2 6027   4.930   0.894   3.629
 2030TIP3   OH2 6028   5.306  -0.080   2.450
 2030TIP3    H1 6029   5.245  -0.129   2.389
 2030TIP3    H2 6030   5.293   0.010   2.413
 2031TIP3   OH2 6031   5.527   0.774   3.544
 2031TIP3    H1 6032   5.429   0.773   3.534
 2031TIP3    H2 6033   5.553   0.747   3.453
 2032TIP3   OH2 6034   5.012   0.743   2.372
 2032TIP3    H1 6035   4.983   0.678   2.438
 2032TIP3    H2 6036   5.024   0.690   2.291
 2033TIP3   OH2 6037   5.008   0.365   3.215
 2033TIP3    H1 6038   4.912   0.343   3.221
 2033TIP3    H2 6039   5.040   0.291   3.160
 2034TIP3   OH2 6040   4.133   0.592   2.952
 2034TIP3    H1 6041   4.127   0.676   2.903
 2034TIP3    H2 6042   4.042   0.580   2.981
 2035TIP3   OH2 6043   3.692  -0.095   2.660
 2035TIP3    H1 6044   3.739  -0.013   2.683
 2035TIP3    H2 6045   3.615  -0.091   2.720
 2036TIP3   OH2 6046   4.273   0.360   2.904
 2036TIP3    H1 6047   4.235   0.449   2.920
 2036TIP3    H2 6048   4.234   0.310   2.979
 2037TIP3   OH2 6049   4.403   0.940   3.428
 2037TIP3    H1 6050   4.447   1.013   3.380
 2037TIP3    H2 6051   4.477   0.905   3.480
 2038TIP3   OH2 6052   4.051   0.836   2.811
 2038TIP3    H1 6053   3.967   0.844   2.860
 2038TIP3    H2 6054   4.084   0.928   2.815
 2039TIP3   OH2 6055   4.788   0.567   3.390
 2039TIP3    H1 6056   4.777   0.573   3.488
 2039TIP3    H2 6057   4.877   0.531   3.383
 2040TIP3   OH2 6058   4.765   0.469   2.270
 2040TIP3    H1 6059   4.818   0.443   2.349
 2040TIP3    H2 6060   4.677   0.440   2.298
 2041TIP3   OH2 6061   5.039   1.103   3.436
 2041TIP3    H1 6062   4.958   1.049   3.431
 2041TIP3    H2 6063   5.023   1.170   3.366
 2042TIP3   OH2 6064   5.110   0.976   2.090
 2042TIP3    H1 6065   5.113   1.018   2.002
 2042TIP3    H2 6066   5.015   0.974   2.104
 2043TIP3   OH2 6067   4.926   0.399   2.484
 2043TIP3    H1 6068   4.914   0.334   2.556
 2043TIP3    H2 6069   5.023   0.397   2.474
 2044TIP3   OH2 6070   3.840   0.813   3.592
 2044TIP3    H1 6071   3.844   0.718   3.614
 2044TIP3    H2 6072   3.888   0.850   3.667
 2045TIP3   OH2 6073   4.131   0.446   2.270
 2045TIP3    H1 6074   4.145   0.353   2.244
 2045TIP3    H2 6075   4.113   0.437   2.365
 2046TIP3   OH2 6076   4.078   0.453   2.541
 2046TIP3    H1 6077   4.146   0.425   2.604
 2046TIP3    H2 6078   4.081   0.551   2.550
 2047TIP3   OH2 6079   3.813   0.147   2.747
 2047TIP3    H1 6080   3.747   0.188   2.807
 2047TIP3    H2 6081   3.821   0.217   2.680
 2048TIP3   OH2 6082   4.342   0.649   2.490
 2048TIP3    H1 6083   4.256   0.673   2.528
 2048TIP3    H2 6084   4.357   0.725   2.431
 2049TIP3   OH2 6085   4.547  -0.300   2.876
 2049TIP3    H1 6086   4.599  -0.219   2.856
 2049TIP3    H2 6087   4.539  -0.290   2.971
 2050TIP3   OH2 6088   4.087   0.725   2.560
 2050TIP3    H1 6089   4.056   0.795   2.498
 2050TIP3    H2 6090   4.070   0.767   2.647
 2051TIP3   OH2 6091   5.091   0.128   3.083
 2051TIP3    H1 6092   5.014   0.073   3.102
 2051TIP3    H2 6093   5.164   0.081   3.129
 2052TIP3   OH2 6094   3.807   0.357   2.542
 2052TIP3    H1 6095   3.877   0.424   2.555
 2052TIP3    H2 6096   3.853   0.298   2.478
 2053TIP3   OH2 6097   3.751  -0.363   2.678
 2053TIP3    H1 6098   3.742  -0.267   2.663
 2053TIP3    H2 6099   3.663  -0.394   2.654
 2054TIP3   OH2 6100   5.061   1.080   3.030
 2054TIP3    H1 6101   5.017   1.125   2.955
 2054TIP3    H2 6102   5.155   1.101   3.010
 2055TIP3   OH2 6103   3.684   0.567   2.936
 2055TIP3    H1 6104   3.623   0.596   3.006
 2055TIP3    H2 6105   3.647   0.611   2.856
 2056TIP3   OH2 6106   3.831   1.111   4.012
 2056TIP3    H1 6107   3.918   1.109   4.057
 2056TIP3    H2 6108   3.810   1.016   4.009
 2057TIP3   OH2 6109   4.310   1.078   4.051
 2057TIP3    H1 6110   4.403   1.056   4.065
 2057TIP3    H2 6111   4.287   1.015   3.980
 2058TIP3   OH2 6112   4.294   0.649   2.182
 2058TIP3    H1 6113   4.237   0.579   2.221
 2058TIP3    H2 6114   4.369   0.595   2.152
 2059TIP3   OH2 6115   4.961   0.976   3.781
 2059TIP3    H1 6116   4.944   0.911   3.853
 2059TIP3    H2 6117   5.031   1.031   3.819
 2060TIP3   OH2 6118   4.733   0.692   2.098
 2060TIP3    H1 6119   4.771   0.621   2.153
 2060TIP3    H2 6120   4.784   0.684   2.014
 2061TIP3   OH2 6121   3.959   0.516   4.208
 2061TIP3    H1 6122   3.978   0.421   4.216
 2061TIP3    H2 6123   3.874   0.516   4.159
 2062TIP3   OH2 6124   3.939   0.165   2.404
 2062TIP3    H1 6125   3.994   0.134   2.478
 2062TIP3    H2 6126   4.006   0.169   2.332
 2063TIP3   OH2 6127   4.571   0.603   3.984
 2063TIP3    H1 6128   4.526   0.619   3.899
 2063TIP3    H2 6129   4.601   0.510   3.977
 2064TIP3   OH2 6130   4.451   0.368   2.212
 2064TIP3    H1 6131   4.452   0.380   2.309
 2064TIP3    H2 6132   4.454   0.270   2.206
 2065TIP3   OH2 6133   5.059   0.606   3.583
 2065TIP3    H1 6134   5.134   0.655   3.545
 2065TIP3    H2 6135   4.989   0.674   3.580
 2066TIP3   OH2 6136   4.086   0.254   4.197
 2066TIP3    H1 6137   4.164   0.201   4.178
 2066TIP3    H2 6138   4.108   0.287   4.287
 2067TIP3   OH2 6139   4.147   0.073   2.627
 2067TIP3    H1 6140   4.119   0.034   2.712
 2067TIP3    H2 6141   4.183  -0.004   2.579
 2068TIP3   OH2 6142   4.419   0.171   3.850
 2068TIP3    H1 6143   4.331   0.215   3.850
 2068TIP3    H2 6144   4.453   0.191   3.761
 2069TIP3   OH2 6145   4.246  -0.137   2.474
 2069TIP3    H1 6146   4.219  -0.133   2.380
 2069TIP3    H2 6147   4.344  -0.133   2.464
 2070TIP3   OH2 6148   4.929   0.537   3.987
 2070TIP3    H1 6149   5.019   0.519   3.956
 2070TIP3    H2 6150   4.921   0.472   4.059
 2071TIP3   OH2 6151   5.067   0.193   2.130
 2071TIP3    H1 6152   5.051   0.148   2.045
 2071TIP3    H2 6153   5.036   0.284   2.107
 2072TIP3   OH2 6154   4.506  -0.053   3.975
 2072TIP3    H1 6155   4.443  -0.109   3.927
 2072TIP3    H2 6156   4.478   0.036   3.940
 2073TIP3   OH2 6157   4.587   0.238   3.635
 2073TIP3    H1 6158   4.665   0.267   3.586
 2073TIP3    H2 6159   4.520   0.303   3.606
 2074TIP3   OH2 6160   5.162   0.198   3.997
 2074TIP3    H1 6161   5.177   0.148   4.080
 2074TIP3    H2 6162   5.209   0.281   4.015
 2075TIP3   OH2 6163   5.197   0.455   3.761
 2075TIP3    H1 6164   5.134   0.512   3.712
 2075TIP3    H2 6165   5.282   0.488   3.724
 2076TIP3   OH2 6166   4.379   0.072   4.199
 2076TIP3    H1 6167   4.339  -0.000   4.250
 2076TIP3    H2 6168   4.443   0.026   4.142
 2077TIP3   OH2 6169   4.788  -0.014   4.000
 2077TIP3    H1 6170   4.818  -0.037   4.090
 2077TIP3    H2 6171   4.692  -0.011   4.013
 2078TIP3   OH2 6172   4.055   0.927   2.371
 2078TIP3    H1 6173   4.150   0.921   2.352
 2078TIP3    H2 6174   4.026   0.977   2.293
 2079TIP3   OH2 6175   3.546   0.304   2.627
 2079TIP3    H1 6176   3.629   0.316   2.578
 2079TIP3    H2 6177   3.489   0.259   2.560
 2080TIP3   OH2 6178   3.451   0.921   3.011
 2080TIP3    H1 6179   3.411   0.849   2.962
 2080TIP3    H2 6180   3.501   0.870   3.080
 2081TIP3   OH2 6181   3.587   0.772   3.191
 2081TIP3    H1 6182   3.593   0.702   3.260
 2081TIP3    H2 6183   3.638   0.839   3.239
 2082TIP3   OH2 6184   5.312   1.176   2.988
 2082TIP3    H1 6185   5.336   1.203   3.079
 2082TIP3    H2 6186   5.379   1.220   2.935
 2083TIP3   OH2 6187   5.341   1.191   3.268
 2083TIP3    H1 6188   5.299   1.103   3.268
 2083TIP3    H2 6189   5.416   1.173   3.327
 2084TIP3   OH2 6190   5.387   0.867   3.845
 2084TIP3    H1 6191   5.314   0.878   3.909
 2084TIP3    H2 6192   5.429   0.955   3.848
 2085TIP3   OH2 6193   5.204   0.383   2.462
 2085TIP3    H1 6194   5.272   0.447   2.432
 2085TIP3    H2 6195   5.248   0.345   2.541
 2086TIP3   OH2 6196   5.331   0.253   2.664
 2086TIP3    H1 6197   5.265   0.215   2.726
 2086TIP3    H2 6198   5.398   0.292   2.724
 2087TIP3   OH2 6199   5.386   0.641   3.098
 2087TIP3    H1 6200   5.440   0.577   3.048
 2087TIP3    H2 6201   5.380   0.716   3.035
 2088TIP3   OH2 6202   5.217   0.941   3.294
 2088TIP3    H1 6203   5.147   0.986   3.346
 2088TIP3    H2 6204   5.165   0.896   3.224
 2089TIP3   OH2 6205   5.263   0.156   2.315
 2089TIP3    H1 6206   5.195   0.164   2.245
 2089TIP3    H2 6207   5.238   0.233   2.370
 2090TIP3   OH2 6208   5.133  -0.183   2.259
 2090TIP3    H1 6209   5.112  -0.110   2.200
 2090TIP3    H2 6210   5.088  -0.257   2.216
 2091TIP3   OH2 6211   5.145   0.120   2.811
 2091TIP3    H1 6212   5.149   0.025   2.788
 2091TIP3    H2 6213   5.133   0.120   2.909
 2092TIP3   OH2 6214   3.777   0.131   3.572
 2092TIP3    H1 6215   3.759   0.150   3.479
 2092TIP3    H2 6216   3.867   0.169   3.582
 2093TIP3   OH2 6217   5.438   0.532   3.666
 2093TIP3    H1 6218   5.513   0.469   3.656
 2093TIP3    H2 6219   5.467   0.606   3.609
 2094TIP3   OH2 6220   5.622   0.335   3.677
 2094TIP3    H1 6221   5.551   0.282   3.720
 2094TIP3    H2 6222   5.699   0.279   3.697
 2095TIP3   OH2 6223   5.147  -0.133   2.680
 2095TIP3    H1 6224   5.175  -0.212   2.731
 2095TIP3    H2 6225   5.210  -0.132   2.606
 2096TIP3   OH2 6226   5.298   0.003   3.213
 2096TIP3    H1 6227   5.382   0.021   3.166
 2096TIP3    H2 6228   5.321   0.041   3.300
 2097TIP3   OH2 6229   5.370   0.144   3.437
 2097TIP3    H1 6230   5.298   0.186   3.488
 2097TIP3    H2 6231   5.408   0.222   3.390
 2098TIP3   OH2 6232   3.982  -0.138   4.227
 2098TIP3    H1 6233   4.076  -0.139   4.244
 2098TIP3    H2 6234   3.951  -0.213   4.281
 2099TIP3   OH2 6235   3.753  -0.165   3.640
 2099TIP3    H1 6236   3.796  -0.161   3.553
 2099TIP3    H2 6237   3.760  -0.073   3.667
 2100TIP3   OH2 6238   4.899   1.035   2.647
 2100TIP3    H1 6239   4.961   1.028   2.572
 2100TIP3    H2 6240   4.940   1.104   2.702
 2101TIP3   OH2 6241   3.998   0.851   4.034
 2101TIP3    H1 6242   3.909   0.818   4.013
 2101TIP3    H2 6243   4.010   0.822   4.125
 2102TIP3   OH2 6244   4.179   0.874   3.578
 2102TIP3    H1 6245   4.125   0.946   3.540
 2102TIP3    H2 6246   4.263   0.892   3.533
 2103TIP3   OH2 6247   4.619   1.120   3.712
 2103TIP3    H1 6248   4.659   1.117   3.802
 2103TIP3    H2 6249   4.686   1.173   3.664
 2104TIP3   OH2 6250   4.801   1.273   3.574
 2104TIP3    H1 6251   4.874   1.221   3.539
 2104TIP3    H2 6252   4.849   1.331   3.637
 2105TIP3   OH2 6253   3.856   1.148   3.594
 2105TIP3    H1 6254   3.764   1.178   3.578
 2105TIP3    H2 6255   3.861   1.158   3.690
 2106TIP3   OH2 6256   4.091   1.112   3.458
 2106TIP3    H1 6257   4.005   1.125   3.504
 2106TIP3    H2 6258   4.069   1.143   3.368
 2107TIP3   OH2 6259   4.517   1.141   3.255
 2107TIP3    H1 6260   4.443   1.160   3.194
 2107TIP3    H2 6261   4.527   1.228   3.300
 2108TIP3   OH2 6262   4.783   1.076   3.305
 2108TIP3    H1 6263   4.689   1.096   3.289
 2108TIP3    H2 6264   4.826   1.156   3.271
 2109TIP3   OH2 6265   4.990   1.270   3.224
 2109TIP3    H1 6266   4.976   1.355   3.177
 2109TIP3    H2 6267   5.016   1.210   3.152
 2110TIP3   OH2 6268   3.761   0.927   3.349
 2110TIP3    H1 6269   3.786   0.896   3.439
 2110TIP3    H2 6270   3.831   0.880   3.299
 2111TIP3   OH2 6271   3.956   0.800   3.202
 2111TIP3    H1 6272   3.967   0.716   3.253
 2111TIP3    H2 6273   4.048   0.834   3.203
 2112TIP3   OH2 6274   4.226   0.892   3.207
 2112TIP3    H1 6275   4.255   0.798   3.200
 2112TIP3    H2 6276   4.269   0.915   3.291
 2113TIP3   OH2 6277   3.543   0.708   2.752
 2113TIP3    H1 6278   3.469   0.660   2.713
 2113TIP3    H2 6279   3.535   0.797   2.710
 2114TIP3   OH2 6280   4.323   0.886   2.319
 2114TIP3    H1 6281   4.411   0.910   2.282
 2114TIP3    H2 6282   4.301   0.810   2.259
 2115TIP3   OH2 6283   5.029   1.012   2.403
 2115TIP3    H1 6284   5.039   0.913   2.394
 2115TIP3    H2 6285   4.939   1.022   2.372
 2116TIP3   OH2 6286   3.629   0.722   2.376
 2116TIP3    H1 6287   3.639   0.756   2.466
 2116TIP3    H2 6288   3.717   0.680   2.360
 2117TIP3   OH2 6289   5.270   1.149   3.597
 2117TIP3    H1 6290   5.189   1.118   3.552
 2117TIP3    H2 6291   5.250   1.245   3.605
 2118TIP3   OH2 6292   6.527   0.519   2.376
 2118TIP3    H1 6293   6.503   0.612   2.355
 2118TIP3    H2 6294   6.452   0.474   2.335
 2119TIP3   OH2 6295   6.527   0.524   2.751
 2119TIP3    H1 6296   6.564   0.495   2.837
 2119TIP3    H2 6297   6.497   0.440   2.713
 2120TIP3   OH2 6298   5.831   0.421   3.113
 2120TIP3    H1 6299   5.868   0.352   3.171
 2120TIP3    H2 6300   5.911   0.474   3.096
 2121TIP3   OH2 6301   6.777   0.822   2.433
 2121TIP3    H1 6302   6.766   0.753   2.500
 2121TIP3    H2 6303   6.808   0.898   2.485
 2122TIP3   OH2 6304   5.803   0.825   2.834
 2122TIP3    H1 6305   5.797   0.727   2.838
 2122TIP3    H2 6306   5.900   0.836   2.831
 2123TIP3   OH2 6307   5.497   0.033   2.634
 2123TIP3    H1 6308   5.448   0.116   2.644
 2123TIP3    H2 6309   5.435  -0.018   2.579
 2124TIP3   OH2 6310   5.564   0.325   2.790
 2124TIP3    H1 6311   5.605   0.243   2.825
 2124TIP3    H2 6312   5.634   0.361   2.734
 2125TIP3   OH2 6313   6.427   1.287   2.448
 2125TIP3    H1 6314   6.470   1.216   2.394
 2125TIP3    H2 6315   6.424   1.245   2.535
 2126TIP3   OH2 6316   6.333   0.747   2.797
 2126TIP3    H1 6317   6.374   0.668   2.757
 2126TIP3    H2 6318   6.415   0.795   2.820
 2127TIP3   OH2 6319   6.753   0.276   2.821
 2127TIP3    H1 6320   6.764   0.194   2.876
 2127TIP3    H2 6321   6.716   0.237   2.740
 2128TIP3   OH2 6322   6.032  -0.125   2.790
 2128TIP3    H1 6323   6.029  -0.042   2.738
 2128TIP3    H2 6324   6.006  -0.192   2.726
 2129TIP3   OH2 6325   3.521   6.580   8.978
 2129TIP3    H1 6326   3.576   6.526   9.040
 2129TIP3    H2 6327   3.551   6.548   8.891
 2130TIP3   OH2 6328   5.689   0.107   2.892
 2130TIP3    H1 6329   5.779   0.110   2.932
 2130TIP3    H2 6330   5.709   0.052   2.814
 2131TIP3   OH2 6331   6.160   0.311   2.697
 2131TIP3    H1 6332   6.253   0.285   2.712
 2131TIP3    H2 6333   6.120   0.224   2.674
 2132TIP3   OH2 6334   7.396   0.268   2.964
 2132TIP3    H1 6335   7.313   0.318   2.951
 2132TIP3    H2 6336   7.438   0.314   3.037
 2133TIP3   OH2 6337   6.415   0.735   2.241
 2133TIP3    H1 6338   6.391   0.729   2.148
 2133TIP3    H2 6339   6.378   0.823   2.265
 2134TIP3   OH2 6340   6.184   0.667   3.019
 2134TIP3    H1 6341   6.125   0.735   3.057
 2134TIP3    H2 6342   6.229   0.717   2.947
 2135TIP3   OH2 6343   5.940   0.076   2.971
 2135TIP3    H1 6344   6.018   0.112   3.019
 2135TIP3    H2 6345   5.977  -0.006   2.934
 2136TIP3   OH2 6346   6.014   0.862   3.119
 2136TIP3    H1 6347   5.989   0.950   3.083
 2136TIP3    H2 6348   5.935   0.846   3.175
 2137TIP3   OH2 6349   5.407   0.550   2.356
 2137TIP3    H1 6350   5.370   0.578   2.270
 2137TIP3    H2 6351   5.442   0.634   2.392
 2138TIP3   OH2 6352   6.848   1.068   2.597
 2138TIP3    H1 6353   6.758   1.059   2.635
 2138TIP3    H2 6354   6.839   1.153   2.550
 2139TIP3   OH2 6355   6.545   1.114   2.268
 2139TIP3    H1 6356   6.594   1.031   2.249
 2139TIP3    H2 6357   6.609   1.179   2.229
 2140TIP3   OH2 6358   6.685   0.898   2.185
 2140TIP3    H1 6359   6.673   0.817   2.132
 2140TIP3    H2 6360   6.724   0.862   2.268
 2141TIP3   OH2 6361   7.076   0.979   2.940
 2141TIP3    H1 6362   7.062   0.901   2.882
 2141TIP3    H2 6363   7.057   1.054   2.880
 2142TIP3   OH2 6364   6.361   0.372   2.196
 2142TIP3    H1 6365   6.289   0.433   2.171
 2142TIP3    H2 6366   6.412   0.364   2.113
 2143TIP3   OH2 6367   7.262   0.611   2.780
 2143TIP3    H1 6368   7.181   0.666   2.788
 2143TIP3    H2 6369   7.295   0.640   2.693
 2144TIP3   OH2 6370   6.705   0.450   2.179
 2144TIP3    H1 6371   6.661   0.479   2.263
 2144TIP3    H2 6372   6.796   0.431   2.210
 2145TIP3   OH2 6373   6.944   0.505   3.072
 2145TIP3    H1 6374   6.937   0.583   3.130
 2145TIP3    H2 6375   6.855   0.506   3.032
 2146TIP3   OH2 6376   5.946   0.451   2.587
 2146TIP3    H1 6377   5.911   0.393   2.517
 2146TIP3    H2 6378   6.024   0.401   2.618
 2147TIP3   OH2 6379   6.075   0.864   2.735
 2147TIP3    H1 6380   6.057   0.826   2.648
 2147TIP3    H2 6381   6.165   0.830   2.754
 2148TIP3   OH2 6382   6.078   0.424   2.943
 2148TIP3    H1 6383   6.114   0.398   2.856
 2148TIP3    H2 6384   6.125   0.508   2.961
 2149TIP3   OH2 6385   6.606   1.063   2.716
 2149TIP3    H1 6386   6.595   1.142   2.771
 2149TIP3    H2 6387   6.592   0.990   2.780
 2150TIP3   OH2 6388   6.220   0.982   3.263
 2150TIP3    H1 6389   6.160   1.043   3.311
 2150TIP3    H2 6390   6.155   0.928   3.214
 2151TIP3   OH2 6391   6.564   0.294   2.006
 2151TIP3    H1 6392   6.623   0.349   2.063
 2151TIP3    H2 6393   6.595   0.322   1.918
 2152TIP3   OH2 6394   5.967   0.546   3.362
 2152TIP3    H1 6395   5.974   0.630   3.411
 2152TIP3    H2 6396   5.872   0.525   3.376
 2153TIP3   OH2 6397   6.295   0.995   2.274
 2153TIP3    H1 6398   6.379   1.045   2.283
 2153TIP3    H2 6399   6.239   1.058   2.227
 2154TIP3   OH2 6400   6.013   1.148   3.351
 2154TIP3    H1 6401   5.977   1.149   3.260
 2154TIP3    H2 6402   5.934   1.127   3.405
 2155TIP3   OH2 6403   5.818   0.293   2.379
 2155TIP3    H1 6404   5.747   0.340   2.330
 2155TIP3    H2 6405   5.771   0.215   2.410
 2156TIP3   OH2 6406   6.806   0.943   1.650
 2156TIP3    H1 6407   6.837   1.031   1.619
 2156TIP3    H2 6408   6.875   0.886   1.613
 2157TIP3   OH2 6409   5.592   0.680   3.299
 2157TIP3    H1 6410   5.528   0.658   3.228
 2157TIP3    H2 6411   5.632   0.593   3.320
 2158TIP3   OH2 6412   5.448   0.873   2.929
 2158TIP3    H1 6413   5.544   0.866   2.921
 2158TIP3    H2 6414   5.439   0.951   2.986
 2159TIP3   OH2 6415   7.317   1.329   2.989
 2159TIP3    H1 6416   7.315   1.232   3.000
 2159TIP3    H2 6417   7.232   1.353   3.032
 2160TIP3   OH2 6418   6.416   1.111   3.120
 2160TIP3    H1 6419   6.415   1.203   3.153
 2160TIP3    H2 6420   6.346   1.070   3.175
 2161TIP3   OH2 6421   6.175   1.236   2.077
 2161TIP3    H1 6422   6.138   1.218   1.988
 2161TIP3    H2 6423   6.146   1.327   2.095
 2162TIP3   OH2 6424   5.614   1.085   2.460
 2162TIP3    H1 6425   5.666   1.081   2.544
 2162TIP3    H2 6426   5.571   0.998   2.463
 2163TIP3   OH2 6427   6.375   1.144   1.717
 2163TIP3    H1 6428   6.434   1.074   1.680
 2163TIP3    H2 6429   6.411   1.154   1.807
 2164TIP3   OH2 6430   6.429   1.191   1.986
 2164TIP3    H1 6431   6.341   1.196   2.029
 2164TIP3    H2 6432   6.483   1.150   2.055
 2165TIP3   OH2 6433   7.202   0.446   3.263
 2165TIP3    H1 6434   7.124   0.481   3.217
 2165TIP3    H2 6435   7.176   0.352   3.261
 2166TIP3   OH2 6436   5.797   0.863   3.285
 2166TIP3    H1 6437   5.847   0.849   3.367
 2166TIP3    H2 6438   5.723   0.800   3.295
 2167TIP3   OH2 6439   7.017   0.258   3.212
 2167TIP3    H1 6440   6.948   0.222   3.268
 2167TIP3    H2 6441   6.967   0.304   3.143
 2168TIP3   OH2 6442   6.143   0.209   3.106
 2168TIP3    H1 6443   6.084   0.232   3.181
 2168TIP3    H2 6444   6.129   0.286   3.047
 2169TIP3   OH2 6445   6.015   0.087   2.616
 2169TIP3    H1 6446   5.919   0.071   2.625
 2169TIP3    H2 6447   6.029   0.063   2.522
 2170TIP3   OH2 6448   6.500   0.174   2.316
 2170TIP3    H1 6449   6.440   0.246   2.287
 2170TIP3    H2 6450   6.574   0.188   2.256
 2171TIP3   OH2 6451   6.687   0.482   3.404
 2171TIP3    H1 6452   6.663   0.401   3.455
 2171TIP3    H2 6453   6.782   0.489   3.428
 2172TIP3   OH2 6454   6.644   0.212   2.578
 2172TIP3    H1 6455   6.592   0.244   2.502
 2172TIP3    H2 6456   6.698   0.143   2.532
 2173TIP3   OH2 6457   5.948   0.244   3.300
 2173TIP3    H1 6458   5.978   0.314   3.361
 2173TIP3    H2 6459   5.890   0.190   3.354
 2174TIP3   OH2 6460   5.574  -0.161   2.431
 2174TIP3    H1 6461   5.590  -0.156   2.335
 2174TIP3    H2 6462   5.480  -0.136   2.434
 2175TIP3   OH2 6463   6.662   0.458   2.993
 2175TIP3    H1 6464   6.704   0.392   2.932
 2175TIP3    H2 6465   6.639   0.398   3.068
 2176TIP3   OH2 6466   5.760  -0.023   2.653
 2176TIP3    H1 6467   5.665  -0.003   2.635
 2176TIP3    H2 6468   5.762  -0.116   2.628
 2177TIP3   OH2 6469   6.047  -0.013   2.363
 2177TIP3    H1 6470   6.137  -0.042   2.341
 2177TIP3    H2 6471   6.001  -0.032   2.280
 2178TIP3   OH2 6472   5.859  -0.048   2.133
 2178TIP3    H1 6473   5.761  -0.045   2.131
 2178TIP3    H2 6474   5.884   0.022   2.072
 2179TIP3   OH2 6475   7.003   1.675   3.086
 2179TIP3    H1 6476   7.000   1.698   2.991
 2179TIP3    H2 6477   7.081   1.725   3.117
 2180TIP3   OH2 6478   5.959   0.786   3.507
 2180TIP3    H1 6479   6.040   0.815   3.554
 2180TIP3    H2 6480   5.895   0.788   3.581
 2181TIP3   OH2 6481   6.417   0.224   2.759
 2181TIP3    H1 6482   6.504   0.204   2.722
 2181TIP3    H2 6483   6.427   0.192   2.852
 2182TIP3   OH2 6484   6.407   0.159   3.031
 2182TIP3    H1 6485   6.319   0.174   3.071
 2182TIP3    H2 6486   6.467   0.202   3.095
 2183TIP3   OH2 6487   6.132   0.523   2.146
 2183TIP3    H1 6488   6.053   0.467   2.136
 2183TIP3    H2 6489   6.117   0.560   2.237
 2184TIP3   OH2 6490   7.034   0.764   2.776
 2184TIP3    H1 6491   7.058   0.813   2.694
 2184TIP3    H2 6492   6.950   0.720   2.751
 2185TIP3   OH2 6493   6.532   0.844   3.143
 2185TIP3    H1 6494   6.564   0.823   3.232
 2185TIP3    H2 6495   6.497   0.934   3.152
 2186TIP3   OH2 6496   5.826   0.542   2.821
 2186TIP3    H1 6497   5.866   0.518   2.735
 2186TIP3    H2 6498   5.877   0.487   2.882
 2187TIP3   OH2 6499   6.287   0.678   1.984
 2187TIP3    H1 6500   6.238   0.765   1.985
 2187TIP3    H2 6501   6.230   0.626   2.046
 2188TIP3   OH2 6502   5.710   0.468   3.436
 2188TIP3    H1 6503   5.735   0.458   3.530
 2188TIP3    H2 6504   5.637   0.405   3.428
 2189TIP3   OH2 6505   6.437   0.584   3.456
 2189TIP3    H1 6506   6.381   0.531   3.398
 2189TIP3    H2 6507   6.527   0.557   3.426
 2190TIP3   OH2 6508   6.695   1.105   3.039
 2190TIP3    H1 6509   6.598   1.103   3.052
 2190TIP3    H2 6510   6.723   1.156   3.117
 2191TIP3   OH2 6511   7.327   1.039   3.026
 2191TIP3    H1 6512   7.230   1.030   3.017
 2191TIP3    H2 6513   7.355   1.008   2.937
 2192TIP3   OH2 6514   6.788   1.008   1.912
 2192TIP3    H1 6515   6.790   0.936   1.978
 2192TIP3    H2 6516   6.794   0.960   1.827
 2193TIP3   OH2 6517   6.802   0.626   2.693
 2193TIP3    H1 6518   6.709   0.600   2.707
 2193TIP3    H2 6519   6.837   0.545   2.651
 2194TIP3   OH2 6520   5.932   0.852   2.448
 2194TIP3    H1 6521   5.935   0.932   2.393
 2194TIP3    H2 6522   5.837   0.837   2.456
 2195TIP3   OH2 6523   5.494   0.160   2.163
 2195TIP3    H1 6524   5.537   0.246   2.180
 2195TIP3    H2 6525   5.415   0.167   2.221
 2196TIP3   OH2 6526   6.061   0.614   2.387
 2196TIP3    H1 6527   6.032   0.706   2.407
 2196TIP3    H2 6528   6.031   0.567   2.467
 2197TIP3   OH2 6529   6.199   1.196   2.915
 2197TIP3    H1 6530   6.241   1.268   2.865
 2197TIP3    H2 6531   6.275   1.159   2.964
 2198TIP3   OH2 6532   5.848   1.093   2.299
 2198TIP3    H1 6533   5.763   1.103   2.346
 2198TIP3    H2 6534   5.882   1.184   2.302
 2199TIP3   OH2 6535   6.586   0.830   2.875
 2199TIP3    H1 6536   6.575   0.827   2.973
 2199TIP3    H2 6537   6.665   0.776   2.863
 2200TIP3   OH2 6538   6.539   0.706   1.800
 2200TIP3    H1 6539   6.581   0.717   1.888
 2200TIP3    H2 6540   6.446   0.722   1.821
 2201TIP3   OH2 6541   6.835   1.363   2.925
 2201TIP3    H1 6542   6.756   1.307   2.919
 2201TIP3    H2 6543   6.819   1.427   2.853
 2202TIP3   OH2 6544   6.892   1.193   1.577
 2202TIP3    H1 6545   6.925   1.257   1.511
 2202TIP3    H2 6546   6.817   1.246   1.612
 2203TIP3   OH2 6547   6.699   0.678   2.020
 2203TIP3    H1 6548   6.695   0.596   2.073
 2203TIP3    H2 6549   6.797   0.684   2.006
 2204TIP3   OH2 6550   5.636   1.057   3.074
 2204TIP3    H1 6551   5.693   0.986   3.109
 2204TIP3    H2 6552   5.660   1.131   3.131
 2205TIP3   OH2 6553   5.922   0.714   1.759
 2205TIP3    H1 6554   5.936   0.633   1.707
 2205TIP3    H2 6555   5.903   0.679   1.848
 2206TIP3   OH2 6556   5.870   0.705   2.041
 2206TIP3    H1 6557   5.950   0.689   2.091
 2206TIP3    H2 6558   5.872   0.804   2.035
 2207TIP3   OH2 6559   5.608   0.403   2.235
 2207TIP3    H1 6560   5.541   0.451   2.289
 2207TIP3    H2 6561   5.623   0.470   2.165
 2208TIP3   OH2 6562   6.139   0.902   1.985
 2208TIP3    H1 6563   6.052   0.935   2.015
 2208TIP3    H2 6564   6.150   0.953   1.903
 2209TIP3   OH2 6565   6.360  -0.032   2.427
 2209TIP3    H1 6566   6.406   0.040   2.378
 2209TIP3    H2 6567   6.364   0.001   2.516
 2210TIP3   OH2 6568   6.599   0.289   3.197
 2210TIP3    H1 6569   6.611   0.332   3.284
 2210TIP3    H2 6570   6.653   0.209   3.205
 2211TIP3   OH2 6571   5.880   0.979   2.045
 2211TIP3    H1 6572   5.853   1.049   1.981
 2211TIP3    H2 6573   5.868   1.025   2.131
 2212TIP3   OH2 6574   6.887   0.386   2.570
 2212TIP3    H1 6575   6.812   0.332   2.601
 2212TIP3    H2 6576   6.962   0.342   2.617
 2213TIP3   OH2 6577   5.597   0.615   2.041
 2213TIP3    H1 6578   5.670   0.678   2.048
 2213TIP3    H2 6579   5.636   0.553   1.975
 2214TIP3   OH2 6580   5.583  -0.094   2.156
 2214TIP3    H1 6581   5.544  -0.004   2.158
 2214TIP3    H2 6582   5.509  -0.148   2.124
 2215TIP3   OH2 6583   6.855   1.339   2.518
 2215TIP3    H1 6584   6.812   1.386   2.443
 2215TIP3    H2 6585   6.949   1.359   2.497
 2216TIP3   OH2 6586   5.480   0.826   2.432
 2216TIP3    H1 6587   5.403   0.850   2.485
 2216TIP3    H2 6588   5.452   0.857   2.343
 2217TIP3   OH2 6589   5.629   1.369   3.497
 2217TIP3    H1 6590   5.715   1.371   3.545
 2217TIP3    H2 6591   5.609   1.274   3.498
 2218TIP3   OH2 6592   6.108   1.331   3.541
 2218TIP3    H1 6593   6.202   1.313   3.550
 2218TIP3    H2 6594   6.084   1.271   3.469
 2219TIP3   OH2 6595   6.086   0.921   1.693
 2219TIP3    H1 6596   6.033   0.841   1.715
 2219TIP3    H2 6597   6.158   0.881   1.638
 2220TIP3   OH2 6598   6.748   1.237   3.275
 2220TIP3    H1 6599   6.739   1.168   3.344
 2220TIP3    H2 6600   6.825   1.288   3.306
 2221TIP3   OH2 6601   6.546   0.972   1.589
 2221TIP3    H1 6602   6.624   0.943   1.642
 2221TIP3    H2 6603   6.592   1.021   1.519
 2222TIP3   OH2 6604   5.758   0.774   3.698
 2222TIP3    H1 6605   5.773   0.678   3.707
 2222TIP3    H2 6606   5.671   0.777   3.654
 2223TIP3   OH2 6607   5.728   0.421   1.908
 2223TIP3    H1 6608   5.794   0.397   1.976
 2223TIP3    H2 6609   5.787   0.428   1.829
 2224TIP3   OH2 6610   6.365   0.858   3.472
 2224TIP3    H1 6611   6.326   0.876   3.384
 2224TIP3    H2 6612   6.397   0.766   3.464
 2225TIP3   OH2 6613   6.248   0.638   1.712
 2225TIP3    H1 6614   6.249   0.634   1.809
 2225TIP3    H2 6615   6.206   0.555   1.684
 2226TIP3   OH2 6616   6.857   0.869   3.078
 2226TIP3    H1 6617   6.934   0.911   3.034
 2226TIP3    H2 6618   6.788   0.936   3.062
 2227TIP3   OH2 6619   5.883   0.500   3.678
 2227TIP3    H1 6620   5.969   0.459   3.661
 2227TIP3    H2 6621   5.901   0.538   3.767
 2228TIP3   OH2 6622   5.933   0.321   2.114
 2228TIP3    H1 6623   5.914   0.302   2.209
 2228TIP3    H2 6624   6.003   0.258   2.093
 2229TIP3   OH2 6625   6.205   0.418   3.335
 2229TIP3    H1 6626   6.127   0.476   3.330
 2229TIP3    H2 6627   6.258   0.447   3.257
 2230TIP3   OH2 6628   6.733   0.797   3.475
 2230TIP3    H1 6629   6.806   0.764   3.422
 2230TIP3    H2 6630   6.723   0.726   3.541
 2231TIP3   OH2 6631   6.303   0.205   3.462
 2231TIP3    H1 6632   6.265   0.149   3.392
 2231TIP3    H2 6633   6.273   0.293   3.427
 2232TIP3   OH2 6634   6.371   0.508   3.145
 2232TIP3    H1 6635   6.456   0.510   3.099
 2232TIP3    H2 6636   6.319   0.574   3.095
 2233TIP3   OH2 6637   6.937   0.479   3.511
 2233TIP3    H1 6638   6.972   0.417   3.579
 2233TIP3    H2 6639   7.018   0.521   3.478
 2234TIP3   OH2 6640   6.990   0.726   3.266
 2234TIP3    H1 6641   6.930   0.778   3.206
 2234TIP3    H2 6642   7.076   0.747   3.224
 2235TIP3   OH2 6643   6.170   0.329   3.684
 2235TIP3    H1 6644   6.147   0.255   3.742
 2235TIP3    H2 6645   6.238   0.291   3.626
 2236TIP3   OH2 6646   6.584   0.255   3.500
 2236TIP3    H1 6647   6.614   0.224   3.587
 2236TIP3    H2 6648   6.488   0.240   3.507
 2237TIP3   OH2 6649   5.850   1.183   1.860
 2237TIP3    H1 6650   5.946   1.179   1.844
 2237TIP3    H2 6651   5.823   1.233   1.780
 2238TIP3   OH2 6652   5.331   0.568   2.083
 2238TIP3    H1 6653   5.424   0.592   2.062
 2238TIP3    H2 6654   5.323   0.481   2.038
 2239TIP3   OH2 6655   5.246   1.175   2.463
 2239TIP3    H1 6656   5.173   1.113   2.441
 2239TIP3    H2 6657   5.290   1.125   2.536
 2240TIP3   OH2 6658   5.371   1.043   2.670
 2240TIP3    H1 6659   5.362   0.967   2.729
 2240TIP3    H2 6660   5.429   1.099   2.726
 2241TIP3   OH2 6661   7.107   1.431   2.477
 2241TIP3    H1 6662   7.140   1.467   2.561
 2241TIP3    H2 6663   7.174   1.461   2.413
 2242TIP3   OH2 6664   7.137   1.451   2.760
 2242TIP3    H1 6665   7.093   1.364   2.753
 2242TIP3    H2 6666   7.216   1.425   2.810
 2243TIP3   OH2 6667   7.185   1.124   3.332
 2243TIP3    H1 6668   7.111   1.134   3.396
 2243TIP3    H2 6669   7.224   1.214   3.334
 2244TIP3   OH2 6670   6.964   0.688   1.990
 2244TIP3    H1 6671   7.026   0.761   1.967
 2244TIP3    H2 6672   7.026   0.632   2.041
 2245TIP3   OH2 6673   7.120   0.523   2.153
 2245TIP3    H1 6674   7.055   0.465   2.197
 2245TIP3    H2 6675   7.182   0.543   2.224
 2246TIP3   OH2 6676   7.183   0.898   2.587
 2246TIP3    H1 6677   7.229   0.836   2.529
 2246TIP3    H2 6678   7.177   0.977   2.530
 2247TIP3   OH2 6679   7.014   1.199   2.781
 2247TIP3    H1 6680   6.942   1.241   2.832
 2247TIP3    H2 6681   6.964   1.152   2.711
 2248TIP3   OH2 6682   6.943   0.368   2.304
 2248TIP3    H1 6683   6.966   0.275   2.307
 2248TIP3    H2 6684   6.924   0.386   2.399
 2249TIP3   OH2 6685   5.568   0.433   3.049
 2249TIP3    H1 6686   5.567   0.407   2.955
 2249TIP3    H2 6687   5.665   0.438   3.065
 2250TIP3   OH2 6688   7.234   0.789   3.156
 2250TIP3    H1 6689   7.306   0.722   3.149
 2250TIP3    H2 6690   7.260   0.855   3.090
 2251TIP3   OH2 6691   7.415   0.590   3.183
 2251TIP3    H1 6692   7.339   0.535   3.214
 2251TIP3    H2 6693   7.488   0.526   3.197
 2252TIP3   OH2 6694   7.101   0.267   2.690
 2252TIP3    H1 6695   7.187   0.294   2.650
 2252TIP3    H2 6696   7.115   0.292   2.783
 2253TIP3   OH2 6697   7.162   0.401   2.928
 2253TIP3    H1 6698   7.083   0.437   2.974
 2253TIP3    H2 6699   7.194   0.480   2.879
 2254TIP3   OH2 6700   5.785   0.115   3.713
 2254TIP3    H1 6701   5.873   0.136   3.747
 2254TIP3    H2 6702   5.756   0.049   3.779
 2255TIP3   OH2 6703   5.545   0.087   3.127
 2255TIP3    H1 6704   5.592   0.085   3.040
 2255TIP3    H2 6705   5.570   0.174   3.159
 2256TIP3   OH2 6706   6.692   1.298   2.135
 2256TIP3    H1 6707   6.741   1.284   2.051
 2256TIP3    H2 6708   6.750   1.361   2.179
 2257TIP3   OH2 6709   5.794   1.098   3.517
 2257TIP3    H1 6710   5.701   1.074   3.503
 2257TIP3    H2 6711   5.805   1.083   3.611
 2258TIP3   OH2 6712   5.971   1.132   3.063
 2258TIP3    H1 6713   5.926   1.210   3.025
 2258TIP3    H2 6714   6.059   1.145   3.020
 2259TIP3   OH2 6715   6.415   1.377   3.202
 2259TIP3    H1 6716   6.458   1.377   3.291
 2259TIP3    H2 6717   6.482   1.428   3.151
 2260TIP3   OH2 6718   6.595   1.530   3.062
 2260TIP3    H1 6719   6.666   1.479   3.020
 2260TIP3    H2 6720   6.647   1.586   3.123
 2261TIP3   OH2 6721   5.646   1.387   3.089
 2261TIP3    H1 6722   5.556   1.422   3.068
 2261TIP3    H2 6723   5.662   1.430   3.174
 2262TIP3   OH2 6724   5.884   1.367   2.947
 2262TIP3    H1 6725   5.797   1.380   2.991
 2262TIP3    H2 6726   5.866   1.401   2.857
 2263TIP3   OH2 6727   6.310   1.396   2.746
 2263TIP3    H1 6728   6.243   1.417   2.678
 2263TIP3    H2 6729   6.323   1.483   2.788
 2264TIP3   OH2 6730   6.579   1.335   2.797
 2264TIP3    H1 6731   6.486   1.353   2.776
 2264TIP3    H2 6732   6.624   1.409   2.753
 2265TIP3   OH2 6733   6.785   1.527   2.710
 2265TIP3    H1 6734   6.772   1.611   2.662
 2265TIP3    H2 6735   6.813   1.467   2.638
 2266TIP3   OH2 6736   5.559   1.182   2.831
 2266TIP3    H1 6737   5.585   1.156   2.922
 2266TIP3    H2 6738   5.632   1.137   2.782
 2267TIP3   OH2 6739   5.755   1.054   2.690
 2267TIP3    H1 6740   5.771   0.970   2.739
 2267TIP3    H2 6741   5.846   1.091   2.687
 2268TIP3   OH2 6742   6.019   1.148   2.696
 2268TIP3    H1 6743   6.053   1.057   2.683
 2268TIP3    H2 6744   6.066   1.171   2.779
 2269TIP3   OH2 6745   5.350   0.942   2.228
 2269TIP3    H1 6746   5.266   0.934   2.178
 2269TIP3    H2 6747   5.347   1.034   2.255
 2270TIP3   OH2 6748   6.118   1.157   1.811
 2270TIP3    H1 6749   6.207   1.174   1.773
 2270TIP3    H2 6750   6.095   1.078   1.757
 2271TIP3   OH2 6751   6.839   1.271   1.903
 2271TIP3    H1 6752   6.826   1.173   1.904
 2271TIP3    H2 6753   6.794   1.295   1.820
 2272TIP3   OH2 6754   5.430   0.976   1.868
 2272TIP3    H1 6755   5.456   0.996   1.959
 2272TIP3    H2 6756   5.511   0.929   1.837
 2273TIP3   OH2 6757   7.067   1.406   3.086
 2273TIP3    H1 6758   6.988   1.374   3.037
 2273TIP3    H2 6759   7.045   1.501   3.091
 2274TIP3   OH2 6760   7.587   1.057   2.372
 2274TIP3    H1 6761   7.549   0.999   2.305
 2274TIP3    H2 6762   7.678   1.067   2.337
 2275TIP3   OH2 6763   7.386   0.574   2.282
 2275TIP3    H1 6764   7.428   0.487   2.283
 2275TIP3    H2 6765   7.392   0.600   2.189
 2276TIP3   OH2 6766   7.166   0.858   1.938
 2276TIP3    H1 6767   7.210   0.810   1.865
 2276TIP3    H2 6768   7.217   0.941   1.941
 2277TIP3   OH2 6769   7.774   1.435   2.807
 2277TIP3    H1 6770   7.736   1.436   2.718
 2277TIP3    H2 6771   7.696   1.432   2.865
 2278TIP3   OH2 6772   7.394   0.943   2.779
 2278TIP3    H1 6773   7.323   0.916   2.719
 2278TIP3    H2 6774   7.427   0.858   2.817
 2279TIP3   OH2 6775   7.247   1.128   2.423
 2279TIP3    H1 6776   7.343   1.133   2.416
 2279TIP3    H2 6777   7.228   1.209   2.473
 2280TIP3   OH2 6778   7.391   1.353   1.944
 2280TIP3    H1 6779   7.463   1.354   2.009
 2280TIP3    H2 6780   7.361   1.260   1.949
 2281TIP3   OH2 6781   7.601   1.125   2.762
 2281TIP3    H1 6782   7.651   1.091   2.839
 2281TIP3    H2 6783   7.524   1.064   2.764
 2282TIP3   OH2 6784   7.741   1.026   2.975
 2282TIP3    H1 6785   7.816   1.083   2.999
 2282TIP3    H2 6786   7.693   1.019   3.059
 2283TIP3   OH2 6787   7.485   0.733   2.925
 2283TIP3    H1 6788   7.528   0.722   3.012
 2283TIP3    H2 6789   7.429   0.655   2.919
 2284TIP3   OH2 6790   7.430   1.314   2.564
 2284TIP3    H1 6791   7.487   1.243   2.598
 2284TIP3    H2 6792   7.463   1.392   2.610
 2285TIP3   OH2 6793   7.271   1.107   1.919
 2285TIP3    H1 6794   7.191   1.134   1.967
 2285TIP3    H2 6795   7.247   1.136   1.828
 2286TIP3   OH2 6796   7.422   1.620   2.984
 2286TIP3    H1 6797   7.508   1.613   3.028
 2286TIP3    H2 6798   7.393   1.527   2.983
 2287TIP3   OH2 6799   7.551   1.028   3.189
 2287TIP3    H1 6800   7.570   0.932   3.188
 2287TIP3    H2 6801   7.467   1.032   3.140
 2288TIP3   OH2 6802   7.665   0.769   3.167
 2288TIP3    H1 6803   7.726   0.696   3.153
 2288TIP3    H2 6804   7.694   0.800   3.256
 2289TIP3   OH2 6805   7.043   1.441   1.977
 2289TIP3    H1 6806   6.977   1.378   1.939
 2289TIP3    H2 6807   7.089   1.382   2.041
 2290TIP3   OH2 6808   7.167   1.289   2.168
 2290TIP3    H1 6809   7.167   1.211   2.225
 2290TIP3    H2 6810   7.227   1.348   2.216
 2291TIP3   OH2 6811   7.375   0.689   2.533
 2291TIP3    H1 6812   7.366   0.650   2.443
 2291TIP3    H2 6813   7.467   0.718   2.532
 2292TIP3   OH2 6814   7.581   0.378   3.218
 2292TIP3    H1 6815   7.674   0.353   3.208
 2292TIP3    H2 6816   7.543   0.294   3.250
 2293TIP3   OH2 6817   7.345   0.352   2.590
 2293TIP3    H1 6818   7.426   0.325   2.546
 2293TIP3    H2 6819   7.373   0.428   2.642
 2294TIP3   OH2 6820   7.597   1.352   3.013
 2294TIP3    H1 6821   7.509   1.323   2.982
 2294TIP3    H2 6822   7.590   1.331   3.107
 2295TIP3   OH2 6823   7.436   1.634   2.583
 2295TIP3    H1 6824   7.351   1.674   2.553
 2295TIP3    H2 6825   7.452   1.687   2.662
 2296TIP3   OH2 6826   7.693   1.621   2.449
 2296TIP3    H1 6827   7.602   1.627   2.482
 2296TIP3    H2 6828   7.682   1.656   2.358
 2297TIP3   OH2 6829   7.347   1.443   2.324
 2297TIP3    H1 6830   7.380   1.420   2.414
 2297TIP3    H2 6831   7.419   1.401   2.271
 2298TIP3   OH2 6832   7.536   1.308   2.184
 2298TIP3    H1 6833   7.545   1.215   2.205
 2298TIP3    H2 6834   7.627   1.329   2.153
 2299TIP3   OH2 6835   7.146   1.210   1.701
 2299TIP3    H1 6836   7.059   1.175   1.674
 2299TIP3    H2 6837   7.130   1.306   1.689
 2300TIP3   OH2 6838   7.218   1.276   1.373
 2300TIP3    H1 6839   7.199   1.280   1.468
 2300TIP3    H2 6840   7.274   1.196   1.365
 2301TIP3   OH2 6841   0.787   1.577   3.540
 2301TIP3    H1 6842   0.757   1.666   3.510
 2301TIP3    H2 6843   0.705   1.540   3.574
 2302TIP3   OH2 6844   0.783   1.564   3.926
 2302TIP3    H1 6845   0.818   1.542   4.014
 2302TIP3    H2 6846   0.746   1.478   3.899
 2303TIP3   OH2 6847   0.088   1.461   4.291
 2303TIP3    H1 6848   0.124   1.395   4.354
 2303TIP3    H2 6849   0.163   1.522   4.286
 2304TIP3   OH2 6850   1.030   1.868   3.605
 2304TIP3    H1 6851   1.010   1.798   3.669
 2304TIP3    H2 6852   1.055   1.943   3.663
 2305TIP3   OH2 6853   0.056   1.868   4.015
 2305TIP3    H1 6854   0.048   1.770   4.017
 2305TIP3    H2 6855   0.153   1.877   4.007
 2306TIP3   OH2 6856   0.675   2.332   3.623
 2306TIP3    H1 6857   0.721   2.261   3.574
 2306TIP3    H2 6858   0.666   2.293   3.710
 2307TIP3   OH2 6859   0.581   1.793   3.973
 2307TIP3    H1 6860   0.619   1.715   3.928
 2307TIP3    H2 6861   0.665   1.838   3.997
 2308TIP3   OH2 6862   1.596   1.114   3.971
 2308TIP3    H1 6863   1.626   1.197   4.014
 2308TIP3    H2 6864   1.609   1.135   3.878
 2309TIP3   OH2 6865   1.000   1.296   4.003
 2309TIP3    H1 6866   1.036   1.208   4.025
 2309TIP3    H2 6867   0.960   1.280   3.916
 2310TIP3   OH2 6868   1.020   1.053   3.608
 2310TIP3    H1 6869   1.099   1.030   3.661
 2310TIP3    H2 6870   1.059   1.068   3.520
 2311TIP3   OH2 6871   0.413   1.347   3.864
 2311TIP3    H1 6872   0.509   1.341   3.884
 2311TIP3    H2 6873   0.392   1.252   3.858
 2312TIP3   OH2 6874   1.671   1.326   4.136
 2312TIP3    H1 6875   1.585   1.368   4.118
 2312TIP3    H2 6876   1.670   1.328   4.233
 2313TIP3   OH2 6877   0.353   0.933   4.396
 2313TIP3    H1 6878   0.290   0.972   4.331
 2313TIP3    H2 6879   0.297   0.925   4.475
 2314TIP3   OH2 6880   0.668   1.789   3.414
 2314TIP3    H1 6881   0.641   1.782   3.322
 2314TIP3    H2 6882   0.625   1.874   3.440
 2315TIP3   OH2 6883   0.434   1.713   4.197
 2315TIP3    H1 6884   0.373   1.778   4.237
 2315TIP3    H2 6885   0.475   1.764   4.125
 2316TIP3   OH2 6886   1.243   1.041   3.766
 2316TIP3    H1 6887   1.217   0.997   3.848
 2316TIP3    H2 6888   1.287   1.122   3.799
 2317TIP3   OH2 6889   0.201   1.042   4.200
 2317TIP3    H1 6890   0.257   1.121   4.206
 2317TIP3    H2 6891   0.225   1.005   4.115
 2318TIP3   OH2 6892   0.261   1.907   4.299
 2318TIP3    H1 6893   0.236   1.993   4.260
 2318TIP3    H2 6894   0.183   1.891   4.354
 2319TIP3   OH2 6895   1.098   2.113   3.772
 2319TIP3    H1 6896   1.009   2.103   3.813
 2319TIP3    H2 6897   1.088   2.199   3.727
 2320TIP3   OH2 6898   1.386   1.019   4.139
 2320TIP3    H1 6899   1.297   1.038   4.106
 2320TIP3    H2 6900   1.443   1.046   4.064
 2321TIP3   OH2 6901   0.702   0.672   4.124
 2321TIP3    H1 6902   0.676   0.579   4.125
 2321TIP3    H2 6903   0.617   0.713   4.154
 2322TIP3   OH2 6904   0.799   2.158   3.449
 2322TIP3    H1 6905   0.847   2.075   3.428
 2322TIP3    H2 6906   0.861   2.223   3.408
 2323TIP3   OH2 6907   0.941   1.944   3.355
 2323TIP3    H1 6908   0.932   1.863   3.302
 2323TIP3    H2 6909   0.975   1.908   3.440
 2324TIP3   OH2 6910   1.324   2.024   4.116
 2324TIP3    H1 6911   1.309   1.946   4.058
 2324TIP3    H2 6912   1.304   2.098   4.055
 2325TIP3   OH2 6913   1.519   1.666   3.963
 2325TIP3    H1 6914   1.434   1.714   3.968
 2325TIP3    H2 6915   1.547   1.690   3.871
 2326TIP3   OH2 6916   0.967   1.508   3.344
 2326TIP3    H1 6917   0.905   1.527   3.419
 2326TIP3    H2 6918   1.043   1.472   3.392
 2327TIP3   OH2 6919   1.197   1.541   4.256
 2327TIP3    H1 6920   1.191   1.623   4.308
 2327TIP3    H2 6921   1.109   1.541   4.212
 2328TIP3   OH2 6922   0.192   1.492   3.761
 2328TIP3    H1 6923   0.168   1.447   3.678
 2328TIP3    H2 6924   0.273   1.445   3.789
 2329TIP3   OH2 6925   0.324   1.906   3.910
 2329TIP3    H1 6926   0.307   1.868   3.823
 2329TIP3    H2 6927   0.414   1.873   3.929
 2330TIP3   OH2 6928   0.329   1.474   4.111
 2330TIP3    H1 6929   0.367   1.454   4.024
 2330TIP3    H2 6930   0.373   1.557   4.136
 2331TIP3   OH2 6931   0.858   2.107   3.894
 2331TIP3    H1 6932   0.843   2.187   3.948
 2331TIP3    H2 6933   0.841   2.034   3.957
 2332TIP3   OH2 6934   0.468   2.028   4.440
 2332TIP3    H1 6935   0.406   2.089   4.486
 2332TIP3    H2 6936   0.403   1.973   4.390
 2333TIP3   OH2 6937   0.239   1.594   4.528
 2333TIP3    H1 6938   0.234   1.678   4.578
 2333TIP3    H2 6939   0.148   1.559   4.542
 2334TIP3   OH2 6940   0.545   2.040   3.440
 2334TIP3    H1 6941   0.625   2.091   3.460
 2334TIP3    H2 6942   0.482   2.109   3.413
 2335TIP3   OH2 6943   0.262   2.197   4.530
 2335TIP3    H1 6944   0.227   2.199   4.439
 2335TIP3    H2 6945   0.181   2.177   4.582
 2336TIP3   OH2 6946   1.122   1.978   2.768
 2336TIP3    H1 6947   1.124   2.076   2.756
 2336TIP3    H2 6948   1.216   1.956   2.755
 2337TIP3   OH2 6949  -0.136   1.715   4.465
 2337TIP3    H1 6950  -0.208   1.698   4.404
 2337TIP3    H2 6951  -0.124   1.628   4.506
 2338TIP3   OH2 6952  -0.297   1.938   4.088
 2338TIP3    H1 6953  -0.209   1.899   4.083
 2338TIP3    H2 6954  -0.287   1.998   4.163
 2339TIP3   OH2 6955   1.561   2.369   4.165
 2339TIP3    H1 6956   1.558   2.273   4.179
 2339TIP3    H2 6957   1.477   2.396   4.210
 2340TIP3   OH2 6958   0.666   2.154   4.298
 2340TIP3    H1 6959   0.664   2.247   4.330
 2340TIP3    H2 6960   0.593   2.115   4.351
 2341TIP3   OH2 6961   0.430   2.283   3.258
 2341TIP3    H1 6962   0.390   2.265   3.170
 2341TIP3    H2 6963   0.396   2.371   3.279
 2342TIP3   OH2 6964  -0.137   2.143   3.627
 2342TIP3    H1 6965  -0.102   2.116   3.715
 2342TIP3    H2 6966  -0.188   2.063   3.600
 2343TIP3   OH2 6967   0.633   2.178   2.896
 2343TIP3    H1 6968   0.695   2.111   2.859
 2343TIP3    H2 6969   0.666   2.190   2.987
 2344TIP3   OH2 6970   0.681   2.233   3.164
 2344TIP3    H1 6971   0.591   2.244   3.203
 2344TIP3    H2 6972   0.727   2.192   3.239
 2345TIP3   OH2 6973   1.451   1.503   4.434
 2345TIP3    H1 6974   1.365   1.511   4.389
 2345TIP3    H2 6975   1.467   1.407   4.427
 2346TIP3   OH2 6976   0.045   1.917   4.471
 2346TIP3    H1 6977   0.101   1.889   4.546
 2346TIP3    H2 6978  -0.023   1.846   4.470
 2347TIP3   OH2 6979   0.450   0.756   4.205
 2347TIP3    H1 6980   0.372   0.698   4.202
 2347TIP3    H2 6981   0.426   0.816   4.278
 2348TIP3   OH2 6982   1.015   0.852   4.431
 2348TIP3    H1 6983   1.077   0.818   4.498
 2348TIP3    H2 6984   0.927   0.834   4.472
 2349TIP3   OH2 6985   1.222   1.279   4.366
 2349TIP3    H1 6986   1.170   1.273   4.449
 2349TIP3    H2 6987   1.190   1.363   4.327
 2350TIP3   OH2 6988   0.377   1.249   4.257
 2350TIP3    H1 6989   0.331   1.269   4.341
 2350TIP3    H2 6990   0.360   1.331   4.207
 2351TIP3   OH2 6991   0.774   1.257   3.498
 2351TIP3    H1 6992   0.683   1.268   3.467
 2351TIP3    H2 6993   0.821   1.242   3.414
 2352TIP3   OH2 6994   0.926   1.499   4.597
 2352TIP3    H1 6995   0.902   1.425   4.657
 2352TIP3    H2 6996   1.021   1.508   4.617
 2353TIP3   OH2 6997   0.909   1.258   3.746
 2353TIP3    H1 6998   0.856   1.285   3.668
 2353TIP3    H2 6999   0.945   1.174   3.709
 2354TIP3   OH2 7000   0.203   1.285   4.468
 2354TIP3    H1 7001   0.237   1.340   4.540
 2354TIP3    H2 7002   0.180   1.203   4.514
 2355TIP3   OH2 7003   0.922   1.494   4.168
 2355TIP3    H1 7004   0.954   1.421   4.109
 2355TIP3    H2 7005   0.891   1.440   4.245
 2356TIP3   OH2 7006   0.580   0.989   3.862
 2356TIP3    H1 7007   0.518   0.920   3.889
 2356TIP3    H2 7008   0.665   0.953   3.895
 2357TIP3   OH2 7009   1.080   1.031   4.043
 2357TIP3    H1 7010   1.046   1.043   4.134
 2357TIP3    H2 7011   1.013   0.969   4.008
 2358TIP3   OH2 7012   1.251   2.719   4.262
 2358TIP3    H1 7013   1.248   2.744   4.168
 2358TIP3    H2 7014   1.330   2.769   4.293
 2359TIP3   OH2 7015   0.209   1.833   4.682
 2359TIP3    H1 7016   0.289   1.859   4.731
 2359TIP3    H2 7017   0.144   1.828   4.755
 2360TIP3   OH2 7018   0.672   1.295   3.943
 2360TIP3    H1 7019   0.728   1.236   3.890
 2360TIP3    H2 7020   0.669   1.246   4.028
 2361TIP3   OH2 7021   0.650   1.192   4.213
 2361TIP3    H1 7022   0.559   1.219   4.238
 2361TIP3    H2 7023   0.706   1.245   4.273
 2362TIP3   OH2 7024   1.284   1.806   3.952
 2362TIP3    H1 7025   1.304   1.856   3.871
 2362TIP3    H2 7026   1.199   1.762   3.928
 2363TIP3   OH2 7027   0.788   1.892   4.318
 2363TIP3    H1 7028   0.805   1.863   4.409
 2363TIP3    H2 7029   0.745   1.978   4.331
 2364TIP3   OH2 7030   0.072   1.589   4.001
 2364TIP3    H1 7031   0.105   1.558   3.914
 2364TIP3    H2 7032   0.123   1.532   4.062
 2365TIP3   OH2 7033   0.521   1.714   3.150
 2365TIP3    H1 7034   0.490   1.807   3.143
 2365TIP3    H2 7035   0.466   1.680   3.222
 2366TIP3   OH2 7036  -0.001   1.482   4.615
 2366TIP3    H1 7037   0.034   1.501   4.705
 2366TIP3    H2 7038  -0.097   1.480   4.633
 2367TIP3   OH2 7039   0.684   1.631   4.628
 2367TIP3    H1 7040   0.623   1.566   4.589
 2367TIP3    H2 7041   0.771   1.593   4.603
 2368TIP3   OH2 7042   0.945   2.153   4.216
 2368TIP3    H1 7043   0.849   2.146   4.229
 2368TIP3    H2 7044   0.970   2.204   4.295
 2369TIP3   OH2 7045   1.355   1.209   3.086
 2369TIP3    H1 7046   1.267   1.170   3.089
 2369TIP3    H2 7047   1.334   1.302   3.064
 2370TIP3   OH2 7048   1.574   2.079   4.205
 2370TIP3    H1 7049   1.476   2.073   4.198
 2370TIP3    H2 7050   1.599   2.049   4.115
 2371TIP3   OH2 7051   1.067   2.036   3.040
 2371TIP3    H1 7052   1.020   1.975   3.097
 2371TIP3    H2 7053   1.060   1.994   2.952
 2372TIP3   OH2 7054   1.051   1.669   3.870
 2372TIP3    H1 7055   0.958   1.643   3.884
 2372TIP3    H2 7056   1.084   1.588   3.825
 2373TIP3   OH2 7057   0.172   1.896   3.626
 2373TIP3    H1 7058   0.172   1.989   3.590
 2373TIP3    H2 7059   0.086   1.894   3.668
 2374TIP3   OH2 7060   0.342   1.673   3.605
 2374TIP3    H1 7061   0.295   1.758   3.598
 2374TIP3    H2 7062   0.282   1.621   3.659
 2375TIP3   OH2 7063   0.447   2.240   4.093
 2375TIP3    H1 7064   0.488   2.313   4.042
 2375TIP3    H2 7065   0.525   2.204   4.139
 2376TIP3   OH2 7066   0.117   2.139   3.516
 2376TIP3    H1 7067   0.022   2.151   3.536
 2376TIP3    H2 7068   0.141   2.230   3.490
 2377TIP3   OH2 7069   0.835   1.874   4.051
 2377TIP3    H1 7070   0.825   1.873   4.149
 2377TIP3    H2 7071   0.913   1.818   4.040
 2378TIP3   OH2 7072   0.830   1.790   2.945
 2378TIP3    H1 7073   0.868   1.766   3.032
 2378TIP3    H2 7074   0.740   1.752   2.953
 2379TIP3   OH2 7075   1.084   2.407   4.102
 2379TIP3    H1 7076   1.005   2.351   4.096
 2379TIP3    H2 7077   1.067   2.471   4.029
 2380TIP3   OH2 7078   1.152   2.251   2.753
 2380TIP3    H1 7079   1.186   2.326   2.702
 2380TIP3    H2 7080   1.071   2.293   2.789
 2381TIP3   OH2 7081   0.970   1.723   3.173
 2381TIP3    H1 7082   0.953   1.647   3.232
 2381TIP3    H2 7083   1.061   1.700   3.144
 2382TIP3   OH2 7084  -0.119   2.098   4.255
 2382TIP3    H1 7085  -0.057   2.031   4.290
 2382TIP3    H2 7086  -0.091   2.176   4.304
 2383TIP3   OH2 7087   1.007   1.092   4.303
 2383TIP3    H1 7088   1.090   1.126   4.340
 2383TIP3    H2 7089   0.999   1.006   4.350
 2384TIP3   OH2 7090   0.402   1.954   3.149
 2384TIP3    H1 7091   0.346   1.973   3.226
 2384TIP3    H2 7092   0.398   2.039   3.101
 2385TIP3   OH2 7093   0.846   1.334   4.375
 2385TIP3    H1 7094   0.868   1.381   4.458
 2385TIP3    H2 7095   0.897   1.251   4.385
 2386TIP3   OH2 7096   1.486   1.233   4.348
 2386TIP3    H1 7097   1.390   1.237   4.365
 2386TIP3    H2 7098   1.485   1.172   4.272
 2387TIP3   OH2 7099   1.137   1.428   3.744
 2387TIP3    H1 7100   1.059   1.371   3.756
 2387TIP3    H2 7101   1.206   1.378   3.793
 2388TIP3   OH2 7102   1.105   2.383   3.694
 2388TIP3    H1 7103   1.061   2.430   3.619
 2388TIP3    H2 7104   1.199   2.402   3.673
 2389TIP3   OH2 7105  -0.100   2.427   4.648
 2389TIP3    H1 7106  -0.023   2.429   4.708
 2389TIP3    H2 7107  -0.137   2.341   4.668
 2390TIP3   OH2 7108   0.367   2.371   4.721
 2390TIP3    H1 7109   0.459   2.341   4.718
 2390TIP3    H2 7110   0.328   2.317   4.649
 2391TIP3   OH2 7111   0.992   2.285   4.456
 2391TIP3    H1 7112   0.986   2.213   4.522
 2391TIP3    H2 7113   1.073   2.333   4.484
 2392TIP3   OH2 7114   0.787   1.994   2.759
 2392TIP3    H1 7115   0.812   1.920   2.819
 2392TIP3    H2 7116   0.856   1.989   2.691
 2393TIP3   OH2 7117   0.003   1.811   4.869
 2393TIP3    H1 7118   0.035   1.718   4.874
 2393TIP3    H2 7119  -0.092   1.797   4.862
 2394TIP3   OH2 7120   0.614   1.904   4.647
 2394TIP3    H1 7121   0.572   1.919   4.561
 2394TIP3    H2 7122   0.645   1.811   4.641
 2395TIP3   OH2 7123   1.107   1.911   4.255
 2395TIP3    H1 7124   1.181   1.958   4.212
 2395TIP3    H2 7125   1.034   1.974   4.241
 2396TIP3   OH2 7126   0.114   1.555   4.858
 2396TIP3    H1 7127   0.176   1.480   4.853
 2396TIP3    H2 7128   0.131   1.578   4.952
 2397TIP3   OH2 7129   0.464   1.435   4.515
 2397TIP3    H1 7130   0.389   1.499   4.516
 2397TIP3    H2 7131   0.517   1.470   4.439
 2398TIP3   OH2 7132   0.982   1.841   4.653
 2398TIP3    H1 7133   1.056   1.806   4.603
 2398TIP3    H2 7134   0.972   1.773   4.723
 2399TIP3   OH2 7135   0.585   1.219   4.636
 2399TIP3    H1 7136   0.593   1.142   4.575
 2399TIP3    H2 7137   0.543   1.287   4.579
 2400TIP3   OH2 7138   0.604   1.022   4.446
 2400TIP3    H1 7139   0.625   1.052   4.356
 2400TIP3    H2 7140   0.515   0.982   4.434
 2401TIP3   OH2 7141   0.613   1.547   4.322
 2401TIP3    H1 7142   0.697   1.553   4.276
 2401TIP3    H2 7143   0.558   1.614   4.277
 2402TIP3   OH2 7144   1.194   1.513   4.704
 2402TIP3    H1 7145   1.236   1.428   4.724
 2402TIP3    H2 7146   1.268   1.565   4.669
 2403TIP3   OH2 7147   1.237   1.769   4.445
 2403TIP3    H1 7148   1.179   1.821   4.384
 2403TIP3    H2 7149   1.324   1.787   4.404
 2404TIP3   OH2 7150   0.490   1.340   4.864
 2404TIP3    H1 7151   0.398   1.320   4.890
 2404TIP3    H2 7152   0.502   1.291   4.780
 2405TIP3   OH2 7153   0.759   0.795   4.490
 2405TIP3    H1 7154   0.699   0.872   4.482
 2405TIP3    H2 7155   0.694   0.723   4.495
 2406TIP3   OH2 7156   0.842   1.281   4.734
 2406TIP3    H1 7157   0.830   1.263   4.829
 2406TIP3    H2 7158   0.753   1.253   4.703
 2407TIP3   OH2 7159   1.085   1.232   4.592
 2407TIP3    H1 7160   1.008   1.228   4.653
 2407TIP3    H2 7161   1.157   1.196   4.648
 2408TIP3   OH2 7162   1.320   1.169   4.738
 2408TIP3    H1 7163   1.329   1.073   4.757
 2408TIP3    H2 7164   1.311   1.208   4.828
 2409TIP3   OH2 7165   0.805   0.778   4.762
 2409TIP3    H1 7166   0.879   0.715   4.768
 2409TIP3    H2 7167   0.792   0.781   4.665
 2410TIP3   OH2 7168   0.883   1.002   4.913
 2410TIP3    H1 7169   0.849   0.927   4.860
 2410TIP3    H2 7170   0.802   1.058   4.922
 2411TIP3   OH2 7171  -0.394   2.092   3.864
 2411TIP3    H1 7172  -0.377   2.012   3.916
 2411TIP3    H2 7173  -0.332   2.153   3.908
 2412TIP3   OH2 7174   1.361   2.468   3.652
 2412TIP3    H1 7175   1.382   2.503   3.741
 2412TIP3    H2 7176   1.417   2.523   3.595
 2413TIP3   OH2 7177   1.386   2.493   3.933
 2413TIP3    H1 7178   1.342   2.406   3.930
 2413TIP3    H2 7179   1.460   2.472   3.991
 2414TIP3   OH2 7180   1.433   2.171   4.507
 2414TIP3    H1 7181   1.361   2.179   4.572
 2414TIP3    H2 7182   1.475   2.259   4.512
 2415TIP3   OH2 7183   1.257   1.677   3.122
 2415TIP3    H1 7184   1.319   1.751   3.109
 2415TIP3    H2 7185   1.290   1.640   3.207
 2416TIP3   OH2 7186   1.377   1.549   3.333
 2416TIP3    H1 7187   1.308   1.505   3.389
 2416TIP3    H2 7188   1.435   1.589   3.400
 2417TIP3   OH2 7189   1.436   1.944   3.765
 2417TIP3    H1 7190   1.486   1.881   3.711
 2417TIP3    H2 7191   1.423   2.018   3.702
 2418TIP3   OH2 7192   1.262   2.244   3.957
 2418TIP3    H1 7193   1.191   2.286   4.009
 2418TIP3    H2 7194   1.211   2.197   3.887
 2419TIP3   OH2 7195   1.291   1.456   2.966
 2419TIP3    H1 7196   1.199   1.452   2.934
 2419TIP3    H2 7197   1.282   1.534   3.026
 2420TIP3   OH2 7198   1.196   1.404   3.476
 2420TIP3    H1 7199   1.185   1.307   3.468
 2420TIP3    H2 7200   1.179   1.417   3.573
 2421TIP3   OH2 7201  -0.177   1.472   4.239
 2421TIP3    H1 7202  -0.178   1.489   4.145
 2421TIP3    H2 7203  -0.080   1.479   4.257
 2422TIP3   OH2 7204   1.481   1.833   4.335
 2422TIP3    H1 7205   1.552   1.766   4.324
 2422TIP3    H2 7206   1.507   1.901   4.271
 2423TIP3   OH2 7207   1.668   1.637   4.344
 2423TIP3    H1 7208   1.592   1.588   4.383
 2423TIP3    H2 7209   1.740   1.572   4.362
 2424TIP3   OH2 7210   1.186   1.139   3.390
 2424TIP3    H1 7211   1.225   1.055   3.426
 2424TIP3    H2 7212   1.250   1.155   3.320
 2425TIP3   OH2 7213   1.348   1.295   3.867
 2425TIP3    H1 7214   1.434   1.321   3.828
 2425TIP3    H2 7215   1.360   1.332   3.957
 2426TIP3   OH2 7216   1.418   1.442   4.096
 2426TIP3    H1 7217   1.341   1.472   4.147
 2426TIP3    H2 7218   1.449   1.525   4.055
 2427TIP3   OH2 7219   1.865   1.034   4.651
 2427TIP3    H1 7220   1.928   0.969   4.615
 2427TIP3    H2 7221   1.842   1.088   4.572
 2428TIP3   OH2 7222   1.312   0.911   3.449
 2428TIP3    H1 7223   1.332   0.862   3.531
 2428TIP3    H2 7224   1.274   0.843   3.389
 2429TIP3   OH2 7225   1.742   1.175   4.451
 2429TIP3    H1 7226   1.657   1.213   4.481
 2429TIP3    H2 7227   1.709   1.099   4.400
 2430TIP3   OH2 7228   0.945   2.338   3.310
 2430TIP3    H1 7229   0.995   2.329   3.226
 2430TIP3    H2 7230   0.993   2.410   3.355
 2431TIP3   OH2 7231   0.040   2.146   4.702
 2431TIP3    H1 7232  -0.015   2.073   4.671
 2431TIP3    H2 7233   0.049   2.129   4.797
 2432TIP3   OH2 7234   0.221   2.178   4.243
 2432TIP3    H1 7235   0.173   2.254   4.203
 2432TIP3    H2 7236   0.306   2.192   4.198
 2433TIP3   OH2 7237   0.666   2.420   4.382
 2433TIP3    H1 7238   0.709   2.424   4.470
 2433TIP3    H2 7239   0.730   2.471   4.328
 2434TIP3   OH2 7240   0.843   2.573   4.240
 2434TIP3    H1 7241   0.913   2.523   4.195
 2434TIP3    H2 7242   0.896   2.630   4.300
 2435TIP3   OH2 7243   1.641   0.934   4.337
 2435TIP3    H1 7244   1.549   0.922   4.308
 2435TIP3    H2 7245   1.674   0.841   4.330
 2436TIP3   OH2 7246  -0.104   2.431   4.268
 2436TIP3    H1 7247  -0.194   2.462   4.243
 2436TIP3    H2 7248  -0.095   2.472   4.355
 2437TIP3   OH2 7249   0.134   2.413   4.125
 2437TIP3    H1 7250   0.047   2.426   4.169
 2437TIP3    H2 7251   0.115   2.445   4.034
 2438TIP3   OH2 7252   0.559   2.440   3.921
 2438TIP3    H1 7253   0.489   2.458   3.856
 2438TIP3    H2 7254   0.570   2.529   3.962
 2439TIP3   OH2 7255   0.828   2.380   3.974
 2439TIP3    H1 7256   0.733   2.397   3.954
 2439TIP3    H2 7257   0.870   2.456   3.930
 2440TIP3   OH2 7258   1.036   2.572   3.888
 2440TIP3    H1 7259   1.021   2.656   3.840
 2440TIP3    H2 7260   1.061   2.512   3.814
 2441TIP3   OH2 7261  -0.189   2.228   4.004
 2441TIP3    H1 7262  -0.174   2.202   4.097
 2441TIP3    H2 7263  -0.120   2.176   3.959
 2442TIP3   OH2 7264   0.001   2.090   3.864
 2442TIP3    H1 7265   0.020   2.012   3.921
 2442TIP3    H2 7266   0.089   2.133   3.859
 2443TIP3   OH2 7267   0.268   2.194   3.872
 2443TIP3    H1 7268   0.300   2.103   3.859
 2443TIP3    H2 7269   0.313   2.215   3.956
 2444TIP3   OH2 7270   0.843   0.858   3.959
 2444TIP3    H1 7271   0.800   0.791   4.016
 2444TIP3    H2 7272   0.910   0.805   3.911
 2445TIP3   OH2 7273   1.368   0.731   3.873
 2445TIP3    H1 7274   1.410   0.779   3.798
 2445TIP3    H2 7275   1.273   0.746   3.856
 2446TIP3   OH2 7276   1.491   0.833   3.648
 2446TIP3    H1 7277   1.557   0.787   3.593
 2446TIP3    H2 7278   1.504   0.926   3.621
 2447TIP3   OH2 7279   1.087   0.736   3.836
 2447TIP3    H1 7280   1.090   0.697   3.747
 2447TIP3    H2 7281   1.076   0.655   3.891
 2448TIP3   OH2 7282   0.377   2.191   3.000
 2448TIP3    H1 7283   0.461   2.193   2.949
 2448TIP3    H2 7284   0.313   2.163   2.932
 2449TIP3   OH2 7285   1.091   2.307   3.076
 2449TIP3    H1 7286   1.084   2.209   3.066
 2449TIP3    H2 7287   1.040   2.337   2.998
 2450TIP3   OH2 7288   1.377   0.898   4.773
 2450TIP3    H1 7289   1.395   0.868   4.865
 2450TIP3    H2 7290   1.466   0.893   4.733
 2451TIP3   OH2 7291   1.313   2.451   4.263
 2451TIP3    H1 7292   1.235   2.419   4.214
 2451TIP3    H2 7293   1.294   2.546   4.268
 2452TIP3   OH2 7294   2.565   1.823   3.050
 2452TIP3    H1 7295   2.543   1.913   3.019
 2452TIP3    H2 7296   2.503   1.771   2.996
 2453TIP3   OH2 7297   2.518   1.776   3.457
 2453TIP3    H1 7298   2.607   1.774   3.502
 2453TIP3    H2 7299   2.546   1.749   3.367
 2454TIP3   OH2 7300   1.904   1.719   3.756
 2454TIP3    H1 7301   1.924   1.646   3.819
 2454TIP3    H2 7302   1.940   1.794   3.806
 2455TIP3   OH2 7303   2.805   2.133   3.096
 2455TIP3    H1 7304   2.837   2.054   3.142
 2455TIP3    H2 7305   2.847   2.205   3.146
 2456TIP3   OH2 7306   1.850   2.130   3.498
 2456TIP3    H1 7307   1.842   2.032   3.502
 2456TIP3    H2 7308   1.946   2.141   3.497
 2457TIP3   OH2 7309   1.564   1.344   3.278
 2457TIP3    H1 7310   1.505   1.419   3.298
 2457TIP3    H2 7311   1.503   1.270   3.281
 2458TIP3   OH2 7312   1.617   1.621   3.461
 2458TIP3    H1 7313   1.662   1.541   3.497
 2458TIP3    H2 7314   1.674   1.644   3.387
 2459TIP3   OH2 7315   2.469   2.587   3.108
 2459TIP3    H1 7316   2.515   2.515   3.060
 2459TIP3    H2 7317   2.466   2.552   3.198
 2460TIP3   OH2 7318   2.376   2.035   3.471
 2460TIP3    H1 7319   2.412   1.981   3.400
 2460TIP3    H2 7320   2.454   2.092   3.490
 2461TIP3   OH2 7321   3.385   1.367   3.454
 2461TIP3    H1 7322   3.423   1.445   3.499
 2461TIP3    H2 7323   3.417   1.379   3.363
 2462TIP3   OH2 7324   2.778   1.543   3.496
 2462TIP3    H1 7325   2.828   1.460   3.510
 2462TIP3    H2 7326   2.761   1.538   3.400
 2463TIP3   OH2 7327   2.126   1.216   3.460
 2463TIP3    H1 7328   2.104   1.281   3.391
 2463TIP3    H2 7329   2.084   1.136   3.421
 2464TIP3   OH2 7330   2.823   1.301   3.076
 2464TIP3    H1 7331   2.894   1.288   3.143
 2464TIP3    H2 7332   2.874   1.342   3.005
 2465TIP3   OH2 7333   1.760   1.412   3.559
 2465TIP3    H1 7334   1.836   1.383   3.613
 2465TIP3    H2 7335   1.769   1.351   3.483
 2466TIP3   OH2 7336   2.207   1.594   3.362
 2466TIP3    H1 7337   2.288   1.569   3.317
 2466TIP3    H2 7338   2.150   1.516   3.342
 2467TIP3   OH2 7339   3.475   1.569   3.628
 2467TIP3    H1 7340   3.429   1.647   3.595
 2467TIP3    H2 7341   3.495   1.594   3.720
 2468TIP3   OH2 7342   2.126   1.195   3.891
 2468TIP3    H1 7343   2.059   1.226   3.829
 2468TIP3    H2 7344   2.076   1.205   3.976
 2469TIP3   OH2 7345   2.457   2.033   2.905
 2469TIP3    H1 7346   2.441   2.033   2.809
 2469TIP3    H2 7347   2.425   2.123   2.929
 2470TIP3   OH2 7348   2.255   1.923   3.684
 2470TIP3    H1 7349   2.184   1.969   3.734
 2470TIP3    H2 7350   2.277   1.996   3.623
 2471TIP3   OH2 7351   3.030   1.302   3.249
 2471TIP3    H1 7352   3.042   1.248   3.328
 2471TIP3    H2 7353   3.083   1.381   3.270
 2472TIP3   OH2 7354   1.989   1.312   3.679
 2472TIP3    H1 7355   2.036   1.394   3.701
 2472TIP3    H2 7356   2.043   1.274   3.606
 2473TIP3   OH2 7357   2.063   2.153   3.780
 2473TIP3    H1 7358   2.041   2.240   3.742
 2473TIP3    H2 7359   1.984   2.140   3.837
 2474TIP3   OH2 7360   1.462   1.853   3.018
 2474TIP3    H1 7361   1.397   1.886   2.953
 2474TIP3    H2 7362   1.488   1.939   3.060
 2475TIP3   OH2 7363   2.892   2.368   3.261
 2475TIP3    H1 7364   2.801   2.360   3.298
 2475TIP3    H2 7365   2.886   2.454   3.215
 2476TIP3   OH2 7366   3.178   1.277   3.623
 2476TIP3    H1 7367   3.091   1.292   3.581
 2476TIP3    H2 7368   3.241   1.304   3.553
 2477TIP3   OH2 7369   2.477   0.910   3.606
 2477TIP3    H1 7370   2.467   0.814   3.627
 2477TIP3    H2 7371   2.399   0.946   3.653
 2478TIP3   OH2 7372   2.591   2.413   2.932
 2478TIP3    H1 7373   2.640   2.330   2.911
 2478TIP3    H2 7374   2.653   2.478   2.893
 2479TIP3   OH2 7375   2.728   2.195   2.839
 2479TIP3    H1 7376   2.726   2.113   2.788
 2479TIP3    H2 7377   2.763   2.164   2.926
 2480TIP3   OH2 7378   3.114   2.281   3.605
 2480TIP3    H1 7379   3.110   2.206   3.541
 2480TIP3    H2 7380   3.100   2.358   3.546
 2481TIP3   OH2 7381   2.413   1.679   2.862
 2481TIP3    H1 7382   2.338   1.734   2.834
 2481TIP3    H2 7383   2.464   1.671   2.779
 2482TIP3   OH2 7384   2.369   1.460   2.580
 2482TIP3    H1 7385   2.437   1.512   2.627
 2482TIP3    H2 7386   2.428   1.398   2.531
 2483TIP3   OH2 7387   3.322   1.912   3.458
 2483TIP3    H1 7388   3.235   1.958   3.457
 2483TIP3    H2 7389   3.351   1.932   3.366
 2484TIP3   OH2 7390   2.745   1.759   2.836
 2484TIP3    H1 7391   2.701   1.786   2.919
 2484TIP3    H2 7392   2.827   1.720   2.875
 2485TIP3   OH2 7393   1.996   1.747   3.254
 2485TIP3    H1 7394   1.962   1.687   3.185
 2485TIP3    H2 7395   2.071   1.696   3.292
 2486TIP3   OH2 7396   2.120   2.168   3.398
 2486TIP3    H1 7397   2.102   2.126   3.313
 2486TIP3    H2 7398   2.208   2.133   3.421
 2487TIP3   OH2 7399   2.649   2.362   3.381
 2487TIP3    H1 7400   2.637   2.447   3.428
 2487TIP3    H2 7401   2.632   2.296   3.450
 2488TIP3   OH2 7402   2.264   2.280   3.928
 2488TIP3    H1 7403   2.204   2.342   3.974
 2488TIP3    H2 7404   2.199   2.227   3.878
 2489TIP3   OH2 7405   2.592   1.620   2.658
 2489TIP3    H1 7406   2.653   1.677   2.710
 2489TIP3    H2 7407   2.621   1.640   2.566
 2490TIP3   OH2 7408   2.009   1.843   4.020
 2490TIP3    H1 7409   2.019   1.928   4.067
 2490TIP3    H2 7410   1.919   1.818   4.049
 2491TIP3   OH2 7411   2.340   2.296   2.933
 2491TIP3    H1 7412   2.424   2.345   2.945
 2491TIP3    H2 7413   2.282   2.363   2.897
 2492TIP3   OH2 7414   2.060   2.447   4.014
 2492TIP3    H1 7415   2.023   2.451   3.924
 2492TIP3    H2 7416   1.980   2.427   4.068
 2493TIP3   OH2 7417   1.862   1.594   3.050
 2493TIP3    H1 7418   1.782   1.646   3.032
 2493TIP3    H2 7419   1.827   1.510   3.083
 2494TIP3   OH2 7420   2.913   2.222   2.257
 2494TIP3    H1 7421   2.922   2.319   2.240
 2494TIP3    H2 7422   3.006   2.192   2.241
 2495TIP3   OH2 7423   1.639   1.980   3.961
 2495TIP3    H1 7424   1.568   1.961   3.896
 2495TIP3    H2 7425   1.670   1.891   3.985
 2496TIP3   OH2 7426   1.491   2.176   3.591
 2496TIP3    H1 7427   1.588   2.177   3.589
 2496TIP3    H2 7428   1.473   2.255   3.645
 2497TIP3   OH2 7429   3.357   2.627   3.651
 2497TIP3    H1 7430   3.354   2.530   3.665
 2497TIP3    H2 7431   3.273   2.654   3.696
 2498TIP3   OH2 7432   2.462   2.409   3.784
 2498TIP3    H1 7433   2.462   2.502   3.816
 2498TIP3    H2 7434   2.390   2.371   3.840
 2499TIP3   OH2 7435   2.222   2.538   2.738
 2499TIP3    H1 7436   2.179   2.526   2.652
 2499TIP3    H2 7437   2.192   2.627   2.764
 2500TIP3   OH2 7438   1.661   2.389   3.120
 2500TIP3    H1 7439   1.711   2.381   3.205
 2500TIP3    H2 7440   1.592   2.323   3.136
 2501TIP3   OH2 7441   2.424   2.440   2.376
 2501TIP3    H1 7442   2.484   2.371   2.339
 2501TIP3    H2 7443   2.460   2.452   2.466
 2502TIP3   OH2 7444   2.474   2.490   2.645
 2502TIP3    H1 7445   2.387   2.499   2.690
 2502TIP3    H2 7446   2.529   2.455   2.718
 2503TIP3   OH2 7447   1.845   2.161   3.945
 2503TIP3    H1 7448   1.892   2.150   4.030
 2503TIP3    H2 7449   1.769   2.100   3.955
 2504TIP3   OH2 7450   2.241   0.994   3.732
 2504TIP3    H1 7451   2.154   0.958   3.703
 2504TIP3    H2 7452   2.208   1.067   3.789
 2505TIP3   OH2 7453   2.775   1.100   3.928
 2505TIP3    H1 7454   2.846   1.074   3.990
 2505TIP3    H2 7455   2.694   1.078   3.979
 2506TIP3   OH2 7456   2.671   1.663   2.404
 2506TIP3    H1 7457   2.640   1.638   2.315
 2506TIP3    H2 7458   2.756   1.706   2.382
 2507TIP3   OH2 7459   2.377   1.046   2.700
 2507TIP3    H1 7460   2.354   1.038   2.795
 2507TIP3    H2 7461   2.354   0.956   2.671
 2508TIP3   OH2 7462   2.049   1.395   3.265
 2508TIP3    H1 7463   1.960   1.358   3.285
 2508TIP3    H2 7464   2.067   1.351   3.179
 2509TIP3   OH2 7465   2.545   1.472   2.992
 2509TIP3    H1 7466   2.498   1.546   2.947
 2509TIP3    H2 7467   2.607   1.443   2.922
 2510TIP3   OH2 7468   2.724   1.754   4.082
 2510TIP3    H1 7469   2.700   1.680   4.142
 2510TIP3    H2 7470   2.818   1.766   4.105
 2511TIP3   OH2 7471   2.707   1.510   3.225
 2511TIP3    H1 7472   2.648   1.533   3.151
 2511TIP3    H2 7473   2.743   1.426   3.190
 2512TIP3   OH2 7474   1.986   1.531   3.958
 2512TIP3    H1 7475   1.993   1.594   4.031
 2512TIP3    H2 7476   1.980   1.446   4.006
 2513TIP3   OH2 7477   2.040   0.990   2.682
 2513TIP3    H1 7478   2.040   0.989   2.780
 2513TIP3    H2 7479   1.970   1.055   2.665
 2514TIP3   OH2 7480   1.587   1.072   3.530
 2514TIP3    H1 7481   1.664   1.085   3.589
 2514TIP3    H2 7482   1.620   1.015   3.459
 2515TIP3   OH2 7483   1.588   1.059   3.077
 2515TIP3    H1 7484   1.629   1.070   2.989
 2515TIP3    H2 7485   1.513   1.121   3.074
 2516TIP3   OH2 7486   2.712   1.753   3.647
 2516TIP3    H1 7487   2.745   1.674   3.596
 2516TIP3    H2 7488   2.683   1.706   3.729
 2517TIP3   OH2 7489   2.385   1.224   3.328
 2517TIP3    H1 7490   2.308   1.211   3.386
 2517TIP3    H2 7491   2.459   1.201   3.387
 2518TIP3   OH2 7492   1.821   1.266   3.331
 2518TIP3    H1 7493   1.727   1.274   3.303
 2518TIP3    H2 7494   1.840   1.171   3.316
 2519TIP3   OH2 7495   2.088   1.271   3.027
 2519TIP3    H1 7496   2.184   1.277   3.009
 2519TIP3    H2 7497   2.046   1.291   2.941
 2520TIP3   OH2 7498   2.888   1.290   3.538
 2520TIP3    H1 7499   2.851   1.299   3.629
 2520TIP3    H2 7500   2.825   1.228   3.497
 2521TIP3   OH2 7501   1.925   1.317   2.808
 2521TIP3    H1 7502   1.853   1.259   2.777
 2521TIP3    H2 7503   1.975   1.332   2.725
 2522TIP3   OH2 7504   3.048   2.974   3.750
 2522TIP3    H1 7505   3.046   3.004   3.657
 2522TIP3    H2 7506   3.127   3.023   3.783
 2523TIP3   OH2 7507   2.006   2.084   4.169
 2523TIP3    H1 7508   2.084   2.116   4.219
 2523TIP3    H2 7509   1.940   2.082   4.241
 2524TIP3   OH2 7510   1.995   1.025   3.308
 2524TIP3    H1 7511   1.950   0.952   3.356
 2524TIP3    H2 7512   2.041   0.975   3.239
 2525TIP3   OH2 7513   2.180   1.828   2.808
 2525TIP3    H1 7514   2.103   1.769   2.807
 2525TIP3    H2 7515   2.172   1.867   2.899
 2526TIP3   OH2 7516   3.087   2.060   3.444
 2526TIP3    H1 7517   3.118   2.109   3.364
 2526TIP3    H2 7518   3.002   2.021   3.411
 2527TIP3   OH2 7519   2.638   1.137   2.678
 2527TIP3    H1 7520   2.540   1.127   2.681
 2527TIP3    H2 7521   2.652   1.232   2.698
 2528TIP3   OH2 7522   2.579   2.145   3.808
 2528TIP3    H1 7523   2.605   2.131   3.900
 2528TIP3    H2 7524   2.543   2.235   3.811
 2529TIP3   OH2 7525   2.708   1.388   2.775
 2529TIP3    H1 7526   2.804   1.389   2.795
 2529TIP3    H2 7527   2.696   1.468   2.722
 2530TIP3   OH2 7528   1.876   1.854   3.489
 2530TIP3    H1 7529   1.916   1.814   3.409
 2530TIP3    H2 7530   1.895   1.788   3.559
 2531TIP3   OH2 7531   2.326   1.976   2.625
 2531TIP3    H1 7532   2.278   2.063   2.631
 2531TIP3    H2 7533   2.276   1.924   2.691
 2532TIP3   OH2 7534   1.757   1.763   4.098
 2532TIP3    H1 7535   1.770   1.751   4.194
 2532TIP3    H2 7536   1.684   1.701   4.080
 2533TIP3   OH2 7537   2.477   1.883   4.117
 2533TIP3    H1 7538   2.416   1.816   4.080
 2533TIP3    H2 7539   2.565   1.847   4.091
 2534TIP3   OH2 7540   2.738   2.392   3.709
 2534TIP3    H1 7541   2.642   2.403   3.720
 2534TIP3    H2 7542   2.771   2.451   3.781
 2535TIP3   OH2 7543   3.148   1.479   2.612
 2535TIP3    H1 7544   3.085   1.436   2.551
 2535TIP3    H2 7545   3.147   1.569   2.572
 2536TIP3   OH2 7546   3.368   2.331   3.693
 2536TIP3    H1 7547   3.270   2.329   3.682
 2536TIP3    H2 7548   3.395   2.304   3.602
 2537TIP3   OH2 7549   2.844   2.297   2.518
 2537TIP3    H1 7550   2.833   2.225   2.581
 2537TIP3    H2 7551   2.864   2.251   2.434
 2538TIP3   OH2 7552   2.856   1.936   3.371
 2538TIP3    H1 7553   2.762   1.922   3.359
 2538TIP3    H2 7554   2.891   1.851   3.334
 2539TIP3   OH2 7555   1.973   2.150   3.103
 2539TIP3    H1 7556   1.975   2.234   3.053
 2539TIP3    H2 7557   1.880   2.148   3.130
 2540TIP3   OH2 7558   1.534   1.462   2.838
 2540TIP3    H1 7559   1.549   1.553   2.866
 2540TIP3    H2 7560   1.445   1.448   2.879
 2541TIP3   OH2 7561   2.106   1.914   3.052
 2541TIP3    H1 7562   2.073   2.006   3.067
 2541TIP3    H2 7563   2.072   1.869   3.132
 2542TIP3   OH2 7564   2.244   2.496   3.578
 2542TIP3    H1 7565   2.284   2.571   3.529
 2542TIP3    H2 7566   2.321   2.465   3.629
 2543TIP3   OH2 7567   1.894   2.391   2.961
 2543TIP3    H1 7568   1.809   2.401   3.007
 2543TIP3    H2 7569   1.928   2.483   2.964
 2544TIP3   OH2 7570   2.628   2.115   3.540
 2544TIP3    H1 7571   2.620   2.125   3.637
 2544TIP3    H2 7572   2.723   2.096   3.531
 2545TIP3   OH2 7573   2.608   2.020   2.426
 2545TIP3    H1 7574   2.666   1.997   2.502
 2545TIP3    H2 7575   2.521   1.999   2.465
 2546TIP3   OH2 7576   2.878   2.662   3.586
 2546TIP3    H1 7577   2.795   2.612   3.575
 2546TIP3    H2 7578   2.868   2.731   3.516
 2547TIP3   OH2 7579   2.945   2.498   2.241
 2547TIP3    H1 7580   2.983   2.569   2.187
 2547TIP3    H2 7581   2.865   2.544   2.274
 2548TIP3   OH2 7582   1.965   1.273   4.105
 2548TIP3    H1 7583   1.869   1.279   4.120
 2548TIP3    H2 7584   1.992   1.216   4.179
 2549TIP3   OH2 7585   2.771   1.961   2.644
 2549TIP3    H1 7586   2.760   1.891   2.712
 2549TIP3    H2 7587   2.868   1.955   2.630
 2550TIP3   OH2 7588   1.684   2.357   3.737
 2550TIP3    H1 7589   1.738   2.287   3.778
 2550TIP3    H2 7590   1.705   2.433   3.794
 2551TIP3   OH2 7591   1.967   2.001   2.418
 2551TIP3    H1 7592   2.013   1.917   2.398
 2551TIP3    H2 7593   1.960   1.997   2.516
 2552TIP3   OH2 7594   1.931   2.005   2.694
 2552TIP3    H1 7595   2.006   1.996   2.755
 2552TIP3    H2 7596   1.919   2.103   2.696
 2553TIP3   OH2 7597   1.656   1.722   2.883
 2553TIP3    H1 7598   1.590   1.746   2.954
 2553TIP3    H2 7599   1.650   1.808   2.835
 2554TIP3   OH2 7600   2.802   1.341   3.801
 2554TIP3    H1 7601   2.850   1.382   3.875
 2554TIP3    H2 7602   2.784   1.253   3.841
 2555TIP3   OH2 7603   2.683   1.092   2.957
 2555TIP3    H1 7604   2.670   1.113   2.862
 2555TIP3    H2 7605   2.724   1.174   2.991
 2556TIP3   OH2 7606   2.179   2.203   2.638
 2556TIP3    H1 7607   2.094   2.233   2.677
 2556TIP3    H2 7608   2.203   2.283   2.588
 2557TIP3   OH2 7609   2.366   1.273   3.056
 2557TIP3    H1 7610   2.435   1.341   3.036
 2557TIP3    H2 7611   2.377   1.264   3.154
 2558TIP3   OH2 7612   2.637   1.609   3.861
 2558TIP3    H1 7613   2.665   1.652   3.945
 2558TIP3    H2 7614   2.674   1.520   3.870
 2559TIP3   OH2 7615   2.517   1.000   3.158
 2559TIP3    H1 7616   2.524   1.074   3.221
 2559TIP3    H2 7617   2.577   1.031   3.086
 2560TIP3   OH2 7618   1.920   2.276   2.710
 2560TIP3    H1 7619   1.894   2.347   2.646
 2560TIP3    H2 7620   1.908   2.322   2.796
 2561TIP3   OH2 7621   2.039   1.009   2.955
 2561TIP3    H1 7622   2.040   1.095   3.000
 2561TIP3    H2 7623   2.134   0.985   2.963
 2562TIP3   OH2 7624   3.232   1.524   3.813
 2562TIP3    H1 7625   3.186   1.463   3.872
 2562TIP3    H2 7626   3.272   1.463   3.750
 2563TIP3   OH2 7627   2.920   1.695   3.279
 2563TIP3    H1 7628   2.866   1.639   3.221
 2563TIP3    H2 7629   3.004   1.644   3.279
 2564TIP3   OH2 7630   1.648   1.923   2.704
 2564TIP3    H1 7631   1.681   2.009   2.734
 2564TIP3    H2 7632   1.699   1.915   2.621
 2565TIP3   OH2 7633   1.626   1.200   2.801
 2565TIP3    H1 7634   1.605   1.289   2.836
 2565TIP3    H2 7635   1.536   1.162   2.791
 2566TIP3   OH2 7636   2.901   2.638   3.181
 2566TIP3    H1 7637   2.858   2.685   3.106
 2566TIP3    H2 7638   2.995   2.658   3.160
 2567TIP3   OH2 7639   1.980   0.908   3.711
 2567TIP3    H1 7640   1.946   0.873   3.625
 2567TIP3    H2 7641   1.969   0.830   3.770
 2568TIP3   OH2 7642   1.508   2.113   3.087
 2568TIP3    H1 7643   1.451   2.151   3.155
 2568TIP3    H2 7644   1.478   2.164   3.007
 2569TIP3   OH2 7645   1.673   2.669   4.162
 2569TIP3    H1 7646   1.759   2.670   4.209
 2569TIP3    H2 7647   1.653   2.574   4.161
 2570TIP3   OH2 7648   2.151   2.630   4.209
 2570TIP3    H1 7649   2.247   2.620   4.212
 2570TIP3    H2 7650   2.128   2.570   4.135
 2571TIP3   OH2 7651   2.134   2.209   2.330
 2571TIP3    H1 7652   2.082   2.136   2.369
 2571TIP3    H2 7653   2.211   2.161   2.295
 2572TIP3   OH2 7654   2.795   2.536   3.937
 2572TIP3    H1 7655   2.788   2.469   4.009
 2572TIP3    H2 7656   2.870   2.591   3.968
 2573TIP3   OH2 7657   2.570   2.245   2.243
 2573TIP3    H1 7658   2.621   2.189   2.304
 2573TIP3    H2 7659   2.626   2.247   2.163
 2574TIP3   OH2 7660   1.804   2.076   4.360
 2574TIP3    H1 7661   1.818   1.980   4.369
 2574TIP3    H2 7662   1.716   2.078   4.317
 2575TIP3   OH2 7663   1.812   1.707   2.568
 2575TIP3    H1 7664   1.907   1.686   2.570
 2575TIP3    H2 7665   1.813   1.742   2.477
 2576TIP3   OH2 7666   2.412   2.162   4.135
 2576TIP3    H1 7667   2.368   2.181   4.050
 2576TIP3    H2 7668   2.441   2.069   4.125
 2577TIP3   OH2 7669   2.271   1.918   2.363
 2577TIP3    H1 7670   2.291   1.934   2.457
 2577TIP3    H2 7671   2.285   1.821   2.358
 2578TIP3   OH2 7672   2.903   2.167   3.740
 2578TIP3    H1 7673   2.977   2.215   3.697
 2578TIP3    H2 7674   2.833   2.236   3.735
 2579TIP3   OH2 7675   1.928   1.811   4.341
 2579TIP3    H1 7676   1.993   1.740   4.332
 2579TIP3    H2 7677   1.950   1.845   4.430
 2580TIP3   OH2 7678   1.962   1.606   2.785
 2580TIP3    H1 7679   1.974   1.574   2.877
 2580TIP3    H2 7680   2.018   1.542   2.736
 2581TIP3   OH2 7681   2.269   1.722   3.994
 2581TIP3    H1 7682   2.196   1.747   4.053
 2581TIP3    H2 7683   2.231   1.754   3.911
 2582TIP3   OH2 7684   2.092   1.431   2.617
 2582TIP3    H1 7685   2.073   1.427   2.521
 2582TIP3    H2 7686   2.191   1.431   2.614
 2583TIP3   OH2 7687   2.768   2.091   4.140
 2583TIP3    H1 7688   2.861   2.085   4.117
 2583TIP3    H2 7689   2.762   2.026   4.213
 2584TIP3   OH2 7690   2.906   1.753   2.284
 2584TIP3    H1 7691   2.889   1.708   2.199
 2584TIP3    H2 7692   2.875   1.843   2.260
 2585TIP3   OH2 7693   2.378   1.487   4.130
 2585TIP3    H1 7694   2.381   1.403   4.080
 2585TIP3    H2 7695   2.343   1.549   4.063
 2586TIP3   OH2 7696   2.380   1.274   3.943
 2586TIP3    H1 7697   2.411   1.281   3.853
 2586TIP3    H2 7698   2.286   1.246   3.931
 2587TIP3   OH2 7699   2.992   1.769   4.189
 2587TIP3    H1 7700   3.031   1.685   4.217
 2587TIP3    H2 7701   3.069   1.828   4.193
 2588TIP3   OH2 7702   3.041   1.996   3.888
 2588TIP3    H1 7703   2.978   2.067   3.860
 2588TIP3    H2 7704   3.126   2.044   3.875
 2589TIP3   OH2 7705   2.252   1.596   4.354
 2589TIP3    H1 7706   2.187   1.526   4.377
 2589TIP3    H2 7707   2.293   1.558   4.274
 2590TIP3   OH2 7708   2.513   1.030   4.002
 2590TIP3    H1 7709   2.460   1.111   3.993
 2590TIP3    H2 7710   2.445   0.960   3.994
 2591TIP3   OH2 7711   2.642   1.538   4.222
 2591TIP3    H1 7712   2.637   1.520   4.318
 2591TIP3    H2 7713   2.551   1.512   4.196
 2592TIP3   OH2 7714   2.877   1.469   4.054
 2592TIP3    H1 7715   2.809   1.476   4.124
 2592TIP3    H2 7716   2.957   1.450   4.107
 2593TIP3   OH2 7717   3.108   1.425   4.216
 2593TIP3    H1 7718   3.121   1.330   4.236
 2593TIP3    H2 7719   3.101   1.465   4.305
 2594TIP3   OH2 7720   2.102   1.372   4.414
 2594TIP3    H1 7721   2.103   1.280   4.383
 2594TIP3    H2 7722   2.139   1.360   4.504
 2595TIP3   OH2 7723   2.614   1.046   4.258
 2595TIP3    H1 7724   2.679   0.973   4.260
 2595TIP3    H2 7725   2.572   1.031   4.172
 2596TIP3   OH2 7726   2.679   1.261   4.417
 2596TIP3    H1 7727   2.658   1.187   4.356
 2596TIP3    H2 7728   2.597   1.314   4.414
 2597TIP3   OH2 7729   1.895   2.475   2.519
 2597TIP3    H1 7730   1.992   2.477   2.503
 2597TIP3    H2 7731   1.866   2.531   2.445
 2598TIP3   OH2 7732   1.376   1.878   2.726
 2598TIP3    H1 7733   1.471   1.898   2.721
 2598TIP3    H2 7734   1.374   1.785   2.693
 2599TIP3   OH2 7735   1.296   2.477   3.151
 2599TIP3    H1 7736   1.225   2.418   3.114
 2599TIP3    H2 7737   1.336   2.417   3.218
 2600TIP3   OH2 7738   1.434   2.323   3.335
 2600TIP3    H1 7739   1.413   2.257   3.403
 2600TIP3    H2 7740   1.481   2.389   3.389
 2601TIP3   OH2 7741   3.153   2.732   3.139
 2601TIP3    H1 7742   3.180   2.763   3.228
 2601TIP3    H2 7743   3.218   2.775   3.082
 2602TIP3   OH2 7744   3.182   2.750   3.421
 2602TIP3    H1 7745   3.142   2.661   3.417
 2602TIP3    H2 7746   3.259   2.732   3.477
 2603TIP3   OH2 7747   3.229   2.426   3.995
 2603TIP3    H1 7748   3.156   2.438   4.060
 2603TIP3    H2 7749   3.271   2.514   3.996
 2604TIP3   OH2 7750   3.047   1.941   2.624
 2604TIP3    H1 7751   3.122   1.996   2.592
 2604TIP3    H2 7752   3.080   1.920   2.715
 2605TIP3   OH2 7753   3.225   2.196   3.251
 2605TIP3    H1 7754   3.267   2.126   3.198
 2605TIP3    H2 7755   3.219   2.270   3.187
 2606TIP3   OH2 7756   3.059   2.499   3.447
 2606TIP3    H1 7757   2.987   2.546   3.495
 2606TIP3    H2 7758   3.010   2.454   3.375
 2607TIP3   OH2 7759   3.112   1.716   2.466
 2607TIP3    H1 7760   3.038   1.723   2.402
 2607TIP3    H2 7761   3.087   1.789   2.528
 2608TIP3   OH2 7762   2.976   1.390   2.421
 2608TIP3    H1 7763   2.943   1.426   2.338
 2608TIP3    H2 7764   2.955   1.294   2.410
 2609TIP3   OH2 7765   2.947   1.644   2.982
 2609TIP3    H1 7766   3.004   1.569   2.962
 2609TIP3    H2 7767   3.014   1.717   2.976
 2610TIP3   OH2 7768   1.623   1.735   3.713
 2610TIP3    H1 7769   1.613   1.704   3.620
 2610TIP3    H2 7770   1.721   1.736   3.721
 2611TIP3   OH2 7771   3.279   2.090   3.815
 2611TIP3    H1 7772   3.350   2.022   3.810
 2611TIP3    H2 7773   3.313   2.160   3.755
 2612TIP3   OH2 7774   3.436   1.873   3.859
 2612TIP3    H1 7775   3.405   1.788   3.892
 2612TIP3    H2 7776   3.531   1.851   3.852
 2613TIP3   OH2 7777   2.925   1.123   2.400
 2613TIP3    H1 7778   3.004   1.098   2.452
 2613TIP3    H2 7779   2.857   1.061   2.429
 2614TIP3   OH2 7780   2.979   1.370   2.847
 2614TIP3    H1 7781   3.023   1.284   2.863
 2614TIP3    H2 7782   3.041   1.410   2.784
 2615TIP3   OH2 7783   3.148   1.548   3.337
 2615TIP3    H1 7784   3.234   1.574   3.298
 2615TIP3    H2 7785   3.160   1.583   3.426
 2616TIP3   OH2 7786   1.837   1.430   4.392
 2616TIP3    H1 7787   1.934   1.417   4.393
 2616TIP3    H2 7788   1.808   1.342   4.424
 2617TIP3   OH2 7789   3.658   1.286   4.134
 2617TIP3    H1 7790   3.722   1.219   4.103
 2617TIP3    H2 7791   3.650   1.343   4.056
 2618TIP3   OH2 7792   3.095   1.125   2.893
 2618TIP3    H1 7793   3.144   1.117   2.978
 2618TIP3    H2 7794   3.045   1.042   2.892
 2619TIP3   OH2 7795   1.793   1.112   3.708
 2619TIP3    H1 7796   1.852   1.036   3.723
 2619TIP3    H2 7797   1.856   1.186   3.713
 2620TIP3   OH2 7798   1.595   1.389   3.789
 2620TIP3    H1 7799   1.642   1.386   3.703
 2620TIP3    H2 7800   1.622   1.474   3.825
 2621TIP3   OH2 7801   3.531   1.436   3.934
 2621TIP3    H1 7802   3.457   1.458   3.994
 2621TIP3    H2 7803   3.499   1.354   3.890
 2622TIP3   OH2 7804   3.173   1.077   2.513
 2622TIP3    H1 7805   3.221   0.999   2.483
 2622TIP3    H2 7806   3.243   1.144   2.522
 2623TIP3   OH2 7807   1.579   0.905   3.300
 2623TIP3    H1 7808   1.486   0.902   3.327
 2623TIP3    H2 7809   1.575   0.955   3.216
 2624TIP3   OH2 7810   2.736   2.596   2.795
 2624TIP3    H1 7811   2.788   2.585   2.713
 2624TIP3    H2 7812   2.788   2.662   2.843
 2625TIP3   OH2 7813   1.799   0.975   4.103
 2625TIP3    H1 7814   1.750   0.966   4.186
 2625TIP3    H2 7815   1.731   1.012   4.045
 2626TIP3   OH2 7816   1.839   2.398   4.179
 2626TIP3    H1 7817   1.745   2.374   4.164
 2626TIP3    H2 7818   1.848   2.384   4.274
 2627TIP3   OH2 7819   2.019   2.429   3.726
 2627TIP3    H1 7820   1.968   2.505   3.690
 2627TIP3    H2 7821   2.104   2.447   3.682
 2628TIP3   OH2 7822   2.461   2.675   3.864
 2628TIP3    H1 7823   2.501   2.679   3.953
 2628TIP3    H2 7824   2.526   2.729   3.813
 2629TIP3   OH2 7825   2.641   2.829   3.726
 2629TIP3    H1 7826   2.715   2.782   3.685
 2629TIP3    H2 7827   2.689   2.888   3.788
 2630TIP3   OH2 7828   3.431   1.185   3.830
 2630TIP3    H1 7829   3.344   1.161   3.795
 2630TIP3    H2 7830   3.477   1.098   3.819
 2631TIP3   OH2 7831   1.692   2.688   3.754
 2631TIP3    H1 7832   1.603   2.721   3.730
 2631TIP3    H2 7833   1.705   2.735   3.838
 2632TIP3   OH2 7834   1.928   2.666   3.610
 2632TIP3    H1 7835   1.842   2.680   3.655
 2632TIP3    H2 7836   1.910   2.702   3.521
 2633TIP3   OH2 7837   2.355   2.696   3.408
 2633TIP3    H1 7838   2.286   2.717   3.343
 2633TIP3    H2 7839   2.368   2.783   3.451
 2634TIP3   OH2 7840   2.624   2.632   3.458
 2634TIP3    H1 7841   2.530   2.654   3.441
 2634TIP3    H2 7842   2.669   2.710   3.420
 2635TIP3   OH2 7843   2.829   2.827   3.374
 2635TIP3    H1 7844   2.816   2.912   3.328
 2635TIP3    H2 7845   2.857   2.768   3.301
 2636TIP3   OH2 7846   1.605   2.484   3.494
 2636TIP3    H1 7847   1.629   2.458   3.586
 2636TIP3    H2 7848   1.678   2.440   3.445
 2637TIP3   OH2 7849   1.799   2.355   3.352
 2637TIP3    H1 7850   1.814   2.273   3.405
 2637TIP3    H2 7851   1.890   2.393   3.350
 2638TIP3   OH2 7852   2.064   2.449   3.359
 2638TIP3    H1 7853   2.097   2.357   3.351
 2638TIP3    H2 7854   2.108   2.476   3.441
 2639TIP3   OH2 7855   2.621   1.099   3.436
 2639TIP3    H1 7856   2.589   1.030   3.497
 2639TIP3    H2 7857   2.705   1.061   3.405
 2640TIP3   OH2 7858   3.156   0.994   3.356
 2640TIP3    H1 7859   3.197   1.030   3.275
 2640TIP3    H2 7860   3.061   1.009   3.340
 2641TIP3   OH2 7861   3.253   1.084   3.113
 2641TIP3    H1 7862   3.330   1.033   3.081
 2641TIP3    H2 7863   3.289   1.176   3.101
 2642TIP3   OH2 7864   1.886   0.822   3.465
 2642TIP3    H1 7865   1.797   0.783   3.452
 2642TIP3    H2 7866   1.941   0.741   3.459
 2643TIP3   OH2 7867   1.786   0.759   3.175
 2643TIP3    H1 7868   1.725   0.713   3.113
 2643TIP3    H2 7869   1.722   0.808   3.230
 2644TIP3   OH2 7870   2.335   0.851   3.337
 2644TIP3    H1 7871   2.396   0.902   3.283
 2644TIP3    H2 7872   2.356   0.880   3.427
 2645TIP3   OH2 7873   2.870   0.997   3.329
 2645TIP3    H1 7874   2.854   0.963   3.241
 2645TIP3    H2 7875   2.861   0.915   3.384
 2646TIP3   OH2 7876   2.929   0.885   2.898
 2646TIP3    H1 7877   2.860   0.951   2.881
 2646TIP3    H2 7878   2.880   0.821   2.952
 2647TIP3   OH2 7879   1.396   2.256   2.886
 2647TIP3    H1 7880   1.308   2.230   2.854
 2647TIP3    H2 7881   1.390   2.352   2.869
 2648TIP3   OH2 7882   1.794   0.885   2.877
 2648TIP3    H1 7883   1.825   0.802   2.916
 2648TIP3    H2 7884   1.841   0.947   2.935
 2649TIP3   OH2 7885   2.313   1.020   2.969
 2649TIP3    H1 7886   2.368   0.971   3.032
 2649TIP3    H2 7887   2.335   1.112   2.996
 2650TIP3   OH2 7888   2.166   2.443   2.473
 2650TIP3    H1 7889   2.254   2.467   2.436
 2650TIP3    H2 7890   2.143   2.370   2.411
 2651TIP3   OH2 7891   2.882   2.563   2.563
 2651TIP3    H1 7892   2.872   2.466   2.551
 2651TIP3    H2 7893   2.838   2.596   2.482
 2652TIP3   OH2 7894   2.098   1.100   4.353
 2652TIP3    H1 7895   2.060   1.028   4.407
 2652TIP3    H2 7896   2.192   1.096   4.383
 2653TIP3   OH2 7897   2.348   1.091   4.472
 2653TIP3    H1 7898   2.433   1.057   4.439
 2653TIP3    H2 7899   2.330   1.027   4.544
 2654TIP3   OH2 7900   1.465   2.273   2.528
 2654TIP3    H1 7901   1.463   2.315   2.615
 2654TIP3    H2 7902   1.557   2.240   2.522
 2655TIP3   OH2 7903   3.170   1.157   4.259
 2655TIP3    H1 7904   3.188   1.123   4.350
 2655TIP3    H2 7905   3.259   1.150   4.218
 2656TIP3   OH2 7906   3.109   2.707   3.750
 2656TIP3    H1 7907   3.029   2.678   3.700
 2656TIP3    H2 7908   3.092   2.803   3.754
 2657TIP3   OH2 7909   4.377   2.079   2.515
 2657TIP3    H1 7910   4.348   2.170   2.496
 2657TIP3    H2 7911   4.299   2.030   2.484
 2658TIP3   OH2 7912   4.377   2.078   2.898
 2658TIP3    H1 7913   4.408   2.054   2.987
 2658TIP3    H2 7914   4.332   1.997   2.869
 2659TIP3   OH2 7915   3.675   1.979   3.266
 2659TIP3    H1 7916   3.706   1.907   3.324
 2659TIP3    H2 7917   3.758   2.024   3.246
 2660TIP3   OH2 7918   4.619   2.381   2.581
 2660TIP3    H1 7919   4.604   2.313   2.648
 2660TIP3    H2 7920   4.649   2.457   2.634
 2661TIP3   OH2 7921   3.645   2.387   2.988
 2661TIP3    H1 7922   3.638   2.288   2.989
 2661TIP3    H2 7923   3.742   2.396   2.983
 2662TIP3   OH2 7924   3.352   1.601   2.783
 2662TIP3    H1 7925   3.314   1.681   2.826
 2662TIP3    H2 7926   3.272   1.565   2.741
 2663TIP3   OH2 7927   4.268   2.844   2.598
 2663TIP3    H1 7928   4.312   2.773   2.545
 2663TIP3    H2 7929   4.265   2.803   2.685
 2664TIP3   OH2 7930   4.173   2.306   2.947
 2664TIP3    H1 7931   4.212   2.230   2.901
 2664TIP3    H2 7932   4.257   2.351   2.971
 2665TIP3   OH2 7933   5.186   1.627   2.944
 2665TIP3    H1 7934   5.216   1.707   2.993
 2665TIP3    H2 7935   5.211   1.652   2.853
 2666TIP3   OH2 7936   4.588   1.808   2.977
 2666TIP3    H1 7937   4.627   1.721   2.999
 2666TIP3    H2 7938   4.554   1.790   2.887
 2667TIP3   OH2 7939   3.927   1.465   2.940
 2667TIP3    H1 7940   3.905   1.539   2.879
 2667TIP3    H2 7941   3.876   1.393   2.897
 2668TIP3   OH2 7942   4.621   1.557   2.566
 2668TIP3    H1 7943   4.692   1.541   2.632
 2668TIP3    H2 7944   4.672   1.595   2.493
 2669TIP3   OH2 7945   3.554   1.658   3.066
 2669TIP3    H1 7946   3.644   1.635   3.096
 2669TIP3    H2 7947   3.558   1.629   2.973
 2670TIP3   OH2 7948   3.997   1.866   2.845
 2670TIP3    H1 7949   4.091   1.840   2.858
 2670TIP3    H2 7950   3.958   1.782   2.812
 2671TIP3   OH2 7951   5.259   1.832   3.115
 2671TIP3    H1 7952   5.175   1.880   3.097
 2671TIP3    H2 7953   5.279   1.863   3.204
 2672TIP3   OH2 7954   3.924   1.449   3.378
 2672TIP3    H1 7955   3.862   1.484   3.310
 2672TIP3    H2 7956   3.871   1.464   3.459
 2673TIP3   OH2 7957   4.266   2.300   2.386
 2673TIP3    H1 7958   4.224   2.283   2.300
 2673TIP3    H2 7959   4.222   2.383   2.412
 2674TIP3   OH2 7960   4.028   2.225   3.172
 2674TIP3    H1 7961   3.966   2.292   3.209
 2674TIP3    H2 7962   4.070   2.275   3.099
 2675TIP3   OH2 7963   4.832   1.559   2.739
 2675TIP3    H1 7964   4.806   1.520   2.824
 2675TIP3    H2 7965   4.879   1.639   2.769
 2676TIP3   OH2 7966   3.796   1.559   3.161
 2676TIP3    H1 7967   3.856   1.633   3.185
 2676TIP3    H2 7968   3.846   1.520   3.086
 2677TIP3   OH2 7969   3.855   2.419   3.270
 2677TIP3    H1 7970   3.830   2.506   3.232
 2677TIP3    H2 7971   3.776   2.403   3.326
 2678TIP3   OH2 7972   3.249   2.107   2.503
 2678TIP3    H1 7973   3.208   2.141   2.422
 2678TIP3    H2 7974   3.283   2.188   2.546
 2679TIP3   OH2 7975   4.688   2.625   2.746
 2679TIP3    H1 7976   4.598   2.617   2.785
 2679TIP3    H2 7977   4.680   2.712   2.701
 2680TIP3   OH2 7978   4.980   1.522   3.107
 2680TIP3    H1 7979   4.893   1.556   3.079
 2680TIP3    H2 7980   5.040   1.558   3.038
 2681TIP3   OH2 7981   4.276   1.167   3.092
 2681TIP3    H1 7982   4.262   1.072   3.112
 2681TIP3    H2 7983   4.198   1.206   3.139
 2682TIP3   OH2 7984   4.389   2.672   2.419
 2682TIP3    H1 7985   4.438   2.589   2.400
 2682TIP3    H2 7986   4.451   2.736   2.379
 2683TIP3   OH2 7987   4.532   2.456   2.330
 2683TIP3    H1 7988   4.496   2.377   2.289
 2683TIP3    H2 7989   4.569   2.421   2.414
 2684TIP3   OH2 7990   4.914   2.537   3.090
 2684TIP3    H1 7991   4.903   2.460   3.031
 2684TIP3    H2 7992   4.898   2.612   3.028
 2685TIP3   OH2 7993   4.206   1.930   2.348
 2685TIP3    H1 7994   4.126   1.983   2.328
 2685TIP3    H2 7995   4.251   1.930   2.262
 2686TIP3   OH2 7996   4.165   1.716   2.062
 2686TIP3    H1 7997   4.231   1.768   2.112
 2686TIP3    H2 7998   4.224   1.654   2.015
 2687TIP3   OH2 7999   5.109   2.172   2.933
 2687TIP3    H1 8000   5.027   2.225   2.939
 2687TIP3    H2 8001   5.140   2.200   2.844
 2688TIP3   OH2 8002   4.554   2.013   2.318
 2688TIP3    H1 8003   4.499   2.037   2.396
 2688TIP3    H2 8004   4.639   1.990   2.363
 2689TIP3   OH2 8005   4.789   2.052   3.233
 2689TIP3    H1 8006   4.788   2.135   3.285
 2689TIP3    H2 8007   4.702   2.059   3.188
 2690TIP3   OH2 8008   3.788   2.013   2.734
 2690TIP3    H1 8009   3.745   1.954   2.668
 2690TIP3    H2 8010   3.862   1.959   2.766
 2691TIP3   OH2 8011   3.917   2.426   2.883
 2691TIP3    H1 8012   3.895   2.383   2.800
 2691TIP3    H2 8013   4.006   2.390   2.902
 2692TIP3   OH2 8014   3.924   1.981   3.095
 2692TIP3    H1 8015   3.953   1.960   3.003
 2692TIP3    H2 8016   3.966   2.068   3.110
 2693TIP3   OH2 8017   4.446   2.621   2.867
 2693TIP3    H1 8018   4.436   2.700   2.923
 2693TIP3    H2 8019   4.432   2.547   2.930
 2694TIP3   OH2 8020   4.062   2.538   3.413
 2694TIP3    H1 8021   4.003   2.600   3.461
 2694TIP3    H2 8022   3.997   2.485   3.364
 2695TIP3   OH2 8023   4.395   1.870   2.145
 2695TIP3    H1 8024   4.453   1.932   2.196
 2695TIP3    H2 8025   4.421   1.893   2.052
 2696TIP3   OH2 8026   3.819   2.095   3.522
 2696TIP3    H1 8027   3.821   2.184   3.563
 2696TIP3    H2 8028   3.723   2.080   3.517
 2697TIP3   OH2 8029   4.138   2.550   2.422
 2697TIP3    H1 8030   4.219   2.603   2.434
 2697TIP3    H2 8031   4.078   2.613   2.379
 2698TIP3   OH2 8032   3.856   2.703   3.500
 2698TIP3    H1 8033   3.819   2.705   3.410
 2698TIP3    H2 8034   3.776   2.683   3.555
 2699TIP3   OH2 8035   3.658   1.853   2.533
 2699TIP3    H1 8036   3.588   1.896   2.480
 2699TIP3    H2 8037   3.611   1.777   2.569
 2700TIP3   OH2 8038   4.709   2.479   1.744
 2700TIP3    H1 8039   4.718   2.575   1.727
 2700TIP3    H2 8040   4.802   2.450   1.730
 2701TIP3   OH2 8041   3.429   2.241   3.446
 2701TIP3    H1 8042   3.368   2.218   3.374
 2701TIP3    H2 8043   3.468   2.154   3.470
 2702TIP3   OH2 8044   3.286   2.432   3.083
 2702TIP3    H1 8045   3.380   2.418   3.069
 2702TIP3    H2 8046   3.285   2.513   3.137
 2703TIP3   OH2 8047   5.153   2.882   3.136
 2703TIP3    H1 8048   5.151   2.786   3.153
 2703TIP3    H2 8049   5.070   2.909   3.182
 2704TIP3   OH2 8050   4.257   2.669   3.270
 2704TIP3    H1 8051   4.255   2.761   3.303
 2704TIP3    H2 8052   4.187   2.628   3.326
 2705TIP3   OH2 8053   4.018   2.795   2.224
 2705TIP3    H1 8054   3.975   2.777   2.139
 2705TIP3    H2 8055   3.987   2.885   2.246
 2706TIP3   OH2 8056   3.457   2.647   2.608
 2706TIP3    H1 8057   3.504   2.636   2.694
 2706TIP3    H2 8058   3.408   2.562   2.605
 2707TIP3   OH2 8059   4.220   2.698   1.863
 2707TIP3    H1 8060   4.279   2.629   1.826
 2707TIP3    H2 8061   4.255   2.708   1.953
 2708TIP3   OH2 8062   4.270   2.747   2.133
 2708TIP3    H1 8063   4.182   2.755   2.176
 2708TIP3    H2 8064   4.322   2.707   2.205
 2709TIP3   OH2 8065   5.043   2.013   3.412
 2709TIP3    H1 8066   4.959   2.024   3.364
 2709TIP3    H2 8067   5.058   1.916   3.404
 2710TIP3   OH2 8068   3.638   2.420   3.435
 2710TIP3    H1 8069   3.687   2.406   3.518
 2710TIP3    H2 8070   3.563   2.358   3.443
 2711TIP3   OH2 8071   4.038   1.246   3.218
 2711TIP3    H1 8072   3.948   1.215   3.193
 2711TIP3    H2 8073   4.013   1.326   3.269
 2712TIP3   OH2 8074   4.572   1.359   3.416
 2712TIP3    H1 8075   4.641   1.332   3.480
 2712TIP3    H2 8076   4.489   1.339   3.463
 2713TIP3   OH2 8077   4.809   1.788   3.332
 2713TIP3    H1 8078   4.760   1.785   3.418
 2713TIP3    H2 8079   4.786   1.877   3.299
 2714TIP3   OH2 8080   4.471   1.915   1.889
 2714TIP3    H1 8081   4.436   1.893   1.800
 2714TIP3    H2 8082   4.551   1.965   1.865
 2715TIP3   OH2 8083   4.184   1.291   2.192
 2715TIP3    H1 8084   4.150   1.289   2.284
 2715TIP3    H2 8085   4.143   1.210   2.158
 2716TIP3   OH2 8086   3.970   1.758   3.241
 2716TIP3    H1 8087   3.920   1.781   3.321
 2716TIP3    H2 8088   3.956   1.839   3.187
 2717TIP3   OH2 8089   3.855   1.647   2.752
 2717TIP3    H1 8090   3.761   1.623   2.772
 2717TIP3    H2 8091   3.865   1.605   2.664
 2718TIP3   OH2 8092   4.345   1.732   2.481
 2718TIP3    H1 8093   4.291   1.803   2.440
 2718TIP3    H2 8094   4.398   1.701   2.405
 2719TIP3   OH2 8095   4.519   2.009   3.566
 2719TIP3    H1 8096   4.497   1.937   3.628
 2719TIP3    H2 8097   4.612   2.025   3.589
 2720TIP3   OH2 8098   4.501   1.760   2.720
 2720TIP3    H1 8099   4.440   1.791   2.651
 2720TIP3    H2 8100   4.532   1.678   2.676
 2721TIP3   OH2 8101   3.788   1.790   3.451
 2721TIP3    H1 8102   3.831   1.849   3.514
 2721TIP3    H2 8103   3.782   1.706   3.501
 2722TIP3   OH2 8104   3.838   1.266   2.157
 2722TIP3    H1 8105   3.830   1.265   2.255
 2722TIP3    H2 8106   3.761   1.321   2.133
 2723TIP3   OH2 8107   3.382   1.305   3.033
 2723TIP3    H1 8108   3.452   1.345   3.089
 2723TIP3    H2 8109   3.427   1.290   2.950
 2724TIP3   OH2 8110   3.355   1.295   2.549
 2724TIP3    H1 8111   3.399   1.333   2.471
 2724TIP3    H2 8112   3.295   1.368   2.572
 2725TIP3   OH2 8113   4.509   2.006   3.142
 2725TIP3    H1 8114   4.544   1.934   3.084
 2725TIP3    H2 8115   4.481   1.952   3.219
 2726TIP3   OH2 8116   4.182   1.467   2.814
 2726TIP3    H1 8117   4.099   1.466   2.865
 2726TIP3    H2 8118   4.249   1.466   2.884
 2727TIP3   OH2 8119   3.615   1.531   2.818
 2727TIP3    H1 8120   3.519   1.542   2.796
 2727TIP3    H2 8121   3.633   1.438   2.797
 2728TIP3   OH2 8122   3.883   1.517   2.511
 2728TIP3    H1 8123   3.976   1.536   2.489
 2728TIP3    H2 8124   3.835   1.541   2.429
 2729TIP3   OH2 8125   4.670   1.543   3.011
 2729TIP3    H1 8126   4.643   1.556   3.105
 2729TIP3    H2 8127   4.601   1.482   2.981
 2730TIP3   OH2 8128   3.729   1.550   2.289
 2730TIP3    H1 8129   3.655   1.509   2.240
 2730TIP3    H2 8130   3.780   1.589   2.215
 2731TIP3   OH2 8131   4.837   3.235   3.233
 2731TIP3    H1 8132   4.844   3.256   3.138
 2731TIP3    H2 8133   4.921   3.275   3.265
 2732TIP3   OH2 8134   3.800   2.342   3.659
 2732TIP3    H1 8135   3.881   2.372   3.704
 2732TIP3    H2 8136   3.736   2.349   3.732
 2733TIP3   OH2 8137   4.263   1.797   2.913
 2733TIP3    H1 8138   4.337   1.756   2.865
 2733TIP3    H2 8139   4.269   1.755   3.001
 2734TIP3   OH2 8140   3.785   1.284   2.791
 2734TIP3    H1 8141   3.752   1.205   2.839
 2734TIP3    H2 8142   3.836   1.244   2.719
 2735TIP3   OH2 8143   4.241   1.696   3.198
 2735TIP3    H1 8144   4.151   1.729   3.216
 2735TIP3    H2 8145   4.298   1.755   3.252
 2736TIP3   OH2 8146   3.977   2.083   2.297
 2736TIP3    H1 8147   3.905   2.018   2.286
 2736TIP3    H2 8148   3.958   2.118   2.387
 2737TIP3   OH2 8149   4.878   2.320   2.925
 2737TIP3    H1 8150   4.901   2.370   2.844
 2737TIP3    H2 8151   4.792   2.278   2.899
 2738TIP3   OH2 8152   4.435   1.395   2.160
 2738TIP3    H1 8153   4.338   1.377   2.168
 2738TIP3    H2 8154   4.442   1.490   2.183
 2739TIP3   OH2 8155   4.376   2.402   3.294
 2739TIP3    H1 8156   4.405   2.382   3.383
 2739TIP3    H2 8157   4.337   2.491   3.303
 2740TIP3   OH2 8158   4.505   1.644   2.262
 2740TIP3    H1 8159   4.601   1.653   2.277
 2740TIP3    H2 8160   4.483   1.724   2.211
 2741TIP3   OH2 8161   3.673   2.113   2.973
 2741TIP3    H1 8162   3.702   2.080   2.885
 2741TIP3    H2 8163   3.703   2.041   3.031
 2742TIP3   OH2 8164   4.122   2.233   2.118
 2742TIP3    H1 8165   4.074   2.319   2.123
 2742TIP3    H2 8166   4.067   2.178   2.179
 2743TIP3   OH2 8167   3.546   2.036   3.590
 2743TIP3    H1 8168   3.582   2.012   3.677
 2743TIP3    H2 8169   3.486   1.962   3.568
 2744TIP3   OH2 8170   4.277   2.141   3.605
 2744TIP3    H1 8171   4.219   2.082   3.554
 2744TIP3    H2 8172   4.366   2.107   3.578
 2745TIP3   OH2 8173   4.535   2.664   3.187
 2745TIP3    H1 8174   4.439   2.661   3.203
 2745TIP3    H2 8175   4.566   2.713   3.266
 2746TIP3   OH2 8176   4.946   1.731   2.100
 2746TIP3    H1 8177   4.885   1.691   2.034
 2746TIP3    H2 8178   4.946   1.821   2.060
 2747TIP3   OH2 8179   5.164   2.590   3.180
 2747TIP3    H1 8180   5.066   2.586   3.171
 2747TIP3    H2 8181   5.190   2.562   3.089
 2748TIP3   OH2 8182   4.646   2.553   2.007
 2748TIP3    H1 8183   4.621   2.481   2.066
 2748TIP3    H2 8184   4.660   2.508   1.922
 2749TIP3   OH2 8185   4.642   2.183   2.843
 2749TIP3    H1 8186   4.549   2.158   2.857
 2749TIP3    H2 8187   4.676   2.103   2.798
 2750TIP3   OH2 8188   3.771   2.411   2.598
 2750TIP3    H1 8189   3.768   2.491   2.543
 2750TIP3    H2 8190   3.677   2.390   2.607
 2751TIP3   OH2 8191   3.334   1.713   2.301
 2751TIP3    H1 8192   3.381   1.796   2.323
 2751TIP3    H2 8193   3.258   1.718   2.364
 2752TIP3   OH2 8194   3.908   2.176   2.540
 2752TIP3    H1 8195   3.874   2.265   2.560
 2752TIP3    H2 8196   3.872   2.124   2.614
 2753TIP3   OH2 8197   4.040   2.754   3.066
 2753TIP3    H1 8198   4.084   2.826   3.017
 2753TIP3    H2 8199   4.115   2.717   3.116
 2754TIP3   OH2 8200   3.688   2.650   2.449
 2754TIP3    H1 8201   3.603   2.658   2.496
 2754TIP3    H2 8202   3.720   2.743   2.451
 2755TIP3   OH2 8203   4.427   2.387   3.025
 2755TIP3    H1 8204   4.416   2.386   3.123
 2755TIP3    H2 8205   4.508   2.336   3.015
 2756TIP3   OH2 8206   4.403   2.280   1.909
 2756TIP3    H1 8207   4.456   2.255   1.988
 2756TIP3    H2 8208   4.314   2.255   1.939
 2757TIP3   OH2 8209   4.673   2.924   3.079
 2757TIP3    H1 8210   4.596   2.865   3.071
 2757TIP3    H2 8211   4.658   2.985   3.004
 2758TIP3   OH2 8212   4.742   2.754   1.728
 2758TIP3    H1 8213   4.779   2.824   1.672
 2758TIP3    H2 8214   4.662   2.801   1.761
 2759TIP3   OH2 8215   3.766   1.532   3.595
 2759TIP3    H1 8216   3.669   1.522   3.603
 2759TIP3    H2 8217   3.797   1.470   3.664
 2760TIP3   OH2 8218   4.563   2.214   2.125
 2760TIP3    H1 8219   4.554   2.148   2.196
 2760TIP3    H2 8220   4.660   2.211   2.112
 2761TIP3   OH2 8221   3.476   2.617   3.226
 2761TIP3    H1 8222   3.532   2.541   3.251
 2761TIP3    H2 8223   3.506   2.683   3.290
 2762TIP3   OH2 8224   3.768   2.261   1.908
 2762TIP3    H1 8225   3.782   2.169   1.880
 2762TIP3    H2 8226   3.748   2.250   2.003
 2763TIP3   OH2 8227   3.712   2.266   2.181
 2763TIP3    H1 8228   3.785   2.239   2.238
 2763TIP3    H2 8229   3.717   2.364   2.187
 2764TIP3   OH2 8230   3.449   1.958   2.382
 2764TIP3    H1 8231   3.382   2.000   2.440
 2764TIP3    H2 8232   3.462   2.028   2.316
 2765TIP3   OH2 8233   4.603   1.592   3.271
 2765TIP3    H1 8234   4.678   1.634   3.316
 2765TIP3    H2 8235   4.587   1.513   3.328
 2766TIP3   OH2 8236   4.482   1.345   2.441
 2766TIP3    H1 8237   4.464   1.369   2.348
 2766TIP3    H2 8238   4.518   1.429   2.478
 2767TIP3   OH2 8239   3.980   2.462   2.129
 2767TIP3    H1 8240   3.893   2.489   2.165
 2767TIP3    H2 8241   3.996   2.535   2.066
 2768TIP3   OH2 8242   4.168   1.527   2.543
 2768TIP3    H1 8243   4.231   1.600   2.527
 2768TIP3    H2 8244   4.172   1.519   2.640
 2769TIP3   OH2 8245   4.438   1.845   3.351
 2769TIP3    H1 8246   4.459   1.901   3.429
 2769TIP3    H2 8247   4.492   1.766   3.368
 2770TIP3   OH2 8248   4.311   1.252   2.645
 2770TIP3    H1 8249   4.302   1.330   2.704
 2770TIP3    H2 8250   4.372   1.288   2.577
 2771TIP3   OH2 8251   3.724   2.538   2.196
 2771TIP3    H1 8252   3.694   2.608   2.134
 2771TIP3    H2 8253   3.707   2.582   2.283
 2772TIP3   OH2 8254   3.823   1.252   2.434
 2772TIP3    H1 8255   3.820   1.343   2.471
 2772TIP3    H2 8256   3.919   1.235   2.442
 2773TIP3   OH2 8257   5.076   1.746   3.333
 2773TIP3    H1 8258   4.978   1.743   3.339
 2773TIP3    H2 8259   5.088   1.707   3.245
 2774TIP3   OH2 8260   4.728   1.940   2.718
 2774TIP3    H1 8261   4.651   1.882   2.734
 2774TIP3    H2 8262   4.799   1.894   2.768
 2775TIP3   OH2 8263   3.440   2.168   2.188
 2775TIP3    H1 8264   3.508   2.237   2.198
 2775TIP3    H2 8265   3.485   2.112   2.121
 2776TIP3   OH2 8266   3.385   1.443   2.321
 2776TIP3    H1 8267   3.386   1.541   2.320
 2776TIP3    H2 8268   3.301   1.424   2.278
 2777TIP3   OH2 8269   4.696   2.897   2.668
 2777TIP3    H1 8270   4.654   2.944   2.593
 2777TIP3    H2 8271   4.791   2.916   2.648
 2778TIP3   OH2 8272   3.773   1.166   3.196
 2778TIP3    H1 8273   3.743   1.129   3.111
 2778TIP3    H2 8274   3.764   1.089   3.256
 2779TIP3   OH2 8275   3.317   2.392   2.576
 2779TIP3    H1 8276   3.245   2.416   2.637
 2779TIP3    H2 8277   3.282   2.428   2.491
 2780TIP3   OH2 8278   3.470   2.927   3.646
 2780TIP3    H1 8279   3.556   2.931   3.695
 2780TIP3    H2 8280   3.454   2.831   3.648
 2781TIP3   OH2 8281   3.942   2.887   3.697
 2781TIP3    H1 8282   4.039   2.886   3.704
 2781TIP3    H2 8283   3.927   2.826   3.622
 2782TIP3   OH2 8284   3.932   2.465   1.820
 2782TIP3    H1 8285   3.876   2.392   1.857
 2782TIP3    H2 8286   4.007   2.414   1.785
 2783TIP3   OH2 8287   4.593   2.792   3.422
 2783TIP3    H1 8288   4.582   2.725   3.493
 2783TIP3    H2 8289   4.670   2.843   3.455
 2784TIP3   OH2 8290   4.366   2.505   1.732
 2784TIP3    H1 8291   4.414   2.443   1.789
 2784TIP3    H2 8292   4.421   2.504   1.650
 2785TIP3   OH2 8293   3.597   2.330   3.849
 2785TIP3    H1 8294   3.613   2.234   3.854
 2785TIP3    H2 8295   3.511   2.333   3.801
 2786TIP3   OH2 8296   3.576   1.981   2.042
 2786TIP3    H1 8297   3.631   1.950   2.115
 2786TIP3    H2 8298   3.643   1.986   1.971
 2787TIP3   OH2 8299   4.205   2.416   3.622
 2787TIP3    H1 8300   4.167   2.434   3.534
 2787TIP3    H2 8301   4.238   2.324   3.613
 2788TIP3   OH2 8302   4.087   2.180   1.849
 2788TIP3    H1 8303   4.090   2.192   1.946
 2788TIP3    H2 8304   4.086   2.082   1.843
 2789TIP3   OH2 8305   4.698   2.425   3.227
 2789TIP3    H1 8306   4.774   2.469   3.184
 2789TIP3    H2 8307   4.628   2.492   3.213
 2790TIP3   OH2 8308   3.708   2.043   3.835
 2790TIP3    H1 8309   3.794   2.012   3.802
 2790TIP3    H2 8310   3.736   2.088   3.918
 2791TIP3   OH2 8311   3.783   1.887   2.264
 2791TIP3    H1 8312   3.754   1.849   2.349
 2791TIP3    H2 8313   3.819   1.809   2.217
 2792TIP3   OH2 8314   4.050   1.945   3.488
 2792TIP3    H1 8315   3.976   2.010   3.493
 2792TIP3    H2 8316   4.103   1.981   3.414
 2793TIP3   OH2 8317   3.885   1.678   2.104
 2793TIP3    H1 8318   3.859   1.685   2.010
 2793TIP3    H2 8319   3.982   1.683   2.097
 2794TIP3   OH2 8320   4.569   2.351   3.625
 2794TIP3    H1 8321   4.652   2.328   3.581
 2794TIP3    H2 8322   4.566   2.287   3.698
 2795TIP3   OH2 8323   4.706   2.008   1.769
 2795TIP3    H1 8324   4.687   1.965   1.683
 2795TIP3    H2 8325   4.674   2.099   1.747
 2796TIP3   OH2 8326   4.175   1.739   3.619
 2796TIP3    H1 8327   4.177   1.659   3.563
 2796TIP3    H2 8328   4.132   1.804   3.559
 2797TIP3   OH2 8329   4.180   1.527   3.426
 2797TIP3    H1 8330   4.207   1.566   3.341
 2797TIP3    H2 8331   4.087   1.502   3.408
 2798TIP3   OH2 8332   4.205   2.059   3.300
 2798TIP3    H1 8333   4.289   2.069   3.255
 2798TIP3    H2 8334   4.149   2.125   3.254
 2799TIP3   OH2 8335   4.786   2.026   3.677
 2799TIP3    H1 8336   4.835   1.945   3.697
 2799TIP3    H2 8337   4.856   2.085   3.646
 2800TIP3   OH2 8338   4.829   2.278   3.412
 2800TIP3    H1 8339   4.771   2.333   3.354
 2800TIP3    H2 8340   4.917   2.301   3.373
 2801TIP3   OH2 8341   4.049   1.851   3.847
 2801TIP3    H1 8342   3.985   1.779   3.862
 2801TIP3    H2 8343   4.088   1.824   3.761
 2802TIP3   OH2 8344   4.311   1.287   3.490
 2802TIP3    H1 8345   4.261   1.368   3.470
 2802TIP3    H2 8346   4.242   1.218   3.481
 2803TIP3   OH2 8347   4.438   1.792   3.708
 2803TIP3    H1 8348   4.430   1.778   3.804
 2803TIP3    H2 8349   4.347   1.767   3.681
 2804TIP3   OH2 8350   4.675   1.738   3.561
 2804TIP3    H1 8351   4.601   1.742   3.626
 2804TIP3    H2 8352   4.750   1.710   3.618
 2805TIP3   OH2 8353   4.904   1.681   3.711
 2805TIP3    H1 8354   4.917   1.586   3.731
 2805TIP3    H2 8355   4.899   1.721   3.801
 2806TIP3   OH2 8356   3.893   1.631   3.904
 2806TIP3    H1 8357   3.898   1.539   3.869
 2806TIP3    H2 8358   3.933   1.618   3.992
 2807TIP3   OH2 8359   4.407   1.300   3.748
 2807TIP3    H1 8360   4.472   1.227   3.745
 2807TIP3    H2 8361   4.366   1.290   3.659
 2808TIP3   OH2 8362   4.473   1.514   3.907
 2808TIP3    H1 8363   4.451   1.442   3.844
 2808TIP3    H2 8364   4.393   1.571   3.901
 2809TIP3   OH2 8365   3.693   2.742   2.010
 2809TIP3    H1 8366   3.788   2.735   1.991
 2809TIP3    H2 8367   3.664   2.791   1.931
 2810TIP3   OH2 8368   3.170   2.126   2.219
 2810TIP3    H1 8369   3.266   2.147   2.208
 2810TIP3    H2 8370   3.167   2.036   2.181
 2811TIP3   OH2 8371   3.087   2.736   2.639
 2811TIP3    H1 8372   3.021   2.673   2.602
 2811TIP3    H2 8373   3.132   2.678   2.705
 2812TIP3   OH2 8374   3.220   2.587   2.828
 2812TIP3    H1 8375   3.211   2.511   2.889
 2812TIP3    H2 8376   3.272   2.648   2.884
 2813TIP3   OH2 8377   4.949   2.988   2.626
 2813TIP3    H1 8378   4.978   3.020   2.713
 2813TIP3    H2 8379   5.014   3.029   2.567
 2814TIP3   OH2 8380   4.979   3.006   2.908
 2814TIP3    H1 8381   4.936   2.918   2.905
 2814TIP3    H2 8382   5.055   2.986   2.965
 2815TIP3   OH2 8383   5.024   2.684   3.480
 2815TIP3    H1 8384   4.953   2.693   3.546
 2815TIP3    H2 8385   5.067   2.771   3.484
 2816TIP3   OH2 8386   4.842   2.196   2.100
 2816TIP3    H1 8387   4.908   2.261   2.070
 2816TIP3    H2 8388   4.888   2.158   2.179
 2817TIP3   OH2 8389   4.971   2.061   2.303
 2817TIP3    H1 8390   4.904   2.023   2.364
 2817TIP3    H2 8391   5.035   2.101   2.365
 2818TIP3   OH2 8392   5.024   2.456   2.735
 2818TIP3    H1 8393   5.077   2.391   2.686
 2818TIP3    H2 8394   5.019   2.531   2.672
 2819TIP3   OH2 8395   4.854   2.757   2.931
 2819TIP3    H1 8396   4.782   2.797   2.983
 2819TIP3    H2 8397   4.804   2.710   2.860
 2820TIP3   OH2 8398   4.907   1.970   1.952
 2820TIP3    H1 8399   4.837   1.974   1.883
 2820TIP3    H2 8400   4.880   2.047   2.006
 2821TIP3   OH2 8401   4.780   1.642   1.907
 2821TIP3    H1 8402   4.741   1.689   1.832
 2821TIP3    H2 8403   4.749   1.550   1.891
 2822TIP3   OH2 8404   4.783   1.921   2.451
 2822TIP3    H1 8405   4.791   1.825   2.449
 2822TIP3    H2 8406   4.768   1.938   2.547
 2823TIP3   OH2 8407   3.404   1.979   3.203
 2823TIP3    H1 8408   3.391   1.950   3.112
 2823TIP3    H2 8409   3.502   1.984   3.209
 2824TIP3   OH2 8410   5.073   2.346   3.306
 2824TIP3    H1 8411   5.145   2.280   3.297
 2824TIP3    H2 8412   5.102   2.417   3.246
 2825TIP3   OH2 8413   5.257   2.149   3.319
 2825TIP3    H1 8414   5.183   2.100   3.361
 2825TIP3    H2 8415   5.331   2.086   3.335
 2826TIP3   OH2 8416   4.713   1.376   1.897
 2826TIP3    H1 8417   4.768   1.322   1.954
 2826TIP3    H2 8418   4.628   1.326   1.897
 2827TIP3   OH2 8419   4.785   1.631   2.344
 2827TIP3    H1 8420   4.830   1.546   2.353
 2827TIP3    H2 8421   4.837   1.674   2.273
 2828TIP3   OH2 8422   4.940   1.807   2.839
 2828TIP3    H1 8423   5.026   1.835   2.800
 2828TIP3    H2 8424   4.952   1.845   2.929
 2829TIP3   OH2 8425   5.008   1.953   3.070
 2829TIP3    H1 8426   4.932   1.988   3.121
 2829TIP3    H2 8427   5.042   2.035   3.026
 2830TIP3   OH2 8428   3.629   1.683   3.869
 2830TIP3    H1 8429   3.727   1.677   3.872
 2830TIP3    H2 8430   3.605   1.594   3.903
 2831TIP3   OH2 8431   5.460   1.545   3.627
 2831TIP3    H1 8432   5.521   1.481   3.586
 2831TIP3    H2 8433   5.433   1.600   3.551
 2832TIP3   OH2 8434   4.932   1.354   2.345
 2832TIP3    H1 8435   4.955   1.357   2.441
 2832TIP3    H2 8436   4.852   1.295   2.354
 2833TIP3   OH2 8437   3.585   1.372   3.212
 2833TIP3    H1 8438   3.649   1.299   3.217
 2833TIP3    H2 8439   3.645   1.448   3.198
 2834TIP3   OH2 8440   3.394   1.649   3.285
 2834TIP3    H1 8441   3.441   1.637   3.199
 2834TIP3    H2 8442   3.412   1.742   3.301
 2835TIP3   OH2 8443   5.333   1.686   3.432
 2835TIP3    H1 8444   5.248   1.727   3.459
 2835TIP3    H2 8445   5.299   1.614   3.375
 2836TIP3   OH2 8446   3.372   1.139   2.768
 2836TIP3    H1 8447   3.280   1.145   2.800
 2836TIP3    H2 8448   3.372   1.206   2.696
 2837TIP3   OH2 8449   4.533   2.855   2.283
 2837TIP3    H1 8450   4.583   2.841   2.199
 2837TIP3    H2 8451   4.590   2.920   2.328
 2838TIP3   OH2 8452   3.598   1.243   3.596
 2838TIP3    H1 8453   3.543   1.224   3.674
 2838TIP3    H2 8454   3.530   1.263   3.529
 2839TIP3   OH2 8455   3.636   2.654   3.665
 2839TIP3    H1 8456   3.542   2.631   3.654
 2839TIP3    H2 8457   3.647   2.647   3.760
 2840TIP3   OH2 8458   3.812   2.689   3.213
 2840TIP3    H1 8459   3.767   2.768   3.177
 2840TIP3    H2 8460   3.899   2.702   3.170
 2841TIP3   OH2 8461   4.255   2.936   3.349
 2841TIP3    H1 8462   4.295   2.933   3.439
 2841TIP3    H2 8463   4.324   2.987   3.301
 2842TIP3   OH2 8464   4.442   3.091   3.215
 2842TIP3    H1 8465   4.511   3.037   3.173
 2842TIP3    H2 8466   4.494   3.153   3.268
 2843TIP3   OH2 8467   5.233   1.448   3.311
 2843TIP3    H1 8468   5.141   1.441   3.280
 2843TIP3    H2 8469   5.263   1.355   3.301
 2844TIP3   OH2 8470   3.489   2.954   3.235
 2844TIP3    H1 8471   3.397   2.983   3.219
 2844TIP3    H2 8472   3.505   2.993   3.322
 2845TIP3   OH2 8473   3.728   2.928   3.102
 2845TIP3    H1 8474   3.639   2.939   3.145
 2845TIP3    H2 8475   3.707   2.949   3.009
 2846TIP3   OH2 8476   4.153   2.954   2.895
 2846TIP3    H1 8477   4.085   2.974   2.829
 2846TIP3    H2 8478   4.165   3.041   2.938
 2847TIP3   OH2 8479   4.421   2.894   2.948
 2847TIP3    H1 8480   4.327   2.911   2.926
 2847TIP3    H2 8481   4.466   2.967   2.903
 2848TIP3   OH2 8482   4.625   3.084   2.860
 2848TIP3    H1 8483   4.613   3.169   2.812
 2848TIP3    H2 8484   4.654   3.024   2.788
 2849TIP3   OH2 8485   3.401   2.741   2.985
 2849TIP3    H1 8486   3.428   2.715   3.075
 2849TIP3    H2 8487   3.472   2.696   2.934
 2850TIP3   OH2 8488   3.595   2.613   2.843
 2850TIP3    H1 8489   3.609   2.528   2.891
 2850TIP3    H2 8490   3.686   2.647   2.837
 2851TIP3   OH2 8491   3.864   2.707   2.846
 2851TIP3    H1 8492   3.892   2.614   2.832
 2851TIP3    H2 8493   3.912   2.725   2.929
 2852TIP3   OH2 8494   4.436   1.363   2.932
 2852TIP3    H1 8495   4.392   1.295   2.985
 2852TIP3    H2 8496   4.509   1.313   2.890
 2853TIP3   OH2 8497   4.957   1.233   2.831
 2853TIP3    H1 8498   4.992   1.294   2.762
 2853TIP3    H2 8499   4.862   1.258   2.833
 2854TIP3   OH2 8500   5.055   1.343   2.596
 2854TIP3    H1 8501   5.133   1.292   2.570
 2854TIP3    H2 8502   5.089   1.434   2.586
 2855TIP3   OH2 8503   3.687   1.071   2.945
 2855TIP3    H1 8504   3.594   1.041   2.948
 2855TIP3    H2 8505   3.735   0.985   2.944
 2856TIP3   OH2 8506   3.477   0.939   2.597
 2856TIP3    H1 8507   3.508   0.996   2.524
 2856TIP3    H2 8508   3.448   1.008   2.662
 2857TIP3   OH2 8509   4.129   1.103   2.828
 2857TIP3    H1 8510   4.187   1.155   2.770
 2857TIP3    H2 8511   4.150   1.141   2.915
 2858TIP3   OH2 8512   4.676   1.251   2.811
 2858TIP3    H1 8513   4.667   1.212   2.723
 2858TIP3    H2 8514   4.662   1.172   2.868
 2859TIP3   OH2 8515   4.714   1.175   2.382
 2859TIP3    H1 8516   4.625   1.216   2.387
 2859TIP3    H2 8517   4.694   1.088   2.424
 2860TIP3   OH2 8518   3.187   2.512   2.373
 2860TIP3    H1 8519   3.102   2.481   2.338
 2860TIP3    H2 8520   3.178   2.607   2.353
 2861TIP3   OH2 8521   3.590   1.097   2.361
 2861TIP3    H1 8522   3.639   1.038   2.300
 2861TIP3    H2 8523   3.661   1.154   2.395
 2862TIP3   OH2 8524   4.101   1.276   2.457
 2862TIP3    H1 8525   4.160   1.230   2.519
 2862TIP3    H2 8526   4.122   1.369   2.482
 2863TIP3   OH2 8527   3.961   2.701   1.958
 2863TIP3    H1 8528   4.049   2.723   1.921
 2863TIP3    H2 8529   3.939   2.626   1.897
 2864TIP3   OH2 8530   4.678   2.820   2.051
 2864TIP3    H1 8531   4.671   2.722   2.038
 2864TIP3    H2 8532   4.635   2.852   1.969
 2865TIP3   OH2 8533   3.891   1.357   3.844
 2865TIP3    H1 8534   3.859   1.279   3.894
 2865TIP3    H2 8535   3.986   1.354   3.868
 2866TIP3   OH2 8536   4.142   1.350   3.957
 2866TIP3    H1 8537   4.228   1.323   3.920
 2866TIP3    H2 8538   4.129   1.281   4.026
 2867TIP3   OH2 8539   3.264   2.536   2.012
 2867TIP3    H1 8540   3.267   2.561   2.106
 2867TIP3    H2 8541   3.352   2.494   1.998
 2868TIP3   OH2 8542   4.968   1.411   3.746
 2868TIP3    H1 8543   4.984   1.380   3.838
 2868TIP3    H2 8544   5.057   1.405   3.707
 2869TIP3   OH2 8545   4.907   2.966   3.235
 2869TIP3    H1 8546   4.827   2.935   3.188
 2869TIP3    H2 8547   4.888   3.061   3.241
 2870TIP3   OH2 8548   6.173   2.339   2.002
 2870TIP3    H1 8549   6.140   2.429   1.979
 2870TIP3    H2 8550   6.099   2.285   1.969
 2871TIP3   OH2 8551   6.172   2.338   2.386
 2871TIP3    H1 8552   6.205   2.308   2.473
 2871TIP3    H2 8553   6.132   2.256   2.351
 2872TIP3   OH2 8554   5.470   2.230   2.750
 2872TIP3    H1 8555   5.500   2.162   2.813
 2872TIP3    H2 8556   5.547   2.288   2.747
 2873TIP3   OH2 8557   6.422   2.637   2.066
 2873TIP3    H1 8558   6.400   2.560   2.120
 2873TIP3    H2 8559   6.434   2.706   2.133
 2874TIP3   OH2 8560   5.441   2.640   2.472
 2874TIP3    H1 8561   5.433   2.542   2.475
 2874TIP3    H2 8562   5.538   2.650   2.470
 2875TIP3   OH2 8563   5.146   1.835   2.260
 2875TIP3    H1 8564   5.106   1.922   2.279
 2875TIP3    H2 8565   5.073   1.794   2.210
 2876TIP3   OH2 8566   5.207   2.130   2.431
 2876TIP3    H1 8567   5.258   2.054   2.467
 2876TIP3    H2 8568   5.270   2.168   2.368
 2877TIP3   OH2 8569   6.062   3.102   2.082
 2877TIP3    H1 8570   6.111   3.029   2.039
 2877TIP3    H2 8571   6.046   3.067   2.170
 2878TIP3   OH2 8572   5.970   2.562   2.432
 2878TIP3    H1 8573   6.008   2.484   2.388
 2878TIP3    H2 8574   6.054   2.607   2.458
 2879TIP3   OH2 8575   6.981   1.882   2.429
 2879TIP3    H1 8576   7.013   1.965   2.470
 2879TIP3    H2 8577   7.010   1.894   2.337
 2880TIP3   OH2 8578   6.381   2.064   2.464
 2880TIP3    H1 8579   6.425   1.979   2.485
 2880TIP3    H2 8580   6.351   2.046   2.373
 2881TIP3   OH2 8581   5.718   1.722   2.431
 2881TIP3    H1 8582   5.703   1.795   2.368
 2881TIP3    H2 8583   5.670   1.650   2.385
 2882TIP3   OH2 8584   6.415   1.816   2.051
 2882TIP3    H1 8585   6.486   1.799   2.117
 2882TIP3    H2 8586   6.468   1.848   1.976
 2883TIP3   OH2 8587   5.354   1.924   2.537
 2883TIP3    H1 8588   5.437   1.908   2.586
 2883TIP3    H2 8589   5.371   1.870   2.457
 2884TIP3   OH2 8590   5.795   2.122   2.331
 2884TIP3    H1 8591   5.890   2.098   2.343
 2884TIP3    H2 8592   5.757   2.038   2.298
 2885TIP3   OH2 8593   7.058   2.090   2.599
 2885TIP3    H1 8594   6.973   2.135   2.581
 2885TIP3    H2 8595   7.071   2.115   2.692
 2886TIP3   OH2 8596   5.716   1.706   2.864
 2886TIP3    H1 8597   5.656   1.745   2.798
 2886TIP3    H2 8598   5.665   1.723   2.946
 2887TIP3   OH2 8599   6.065   2.560   1.872
 2887TIP3    H1 8600   6.023   2.537   1.788
 2887TIP3    H2 8601   6.018   2.643   1.894
 2888TIP3   OH2 8602   5.823   2.482   2.658
 2888TIP3    H1 8603   5.762   2.548   2.697
 2888TIP3    H2 8604   5.865   2.533   2.586
 2889TIP3   OH2 8605   6.622   1.818   2.225
 2889TIP3    H1 8606   6.619   1.766   2.306
 2889TIP3    H2 8607   6.678   1.893   2.251
 2890TIP3   OH2 8608   5.587   1.822   2.649
 2890TIP3    H1 8609   5.649   1.894   2.674
 2890TIP3    H2 8610   5.637   1.781   2.574
 2891TIP3   OH2 8611   5.651   2.676   2.756
 2891TIP3    H1 8612   5.626   2.763   2.720
 2891TIP3    H2 8613   5.572   2.659   2.813
 2892TIP3   OH2 8614   5.044   2.365   1.993
 2892TIP3    H1 8615   5.005   2.392   1.908
 2892TIP3    H2 8616   5.076   2.451   2.029
 2893TIP3   OH2 8617   6.483   2.890   2.211
 2893TIP3    H1 8618   6.410   2.857   2.269
 2893TIP3    H2 8619   6.443   2.977   2.192
 2894TIP3   OH2 8620   6.777   1.783   2.597
 2894TIP3    H1 8621   6.689   1.810   2.565
 2894TIP3    H2 8622   6.837   1.814   2.526
 2895TIP3   OH2 8623   6.070   1.424   2.575
 2895TIP3    H1 8624   6.059   1.329   2.596
 2895TIP3    H2 8625   5.994   1.462   2.625
 2896TIP3   OH2 8626   6.199   2.929   1.919
 2896TIP3    H1 8627   6.237   2.843   1.892
 2896TIP3    H2 8628   6.261   2.989   1.872
 2897TIP3   OH2 8629   6.333   2.714   1.817
 2897TIP3    H1 8630   6.299   2.638   1.768
 2897TIP3    H2 8631   6.365   2.672   1.899
 2898TIP3   OH2 8632   6.711   2.795   2.577
 2898TIP3    H1 8633   6.698   2.715   2.522
 2898TIP3    H2 8634   6.698   2.868   2.513
 2899TIP3   OH2 8635   6.004   2.190   1.835
 2899TIP3    H1 8636   5.924   2.240   1.812
 2899TIP3    H2 8637   6.049   2.183   1.749
 2900TIP3   OH2 8638   5.962   1.971   1.550
 2900TIP3    H1 8639   6.030   2.024   1.596
 2900TIP3    H2 8640   6.019   1.908   1.502
 2901TIP3   OH2 8641   6.906   2.434   2.425
 2901TIP3    H1 8642   6.822   2.484   2.431
 2901TIP3    H2 8643   6.932   2.452   2.333
 2902TIP3   OH2 8644   6.351   2.272   1.804
 2902TIP3    H1 8645   6.296   2.294   1.883
 2902TIP3    H2 8646   6.434   2.244   1.848
 2903TIP3   OH2 8647   6.585   2.309   2.719
 2903TIP3    H1 8648   6.582   2.392   2.772
 2903TIP3    H2 8649   6.498   2.314   2.675
 2904TIP3   OH2 8650   5.583   2.268   2.224
 2904TIP3    H1 8651   5.541   2.210   2.156
 2904TIP3    H2 8652   5.660   2.214   2.252
 2905TIP3   OH2 8653   5.713   2.681   2.370
 2905TIP3    H1 8654   5.691   2.640   2.285
 2905TIP3    H2 8655   5.802   2.644   2.388
 2906TIP3   OH2 8656   5.718   2.239   2.576
 2906TIP3    H1 8657   5.753   2.216   2.488
 2906TIP3    H2 8658   5.762   2.325   2.596
 2907TIP3   OH2 8659   6.262   2.872   2.357
 2907TIP3    H1 8660   6.234   2.953   2.404
 2907TIP3    H2 8661   6.235   2.801   2.419
 2908TIP3   OH2 8662   5.858   2.795   2.900
 2908TIP3    H1 8663   5.799   2.857   2.947
 2908TIP3    H2 8664   5.792   2.742   2.851
 2909TIP3   OH2 8665   6.188   2.131   1.631
 2909TIP3    H1 8666   6.249   2.189   1.682
 2909TIP3    H2 8667   6.215   2.152   1.539
 2910TIP3   OH2 8668   5.611   2.352   3.002
 2910TIP3    H1 8669   5.617   2.439   3.046
 2910TIP3    H2 8670   5.516   2.332   3.016
 2911TIP3   OH2 8671   5.937   2.807   1.903
 2911TIP3    H1 8672   6.006   2.869   1.931
 2911TIP3    H2 8673   5.871   2.864   1.862
 2912TIP3   OH2 8674   5.652   2.960   2.988
 2912TIP3    H1 8675   5.614   2.963   2.898
 2912TIP3    H2 8676   5.572   2.941   3.042
 2913TIP3   OH2 8677   6.706   1.367   1.680
 2913TIP3    H1 8678   6.624   1.391   1.728
 2913TIP3    H2 8679   6.721   1.448   1.626
 2914TIP3   OH2 8680   5.447   2.111   2.030
 2914TIP3    H1 8681   5.383   2.158   1.972
 2914TIP3    H2 8682   5.408   2.023   2.034
 2915TIP3   OH2 8683   6.506   2.737   1.234
 2915TIP3    H1 8684   6.514   2.833   1.212
 2915TIP3    H2 8685   6.597   2.706   1.218
 2916TIP3   OH2 8686   5.229   2.494   2.936
 2916TIP3    H1 8687   5.164   2.472   2.866
 2916TIP3    H2 8688   5.267   2.407   2.959
 2917TIP3   OH2 8689   5.085   2.687   2.568
 2917TIP3    H1 8690   5.181   2.682   2.558
 2917TIP3    H2 8691   5.076   2.766   2.623
 2918TIP3   OH2 8692   6.952   3.137   2.627
 2918TIP3    H1 8693   6.949   3.041   2.646
 2918TIP3    H2 8694   6.868   3.166   2.669
 2919TIP3   OH2 8695   6.054   2.925   2.757
 2919TIP3    H1 8696   6.053   3.017   2.791
 2919TIP3    H2 8697   5.983   2.885   2.812
 2920TIP3   OH2 8698   5.819   3.055   1.708
 2920TIP3    H1 8699   5.769   3.034   1.627
 2920TIP3    H2 8700   5.782   3.142   1.735
 2921TIP3   OH2 8701   5.253   2.902   2.094
 2921TIP3    H1 8702   5.301   2.894   2.180
 2921TIP3    H2 8703   5.197   2.823   2.097
 2922TIP3   OH2 8704   6.018   2.957   1.350
 2922TIP3    H1 8705   6.076   2.886   1.312
 2922TIP3    H2 8706   6.053   2.963   1.441
 2923TIP3   OH2 8707   6.070   3.004   1.623
 2923TIP3    H1 8708   5.979   3.017   1.658
 2923TIP3    H2 8709   6.107   2.946   1.691
 2924TIP3   OH2 8710   6.839   2.270   2.898
 2924TIP3    H1 8711   6.756   2.280   2.849
 2924TIP3    H2 8712   6.855   2.174   2.888
 2925TIP3   OH2 8713   5.435   2.676   2.921
 2925TIP3    H1 8714   5.484   2.663   3.005
 2925TIP3    H2 8715   5.360   2.614   2.931
 2926TIP3   OH2 8716   5.834   1.501   2.709
 2926TIP3    H1 8717   5.744   1.472   2.682
 2926TIP3    H2 8718   5.810   1.583   2.756
 2927TIP3   OH2 8719   6.369   1.615   2.902
 2927TIP3    H1 8720   6.438   1.588   2.966
 2927TIP3    H2 8721   6.286   1.596   2.950
 2928TIP3   OH2 8722   6.606   2.045   2.821
 2928TIP3    H1 8723   6.556   2.041   2.905
 2928TIP3    H2 8724   6.582   2.133   2.786
 2929TIP3   OH2 8725   6.268   2.181   1.379
 2929TIP3    H1 8726   6.232   2.151   1.294
 2929TIP3    H2 8727   6.353   2.220   1.351
 2930TIP3   OH2 8728   5.975   1.552   1.679
 2930TIP3    H1 8729   5.943   1.546   1.771
 2930TIP3    H2 8730   5.942   1.467   1.644
 2931TIP3   OH2 8731   5.764   2.017   2.726
 2931TIP3    H1 8732   5.716   2.040   2.808
 2931TIP3    H2 8733   5.749   2.098   2.673
 2932TIP3   OH2 8734   5.651   1.903   2.241
 2932TIP3    H1 8735   5.557   1.880   2.257
 2932TIP3    H2 8736   5.664   1.863   2.152
 2933TIP3   OH2 8737   6.141   1.988   1.969
 2933TIP3    H1 8738   6.089   2.059   1.924
 2933TIP3    H2 8739   6.196   1.955   1.895
 2934TIP3   OH2 8740   6.315   2.265   3.053
 2934TIP3    H1 8741   6.293   2.193   3.115
 2934TIP3    H2 8742   6.408   2.281   3.075
 2935TIP3   OH2 8743   6.296   2.017   2.206
 2935TIP3    H1 8744   6.235   2.042   2.134
 2935TIP3    H2 8745   6.333   1.936   2.164
 2936TIP3   OH2 8746   5.584   2.045   2.935
 2936TIP3    H1 8747   5.614   2.109   3.002
 2936TIP3    H2 8748   5.575   1.964   2.988
 2937TIP3   OH2 8749   5.633   1.523   1.645
 2937TIP3    H1 8750   5.625   1.521   1.742
 2937TIP3    H2 8751   5.555   1.577   1.620
 2938TIP3   OH2 8752   5.197   1.557   2.505
 2938TIP3    H1 8753   5.246   1.591   2.584
 2938TIP3    H2 8754   5.248   1.600   2.435
 2939TIP3   OH2 8755   5.143   1.520   2.077
 2939TIP3    H1 8756   5.198   1.539   1.998
 2939TIP3    H2 8757   5.092   1.604   2.076
 2940TIP3   OH2 8758   6.308   2.263   2.629
 2940TIP3    H1 8759   6.341   2.191   2.570
 2940TIP3    H2 8760   6.278   2.210   2.706
 2941TIP3   OH2 8761   5.978   1.728   2.302
 2941TIP3    H1 8762   5.898   1.724   2.359
 2941TIP3    H2 8763   6.050   1.720   2.367
 2942TIP3   OH2 8764   5.409   1.779   2.311
 2942TIP3    H1 8765   5.317   1.788   2.277
 2942TIP3    H2 8766   5.439   1.693   2.276
 2943TIP3   OH2 8767   5.678   1.776   1.999
 2943TIP3    H1 8768   5.773   1.790   1.980
 2943TIP3    H2 8769   5.633   1.799   1.914
 2944TIP3   OH2 8770   6.470   1.803   2.505
 2944TIP3    H1 8771   6.434   1.814   2.596
 2944TIP3    H2 8772   6.405   1.740   2.467
 2945TIP3   OH2 8773   5.523   1.810   1.775
 2945TIP3    H1 8774   5.454   1.765   1.723
 2945TIP3    H2 8775   5.577   1.849   1.703
 2946TIP3   OH2 8776   6.641   3.488   2.723
 2946TIP3    H1 8777   6.641   3.517   2.630
 2946TIP3    H2 8778   6.716   3.539   2.759
 2947TIP3   OH2 8779   5.597   2.599   3.143
 2947TIP3    H1 8780   5.677   2.629   3.191
 2947TIP3    H2 8781   5.532   2.599   3.216
 2948TIP3   OH2 8782   6.060   2.054   2.399
 2948TIP3    H1 8783   6.133   2.015   2.348
 2948TIP3    H2 8784   6.069   2.010   2.485
 2949TIP3   OH2 8785   5.577   1.543   2.272
 2949TIP3    H1 8786   5.557   1.461   2.321
 2949TIP3    H2 8787   5.636   1.512   2.202
 2950TIP3   OH2 8788   6.036   1.950   2.690
 2950TIP3    H1 8789   5.947   1.988   2.703
 2950TIP3    H2 8790   6.094   2.011   2.739
 2951TIP3   OH2 8791   5.773   2.341   1.783
 2951TIP3    H1 8792   5.701   2.275   1.772
 2951TIP3    H2 8793   5.753   2.374   1.875
 2952TIP3   OH2 8794   6.669   2.576   2.417
 2952TIP3    H1 8795   6.695   2.619   2.333
 2952TIP3    H2 8796   6.586   2.529   2.391
 2953TIP3   OH2 8797   6.231   1.649   1.655
 2953TIP3    H1 8798   6.134   1.633   1.655
 2953TIP3    H2 8799   6.240   1.745   1.671
 2954TIP3   OH2 8800   6.175   2.662   2.779
 2954TIP3    H1 8801   6.199   2.637   2.869
 2954TIP3    H2 8802   6.132   2.748   2.790
 2955TIP3   OH2 8803   6.300   1.903   1.753
 2955TIP3    H1 8804   6.397   1.905   1.764
 2955TIP3    H2 8805   6.283   1.980   1.695
 2956TIP3   OH2 8806   5.464   2.360   2.459
 2956TIP3    H1 8807   5.504   2.333   2.374
 2956TIP3    H2 8808   5.510   2.302   2.522
 2957TIP3   OH2 8809   5.919   2.491   1.607
 2957TIP3    H1 8810   5.870   2.577   1.611
 2957TIP3    H2 8811   5.863   2.436   1.666
 2958TIP3   OH2 8812   5.347   2.283   3.073
 2958TIP3    H1 8813   5.369   2.271   3.167
 2958TIP3    H2 8814   5.279   2.215   3.060
 2959TIP3   OH2 8815   6.073   2.398   3.091
 2959TIP3    H1 8816   6.014   2.337   3.044
 2959TIP3    H2 8817   6.161   2.363   3.064
 2960TIP3   OH2 8818   6.331   2.924   2.671
 2960TIP3    H1 8819   6.236   2.918   2.690
 2960TIP3    H2 8820   6.362   2.970   2.752
 2961TIP3   OH2 8821   6.741   1.991   1.587
 2961TIP3    H1 8822   6.679   1.947   1.524
 2961TIP3    H2 8823   6.740   2.079   1.544
 2962TIP3   OH2 8824   6.961   2.847   2.668
 2962TIP3    H1 8825   6.863   2.843   2.661
 2962TIP3    H2 8826   6.986   2.818   2.578
 2963TIP3   OH2 8827   6.452   2.806   1.499
 2963TIP3    H1 8828   6.416   2.733   1.550
 2963TIP3    H2 8829   6.460   2.767   1.410
 2964TIP3   OH2 8830   6.439   2.440   2.328
 2964TIP3    H1 8831   6.346   2.414   2.344
 2964TIP3    H2 8832   6.473   2.358   2.285
 2965TIP3   OH2 8833   5.567   2.667   2.083
 2965TIP3    H1 8834   5.564   2.749   2.030
 2965TIP3    H2 8835   5.473   2.649   2.095
 2966TIP3   OH2 8836   5.134   1.968   1.790
 2966TIP3    H1 8837   5.177   2.054   1.808
 2966TIP3    H2 8838   5.055   1.974   1.848
 2967TIP3   OH2 8839   5.704   2.432   2.028
 2967TIP3    H1 8840   5.668   2.521   2.046
 2967TIP3    H2 8841   5.668   2.381   2.104
 2968TIP3   OH2 8842   5.836   3.009   2.553
 2968TIP3    H1 8843   5.876   3.084   2.506
 2968TIP3    H2 8844   5.911   2.976   2.605
 2969TIP3   OH2 8845   5.487   2.905   1.937
 2969TIP3    H1 8846   5.400   2.915   1.983
 2969TIP3    H2 8847   5.519   2.998   1.939
 2970TIP3   OH2 8848   6.224   2.643   2.512
 2970TIP3    H1 8849   6.211   2.644   2.610
 2970TIP3    H2 8850   6.301   2.585   2.505
 2971TIP3   OH2 8851   6.199   2.541   1.396
 2971TIP3    H1 8852   6.251   2.514   1.475
 2971TIP3    H2 8853   6.111   2.509   1.420
 2972TIP3   OH2 8854   6.475   3.172   2.557
 2972TIP3    H1 8855   6.394   3.118   2.557
 2972TIP3    H2 8856   6.456   3.239   2.488
 2973TIP3   OH2 8857   6.536   3.012   1.213
 2973TIP3    H1 8858   6.571   3.080   1.154
 2973TIP3    H2 8859   6.456   3.059   1.246
 2974TIP3   OH2 8860   5.558   1.787   3.080
 2974TIP3    H1 8861   5.462   1.792   3.097
 2974TIP3    H2 8862   5.588   1.732   3.154
 2975TIP3   OH2 8863   6.359   2.479   1.616
 2975TIP3    H1 8864   6.347   2.408   1.682
 2975TIP3    H2 8865   6.456   2.470   1.600
 2976TIP3   OH2 8866   5.274   2.872   2.713
 2976TIP3    H1 8867   5.328   2.799   2.748
 2976TIP3    H2 8868   5.300   2.945   2.770
 2977TIP3   OH2 8869   5.567   2.517   1.395
 2977TIP3    H1 8870   5.577   2.424   1.366
 2977TIP3    H2 8871   5.544   2.506   1.489
 2978TIP3   OH2 8872   5.510   2.523   1.667
 2978TIP3    H1 8873   5.583   2.497   1.725
 2978TIP3    H2 8874   5.513   2.621   1.673
 2979TIP3   OH2 8875   5.244   2.216   1.871
 2979TIP3    H1 8876   5.178   2.262   1.927
 2979TIP3    H2 8877   5.258   2.284   1.802
 2980TIP3   OH2 8878   6.394   1.853   2.764
 2980TIP3    H1 8879   6.475   1.891   2.802
 2980TIP3    H2 8880   6.381   1.772   2.818
 2981TIP3   OH2 8881   6.270   1.604   1.931
 2981TIP3    H1 8882   6.260   1.623   1.835
 2981TIP3    H2 8883   6.313   1.687   1.963
 2982TIP3   OH2 8884   5.777   2.722   1.617
 2982TIP3    H1 8885   5.689   2.746   1.652
 2982TIP3    H2 8886   5.788   2.790   1.550
 2983TIP3   OH2 8887   5.960   1.786   2.030
 2983TIP3    H1 8888   6.026   1.855   2.011
 2983TIP3    H2 8889   5.969   1.776   2.128
 2984TIP3   OH2 8890   6.234   2.102   2.836
 2984TIP3    H1 8891   6.256   2.154   2.916
 2984TIP3    H2 8892   6.287   2.022   2.848
 2985TIP3   OH2 8893   6.106   1.508   2.130
 2985TIP3    H1 8894   6.105   1.583   2.192
 2985TIP3    H2 8895   6.167   1.542   2.061
 2986TIP3   OH2 8896   5.521   2.795   1.684
 2986TIP3    H1 8897   5.490   2.864   1.621
 2986TIP3    H2 8898   5.503   2.839   1.770
 2987TIP3   OH2 8899   5.619   1.510   1.924
 2987TIP3    H1 8900   5.620   1.602   1.957
 2987TIP3    H2 8901   5.715   1.490   1.929
 2988TIP3   OH2 8902   6.874   2.003   2.817
 2988TIP3    H1 8903   6.776   2.002   2.825
 2988TIP3    H2 8904   6.883   1.956   2.733
 2989TIP3   OH2 8905   6.523   2.198   2.206
 2989TIP3    H1 8906   6.448   2.137   2.217
 2989TIP3    H2 8907   6.596   2.150   2.253
 2990TIP3   OH2 8908   5.236   2.423   1.676
 2990TIP3    H1 8909   5.301   2.496   1.682
 2990TIP3    H2 8910   5.282   2.368   1.608
 2991TIP3   OH2 8911   5.169   1.694   1.834
 2991TIP3    H1 8912   5.182   1.790   1.819
 2991TIP3    H2 8913   5.103   1.674   1.766
 2992TIP3   OH2 8914   6.557   3.151   2.108
 2992TIP3    H1 8915   6.495   3.214   2.061
 2992TIP3    H2 8916   6.582   3.205   2.184
 2993TIP3   OH2 8917   5.566   1.423   2.683
 2993TIP3    H1 8918   5.539   1.386   2.596
 2993TIP3    H2 8919   5.560   1.344   2.741
 2994TIP3   OH2 8920   5.107   2.637   2.061
 2994TIP3    H1 8921   5.038   2.669   2.121
 2994TIP3    H2 8922   5.079   2.679   1.977
 2995TIP3   OH2 8923   5.269   3.184   3.132
 2995TIP3    H1 8924   5.354   3.187   3.182
 2995TIP3    H2 8925   5.250   3.088   3.134
 2996TIP3   OH2 8926   5.742   3.145   3.180
 2996TIP3    H1 8927   5.838   3.133   3.188
 2996TIP3    H2 8928   5.722   3.084   3.107
 2997TIP3   OH2 8929   5.729   2.721   1.307
 2997TIP3    H1 8930   5.671   2.650   1.344
 2997TIP3    H2 8931   5.803   2.667   1.274
 2998TIP3   OH2 8932   6.391   3.047   2.907
 2998TIP3    H1 8933   6.379   2.981   2.980
 2998TIP3    H2 8934   6.464   3.102   2.942
 2999TIP3   OH2 8935   6.164   2.762   1.221
 2999TIP3    H1 8936   6.204   2.693   1.277
 2999TIP3    H2 8937   6.218   2.758   1.139
 3000TIP3   OH2 8938   5.396   2.587   3.334
 3000TIP3    H1 8939   5.411   2.492   3.342
 3000TIP3    H2 8940   5.308   2.590   3.290
 3001TIP3   OH2 8941   5.372   2.238   1.529
 3001TIP3    H1 8942   5.430   2.206   1.601
 3001TIP3    H2 8943   5.438   2.242   1.456
 3002TIP3   OH2 8944   6.003   2.674   3.108
 3002TIP3    H1 8945   5.961   2.691   3.022
 3002TIP3    H2 8946   6.034   2.581   3.099
 3003TIP3   OH2 8947   5.887   2.438   1.336
 3003TIP3    H1 8948   5.886   2.449   1.433
 3003TIP3    H2 8949   5.887   2.340   1.329
 3004TIP3   OH2 8950   6.495   2.680   2.714
 3004TIP3    H1 8951   6.569   2.729   2.673
 3004TIP3    H2 8952   6.422   2.745   2.702
 3005TIP3   OH2 8953   5.515   2.320   3.317
 3005TIP3    H1 8954   5.592   2.267   3.296
 3005TIP3    H2 8955   5.540   2.356   3.405
 3006TIP3   OH2 8956   5.581   2.143   1.750
 3006TIP3    H1 8957   5.555   2.098   1.832
 3006TIP3    H2 8958   5.618   2.068   1.698
 3007TIP3   OH2 8959   5.848   2.204   2.976
 3007TIP3    H1 8960   5.771   2.266   2.979
 3007TIP3    H2 8961   5.900   2.240   2.901
 3008TIP3   OH2 8962   5.682   1.936   1.591
 3008TIP3    H1 8963   5.656   1.941   1.497
 3008TIP3    H2 8964   5.779   1.938   1.584
 3009TIP3   OH2 8965   6.366   2.608   3.111
 3009TIP3    H1 8966   6.448   2.584   3.068
 3009TIP3    H2 8967   6.361   2.543   3.184
 3010TIP3   OH2 8968   6.502   2.267   1.255
 3010TIP3    H1 8969   6.483   2.220   1.172
 3010TIP3    H2 8970   6.468   2.356   1.231
 3011TIP3   OH2 8971   5.972   1.995   3.104
 3011TIP3    H1 8972   5.974   1.915   3.047
 3011TIP3    H2 8973   5.928   2.061   3.046
 3012TIP3   OH2 8974   5.975   1.781   2.912
 3012TIP3    H1 8975   6.004   1.823   2.828
 3012TIP3    H2 8976   5.881   1.759   2.893
 3013TIP3   OH2 8977   6.000   2.315   2.785
 3013TIP3    H1 8978   6.085   2.325   2.740
 3013TIP3    H2 8979   5.944   2.382   2.740
 3014TIP3   OH2 8980   6.583   2.283   3.165
 3014TIP3    H1 8981   6.632   2.200   3.179
 3014TIP3    H2 8982   6.652   2.342   3.132
 3015TIP3   OH2 8983   6.626   2.536   2.900
 3015TIP3    H1 8984   6.567   2.589   2.842
 3015TIP3    H2 8985   6.713   2.557   2.861
 3016TIP3   OH2 8986   5.850   2.106   3.335
 3016TIP3    H1 8987   5.782   2.037   3.351
 3016TIP3    H2 8988   5.885   2.078   3.248
 3017TIP3   OH2 8989   6.108   1.544   2.979
 3017TIP3    H1 8990   6.058   1.626   2.957
 3017TIP3    H2 8991   6.038   1.475   2.969
 3018TIP3   OH2 8992   6.234   2.048   3.196
 3018TIP3    H1 8993   6.223   2.035   3.292
 3018TIP3    H2 8994   6.143   2.024   3.166
 3019TIP3   OH2 8995   6.472   1.997   3.050
 3019TIP3    H1 8996   6.398   1.999   3.113
 3019TIP3    H2 8997   6.546   1.967   3.106
 3020TIP3   OH2 8998   6.702   1.939   3.199
 3020TIP3    H1 8999   6.714   1.843   3.217
 3020TIP3    H2 9000   6.697   1.977   3.289
 3021TIP3   OH2 9001   5.689   1.885   3.389
 3021TIP3    H1 9002   5.697   1.793   3.356
 3021TIP3    H2 9003   5.726   1.875   3.479
 3022TIP3   OH2 9004   6.201   1.554   3.237
 3022TIP3    H1 9005   6.269   1.483   3.232
 3022TIP3    H2 9006   6.162   1.548   3.148
 3023TIP3   OH2 9007   6.268   1.770   3.396
 3023TIP3    H1 9008   6.246   1.698   3.332
 3023TIP3    H2 9009   6.189   1.828   3.389
 3024TIP3   OH2 9010   5.489   2.997   1.497
 3024TIP3    H1 9011   5.583   2.995   1.475
 3024TIP3    H2 9012   5.455   3.043   1.418
 3025TIP3   OH2 9013   4.968   2.378   1.714
 3025TIP3    H1 9014   5.063   2.401   1.698
 3025TIP3    H2 9015   4.962   2.290   1.671
 3026TIP3   OH2 9016   4.882   2.992   2.127
 3026TIP3    H1 9017   4.817   2.930   2.089
 3026TIP3    H2 9018   4.928   2.933   2.192
 3027TIP3   OH2 9019   5.019   2.841   2.312
 3027TIP3    H1 9020   5.008   2.769   2.376
 3027TIP3    H2 9021   5.071   2.904   2.366
 3028TIP3   OH2 9022   6.760   3.262   2.399
 3028TIP3    H1 9023   6.734   3.168   2.401
 3028TIP3    H2 9024   6.848   3.257   2.438
 3029TIP3   OH2 9025   6.821   2.939   2.966
 3029TIP3    H1 9026   6.749   2.949   3.032
 3029TIP3    H2 9027   6.863   3.028   2.971
 3030TIP3   OH2 9028   6.636   2.455   1.590
 3030TIP3    H1 9029   6.706   2.514   1.556
 3030TIP3    H2 9030   6.681   2.414   1.668
 3031TIP3   OH2 9031   6.764   2.325   1.794
 3031TIP3    H1 9032   6.699   2.278   1.850
 3031TIP3    H2 9033   6.831   2.355   1.859
 3032TIP3   OH2 9034   6.815   2.701   2.222
 3032TIP3    H1 9035   6.877   2.632   2.189
 3032TIP3    H2 9036   6.825   2.770   2.157
 3033TIP3   OH2 9037   6.645   3.008   2.413
 3033TIP3    H1 9038   6.584   3.055   2.474
 3033TIP3    H2 9039   6.584   2.957   2.357
 3034TIP3   OH2 9040   6.705   2.231   1.437
 3034TIP3    H1 9041   6.634   2.229   1.369
 3034TIP3    H2 9042   6.672   2.305   1.492
 3035TIP3   OH2 9043   6.572   1.908   1.392
 3035TIP3    H1 9044   6.532   1.932   1.308
 3035TIP3    H2 9045   6.547   1.812   1.396
 3036TIP3   OH2 9046   6.580   2.177   1.936
 3036TIP3    H1 9047   6.587   2.081   1.926
 3036TIP3    H2 9048   6.566   2.187   2.033
 3037TIP3   OH2 9049   5.205   2.250   2.684
 3037TIP3    H1 9050   5.204   2.220   2.591
 3037TIP3    H2 9051   5.303   2.252   2.701
 3038TIP3   OH2 9052   6.869   2.603   2.793
 3038TIP3    H1 9053   6.941   2.535   2.785
 3038TIP3    H2 9054   6.900   2.673   2.734
 3039TIP3   OH2 9055   7.054   2.407   2.808
 3039TIP3    H1 9056   6.979   2.357   2.848
 3039TIP3    H2 9057   7.127   2.343   2.824
 3040TIP3   OH2 9058   6.510   1.646   1.402
 3040TIP3    H1 9059   6.592   1.602   1.432
 3040TIP3    H2 9060   6.448   1.572   1.392
 3041TIP3   OH2 9061   6.578   1.895   1.831
 3041TIP3    H1 9062   6.616   1.806   1.848
 3041TIP3    H2 9063   6.635   1.924   1.758
 3042TIP3   OH2 9064   6.736   2.069   2.327
 3042TIP3    H1 9065   6.822   2.094   2.286
 3042TIP3    H2 9066   6.752   2.103   2.417
 3043TIP3   OH2 9067   6.807   2.211   2.559
 3043TIP3    H1 9068   6.729   2.245   2.608
 3043TIP3    H2 9069   6.840   2.292   2.516
 3044TIP3   OH2 9070   5.423   1.936   3.353
 3044TIP3    H1 9071   5.521   1.931   3.360
 3044TIP3    H2 9072   5.399   1.851   3.397
 3045TIP3   OH2 9073   7.261   1.804   3.114
 3045TIP3    H1 9074   7.317   1.738   3.070
 3045TIP3    H2 9075   7.229   1.858   3.038
 3046TIP3   OH2 9076   6.682   1.646   1.872
 3046TIP3    H1 9077   6.733   1.627   1.954
 3046TIP3    H2 9078   6.624   1.567   1.869
 3047TIP3   OH2 9079   5.382   1.632   2.692
 3047TIP3    H1 9080   5.445   1.558   2.702
 3047TIP3    H2 9081   5.444   1.707   2.684
 3048TIP3   OH2 9082   5.185   1.901   2.760
 3048TIP3    H1 9083   5.239   1.904   2.678
 3048TIP3    H2 9084   5.210   1.985   2.802
 3049TIP3   OH2 9085   7.128   1.941   2.920
 3049TIP3    H1 9086   7.042   1.983   2.940
 3049TIP3    H2 9087   7.098   1.869   2.861
 3050TIP3   OH2 9088   6.768   1.574   1.503
 3050TIP3    H1 9089   6.804   1.503   1.445
 3050TIP3    H2 9090   6.833   1.645   1.492
 3051TIP3   OH2 9091   6.367   3.098   1.784
 3051TIP3    H1 9092   6.391   3.087   1.690
 3051TIP3    H2 9093   6.368   3.195   1.793
 3052TIP3   OH2 9094   5.390   1.485   3.075
 3052TIP3    H1 9095   5.342   1.481   3.159
 3052TIP3    H2 9096   5.323   1.524   3.017
 3053TIP3   OH2 9097   5.431   2.912   3.153
 3053TIP3    H1 9098   5.338   2.888   3.139
 3053TIP3    H2 9099   5.442   2.899   3.248
 3054TIP3   OH2 9100   5.608   2.946   2.700
 3054TIP3    H1 9101   5.561   3.023   2.662
 3054TIP3    H2 9102   5.695   2.960   2.657
 3055TIP3   OH2 9103   6.054   3.191   2.836
 3055TIP3    H1 9104   6.093   3.191   2.926
 3055TIP3    H2 9105   6.120   3.244   2.787
 3056TIP3   OH2 9106   6.237   3.341   2.697
 3056TIP3    H1 9107   6.314   3.289   2.670
 3056TIP3    H2 9108   6.280   3.403   2.760
 3057TIP3   OH2 9109   7.026   1.704   2.800
 3057TIP3    H1 9110   6.936   1.694   2.765
 3057TIP3    H2 9111   7.060   1.612   2.789
 3058TIP3   OH2 9112   5.285   3.202   2.727
 3058TIP3    H1 9113   5.195   3.236   2.705
 3058TIP3    H2 9114   5.300   3.247   2.811
 3059TIP3   OH2 9115   5.521   3.181   2.583
 3059TIP3    H1 9116   5.435   3.194   2.628
 3059TIP3    H2 9117   5.502   3.215   2.494
 3060TIP3   OH2 9118   5.948   3.209   2.380
 3060TIP3    H1 9119   5.876   3.230   2.317
 3060TIP3    H2 9120   5.959   3.296   2.425
 3061TIP3   OH2 9121   6.216   3.150   2.416
 3061TIP3    H1 9122   6.120   3.164   2.406
 3061TIP3    H2 9123   6.250   3.240   2.408
 3062TIP3   OH2 9124   6.420   3.346   2.340
 3062TIP3    H1 9125   6.410   3.442   2.322
 3062TIP3    H2 9126   6.398   3.313   2.252
 3063TIP3   OH2 9127   5.196   2.996   2.471
 3063TIP3    H1 9128   5.223   2.971   2.561
 3063TIP3    H2 9129   5.268   2.953   2.420
 3064TIP3   OH2 9130   5.391   2.869   2.328
 3064TIP3    H1 9131   5.406   2.785   2.378
 3064TIP3    H2 9132   5.481   2.905   2.323
 3065TIP3   OH2 9133   5.658   2.962   2.331
 3065TIP3    H1 9134   5.688   2.870   2.322
 3065TIP3    H2 9135   5.702   2.985   2.415
 3066TIP3   OH2 9136   6.229   1.618   2.413
 3066TIP3    H1 9137   6.189   1.547   2.467
 3066TIP3    H2 9138   6.306   1.574   2.372
 3067TIP3   OH2 9139   6.754   1.504   2.326
 3067TIP3    H1 9140   6.792   1.552   2.249
 3067TIP3    H2 9141   6.658   1.520   2.314
 3068TIP3   OH2 9142   6.850   1.602   2.089
 3068TIP3    H1 9143   6.923   1.549   2.049
 3068TIP3    H2 9144   6.884   1.693   2.072
 3069TIP3   OH2 9145   5.482   1.323   2.434
 3069TIP3    H1 9146   5.393   1.284   2.446
 3069TIP3    H2 9147   5.537   1.242   2.432
 3070TIP3   OH2 9148   5.921   1.363   2.319
 3070TIP3    H1 9149   5.977   1.406   2.253
 3070TIP3    H2 9150   5.958   1.399   2.402
 3071TIP3   OH2 9151   6.468   1.508   2.298
 3071TIP3    H1 9152   6.474   1.469   2.210
 3071TIP3    H2 9153   6.456   1.427   2.354
 3072TIP3   OH2 9154   6.502   1.431   1.862
 3072TIP3    H1 9155   6.414   1.470   1.869
 3072TIP3    H2 9156   6.488   1.345   1.908
 3073TIP3   OH2 9157   4.984   2.772   1.863
 3073TIP3    H1 9158   4.899   2.738   1.828
 3073TIP3    H2 9159   4.975   2.865   1.838
 3074TIP3   OH2 9160   5.389   1.368   1.831
 3074TIP3    H1 9161   5.435   1.297   1.782
 3074TIP3    H2 9162   5.464   1.413   1.874
 3075TIP3   OH2 9163   5.895   1.534   1.946
 3075TIP3    H1 9164   5.959   1.487   2.002
 3075TIP3    H2 9165   5.919   1.626   1.969
 3076TIP3   OH2 9166   5.758   2.957   1.444
 3076TIP3    H1 9167   5.845   2.980   1.406
 3076TIP3    H2 9168   5.734   2.883   1.383
 3077TIP3   OH2 9169   6.477   3.075   1.534
 3077TIP3    H1 9170   6.469   2.977   1.521
 3077TIP3    H2 9171   6.432   3.108   1.454
 3078TIP3   OH2 9172   5.689   1.608   3.322
 3078TIP3    H1 9173   5.653   1.539   3.381
 3078TIP3    H2 9174   5.783   1.608   3.352
 3079TIP3   OH2 9175   5.938   1.605   3.443
 3079TIP3    H1 9176   6.024   1.581   3.406
 3079TIP3    H2 9177   5.925   1.536   3.511
 3080TIP3   OH2 9178   5.059   2.790   1.499
 3080TIP3    H1 9179   5.064   2.821   1.590
 3080TIP3    H2 9180   5.148   2.749   1.486
 3081TIP3   OH2 9181   6.764   1.668   3.232
 3081TIP3    H1 9182   6.782   1.637   3.323
 3081TIP3    H2 9183   6.853   1.662   3.191
 3082TIP3   OH2 9184   6.704   3.220   2.722
 3082TIP3    H1 9185   6.624   3.191   2.676
 3082TIP3    H2 9186   6.687   3.316   2.728
 3083TIP3   OH2 9187   7.262   2.486   2.237
 3083TIP3    H1 9188   7.289   2.416   2.300
 3083TIP3    H2 9189   7.342   2.542   2.236
 3084TIP3   OH2 9190   7.242   2.899   1.955
 3084TIP3    H1 9191   7.233   2.801   1.960
 3084TIP3    H2 9192   7.338   2.908   1.956
 3085TIP3   OH2 9193   6.943   2.103   1.745
 3085TIP3    H1 9194   6.890   2.184   1.757
 3085TIP3    H2 9195   6.876   2.044   1.707
 3086TIP3   OH2 9196   7.005   2.388   1.921
 3086TIP3    H1 9197   7.051   2.308   1.957
 3086TIP3    H2 9198   7.059   2.407   1.843
 3087TIP3   OH2 9199   7.862   3.306   1.540
 3087TIP3    H1 9200   7.959   3.290   1.554
 3087TIP3    H2 9201   7.835   3.336   1.628
 3088TIP3   OH2 9202   7.768   2.808   1.919
 3088TIP3    H1 9203   7.774   2.765   1.832
 3088TIP3    H2 9204   7.851   2.859   1.925
 3089TIP3   OH2 9205   7.491   1.981   1.929
 3089TIP3    H1 9206   7.504   2.046   1.858
 3089TIP3    H2 9207   7.460   1.904   1.877
 3090TIP3   OH2 9208   7.151   2.181   2.022
 3090TIP3    H1 9209   7.232   2.160   2.072
 3090TIP3    H2 9210   7.165   2.125   1.943
 3091TIP3   OH2 9211   7.576   2.383   1.815
 3091TIP3    H1 9212   7.668   2.349   1.829
 3091TIP3    H2 9213   7.532   2.300   1.785
 3092TIP3   OH2 9214   7.516   1.972   2.360
 3092TIP3    H1 9215   7.456   2.001   2.289
 3092TIP3    H2 9216   7.460   1.989   2.438
 3093TIP3   OH2 9217   7.624   2.736   2.154
 3093TIP3    H1 9218   7.558   2.798   2.192
 3093TIP3    H2 9219   7.663   2.791   2.084
 3094TIP3   OH2 9220   7.378   2.082   2.147
 3094TIP3    H1 9221   7.446   2.150   2.167
 3094TIP3    H2 9222   7.420   2.039   2.068
 3095TIP3   OH2 9223   7.449   2.930   2.242
 3095TIP3    H1 9224   7.423   3.018   2.207
 3095TIP3    H2 9225   7.371   2.912   2.298
 3096TIP3   OH2 9226   6.838   2.618   1.478
 3096TIP3    H1 9227   6.799   2.641   1.391
 3096TIP3    H2 9228   6.867   2.704   1.512
 3097TIP3   OH2 9229   7.371   2.529   1.706
 3097TIP3    H1 9230   7.329   2.469   1.640
 3097TIP3    H2 9231   7.446   2.474   1.738
 3098TIP3   OH2 9232   7.508   2.942   1.853
 3098TIP3    H1 9233   7.480   2.898   1.771
 3098TIP3    H2 9234   7.591   2.897   1.875
 3099TIP3   OH2 9235   7.512   2.497   2.063
 3099TIP3    H1 9236   7.541   2.470   1.973
 3099TIP3    H2 9237   7.555   2.583   2.077
 3100TIP3   OH2 9238   7.651   3.050   2.393
 3100TIP3    H1 9239   7.590   3.114   2.437
 3100TIP3    H2 9240   7.587   2.998   2.342
 3101TIP3   OH2 9241   7.404   2.618   2.486
 3101TIP3    H1 9242   7.406   2.703   2.535
 3101TIP3    H2 9243   7.311   2.591   2.502
 3102TIP3   OH2 9244   7.746   3.104   1.388
 3102TIP3    H1 9245   7.777   3.176   1.447
 3102TIP3    H2 9246   7.664   3.143   1.354
 3103TIP3   OH2 9247   7.447   3.218   2.475
 3103TIP3    H1 9248   7.409   3.221   2.385
 3103TIP3    H2 9249   7.368   3.197   2.530
 3104TIP3   OH2 9250   7.243   2.368   1.516
 3104TIP3    H1 9251   7.176   2.408   1.457
 3104TIP3    H2 9252   7.207   2.279   1.529
 3105TIP3   OH2 9253   7.027   2.749   2.424
 3105TIP3    H1 9254   6.964   2.719   2.356
 3105TIP3    H2 9255   7.068   2.665   2.454
 3106TIP3   OH2 9256   7.837   3.173   2.234
 3106TIP3    H1 9257   7.844   3.264   2.270
 3106TIP3    H2 9258   7.770   3.134   2.295
 3107TIP3   OH2 9259   7.611   3.318   1.199
 3107TIP3    H1 9260   7.560   3.305   1.118
 3107TIP3    H2 9261   7.582   3.408   1.227
 3108TIP3   OH2 9262   7.047   3.156   1.581
 3108TIP3    H1 9263   7.096   3.154   1.666
 3108TIP3    H2 9264   7.003   3.069   1.583
 3109TIP3   OH2 9265   7.833   3.203   1.106
 3109TIP3    H1 9266   7.759   3.261   1.137
 3109TIP3    H2 9267   7.908   3.238   1.156
 3110TIP3   OH2 9268   7.234   2.930   2.407
 3110TIP3    H1 9269   7.281   2.919   2.492
 3110TIP3    H2 9270   7.158   2.870   2.417
 3111TIP3   OH2 9271   7.618   1.748   2.217
 3111TIP3    H1 9272   7.533   1.724   2.176
 3111TIP3    H2 9273   7.599   1.837   2.249
 3112TIP3   OH2 9274   7.557   2.279   2.217
 3112TIP3    H1 9275   7.503   2.297   2.297
 3112TIP3    H2 9276   7.537   2.358   2.162
 3113TIP3   OH2 9277   7.445   2.162   1.722
 3113TIP3    H1 9278   7.356   2.128   1.746
 3113TIP3    H2 9279   7.459   2.118   1.635
 3114TIP3   OH2 9280   7.370   2.301   2.423
 3114TIP3    H1 9281   7.418   2.355   2.487
 3114TIP3    H2 9282   7.362   2.216   2.471
 3115TIP3   OH2 9283   7.407   1.734   1.130
 3115TIP3    H1 9284   7.400   1.767   1.221
 3115TIP3    H2 9285   7.355   1.799   1.081
 3116TIP3   OH2 9286   6.973   1.826   2.003
 3116TIP3    H1 9287   7.051   1.854   2.055
 3116TIP3    H2 9288   7.012   1.787   1.922
 3117TIP3   OH2 9289   6.947   1.806   1.525
 3117TIP3    H1 9290   6.989   1.844   1.445
 3117TIP3    H2 9291   6.882   1.877   1.544
 3118TIP3   OH2 9292   7.207   2.040   1.792
 3118TIP3    H1 9293   7.112   2.043   1.766
 3118TIP3    H2 9294   7.232   1.946   1.778
 3119TIP3   OH2 9295   7.487   2.040   1.475
 3119TIP3    H1 9296   7.569   2.043   1.425
 3119TIP3    H2 9297   7.421   2.055   1.404
 3120TIP3   OH2 9298   7.323   2.064   1.265
 3120TIP3    H1 9299   7.247   2.026   1.217
 3120TIP3    H2 9300   7.374   2.100   1.189
 3121TIP3   OH2 9301   7.394   2.857   2.632
 3121TIP3    H1 9302   7.473   2.887   2.681
 3121TIP3    H2 9303   7.328   2.856   2.704
 3122TIP3   OH2 9304   7.373   1.798   1.761
 3122TIP3    H1 9305   7.338   1.725   1.818
 3122TIP3    H2 9306   7.418   1.746   1.693
 3123TIP3   OH2 9307   7.825   2.205   2.221
 3123TIP3    H1 9308   7.733   2.231   2.200
 3123TIP3    H2 9309   7.870   2.290   2.231
 3124TIP3   OH2 9310   7.540   2.627   1.267
 3124TIP3    H1 9311   7.495   2.540   1.259
 3124TIP3    H2 9312   7.548   2.637   1.365
 3125TIP3   OH2 9313   7.929   2.890   2.297
 3125TIP3    H1 9314   7.961   2.874   2.386
 3125TIP3    H2 9315   7.913   2.986   2.297
 3126TIP3   OH2 9316   7.264   2.623   1.947
 3126TIP3    H1 9317   7.297   2.590   1.861
 3126TIP3    H2 9318   7.297   2.556   2.008
 3127TIP3   OH2 9319   7.686   2.757   1.075
 3127TIP3    H1 9320   7.628   2.832   1.099
 3127TIP3    H2 9321   7.659   2.691   1.142
 3128TIP3   OH2 9322   7.144   2.542   2.561
 3128TIP3    H1 9323   7.164   2.527   2.655
 3128TIP3    H2 9324   7.077   2.473   2.544
 3129TIP3   OH2 9325   7.870   2.653   2.579
 3129TIP3    H1 9326   7.813   2.603   2.519
 3129TIP3    H2 9327   7.956   2.611   2.561
 3130TIP3   OH2 9328   7.364   2.923   1.567
 3130TIP3    H1 9329   7.358   3.007   1.517
 3130TIP3    H2 9330   7.272   2.906   1.586
 3131TIP3   OH2 9331   6.925   2.230   1.273
 3131TIP3    H1 9332   6.971   2.313   1.296
 3131TIP3    H2 9333   6.849   2.232   1.335
 3132TIP3   OH2 9334   7.518   2.694   1.536
 3132TIP3    H1 9335   7.470   2.778   1.541
 3132TIP3    H2 9336   7.466   2.638   1.596
 3133TIP3   OH2 9337   7.631   3.264   2.041
 3133TIP3    H1 9338   7.672   3.339   1.993
 3133TIP3    H2 9339   7.706   3.233   2.096
 3134TIP3   OH2 9340   7.284   3.162   1.425
 3134TIP3    H1 9341   7.198   3.176   1.469
 3134TIP3    H2 9342   7.319   3.254   1.426
 3135TIP3   OH2 9343   7.350   2.050   2.570
 3135TIP3    H1 9344   7.253   2.048   2.580
 3135TIP3    H2 9345   7.377   1.985   2.638
 3136TIP3   OH2 9346   7.066   3.129   2.201
 3136TIP3    H1 9347   7.123   3.057   2.230
 3136TIP3    H2 9348   7.095   3.201   2.258
 3137TIP3   OH2 9349   7.359   2.775   0.884
 3137TIP3    H1 9350   7.356   2.684   0.848
 3137TIP3    H2 9351   7.335   2.760   0.978
 3138TIP3   OH2 9352   7.306   2.777   1.155
 3138TIP3    H1 9353   7.382   2.740   1.205
 3138TIP3    H2 9354   7.317   2.873   1.169
 3139TIP3   OH2 9355   7.042   2.473   1.357
 3139TIP3    H1 9356   6.974   2.515   1.412
 3139TIP3    H2 9357   7.055   2.541   1.289
 3140TIP3   OH2 9358   7.606   3.015   1.105
 3140TIP3    H1 9359   7.522   3.018   1.155
 3140TIP3    H2 9360   7.575   3.064   1.025
 3141TIP3   OH2 9361   7.334   3.050   1.174
 3141TIP3    H1 9362   7.299   3.114   1.108
 3141TIP3    H2 9363   7.307   3.094   1.258
 3142TIP3   OH2 9364   7.424   1.772   1.411
 3142TIP3    H1 9365   7.408   1.857   1.455
 3142TIP3    H2 9366   7.507   1.791   1.363
 3143TIP3   OH2 9367   7.035   2.679   1.162
 3143TIP3    H1 9368   7.104   2.748   1.167
 3143TIP3    H2 9369   7.077   2.622   1.093
 3144TIP3   OH2 9370   6.978   1.963   1.307
 3144TIP3    H1 9371   6.969   2.059   1.294
 3144TIP3    H2 9372   6.914   1.927   1.244
 3145TIP3   OH2 9373   7.350   1.681   2.170
 3145TIP3    H1 9374   7.333   1.644   2.080
 3145TIP3    H2 9375   7.348   1.600   2.226
 3146TIP3   OH2 9376   6.901   2.911   1.559
 3146TIP3    H1 9377   6.806   2.926   1.568
 3146TIP3    H2 9378   6.910   2.937   1.466
 3147TIP3   OH2 9379   7.062   3.439   2.621
 3147TIP3    H1 9380   7.147   3.441   2.669
 3147TIP3    H2 9381   7.043   3.344   2.622
 3148TIP3   OH2 9382   7.540   3.402   2.665
 3148TIP3    H1 9383   7.634   3.382   2.676
 3148TIP3    H2 9384   7.516   3.342   2.593
 3149TIP3   OH2 9385   7.533   2.966   0.800
 3149TIP3    H1 9386   7.462   2.905   0.831
 3149TIP3    H2 9387   7.602   2.901   0.777
 3150TIP3   OH2 9388   7.193   2.844   2.821
 3150TIP3    H1 9389   7.208   2.748   2.829
 3150TIP3    H2 9390   7.104   2.847   2.778
 3151TIP3   OH2 9391   7.173   2.497   1.011
 3151TIP3    H1 9392   7.226   2.460   1.085
 3151TIP3    H2 9393   7.241   2.498   0.941
 3152TIP3   OH2 9394   7.815   2.932   2.589
 3152TIP3    H1 9395   7.760   2.947   2.509
 3152TIP3    H2 9396   7.828   2.834   2.588
 3153TIP3   OH2 9397   7.665   2.687   0.813
 3153TIP3    H1 9398   7.683   2.714   0.906
 3153TIP3    H2 9399   7.597   2.619   0.826
 3154TIP3   OH2 9400   7.312   2.579   2.803
 3154TIP3    H1 9401   7.385   2.519   2.783
 3154TIP3    H2 9402   7.338   2.613   2.891
 3155TIP3   OH2 9403   7.383   2.396   1.237
 3155TIP3    H1 9404   7.351   2.351   1.316
 3155TIP3    H2 9405   7.421   2.322   1.185
 3156TIP3   OH2 9406   7.613   2.448   2.484
 3156TIP3    H1 9407   7.543   2.517   2.484
 3156TIP3    H2 9408   7.674   2.486   2.416
 3157TIP3   OH2 9409   7.482   2.189   1.073
 3157TIP3    H1 9410   7.449   2.197   0.981
 3157TIP3    H2 9411   7.575   2.164   1.053
 3158TIP3   OH2 9412   7.778   2.256   2.587
 3158TIP3    H1 9413   7.776   2.169   2.541
 3158TIP3    H2 9414   7.713   2.308   2.536
 3159TIP3   OH2 9415   7.781   2.026   2.417
 3159TIP3    H1 9416   7.789   2.077   2.334
 3159TIP3    H2 9417   7.692   1.988   2.406
 3160TIP3   OH2 9418   7.774   2.568   2.310
 3160TIP3    H1 9419   7.839   2.548   2.241
 3160TIP3    H2 9420   7.719   2.636   2.264
 3161TIP3   OH2 9421   7.651   2.363   2.820
 3161TIP3    H1 9422   7.583   2.295   2.835
 3161TIP3    H2 9423   7.684   2.340   2.732
 3162TIP3   OH2 9424   7.487   2.145   2.874
 3162TIP3    H1 9425   7.490   2.055   2.838
 3162TIP3    H2 9426   7.521   2.131   2.965
 3163TIP3   OH2 9427   7.289   3.248   0.984
 3163TIP3    H1 9428   7.383   3.254   0.957
 3163TIP3    H2 9429   7.249   3.296   0.909
 3164TIP3   OH2 9430   6.766   2.634   1.203
 3164TIP3    H1 9431   6.859   2.656   1.183
 3164TIP3    H2 9432   6.757   2.547   1.160
 3165TIP3   OH2 9433   6.679   3.244   1.618
 3165TIP3    H1 9434   6.610   3.191   1.571
 3165TIP3    H2 9435   6.736   3.175   1.653
 3166TIP3   OH2 9436   7.001   2.515   2.167
 3166TIP3    H1 9437   7.001   2.477   2.077
 3166TIP3    H2 9438   7.098   2.513   2.187
 3167TIP3   OH2 9439   7.219   2.195   2.849
 3167TIP3    H1 9440   7.317   2.188   2.848
 3167TIP3    H2 9441   7.195   2.108   2.887
 3168TIP3   OH2 9442   7.175   1.891   2.183
 3168TIP3    H1 9443   7.233   1.812   2.186
 3168TIP3    H2 9444   7.242   1.961   2.175
 3169TIP3   OH2 9445   6.981   2.163   2.246
 3169TIP3    H1 9446   7.030   2.149   2.163
 3169TIP3    H2 9447   7.026   2.240   2.283
 3170TIP3   OH2 9448   6.965   1.669   1.756
 3170TIP3    H1 9449   6.871   1.659   1.775
 3170TIP3    H2 9450   6.964   1.723   1.674
 3171TIP3   OH2 9451   7.187   1.752   2.569
 3171TIP3    H1 9452   7.133   1.742   2.649
 3171TIP3    H2 9453   7.120   1.783   2.504
 3172TIP3   OH2 9454   7.229   3.167   2.640
 3172TIP3    H1 9455   7.135   3.144   2.624
 3172TIP3    H2 9456   7.236   3.155   2.736
 3173TIP3   OH2 9457   7.405   3.200   2.187
 3173TIP3    H1 9458   7.355   3.276   2.150
 3173TIP3    H2 9459   7.490   3.217   2.141
 3174TIP3   OH2 9460   7.847   3.441   2.330
 3174TIP3    H1 9461   7.885   3.435   2.421
 3174TIP3    H2 9462   7.917   3.495   2.287
 3175TIP3   OH2 9463   8.042   3.591   2.197
 3175TIP3    H1 9464   8.038   3.584   2.099
 3175TIP3    H2 9465   8.075   3.681   2.211
 3176TIP3   OH2 9466   7.084   3.459   2.215
 3176TIP3    H1 9467   6.994   3.488   2.188
 3176TIP3    H2 9468   7.093   3.508   2.298
 3177TIP3   OH2 9469   7.319   3.437   2.070
 3177TIP3    H1 9470   7.232   3.449   2.115
 3177TIP3    H2 9471   7.298   3.472   1.981
 3178TIP3   OH2 9472   7.753   3.465   1.861
 3178TIP3    H1 9473   7.673   3.478   1.806
 3178TIP3    H2 9474   7.760   3.553   1.905
 3179TIP3   OH2 9475   8.022   3.443   1.916
 3179TIP3    H1 9476   7.925   3.444   1.910
 3179TIP3    H2 9477   8.045   3.514   1.855
 3180TIP3   OH2 9478   6.982   3.244   1.954
 3180TIP3    H1 9479   7.004   3.222   2.047
 3180TIP3    H2 9480   7.055   3.198   1.907
 3181TIP3   OH2 9481   7.185   3.122   1.811
 3181TIP3    H1 9482   7.201   3.041   1.865
 3181TIP3    H2 9483   7.275   3.162   1.810
 3182TIP3   OH2 9484   7.452   3.217   1.817
 3182TIP3    H1 9485   7.481   3.124   1.811
 3182TIP3    H2 9486   7.494   3.242   1.901
 3183TIP3   OH2 9487   7.275   1.594   1.915
 3183TIP3    H1 9488   7.185   1.555   1.920
 3183TIP3    H2 9489   7.327   1.510   1.913
 3184TIP3   OH2 9490   7.069   1.454   1.580
 3184TIP3    H1 9491   7.084   1.507   1.500
 3184TIP3    H2 9492   7.037   1.521   1.643
 3185TIP3   OH2 9493   6.772   3.031   1.353
 3185TIP3    H1 9494   6.689   2.997   1.315
 3185TIP3    H2 9495   6.767   3.123   1.319
 3186TIP3   OH2 9496   7.178   1.613   1.338
 3186TIP3    H1 9497   7.226   1.538   1.301
 3186TIP3    H2 9498   7.250   1.669   1.372
 3187TIP3   OH2 9499   7.555   3.220   0.909
 3187TIP3    H1 9500   7.617   3.275   0.858
 3187TIP3    H2 9501   7.548   3.143   0.850
 3188TIP3   OH2 9502   7.478   1.869   2.808
 3188TIP3    H1 9503   7.444   1.797   2.864
 3188TIP3    H2 9504   7.572   1.870   2.835
 3189TIP3   OH2 9505   7.718   1.867   2.938
 3189TIP3    H1 9506   7.796   1.828   2.892
 3189TIP3    H2 9507   7.702   1.797   3.006
 3190TIP3   OH2 9508   6.857   3.049   0.985
 3190TIP3    H1 9509   6.862   3.080   1.076
 3190TIP3    H2 9510   6.945   3.007   0.972
 3191TIP3   OH2 9511   0.422   3.381   3.179
 3191TIP3    H1 9512   0.392   3.472   3.158
 3191TIP3    H2 9513   0.345   3.331   3.147
 3192TIP3   OH2 9514   0.423   3.380   3.561
 3192TIP3    H1 9515   0.452   3.352   3.649
 3192TIP3    H2 9516   0.376   3.301   3.528
 3193TIP3   OH2 9517  -0.245   3.256   3.887
 3193TIP3    H1 9518  -0.273   3.204   3.965
 3193TIP3    H2 9519  -0.216   3.339   3.928
 3194TIP3   OH2 9520   0.665   3.684   3.243
 3194TIP3    H1 9521   0.647   3.614   3.308
 3194TIP3    H2 9522   0.694   3.758   3.299
 3195TIP3   OH2 9523  -0.303   3.669   3.589
 3195TIP3    H1 9524  -0.320   3.574   3.610
 3195TIP3    H2 9525  -0.216   3.680   3.629
 3196TIP3   OH2 9526  -0.533   3.170   3.569
 3196TIP3    H1 9527  -0.495   3.130   3.649
 3196TIP3    H2 9528  -0.465   3.234   3.544
 3197TIP3   OH2 9529   0.313   4.144   3.264
 3197TIP3    H1 9530   0.356   4.076   3.207
 3197TIP3    H2 9531   0.314   4.099   3.349
 3198TIP3   OH2 9532   0.219   3.607   3.610
 3198TIP3    H1 9533   0.255   3.529   3.565
 3198TIP3    H2 9534   0.303   3.651   3.634
 3199TIP3   OH2 9535   1.234   2.926   3.608
 3199TIP3    H1 9536   1.262   3.009   3.651
 3199TIP3    H2 9537   1.251   2.946   3.514
 3200TIP3   OH2 9538   0.633   3.108   3.641
 3200TIP3    H1 9539   0.673   3.021   3.661
 3200TIP3    H2 9540   0.599   3.093   3.551
 3201TIP3   OH2 9541  -0.026   2.764   3.604
 3201TIP3    H1 9542  -0.049   2.839   3.544
 3201TIP3    H2 9543  -0.075   2.692   3.559
 3202TIP3   OH2 9544   0.664   2.859   3.229
 3202TIP3    H1 9545   0.737   2.843   3.294
 3202TIP3    H2 9546   0.716   2.894   3.154
 3203TIP3   OH2 9547  -0.393   2.970   3.718
 3203TIP3    H1 9548  -0.311   2.960   3.770
 3203TIP3    H2 9549  -0.369   2.924   3.635
 3204TIP3   OH2 9550   0.047   3.168   3.490
 3204TIP3    H1 9551   0.138   3.142   3.516
 3204TIP3    H2 9552   0.006   3.082   3.469
 3205TIP3   OH2 9553   1.306   3.134   3.778
 3205TIP3    H1 9554   1.222   3.181   3.758
 3205TIP3    H2 9555   1.323   3.167   3.868
 3206TIP3   OH2 9556  -0.034   2.749   4.045
 3206TIP3    H1 9557  -0.089   2.792   3.977
 3206TIP3    H2 9558  -0.087   2.767   4.125
 3207TIP3   OH2 9559   0.313   3.602   3.048
 3207TIP3    H1 9560   0.269   3.582   2.964
 3207TIP3    H2 9561   0.266   3.685   3.075
 3208TIP3   OH2 9562   0.072   3.532   3.842
 3208TIP3    H1 9563   0.010   3.596   3.882
 3208TIP3    H2 9564   0.110   3.582   3.767
 3209TIP3   OH2 9565   0.875   2.860   3.402
 3209TIP3    H1 9566   0.856   2.817   3.487
 3209TIP3    H2 9567   0.925   2.939   3.430
 3210TIP3   OH2 9568  -0.155   2.864   3.825
 3210TIP3    H1 9569  -0.097   2.940   3.851
 3210TIP3    H2 9570  -0.103   2.828   3.750
 3211TIP3   OH2 9571  -0.115   3.711   3.956
 3211TIP3    H1 9572  -0.170   3.764   3.895
 3211TIP3    H2 9573  -0.185   3.669   4.009
 3212TIP3   OH2 9574   0.733   3.926   3.410
 3212TIP3    H1 9575   0.643   3.918   3.449
 3212TIP3    H2 9576   0.725   4.013   3.365
 3213TIP3   OH2 9577   1.025   2.825   3.773
 3213TIP3    H1 9578   0.937   2.853   3.742
 3213TIP3    H2 9579   1.084   2.859   3.702
 3214TIP3   OH2 9580   0.322   2.468   3.757
 3214TIP3    H1 9581   0.304   2.373   3.773
 3214TIP3    H2 9582   0.244   2.508   3.802
 3215TIP3   OH2 9583   0.433   3.974   3.083
 3215TIP3    H1 9584   0.482   3.890   3.065
 3215TIP3    H2 9585   0.496   4.038   3.042
 3216TIP3   OH2 9586   0.577   3.758   2.992
 3216TIP3    H1 9587   0.537   3.679   2.954
 3216TIP3    H2 9588   0.615   3.723   3.076
 3217TIP3   OH2 9589   0.960   3.838   3.754
 3217TIP3    H1 9590   0.948   3.761   3.695
 3217TIP3    H2 9591   0.942   3.913   3.694
 3218TIP3   OH2 9592   0.252   3.233   3.012
 3218TIP3    H1 9593   0.171   3.284   2.992
 3218TIP3    H2 9594   0.295   3.228   2.925
 3219TIP3   OH2 9595   0.212   3.022   2.735
 3219TIP3    H1 9596   0.284   3.070   2.778
 3219TIP3    H2 9597   0.263   2.953   2.688
 3220TIP3   OH2 9598   1.154   3.475   3.598
 3220TIP3    H1 9599   1.071   3.527   3.603
 3220TIP3    H2 9600   1.185   3.501   3.509
 3221TIP3   OH2 9601   0.600   3.316   2.982
 3221TIP3    H1 9602   0.544   3.340   3.060
 3221TIP3    H2 9603   0.683   3.291   3.026
 3222TIP3   OH2 9604   0.834   3.354   3.895
 3222TIP3    H1 9605   0.830   3.438   3.944
 3222TIP3    H2 9606   0.747   3.356   3.850
 3223TIP3   OH2 9607  -0.168   3.308   3.397
 3223TIP3    H1 9608  -0.210   3.249   3.330
 3223TIP3    H2 9609  -0.089   3.257   3.423
 3224TIP3   OH2 9610  -0.021   3.741   3.541
 3224TIP3    H1 9611  -0.058   3.688   3.469
 3224TIP3    H2 9612   0.064   3.697   3.558
 3225TIP3   OH2 9613   0.026   3.273   3.750
 3225TIP3    H1 9614   0.017   3.268   3.653
 3225TIP3    H2 9615   0.025   3.369   3.768
 3226TIP3   OH2 9616   0.491   3.922   3.530
 3226TIP3    H1 9617   0.481   4.001   3.587
 3226TIP3    H2 9618   0.477   3.848   3.593
 3227TIP3   OH2 9619   0.102   3.845   4.075
 3227TIP3    H1 9620   0.046   3.903   4.130
 3227TIP3    H2 9621   0.033   3.788   4.034
 3228TIP3   OH2 9622   0.440   3.172   2.809
 3228TIP3    H1 9623   0.497   3.234   2.860
 3228TIP3    H2 9624   0.467   3.195   2.717
 3229TIP3   OH2 9625  -0.152   3.396   4.182
 3229TIP3    H1 9626  -0.146   3.479   4.234
 3229TIP3    H2 9627  -0.248   3.395   4.164
 3230TIP3   OH2 9628   0.183   3.852   3.087
 3230TIP3    H1 9629   0.264   3.905   3.098
 3230TIP3    H2 9630   0.123   3.913   3.040
 3231TIP3   OH2 9631  -0.115   4.017   4.164
 3231TIP3    H1 9632  -0.135   4.018   4.068
 3231TIP3    H2 9633  -0.191   3.967   4.200
 3232TIP3   OH2 9634   0.955   2.412   2.859
 3232TIP3    H1 9635   0.872   2.433   2.907
 3232TIP3    H2 9636   0.969   2.496   2.810
 3233TIP3   OH2 9637  -0.295   3.147   3.205
 3233TIP3    H1 9638  -0.358   3.192   3.144
 3233TIP3    H2 9639  -0.340   3.064   3.220
 3234TIP3   OH2 9640   0.754   3.781   2.406
 3234TIP3    H1 9641   0.762   3.877   2.391
 3234TIP3    H2 9642   0.846   3.751   2.393
 3235TIP3   OH2 9643   1.198   4.184   3.803
 3235TIP3    H1 9644   1.195   4.087   3.816
 3235TIP3    H2 9645   1.114   4.210   3.847
 3236TIP3   OH2 9646   0.301   3.970   3.933
 3236TIP3    H1 9647   0.301   4.062   3.966
 3236TIP3    H2 9648   0.230   3.930   3.987
 3237TIP3   OH2 9649   0.063   4.096   2.887
 3237TIP3    H1 9650   0.019   4.078   2.802
 3237TIP3    H2 9651   0.034   4.187   2.908
 3238TIP3   OH2 9652   0.266   4.000   2.526
 3238TIP3    H1 9653   0.325   3.931   2.490
 3238TIP3    H2 9654   0.300   4.009   2.618
 3239TIP3   OH2 9655   0.315   4.048   2.797
 3239TIP3    H1 9656   0.226   4.056   2.838
 3239TIP3    H2 9657   0.365   4.006   2.868
 3240TIP3   OH2 9658   1.086   3.313   4.076
 3240TIP3    H1 9659   1.004   3.326   4.025
 3240TIP3    H2 9660   1.100   3.217   4.064
 3241TIP3   OH2 9661   0.084   2.545   3.885
 3241TIP3    H1 9662  -0.005   2.513   3.857
 3241TIP3    H2 9663   0.057   2.626   3.932
 3242TIP3   OH2 9664   0.616   2.661   4.079
 3242TIP3    H1 9665   0.684   2.632   4.144
 3242TIP3    H2 9666   0.532   2.641   4.125
 3243TIP3   OH2 9667   0.856   3.091   3.998
 3243TIP3    H1 9668   0.804   3.087   4.081
 3243TIP3    H2 9669   0.831   3.177   3.960
 3244TIP3   OH2 9670   0.519   3.221   2.557
 3244TIP3    H1 9671   0.479   3.200   2.470
 3244TIP3    H2 9672   0.600   3.267   2.529
 3245TIP3   OH2 9673   0.240   2.641   2.867
 3245TIP3    H1 9674   0.205   2.612   2.954
 3245TIP3    H2 9675   0.196   2.578   2.807
 3246TIP3   OH2 9676   0.017   3.058   3.909
 3246TIP3    H1 9677  -0.042   3.083   3.983
 3246TIP3    H2 9678   0.011   3.139   3.852
 3247TIP3   OH2 9679  -0.103   2.948   3.422
 3247TIP3    H1 9680  -0.198   2.927   3.434
 3247TIP3    H2 9681  -0.087   2.909   3.333
 3248TIP3   OH2 9682   0.389   3.033   3.146
 3248TIP3    H1 9683   0.337   3.104   3.103
 3248TIP3    H2 9684   0.443   3.001   3.071
 3249TIP3   OH2 9685   0.564   3.310   4.231
 3249TIP3    H1 9686   0.541   3.238   4.293
 3249TIP3    H2 9687   0.658   3.324   4.252
 3250TIP3   OH2 9688   0.547   3.061   3.383
 3250TIP3    H1 9689   0.484   3.091   3.314
 3250TIP3    H2 9690   0.579   2.980   3.339
 3251TIP3   OH2 9691  -0.156   3.080   4.121
 3251TIP3    H1 9692  -0.157   3.155   4.182
 3251TIP3    H2 9693  -0.169   3.004   4.181
 3252TIP3   OH2 9694  -0.566   2.627   3.713
 3252TIP3    H1 9695  -0.480   2.647   3.755
 3252TIP3    H2 9696  -0.540   2.588   3.629
 3253TIP3   OH2 9697   0.560   3.307   3.806
 3253TIP3    H1 9698   0.591   3.235   3.747
 3253TIP3    H2 9699   0.527   3.254   3.882
 3254TIP3   OH2 9700   0.229   2.768   3.478
 3254TIP3    H1 9701   0.145   2.766   3.528
 3254TIP3    H2 9702   0.295   2.769   3.550
 3255TIP3   OH2 9703  -0.342   2.818   3.486
 3255TIP3    H1 9704  -0.432   2.802   3.455
 3255TIP3    H2 9705  -0.296   2.733   3.465
 3256TIP3   OH2 9706  -0.063   2.829   3.184
 3256TIP3    H1 9707   0.031   2.838   3.159
 3256TIP3    H2 9708  -0.111   2.851   3.101
 3257TIP3   OH2 9709   0.717   2.844   3.678
 3257TIP3    H1 9710   0.685   2.858   3.770
 3257TIP3    H2 9711   0.649   2.783   3.645
 3258TIP3   OH2 9712  -0.219   2.872   2.970
 3258TIP3    H1 9713  -0.304   2.827   2.952
 3258TIP3    H2 9714  -0.186   2.894   2.881
 3259TIP3   OH2 9715   0.889   4.534   3.899
 3259TIP3    H1 9716   0.887   4.558   3.804
 3259TIP3    H2 9717   0.967   4.584   3.930
 3260TIP3   OH2 9718  -0.157   3.632   4.340
 3260TIP3    H1 9719  -0.080   3.667   4.390
 3260TIP3    H2 9720  -0.229   3.681   4.381
 3261TIP3   OH2 9721   0.308   3.098   3.576
 3261TIP3    H1 9722   0.381   3.057   3.528
 3261TIP3    H2 9723   0.313   3.056   3.663
 3262TIP3   OH2 9724  -0.174   2.590   3.447
 3262TIP3    H1 9725  -0.192   2.505   3.492
 3262TIP3    H2 9726  -0.142   2.561   3.359
 3263TIP3   OH2 9727   0.284   2.995   3.866
 3263TIP3    H1 9728   0.194   3.030   3.878
 3263TIP3    H2 9729   0.340   3.058   3.915
 3264TIP3   OH2 9730   0.022   3.385   2.960
 3264TIP3    H1 9731  -0.050   3.318   2.950
 3264TIP3    H2 9732   0.004   3.418   3.052
 3265TIP3   OH2 9733   0.922   3.621   3.589
 3265TIP3    H1 9734   0.945   3.671   3.508
 3265TIP3    H2 9735   0.837   3.579   3.563
 3266TIP3   OH2 9736   0.496   2.705   2.819
 3266TIP3    H1 9737   0.399   2.692   2.834
 3266TIP3    H2 9738   0.508   2.798   2.848
 3267TIP3   OH2 9739   0.425   3.706   3.956
 3267TIP3    H1 9740   0.443   3.679   4.046
 3267TIP3    H2 9741   0.383   3.793   3.966
 3268TIP3   OH2 9742   0.552   2.949   2.931
 3268TIP3    H1 9743   0.648   2.958   2.945
 3268TIP3    H2 9744   0.530   3.029   2.878
 3269TIP3   OH2 9745  -0.270   3.403   3.643
 3269TIP3    H1 9746  -0.235   3.355   3.566
 3269TIP3    H2 9747  -0.270   3.336   3.715
 3270TIP3   OH2 9748   0.167   3.536   2.785
 3270TIP3    H1 9749   0.119   3.621   2.789
 3270TIP3    H2 9750   0.112   3.480   2.844
 3271TIP3   OH2 9751   0.320   3.441   4.272
 3271TIP3    H1 9752   0.256   3.385   4.225
 3271TIP3    H2 9753   0.404   3.406   4.238
 3272TIP3   OH2 9754   0.581   3.966   3.851
 3272TIP3    H1 9755   0.485   3.961   3.866
 3272TIP3    H2 9756   0.609   4.016   3.931
 3273TIP3   OH2 9757   0.991   3.036   2.761
 3273TIP3    H1 9758   0.929   2.992   2.699
 3273TIP3    H2 9759   0.987   3.126   2.722
 3274TIP3   OH2 9760   1.210   3.893   3.843
 3274TIP3    H1 9761   1.112   3.887   3.834
 3274TIP3    H2 9762   1.236   3.863   3.753
 3275TIP3   OH2 9763   0.694   3.854   2.671
 3275TIP3    H1 9764   0.664   3.785   2.732
 3275TIP3    H2 9765   0.703   3.807   2.587
 3276TIP3   OH2 9766   0.687   3.483   3.508
 3276TIP3    H1 9767   0.594   3.458   3.521
 3276TIP3    H2 9768   0.721   3.404   3.462
 3277TIP3   OH2 9769  -0.181   3.711   3.257
 3277TIP3    H1 9770  -0.190   3.791   3.203
 3277TIP3    H2 9771  -0.268   3.701   3.296
 3278TIP3   OH2 9772  -0.644   3.036   2.987
 3278TIP3    H1 9773  -0.586   3.111   3.011
 3278TIP3    H2 9774  -0.725   3.057   3.034
 3279TIP3   OH2 9775  -0.046   3.474   3.205
 3279TIP3    H1 9776  -0.081   3.564   3.223
 3279TIP3    H2 9777  -0.082   3.424   3.280
 3280TIP3   OH2 9778   0.091   4.058   3.730
 3280TIP3    H1 9779   0.136   4.127   3.677
 3280TIP3    H2 9780   0.167   4.017   3.776
 3281TIP3   OH2 9781  -0.269   3.955   3.116
 3281TIP3    H1 9782  -0.349   3.972   3.166
 3281TIP3    H2 9783  -0.229   4.045   3.114
 3282TIP3   OH2 9784   0.473   3.689   3.688
 3282TIP3    H1 9785   0.463   3.688   3.786
 3282TIP3    H2 9786   0.551   3.633   3.676
 3283TIP3   OH2 9787   0.448   3.584   2.571
 3283TIP3    H1 9788   0.499   3.558   2.651
 3283TIP3    H2 9789   0.359   3.554   2.597
 3284TIP3   OH2 9790   0.721   4.222   3.739
 3284TIP3    H1 9791   0.642   4.165   3.733
 3284TIP3    H2 9792   0.705   4.286   3.667
 3285TIP3   OH2 9793   0.787   4.056   2.391
 3285TIP3    H1 9794   0.820   4.129   2.336
 3285TIP3    H2 9795   0.706   4.099   2.427
 3286TIP3   OH2 9796  -0.188   2.823   4.271
 3286TIP3    H1 9797  -0.282   2.811   4.290
 3286TIP3    H2 9798  -0.148   2.766   4.339
 3287TIP3   OH2 9799   0.608   3.517   2.788
 3287TIP3    H1 9800   0.597   3.451   2.859
 3287TIP3    H2 9801   0.705   3.513   2.775
 3288TIP3   OH2 9802  -0.186   3.563   2.571
 3288TIP3    H1 9803  -0.174   3.469   2.545
 3288TIP3    H2 9804  -0.208   3.553   2.666
 3289TIP3   OH2 9805  -0.236   3.572   2.844
 3289TIP3    H1 9806  -0.164   3.540   2.901
 3289TIP3    H2 9807  -0.227   3.670   2.852
 3290TIP3   OH2 9808  -0.492   3.258   3.055
 3290TIP3    H1 9809  -0.539   3.313   3.119
 3290TIP3    H2 9810  -0.476   3.322   2.983
 3291TIP3   OH2 9811   0.646   2.896   3.938
 3291TIP3    H1 9812   0.725   2.935   3.980
 3291TIP3    H2 9813   0.630   2.816   3.992
 3292TIP3   OH2 9814   0.527   2.646   3.105
 3292TIP3    H1 9815   0.509   2.670   3.012
 3292TIP3    H2 9816   0.563   2.730   3.141
 3293TIP3   OH2 9817   0.026   3.766   2.794
 3293TIP3    H1 9818  -0.060   3.794   2.829
 3293TIP3    H2 9819   0.039   3.834   2.726
 3294TIP3   OH2 9820   0.217   2.826   3.207
 3294TIP3    H1 9821   0.279   2.900   3.189
 3294TIP3    H2 9822   0.219   2.822   3.305
 3295TIP3   OH2 9823   0.482   3.147   4.012
 3295TIP3    H1 9824   0.501   3.201   4.091
 3295TIP3    H2 9825   0.535   3.067   4.027
 3296TIP3   OH2 9826   0.359   2.555   3.312
 3296TIP3    H1 9827   0.345   2.636   3.365
 3296TIP3    H2 9828   0.418   2.590   3.241
 3297TIP3   OH2 9829  -0.229   3.844   2.862
 3297TIP3    H1 9830  -0.260   3.912   2.798
 3297TIP3    H2 9831  -0.248   3.887   2.947
 3298TIP3   OH2 9832  -0.120   2.546   3.151
 3298TIP3    H1 9833  -0.134   2.641   3.134
 3298TIP3    H2 9834  -0.027   2.537   3.123
 3299TIP3   OH2 9835   1.122   3.046   3.997
 3299TIP3    H1 9836   1.024   3.045   4.003
 3299TIP3    H2 9837   1.134   3.008   3.908
 3300TIP3   OH2 9838   0.773   3.241   3.382
 3300TIP3    H1 9839   0.696   3.183   3.395
 3300TIP3    H2 9840   0.844   3.193   3.431
 3301TIP3   OH2 9841  -0.505   3.481   2.892
 3301TIP3    H1 9842  -0.428   3.538   2.874
 3301TIP3    H2 9843  -0.494   3.420   2.815
 3302TIP3   OH2 9844   0.742   4.197   3.331
 3302TIP3    H1 9845   0.700   4.244   3.256
 3302TIP3    H2 9846   0.837   4.216   3.311
 3303TIP3   OH2 9847  -0.180   2.461   3.855
 3303TIP3    H1 9848  -0.215   2.424   3.772
 3303TIP3    H2 9849  -0.190   2.385   3.917
 3304TIP3   OH2 9850  -0.013   4.192   4.358
 3304TIP3    H1 9851   0.083   4.185   4.365
 3304TIP3    H2 9852  -0.032   4.128   4.287
 3305TIP3   OH2 9853  -0.022   3.764   2.485
 3305TIP3    H1 9854  -0.081   3.693   2.520
 3305TIP3    H2 9855   0.052   3.710   2.453
 3306TIP3   OH2 9856   0.633   4.097   4.089
 3306TIP3    H1 9857   0.625   4.027   4.158
 3306TIP3    H2 9858   0.710   4.148   4.119
 3307TIP3   OH2 9859   0.414   3.807   2.398
 3307TIP3    H1 9860   0.455   3.740   2.456
 3307TIP3    H2 9861   0.470   3.803   2.318
 3308TIP3   OH2 9862  -0.378   3.299   2.726
 3308TIP3    H1 9863  -0.318   3.255   2.787
 3308TIP3    H2 9864  -0.326   3.298   2.644
 3309TIP3   OH2 9865   0.250   3.717   4.284
 3309TIP3    H1 9866   0.209   3.731   4.197
 3309TIP3    H2 9867   0.281   3.624   4.279
 3310TIP3   OH2 9868   0.137   3.485   2.514
 3310TIP3    H1 9869   0.136   3.495   2.612
 3310TIP3    H2 9870   0.132   3.387   2.507
 3311TIP3   OH2 9871   0.745   3.726   3.893
 3311TIP3    H1 9872   0.819   3.771   3.848
 3311TIP3    H2 9873   0.673   3.790   3.878
 3312TIP3   OH2 9874  -0.239   3.352   4.513
 3312TIP3    H1 9875  -0.174   3.312   4.454
 3312TIP3    H2 9876  -0.185   3.398   4.579
 3313TIP3   OH2 9877  -0.166   3.183   2.928
 3313TIP3    H1 9878  -0.191   3.137   3.010
 3313TIP3    H2 9879  -0.132   3.110   2.873
 3314TIP3   OH2 9880   0.103   3.260   4.164
 3314TIP3    H1 9881   0.018   3.308   4.159
 3314TIP3    H2 9882   0.147   3.288   4.081
 3315TIP3   OH2 9883  -0.067   2.979   2.754
 3315TIP3    H1 9884  -0.072   2.951   2.662
 3315TIP3    H2 9885   0.030   2.989   2.764
 3316TIP3   OH2 9886   0.616   3.654   4.291
 3316TIP3    H1 9887   0.693   3.626   4.239
 3316TIP3    H2 9888   0.611   3.586   4.359
 3317TIP3   OH2 9889   0.753   3.312   2.431
 3317TIP3    H1 9890   0.731   3.265   2.348
 3317TIP3    H2 9891   0.719   3.401   2.408
 3318TIP3   OH2 9892   0.228   3.043   4.279
 3318TIP3    H1 9893   0.220   2.962   4.225
 3318TIP3    H2 9894   0.179   3.109   4.224
 3319TIP3   OH2 9895   0.225   2.825   4.089
 3319TIP3    H1 9896   0.251   2.869   4.005
 3319TIP3    H2 9897   0.131   2.803   4.071
 3320TIP3   OH2 9898   0.254   3.368   3.966
 3320TIP3    H1 9899   0.332   3.371   3.909
 3320TIP3    H2 9900   0.191   3.426   3.918
 3321TIP3   OH2 9901   0.834   3.328   4.343
 3321TIP3    H1 9902   0.883   3.244   4.348
 3321TIP3    H2 9903   0.899   3.388   4.307
 3322TIP3   OH2 9904   0.874   3.581   4.080
 3322TIP3    H1 9905   0.816   3.635   4.021
 3322TIP3    H2 9906   0.961   3.602   4.040
 3323TIP3   OH2 9907   0.105   3.164   4.512
 3323TIP3    H1 9908   0.047   3.085   4.522
 3323TIP3    H2 9909   0.135   3.152   4.420
 3324TIP3   OH2 9910   0.356   2.589   4.158
 3324TIP3    H1 9911   0.307   2.671   4.133
 3324TIP3    H2 9912   0.287   2.521   4.145
 3325TIP3   OH2 9913   0.484   3.092   4.373
 3325TIP3    H1 9914   0.464   3.079   4.468
 3325TIP3    H2 9915   0.395   3.070   4.336
 3326TIP3   OH2 9916   0.721   3.043   4.227
 3326TIP3    H1 9917   0.645   3.045   4.289
 3326TIP3    H2 9918   0.794   3.013   4.284
 3327TIP3   OH2 9919   0.951   2.985   4.378
 3327TIP3    H1 9920   0.963   2.889   4.395
 3327TIP3    H2 9921   0.947   3.022   4.469
 3328TIP3   OH2 9922  -0.027   2.933   4.559
 3328TIP3    H1 9923  -0.046   2.844   4.523
 3328TIP3    H2 9924  -0.016   2.912   4.654
 3329TIP3   OH2 9925   0.451   2.598   4.415
 3329TIP3    H1 9926   0.517   2.526   4.406
 3329TIP3    H2 9927   0.410   2.595   4.326
 3330TIP3   OH2 9928   0.516   2.808   4.582
 3330TIP3    H1 9929   0.496   2.739   4.515
 3330TIP3    H2 9930   0.441   2.869   4.571
 3331TIP3   OH2 9931  -0.261   4.042   2.672
 3331TIP3    H1 9932  -0.165   4.039   2.651
 3331TIP3    H2 9933  -0.294   4.088   2.593
 3332TIP3   OH2 9934   0.996   4.286   3.290
 3332TIP3    H1 9935   1.019   4.325   3.377
 3332TIP3    H2 9936   1.054   4.336   3.231
 3333TIP3   OH2 9937   1.020   4.308   3.573
 3333TIP3    H1 9938   0.980   4.219   3.568
 3333TIP3    H2 9939   1.099   4.288   3.625
 3334TIP3   OH2 9940   1.071   3.984   4.146
 3334TIP3    H1 9941   0.998   3.994   4.209
 3334TIP3    H2 9942   1.112   4.073   4.148
 3335TIP3   OH2 9943   0.887   3.497   2.764
 3335TIP3    H1 9944   0.954   3.562   2.735
 3335TIP3    H2 9945   0.931   3.459   2.843
 3336TIP3   OH2 9946   1.015   3.364   2.968
 3336TIP3    H1 9947   0.948   3.323   3.026
 3336TIP3    H2 9948   1.079   3.403   3.031
 3337TIP3   OH2 9949   1.070   3.758   3.400
 3337TIP3    H1 9950   1.121   3.692   3.350
 3337TIP3    H2 9951   1.063   3.832   3.337
 3338TIP3   OH2 9952   0.899   4.056   3.596
 3338TIP3    H1 9953   0.828   4.100   3.646
 3338TIP3    H2 9954   0.849   4.010   3.524
 3339TIP3   OH2 9955   0.953   3.273   2.614
 3339TIP3    H1 9956   0.882   3.275   2.546
 3339TIP3    H2 9957   0.924   3.348   2.669
 3340TIP3   OH2 9958   0.825   2.945   2.567
 3340TIP3    H1 9959   0.777   2.983   2.492
 3340TIP3    H2 9960   0.803   2.850   2.556
 3341TIP3   OH2 9961   0.829   3.223   3.114
 3341TIP3    H1 9962   0.835   3.126   3.107
 3341TIP3    H2 9963   0.814   3.236   3.210
 3342TIP3   OH2 9964   1.118   3.647   3.972
 3342TIP3    H1 9965   1.190   3.581   3.961
 3342TIP3    H2 9966   1.143   3.716   3.908
 3343TIP3   OH2 9967   1.301   3.450   3.986
 3343TIP3    H1 9968   1.227   3.400   4.026
 3343TIP3    H2 9969   1.374   3.387   4.000
 3344TIP3   OH2 9970   0.776   2.678   2.546
 3344TIP3    H1 9971   0.837   2.646   2.615
 3344TIP3    H2 9972   0.692   2.630   2.565
 3345TIP3   OH2 9973   0.827   2.939   3.009
 3345TIP3    H1 9974   0.866   2.850   3.023
 3345TIP3    H2 9975   0.884   2.971   2.937
 3346TIP3   OH2 9976   0.986   3.109   3.505
 3346TIP3    H1 9977   1.071   3.136   3.464
 3346TIP3    H2 9978   0.999   3.148   3.593
 3347TIP3   OH2 9979   1.056   3.256   3.735
 3347TIP3    H1 9980   0.977   3.290   3.783
 3347TIP3    H2 9981   1.088   3.337   3.690
 3348TIP3   OH2 9982  -0.306   2.902   4.648
 3348TIP3    H1 9983  -0.257   2.944   4.575
 3348TIP3    H2 9984  -0.397   2.925   4.621
 3349TIP3   OH2 9985   1.507   2.847   4.292
 3349TIP3    H1 9986   1.566   2.783   4.249
 3349TIP3    H2 9987   1.476   2.901   4.215
 3350TIP3   OH2 9988   0.935   2.688   3.046
 3350TIP3    H1 9989   0.981   2.672   3.130
 3350TIP3    H2 9990   0.872   2.613   3.044
 3351TIP3   OH2 9991  -0.350   2.676   3.870
 3351TIP3    H1 9992  -0.288   2.601   3.876
 3351TIP3    H2 9993  -0.287   2.750   3.854
 3352TIP3   OH2 9994   1.376   2.985   4.098
 3352TIP3    H1 9995   1.290   3.028   4.116
 3352TIP3    H2 9996   1.345   2.914   4.038
 3353TIP3   OH2 9997   1.018   2.622   2.688
 3353TIP3    H1 9998   1.053   2.554   2.627
 3353TIP3    H2 9999   1.080   2.696   2.676
 3354TIP3   OH210000   0.578   4.156   2.946
 3354TIP3    H110001   0.630   4.143   2.863
 3354TIP3    H210002   0.632   4.221   2.993
 3355TIP3   OH210003  -0.363   2.539   4.265
 3355TIP3    H110004  -0.407   2.535   4.351
 3355TIP3    H210005  -0.428   2.587   4.212
 3356TIP3   OH210006  -0.142   4.025   3.881
 3356TIP3    H110007  -0.159   4.096   3.817
 3356TIP3    H210008  -0.051   4.003   3.854
 3357TIP3   OH210009   0.302   4.235   4.016
 3357TIP3    H110010   0.344   4.235   4.105
 3357TIP3    H210011   0.369   4.287   3.965
 3358TIP3   OH210012   0.480   4.390   3.875
 3358TIP3    H110013   0.551   4.338   3.833
 3358TIP3    H210014   0.533   4.446   3.936
 3359TIP3   OH210015   1.276   2.749   3.975
 3359TIP3    H110016   1.186   2.744   3.940
 3359TIP3    H210017   1.306   2.656   3.964
 3360TIP3   OH210018  -0.227   4.249   3.731
 3360TIP3    H110019  -0.259   4.336   3.762
 3360TIP3    H210020  -0.282   4.234   3.652
 3361TIP3   OH210021   0.197   4.256   3.563
 3361TIP3    H110022   0.144   4.277   3.484
 3361TIP3    H210023   0.212   4.344   3.603
 3362TIP3   OH210024   0.466   4.194   3.612
 3362TIP3    H110025   0.373   4.213   3.590
 3362TIP3    H210026   0.513   4.267   3.568
 3363TIP3   OH210027   0.665   4.382   3.523
 3363TIP3    H110028   0.656   4.468   3.476
 3363TIP3    H210029   0.697   4.324   3.451
 3364TIP3   OH210030  -0.356   3.918   3.499
 3364TIP3    H110031  -0.352   3.828   3.537
 3364TIP3    H210032  -0.262   3.943   3.499
 3365TIP3   OH210033  -0.080   4.015   3.508
 3365TIP3    H110034  -0.057   3.922   3.490
 3365TIP3    H210035  -0.031   4.026   3.592
 3366TIP3   OH210036   0.485   2.666   3.601
 3366TIP3    H110037   0.437   2.596   3.649
 3366TIP3    H210038   0.552   2.615   3.551
 3367TIP3   OH210039   1.005   2.543   3.499
 3367TIP3    H110040   1.040   2.597   3.425
 3367TIP3    H210041   0.909   2.561   3.494
 3368TIP3   OH210042   1.100   2.642   3.263
 3368TIP3    H110043   1.175   2.594   3.221
 3368TIP3    H210044   1.131   2.735   3.249
 3369TIP3   OH210045  -0.283   2.367   3.603
 3369TIP3    H110046  -0.363   2.313   3.615
 3369TIP3    H210047  -0.216   2.295   3.602
 3370TIP3   OH210048   0.174   2.409   3.488
 3370TIP3    H110049   0.233   2.460   3.430
 3370TIP3    H210050   0.196   2.445   3.575
 3371TIP3   OH210051   0.724   2.552   3.474
 3371TIP3    H110052   0.714   2.515   3.385
 3371TIP3    H210053   0.708   2.472   3.530
 3372TIP3   OH210054   0.751   2.475   3.039
 3372TIP3    H110055   0.665   2.519   3.049
 3372TIP3    H210056   0.733   2.390   3.085
 3373TIP3   OH210057   0.154   2.575   3.120
 3373TIP3    H110058   0.207   2.529   3.188
 3373TIP3    H210059   0.172   2.668   3.147
 3374TIP3   OH210060   0.007   4.002   2.620
 3374TIP3    H110061   0.095   4.024   2.583
 3374TIP3    H210062  -0.016   3.928   2.560
 3375TIP3   OH210063   0.725   4.121   2.714
 3375TIP3    H110064   0.717   4.023   2.703
 3375TIP3    H210065   0.678   4.152   2.634
 3376TIP3   OH210066  -0.065   2.658   4.497
 3376TIP3    H110067  -0.101   2.584   4.551
 3376TIP3    H210068   0.028   2.658   4.529
 3377TIP3   OH210069   0.185   2.656   4.626
 3377TIP3    H110070   0.266   2.627   4.580
 3377TIP3    H210071   0.170   2.582   4.688
 3378TIP3   OH210072   1.013   2.713   4.408
 3378TIP3    H110073   1.032   2.681   4.499
 3378TIP3    H210074   1.101   2.709   4.366
 3379TIP3   OH210075   0.950   4.265   3.902
 3379TIP3    H110076   0.872   4.235   3.851
 3379TIP3    H210077   0.932   4.361   3.904
 3380TIP3   OH210078   2.218   3.636   2.666
 3380TIP3    H110079   2.189   3.728   2.647
 3380TIP3    H210080   2.140   3.588   2.634
 3381TIP3   OH210081   2.218   3.636   3.048
 3381TIP3    H110082   2.249   3.612   3.137
 3381TIP3    H210083   2.174   3.555   3.019
 3382TIP3   OH210084   1.515   3.532   3.413
 3382TIP3    H110085   1.545   3.464   3.476
 3382TIP3    H210086   1.593   3.590   3.410
 3383TIP3   OH210087   2.461   3.939   2.731
 3383TIP3    H110088   2.444   3.872   2.799
 3383TIP3    H210089   2.489   4.015   2.784
 3384TIP3   OH210090   1.486   3.942   3.136
 3384TIP3    H110091   1.478   3.844   3.139
 3384TIP3    H210092   1.583   3.952   3.133
 3385TIP3   OH210093   1.194   3.144   2.921
 3385TIP3    H110094   1.146   3.227   2.939
 3385TIP3    H210095   1.123   3.091   2.881
 3386TIP3   OH210096   1.252   3.433   3.096
 3386TIP3    H110097   1.301   3.355   3.131
 3386TIP3    H210098   1.312   3.465   3.028
 3387TIP3   OH210099   2.108   4.402   2.746
 3387TIP3    H110100   2.154   4.330   2.698
 3387TIP3    H210101   2.101   4.365   2.835
 3388TIP3   OH210102   2.015   3.863   3.096
 3388TIP3    H110103   2.054   3.788   3.050
 3388TIP3    H210104   2.097   3.909   3.122
 3389TIP3   OH210105   3.031   3.186   3.093
 3389TIP3    H110106   3.058   3.266   3.144
 3389TIP3    H210107   3.015   3.223   3.005
 3390TIP3   OH210108   2.428   3.364   3.128
 3390TIP3    H110109   2.469   3.278   3.149
 3390TIP3    H210110   2.396   3.347   3.037
 3391TIP3   OH210111   1.767   3.024   3.093
 3391TIP3    H110112   1.746   3.097   3.032
 3391TIP3    H210113   1.717   2.951   3.049
 3392TIP3   OH210114   2.460   3.115   2.715
 3392TIP3    H110115   2.532   3.099   2.781
 3392TIP3    H210116   2.512   3.150   2.641
 3393TIP3   OH210117   1.398   3.226   3.200
 3393TIP3    H110118   1.481   3.207   3.249
 3393TIP3    H210119   1.412   3.170   3.121
 3394TIP3   OH210120   1.839   3.423   2.993
 3394TIP3    H110121   1.933   3.398   3.006
 3394TIP3    H210122   1.800   3.339   2.961
 3395TIP3   OH210123   3.099   3.392   3.263
 3395TIP3    H110124   3.014   3.440   3.249
 3395TIP3    H210125   3.121   3.420   3.353
 3396TIP3   OH210126   1.761   3.007   3.528
 3396TIP3    H110127   1.702   3.045   3.461
 3396TIP3    H210128   1.709   3.025   3.609
 3397TIP3   OH210129   2.108   3.858   2.536
 3397TIP3    H110130   2.065   3.841   2.450
 3397TIP3    H210131   2.064   3.942   2.562
 3398TIP3   OH210132   1.868   3.783   3.322
 3398TIP3    H110133   1.806   3.849   3.360
 3398TIP3    H210134   1.910   3.834   3.250
 3399TIP3   OH210135   2.669   3.117   2.890
 3399TIP3    H110136   2.649   3.075   2.975
 3399TIP3    H210137   2.719   3.196   2.918
 3400TIP3   OH210138   1.633   3.122   3.312
 3400TIP3    H110139   1.694   3.195   3.336
 3400TIP3    H210140   1.683   3.083   3.237
 3401TIP3   OH210141   1.695   3.977   3.420
 3401TIP3    H110142   1.671   4.065   3.383
 3401TIP3    H210143   1.617   3.961   3.476
 3402TIP3   OH210144   1.091   3.667   2.656
 3402TIP3    H110145   1.047   3.695   2.574
 3402TIP3    H210146   1.121   3.752   2.693
 3403TIP3   OH210147   2.530   4.182   2.895
 3403TIP3    H110148   2.440   4.174   2.936
 3403TIP3    H210149   2.521   4.269   2.851
 3404TIP3   OH210150   2.821   3.080   3.260
 3404TIP3    H110151   2.733   3.111   3.232
 3404TIP3    H210152   2.879   3.113   3.188
 3405TIP3   OH210153   2.118   2.727   3.243
 3405TIP3    H110154   2.101   2.632   3.259
 3405TIP3    H210155   2.041   2.766   3.289
 3406TIP3   OH210156   2.231   4.228   2.570
 3406TIP3    H110157   2.281   4.145   2.550
 3406TIP3    H210158   2.293   4.293   2.530
 3407TIP3   OH210159   2.375   4.013   2.479
 3407TIP3    H110160   2.336   3.934   2.440
 3407TIP3    H210161   2.411   3.978   2.563
 3408TIP3   OH210162   2.756   4.095   3.240
 3408TIP3    H110163   2.743   4.018   3.181
 3408TIP3    H210164   2.737   4.170   3.180
 3409TIP3   OH210165   2.047   3.488   2.498
 3409TIP3    H110166   1.967   3.541   2.478
 3409TIP3    H210167   2.093   3.487   2.412
 3410TIP3   OH210168   2.006   3.273   2.213
 3410TIP3    H110169   2.073   3.326   2.262
 3410TIP3    H210170   2.065   3.211   2.166
 3411TIP3   OH210171   2.950   3.728   3.081
 3411TIP3    H110172   2.867   3.781   3.089
 3411TIP3    H210173   2.981   3.759   2.993
 3412TIP3   OH210174   2.395   3.571   2.469
 3412TIP3    H110175   2.340   3.595   2.547
 3412TIP3    H210176   2.480   3.547   2.513
 3413TIP3   OH210177   2.630   3.610   3.382
 3413TIP3    H110178   2.629   3.691   3.437
 3413TIP3    H210179   2.543   3.618   3.338
 3414TIP3   OH210180   1.627   3.569   2.887
 3414TIP3    H110181   1.586   3.511   2.819
 3414TIP3    H210182   1.704   3.515   2.916
 3415TIP3   OH210183   1.758   3.981   3.035
 3415TIP3    H110184   1.737   3.940   2.949
 3415TIP3    H210185   1.847   3.946   3.053
 3416TIP3   OH210186   1.765   3.540   3.241
 3416TIP3    H110187   1.797   3.519   3.151
 3416TIP3    H210188   1.807   3.626   3.260
 3417TIP3   OH210189   2.290   4.178   3.018
 3417TIP3    H110190   2.276   4.259   3.070
 3417TIP3    H210191   2.273   4.106   3.082
 3418TIP3   OH210192   1.902   4.098   3.563
 3418TIP3    H110193   1.842   4.159   3.610
 3418TIP3    H210194   1.837   4.044   3.514
 3419TIP3   OH210195   2.235   3.429   2.295
 3419TIP3    H110196   2.294   3.490   2.346
 3419TIP3    H210197   2.262   3.451   2.203
 3420TIP3   OH210198   1.656   3.652   3.667
 3420TIP3    H110199   1.661   3.740   3.710
 3420TIP3    H210200   1.561   3.633   3.679
 3421TIP3   OH210201   1.979   4.108   2.570
 3421TIP3    H110202   2.060   4.161   2.585
 3421TIP3    H210203   1.918   4.173   2.533
 3422TIP3   OH210204   1.696   4.264   3.652
 3422TIP3    H110205   1.660   4.266   3.561
 3422TIP3    H210206   1.616   4.243   3.705
 3423TIP3   OH210207   2.751   2.670   2.344
 3423TIP3    H110208   2.670   2.692   2.394
 3423TIP3    H210209   2.766   2.753   2.293
 3424TIP3   OH210210   1.495   3.411   2.689
 3424TIP3    H110211   1.428   3.457   2.634
 3424TIP3    H210212   1.452   3.326   2.704
 3425TIP3   OH210213   2.550   4.037   1.893
 3425TIP3    H110214   2.559   4.134   1.877
 3425TIP3    H210215   2.643   4.008   1.881
 3426TIP3   OH210216   1.274   3.796   3.599
 3426TIP3    H110217   1.208   3.775   3.530
 3426TIP3    H210218   1.311   3.708   3.621
 3427TIP3   OH210219   1.129   3.989   3.231
 3427TIP3    H110220   1.225   3.985   3.223
 3427TIP3    H210221   1.117   4.069   3.285
 3428TIP3   OH210222   2.993   4.440   3.289
 3428TIP3    H110223   2.991   4.344   3.304
 3428TIP3    H210224   2.910   4.467   3.333
 3429TIP3   OH210225   2.099   4.226   3.421
 3429TIP3    H110226   2.097   4.318   3.454
 3429TIP3    H210227   2.028   4.185   3.475
 3430TIP3   OH210228   1.860   4.354   2.374
 3430TIP3    H110229   1.814   4.339   2.289
 3430TIP3    H210230   1.828   4.443   2.400
 3431TIP3   OH210231   1.298   4.203   2.758
 3431TIP3    H110232   1.346   4.196   2.844
 3431TIP3    H210233   1.242   4.125   2.762
 3432TIP3   OH210234   2.059   4.255   2.014
 3432TIP3    H110235   2.119   4.186   1.977
 3432TIP3    H210236   2.096   4.266   2.104
 3433TIP3   OH210237   2.112   4.304   2.283
 3433TIP3    H110238   2.024   4.314   2.326
 3433TIP3    H210239   2.164   4.266   2.355
 3434TIP3   OH210240   2.887   3.571   3.560
 3434TIP3    H110241   2.799   3.583   3.521
 3434TIP3    H210242   2.898   3.474   3.554
 3435TIP3   OH210243   1.479   3.978   3.586
 3435TIP3    H110244   1.528   3.963   3.669
 3435TIP3    H210245   1.405   3.915   3.594
 3436TIP3   OH210246   1.880   2.802   3.372
 3436TIP3    H110247   1.790   2.772   3.345
 3436TIP3    H210248   1.855   2.884   3.418
 3437TIP3   OH210249   2.413   2.914   3.565
 3437TIP3    H110250   2.482   2.892   3.631
 3437TIP3    H210251   2.329   2.899   3.613
 3438TIP3   OH210252   2.651   3.348   3.484
 3438TIP3    H110253   2.601   3.342   3.569
 3438TIP3    H210254   2.626   3.436   3.451
 3439TIP3   OH210255   2.312   3.474   2.040
 3439TIP3    H110256   2.277   3.451   1.952
 3439TIP3    H210257   2.393   3.522   2.016
 3440TIP3   OH210258   2.024   2.849   2.343
 3440TIP3    H110259   1.990   2.847   2.435
 3440TIP3    H210260   1.983   2.768   2.308
 3441TIP3   OH210261   1.810   3.318   3.389
 3441TIP3    H110262   1.761   3.340   3.471
 3441TIP3    H210263   1.795   3.399   3.336
 3442TIP3   OH210264   1.695   3.203   2.903
 3442TIP3    H110265   1.602   3.179   2.922
 3442TIP3    H210266   1.706   3.162   2.815
 3443TIP3   OH210267   2.185   3.289   2.631
 3443TIP3    H110268   2.133   3.361   2.589
 3443TIP3    H210269   2.239   3.258   2.556
 3444TIP3   OH210270   2.359   3.565   3.712
 3444TIP3    H110271   2.338   3.495   3.778
 3444TIP3    H210272   2.449   3.589   3.740
 3445TIP3   OH210273   2.341   3.317   2.870
 3445TIP3    H110274   2.281   3.348   2.800
 3445TIP3    H210275   2.374   3.236   2.825
 3446TIP3   OH210276   1.629   3.347   3.598
 3446TIP3    H110277   1.659   3.411   3.664
 3446TIP3    H210278   1.619   3.266   3.652
 3447TIP3   OH210279   1.680   2.824   2.308
 3447TIP3    H110280   1.669   2.824   2.405
 3447TIP3    H210281   1.603   2.877   2.281
 3448TIP3   OH210282   1.223   2.867   3.180
 3448TIP3    H110283   1.298   2.900   3.233
 3448TIP3    H210284   1.264   2.839   3.097
 3449TIP3   OH210285   1.195   2.851   2.699
 3449TIP3    H110286   1.238   2.889   2.620
 3449TIP3    H210287   1.132   2.923   2.719
 3450TIP3   OH210288   2.350   3.563   3.292
 3450TIP3    H110289   2.385   3.491   3.234
 3450TIP3    H210290   2.322   3.511   3.370
 3451TIP3   OH210291   2.022   3.022   2.964
 3451TIP3    H110292   1.940   3.024   3.016
 3451TIP3    H210293   2.090   3.026   3.033
 3452TIP3   OH210294   1.456   3.083   2.972
 3452TIP3    H110295   1.361   3.092   2.945
 3452TIP3    H210296   1.477   2.991   2.949
 3453TIP3   OH210297   1.724   3.076   2.662
 3453TIP3    H110298   1.818   3.094   2.639
 3453TIP3    H210299   1.676   3.099   2.579
 3454TIP3   OH210300   2.515   3.101   3.162
 3454TIP3    H110301   2.486   3.114   3.256
 3454TIP3    H210302   2.444   3.041   3.131
 3455TIP3   OH210303   1.570   3.110   2.441
 3455TIP3    H110304   1.497   3.067   2.392
 3455TIP3    H210305   1.621   3.148   2.366
 3456TIP3   OH210306   2.685   4.790   3.386
 3456TIP3    H110307   2.682   4.815   3.292
 3456TIP3    H210308   2.764   4.839   3.417
 3457TIP3   OH210309   1.642   3.900   3.808
 3457TIP3    H110310   1.722   3.929   3.856
 3457TIP3    H210311   1.577   3.901   3.881
 3458TIP3   OH210312   2.104   3.353   3.061
 3458TIP3    H110313   2.180   3.316   3.014
 3458TIP3    H210314   2.113   3.313   3.150
 3459TIP3   OH210315   1.628   2.842   2.942
 3459TIP3    H110316   1.591   2.764   2.989
 3459TIP3    H210317   1.673   2.802   2.866
 3460TIP3   OH210318   2.082   3.252   3.354
 3460TIP3    H110319   1.992   3.289   3.367
 3460TIP3    H210320   2.139   3.314   3.403
 3461TIP3   OH210321   1.818   3.641   2.447
 3461TIP3    H110322   1.746   3.576   2.436
 3461TIP3    H210323   1.799   3.675   2.538
 3462TIP3   OH210324   2.719   3.876   3.075
 3462TIP3    H110325   2.742   3.928   2.995
 3462TIP3    H210326   2.633   3.836   3.051
 3463TIP3   OH210327   2.277   2.952   2.311
 3463TIP3    H110328   2.180   2.936   2.318
 3463TIP3    H210329   2.286   3.047   2.334
 3464TIP3   OH210330   2.216   3.959   3.445
 3464TIP3    H110331   2.247   3.939   3.534
 3464TIP3    H210332   2.179   4.048   3.454
 3465TIP3   OH210333   2.345   3.201   2.413
 3465TIP3    H110334   2.441   3.209   2.428
 3465TIP3    H210335   2.325   3.282   2.361
 3466TIP3   OH210336   1.510   3.663   3.123
 3466TIP3    H110337   1.548   3.635   3.038
 3466TIP3    H210338   1.552   3.603   3.185
 3467TIP3   OH210339   1.963   3.790   2.269
 3467TIP3    H110340   1.915   3.876   2.273
 3467TIP3    H210341   1.909   3.736   2.330
 3468TIP3   OH210342   1.392   3.584   3.736
 3468TIP3    H110343   1.412   3.571   3.831
 3468TIP3    H210344   1.322   3.518   3.721
 3469TIP3   OH210345   2.120   3.701   3.752
 3469TIP3    H110346   2.062   3.639   3.705
 3469TIP3    H210347   2.209   3.667   3.727
 3470TIP3   OH210348   2.377   4.218   3.341
 3470TIP3    H110349   2.280   4.218   3.354
 3470TIP3    H210350   2.405   4.271   3.418
 3471TIP3   OH210351   2.788   3.294   2.249
 3471TIP3    H110352   2.726   3.249   2.187
 3471TIP3    H210353   2.784   3.383   2.208
 3472TIP3   OH210354   3.006   4.148   3.330
 3472TIP3    H110355   2.908   4.144   3.322
 3472TIP3    H210356   3.031   4.120   3.239
 3473TIP3   OH210357   2.487   4.111   2.157
 3473TIP3    H110358   2.462   4.040   2.218
 3473TIP3    H210359   2.501   4.064   2.073
 3474TIP3   OH210360   2.484   3.741   2.993
 3474TIP3    H110361   2.390   3.717   3.008
 3474TIP3    H210362   2.516   3.660   2.948
 3475TIP3   OH210363   1.612   3.967   2.745
 3475TIP3    H110364   1.610   4.049   2.693
 3475TIP3    H210365   1.518   3.953   2.761
 3476TIP3   OH210366   1.177   3.271   2.454
 3476TIP3    H110367   1.220   3.356   2.474
 3476TIP3    H210368   1.099   3.275   2.513
 3477TIP3   OH210369   1.748   3.732   2.691
 3477TIP3    H110370   1.713   3.822   2.709
 3477TIP3    H210371   1.712   3.682   2.766
 3478TIP3   OH210372   1.881   4.311   3.216
 3478TIP3    H110373   1.922   4.384   3.167
 3478TIP3    H210374   1.957   4.276   3.265
 3479TIP3   OH210375   1.530   4.207   2.598
 3479TIP3    H110376   1.445   4.215   2.646
 3479TIP3    H210377   1.562   4.300   2.603
 3480TIP3   OH210378   2.267   3.944   3.177
 3480TIP3    H110379   2.256   3.944   3.274
 3480TIP3    H210380   2.349   3.894   3.167
 3481TIP3   OH210381   2.243   3.838   2.059
 3481TIP3    H110382   2.297   3.813   2.138
 3481TIP3    H210383   2.155   3.812   2.088
 3482TIP3   OH210384   2.517   4.477   3.225
 3482TIP3    H110385   2.437   4.422   3.218
 3482TIP3    H210386   2.501   4.543   3.153
 3483TIP3   OH210387   2.583   4.312   1.878
 3483TIP3    H110388   2.620   4.385   1.825
 3483TIP3    H210389   2.503   4.358   1.911
 3484TIP3   OH210390   1.602   3.088   3.744
 3484TIP3    H110391   1.505   3.093   3.757
 3484TIP3    H210392   1.630   3.032   3.817
 3485TIP3   OH210393   2.404   3.772   2.275
 3485TIP3    H110394   2.394   3.706   2.346
 3485TIP3    H210395   2.501   3.769   2.262
 3486TIP3   OH210396   1.319   4.172   3.375
 3486TIP3    H110397   1.374   4.102   3.413
 3486TIP3    H210398   1.344   4.248   3.430
 3487TIP3   OH210399   1.605   3.820   2.058
 3487TIP3    H110400   1.622   3.728   2.030
 3487TIP3    H210401   1.589   3.807   2.154
 3488TIP3   OH210402   1.554   3.825   2.331
 3488TIP3    H110403   1.626   3.796   2.389
 3488TIP3    H210404   1.559   3.922   2.339
 3489TIP3   OH210405   1.290   3.518   2.534
 3489TIP3    H110406   1.223   3.562   2.591
 3489TIP3    H210407   1.302   3.587   2.466
 3490TIP3   OH210408   2.446   3.148   3.421
 3490TIP3    H110409   2.517   3.195   3.469
 3490TIP3    H210410   2.429   3.071   3.479
 3491TIP3   OH210411   2.322   2.902   2.592
 3491TIP3    H110412   2.307   2.926   2.498
 3491TIP3    H210413   2.360   2.986   2.628
 3492TIP3   OH210414   1.820   4.019   2.277
 3492TIP3    H110415   1.734   4.047   2.316
 3492TIP3    H210416   1.838   4.095   2.220
 3493TIP3   OH210417   2.009   3.084   2.692
 3493TIP3    H110418   2.072   3.157   2.675
 3493TIP3    H210419   2.013   3.077   2.790
 3494TIP3   OH210420   2.279   3.402   3.501
 3494TIP3    H110421   2.299   3.461   3.577
 3494TIP3    H210422   2.333   3.325   3.521
 3495TIP3   OH210423   2.152   2.809   2.795
 3495TIP3    H110424   2.144   2.886   2.854
 3495TIP3    H210425   2.214   2.845   2.726
 3496TIP3   OH210426   1.564   4.096   2.348
 3496TIP3    H110427   1.533   4.167   2.287
 3496TIP3    H210428   1.549   4.138   2.436
 3497TIP3   OH210429   1.665   2.810   2.586
 3497TIP3    H110430   1.661   2.902   2.621
 3497TIP3    H210431   1.761   2.795   2.593
 3498TIP3   OH210432   2.916   3.301   3.481
 3498TIP3    H110433   2.819   3.301   3.490
 3498TIP3    H210434   2.925   3.261   3.393
 3499TIP3   OH210435   2.570   3.496   2.869
 3499TIP3    H110436   2.492   3.439   2.883
 3499TIP3    H210437   2.640   3.448   2.919
 3500TIP3   OH210438   1.282   3.726   2.338
 3500TIP3    H110439   1.351   3.793   2.350
 3500TIP3    H210440   1.327   3.669   2.272
 3501TIP3   OH210441   1.225   3.001   2.472
 3501TIP3    H110442   1.225   3.098   2.470
 3501TIP3    H210443   1.141   2.981   2.429
 3502TIP3   OH210444   2.538   4.453   2.818
 3502TIP3    H110445   2.495   4.500   2.743
 3502TIP3    H210446   2.632   4.473   2.797
 3503TIP3   OH210447   1.615   2.722   3.345
 3503TIP3    H110448   1.583   2.690   3.258
 3503TIP3    H210449   1.603   2.644   3.403
 3504TIP3   OH210450   1.151   3.938   2.725
 3504TIP3    H110451   1.083   3.970   2.786
 3504TIP3    H210452   1.121   3.981   2.641
 3505TIP3   OH210453   1.310   4.483   3.801
 3505TIP3    H110454   1.397   4.482   3.846
 3505TIP3    H210455   1.291   4.388   3.797
 3506TIP3   OH210456   1.790   4.446   3.843
 3506TIP3    H110457   1.884   4.426   3.851
 3506TIP3    H210458   1.765   4.387   3.770
 3507TIP3   OH210459   1.771   4.022   1.968
 3507TIP3    H110460   1.718   3.949   2.008
 3507TIP3    H210461   1.848   3.972   1.935
 3508TIP3   OH210462   2.431   4.353   3.575
 3508TIP3    H110463   2.420   4.283   3.643
 3508TIP3    H210464   2.507   4.404   3.608
 3509TIP3   OH210465   2.207   4.063   1.882
 3509TIP3    H110466   2.253   4.000   1.940
 3509TIP3    H210467   2.263   4.062   1.801
 3510TIP3   OH210468   1.440   3.889   3.999
 3510TIP3    H110469   1.455   3.793   4.004
 3510TIP3    H210470   1.352   3.892   3.953
 3511TIP3   OH210471   1.418   3.540   2.192
 3511TIP3    H110472   1.473   3.507   2.265
 3511TIP3    H210473   1.485   3.543   2.120
 3512TIP3   OH210474   2.046   3.975   3.773
 3512TIP3    H110475   2.007   3.992   3.685
 3512TIP3    H210476   2.080   3.883   3.765
 3513TIP3   OH210477   1.926   3.738   2.000
 3513TIP3    H110478   1.931   3.750   2.097
 3513TIP3    H210479   1.927   3.640   1.994
 3514TIP3   OH210480   2.539   3.983   3.376
 3514TIP3    H110481   2.615   4.028   3.335
 3514TIP3    H210482   2.469   4.050   3.364
 3515TIP3   OH210483   1.560   3.621   3.981
 3515TIP3    H110484   1.640   3.573   3.956
 3515TIP3    H210485   1.586   3.656   4.069
 3516TIP3   OH210486   1.625   3.444   2.414
 3516TIP3    H110487   1.597   3.403   2.497
 3516TIP3    H210488   1.661   3.367   2.364
 3517TIP3   OH210489   1.893   3.504   3.639
 3517TIP3    H110490   1.817   3.567   3.642
 3517TIP3    H210491   1.945   3.540   3.564
 3518TIP3   OH210492   1.726   3.237   2.254
 3518TIP3    H110493   1.700   3.243   2.160
 3518TIP3    H210494   1.824   3.241   2.246
 3519TIP3   OH210495   2.408   3.908   3.773
 3519TIP3    H110496   2.494   3.885   3.736
 3519TIP3    H210497   2.404   3.848   3.851
 3520TIP3   OH210498   2.547   3.567   1.919
 3520TIP3    H110499   2.527   3.522   1.834
 3520TIP3    H210500   2.515   3.657   1.897
 3521TIP3   OH210501   2.016   3.296   3.769
 3521TIP3    H110502   2.018   3.217   3.711
 3521TIP3    H210503   1.973   3.363   3.711
 3522TIP3   OH210504   2.021   3.080   3.574
 3522TIP3    H110505   2.048   3.125   3.492
 3522TIP3    H210506   1.926   3.060   3.556
 3523TIP3   OH210507   2.045   3.614   3.447
 3523TIP3    H110508   2.131   3.630   3.405
 3523TIP3    H210509   1.989   3.682   3.403
 3524TIP3   OH210510   2.627   3.580   3.824
 3524TIP3    H110511   2.679   3.504   3.855
 3524TIP3    H210512   2.696   3.646   3.807
 3525TIP3   OH210513   2.671   3.835   3.561
 3525TIP3    H110514   2.612   3.889   3.504
 3525TIP3    H210515   2.758   3.859   3.521
 3526TIP3   OH210516   1.892   3.408   3.999
 3526TIP3    H110517   1.826   3.337   4.013
 3526TIP3    H210518   1.929   3.383   3.912
 3527TIP3   OH210519   2.151   2.844   3.643
 3527TIP3    H110520   2.103   2.927   3.620
 3527TIP3    H210521   2.081   2.777   3.632
 3528TIP3   OH210522   2.281   3.348   3.858
 3528TIP3    H110523   2.276   3.342   3.955
 3528TIP3    H210524   2.189   3.325   3.834
 3529TIP3   OH210525   2.513   3.287   3.708
 3529TIP3    H110526   2.441   3.301   3.773
 3529TIP3    H210527   2.589   3.266   3.765
 3530TIP3   OH210528   2.745   3.234   3.855
 3530TIP3    H110529   2.757   3.141   3.880
 3530TIP3    H210530   2.737   3.279   3.942
 3531TIP3   OH210531   1.733   3.186   4.053
 3531TIP3    H110532   1.742   3.095   4.019
 3531TIP3    H210533   1.770   3.176   4.142
 3532TIP3   OH210534   2.245   2.852   3.901
 3532TIP3    H110535   2.313   2.782   3.893
 3532TIP3    H210536   2.205   2.849   3.811
 3533TIP3   OH210537   2.308   3.067   4.063
 3533TIP3    H110538   2.288   2.999   3.996
 3533TIP3    H210539   2.232   3.129   4.055
 3534TIP3   OH210540   1.534   4.298   2.160
 3534TIP3    H110541   1.630   4.288   2.147
 3534TIP3    H210542   1.513   4.355   2.084
 3535TIP3   OH210543   1.013   3.682   2.373
 3535TIP3    H110544   1.108   3.702   2.360
 3535TIP3    H210545   1.007   3.592   2.334
 3536TIP3   OH210546   0.929   4.293   2.789
 3536TIP3    H110547   0.862   4.232   2.752
 3536TIP3    H210548   0.973   4.235   2.855
 3537TIP3   OH210549   1.065   4.143   2.976
 3537TIP3    H110550   1.051   4.071   3.040
 3537TIP3    H210551   1.116   4.205   3.030
 3538TIP3   OH210552   2.792   4.543   2.777
 3538TIP3    H110553   2.817   4.577   2.864
 3538TIP3    H210554   2.853   4.589   2.718
 3539TIP3   OH210555   2.819   4.565   3.058
 3539TIP3    H110556   2.776   4.477   3.054
 3539TIP3    H210557   2.895   4.544   3.114
 3540TIP3   OH210558   2.866   4.242   3.632
 3540TIP3    H110559   2.793   4.250   3.696
 3540TIP3    H210560   2.908   4.330   3.636
 3541TIP3   OH210561   2.683   3.754   2.250
 3541TIP3    H110562   2.749   3.819   2.220
 3541TIP3    H210563   2.728   3.716   2.329
 3542TIP3   OH210564   2.811   3.621   2.453
 3542TIP3    H110565   2.744   3.580   2.512
 3542TIP3    H210566   2.873   3.661   2.517
 3543TIP3   OH210567   2.867   4.015   2.887
 3543TIP3    H110568   2.917   3.951   2.833
 3543TIP3    H210569   2.859   4.091   2.826
 3544TIP3   OH210570   2.695   4.314   3.082
 3544TIP3    H110571   2.624   4.358   3.133
 3544TIP3    H210572   2.644   4.268   3.011
 3545TIP3   OH210573   2.748   3.529   2.101
 3545TIP3    H110574   2.678   3.531   2.033
 3545TIP3    H210575   2.720   3.606   2.156
 3546TIP3   OH210576   2.621   3.202   2.056
 3546TIP3    H110577   2.577   3.243   1.980
 3546TIP3    H210578   2.595   3.108   2.045
 3547TIP3   OH210579   2.625   3.480   2.601
 3547TIP3    H110580   2.631   3.383   2.593
 3547TIP3    H210581   2.610   3.492   2.697
 3548TIP3   OH210582   1.250   3.550   3.349
 3548TIP3    H110583   1.248   3.520   3.256
 3548TIP3    H210584   1.347   3.553   3.365
 3549TIP3   OH210585   2.915   3.904   3.457
 3549TIP3    H110586   2.987   3.838   3.447
 3549TIP3    H210587   2.944   3.975   3.397
 3550TIP3   OH210588   3.100   3.707   3.466
 3550TIP3    H110589   3.026   3.658   3.508
 3550TIP3    H210590   3.174   3.645   3.483
 3551TIP3   OH210591   2.563   2.937   2.041
 3551TIP3    H110592   2.637   2.905   2.096
 3551TIP3    H210593   2.490   2.877   2.063
 3552TIP3   OH210594   2.621   3.195   2.496
 3552TIP3    H110595   2.662   3.107   2.510
 3552TIP3    H210596   2.679   3.228   2.424
 3553TIP3   OH210597   2.786   3.364   2.991
 3553TIP3    H110598   2.870   3.393   2.951
 3553TIP3    H210599   2.794   3.405   3.080
 3554TIP3   OH210600   2.848   3.511   3.219
 3554TIP3    H110601   2.773   3.544   3.273
 3554TIP3    H210602   2.881   3.594   3.178
 3555TIP3   OH210603   1.466   3.236   4.020
 3555TIP3    H110604   1.564   3.232   4.024
 3555TIP3    H210605   1.444   3.151   4.062
 3556TIP3   OH210606   3.299   3.099   3.777
 3556TIP3    H110607   3.362   3.037   3.734
 3556TIP3    H210608   3.272   3.157   3.703
 3557TIP3   OH210609   2.730   2.945   2.533
 3557TIP3    H110610   2.778   2.929   2.617
 3557TIP3    H210611   2.669   2.868   2.531
 3558TIP3   OH210612   1.430   2.931   3.352
 3558TIP3    H110613   1.493   2.857   3.362
 3558TIP3    H210614   1.491   3.006   3.345
 3559TIP3   OH210615   1.232   3.203   3.427
 3559TIP3    H110616   1.281   3.200   3.342
 3559TIP3    H210617   1.258   3.290   3.460
 3560TIP3   OH210618   3.174   3.244   3.584
 3560TIP3    H110619   3.092   3.287   3.615
 3560TIP3    H210620   3.137   3.174   3.527
 3561TIP3   OH210621   2.811   2.878   2.168
 3561TIP3    H110622   2.850   2.807   2.112
 3561TIP3    H210623   2.877   2.949   2.160
 3562TIP3   OH210624   1.216   2.706   2.926
 3562TIP3    H110625   1.123   2.702   2.953
 3562TIP3    H210626   1.212   2.765   2.848
 3563TIP3   OH210627   2.374   4.412   2.432
 3563TIP3    H110628   2.426   4.400   2.350
 3563TIP3    H210629   2.426   4.478   2.480
 3564TIP3   OH210630   1.435   2.784   3.739
 3564TIP3    H110631   1.386   2.783   3.822
 3564TIP3    H210632   1.370   2.826   3.679
 3565TIP3   OH210633   1.476   4.215   3.816
 3565TIP3    H110634   1.383   4.189   3.801
 3565TIP3    H210635   1.486   4.198   3.911
 3566TIP3   OH210636   1.654   4.248   3.365
 3566TIP3    H110637   1.606   4.324   3.326
 3566TIP3    H210638   1.740   4.263   3.320
 3567TIP3   OH210639   2.099   4.492   3.504
 3567TIP3    H110640   2.140   4.493   3.593
 3567TIP3    H210641   2.164   4.543   3.452
 3568TIP3   OH210642   2.277   4.644   3.363
 3568TIP3    H110643   2.349   4.594   3.322
 3568TIP3    H210644   2.329   4.702   3.424
 3569TIP3   OH210645   3.073   3.007   3.461
 3569TIP3    H110646   2.982   3.002   3.428
 3569TIP3    H210647   3.103   2.914   3.451
 3570TIP3   OH210648   1.330   4.502   3.392
 3570TIP3    H110649   1.241   4.533   3.366
 3570TIP3    H210650   1.342   4.554   3.473
 3571TIP3   OH210651   1.566   4.483   3.247
 3571TIP3    H110652   1.479   4.495   3.292
 3571TIP3    H210653   1.546   4.518   3.158
 3572TIP3   OH210654   1.993   4.512   3.044
 3572TIP3    H110655   1.922   4.532   2.980
 3572TIP3    H210656   2.004   4.599   3.088
 3573TIP3   OH210657   2.261   4.450   3.096
 3573TIP3    H110658   2.167   4.469   3.077
 3573TIP3    H210659   2.305   4.526   3.055
 3574TIP3   OH210660   2.467   4.642   3.011
 3574TIP3    H110661   2.454   4.727   2.964
 3574TIP3    H210662   2.494   4.582   2.938
 3575TIP3   OH210663   1.241   4.298   3.132
 3575TIP3    H110664   1.266   4.273   3.224
 3575TIP3    H210665   1.314   4.254   3.083
 3576TIP3   OH210666   1.436   4.169   2.991
 3576TIP3    H110667   1.452   4.086   3.041
 3576TIP3    H210668   1.527   4.206   2.987
 3577TIP3   OH210669   1.702   4.264   2.995
 3577TIP3    H110670   1.734   4.172   2.986
 3577TIP3    H210671   1.746   4.287   3.079
 3578TIP3   OH210672   2.279   2.921   3.081
 3578TIP3    H110673   2.234   2.852   3.133
 3578TIP3    H210674   2.352   2.873   3.039
 3579TIP3   OH210675   2.799   2.798   2.986
 3579TIP3    H110676   2.836   2.851   2.912
 3579TIP3    H210677   2.704   2.820   2.981
 3580TIP3   OH210678   2.895   2.901   2.750
 3580TIP3    H110679   2.968   2.849   2.711
 3580TIP3    H210680   2.928   2.992   2.735
 3581TIP3   OH210681   1.527   2.630   3.096
 3581TIP3    H110682   1.434   2.598   3.099
 3581TIP3    H210683   1.574   2.544   3.091
 3582TIP3   OH210684   1.321   2.500   2.745
 3582TIP3    H110685   1.343   2.559   2.671
 3582TIP3    H210686   1.285   2.564   2.811
 3583TIP3   OH210687   1.973   2.657   2.979
 3583TIP3    H110688   2.027   2.710   2.918
 3583TIP3    H210689   1.990   2.702   3.063
 3584TIP3   OH210690   2.516   2.809   2.962
 3584TIP3    H110691   2.515   2.772   2.873
 3584TIP3    H210692   2.502   2.728   3.017
 3585TIP3   OH210693   2.546   2.733   2.524
 3585TIP3    H110694   2.460   2.777   2.538
 3585TIP3    H210695   2.530   2.647   2.570
 3586TIP3   OH210696   1.031   4.070   2.522
 3586TIP3    H110697   0.945   4.038   2.490
 3586TIP3    H210698   1.019   4.166   2.506
 3587TIP3   OH210699   1.430   2.656   2.511
 3587TIP3    H110700   1.478   2.597   2.450
 3587TIP3    H210701   1.502   2.712   2.546
 3588TIP3   OH210702   1.943   2.833   2.609
 3588TIP3    H110703   2.005   2.790   2.670
 3588TIP3    H210704   1.961   2.927   2.632
 3589TIP3   OH210705   1.800   4.258   2.106
 3589TIP3    H110706   1.890   4.280   2.072
 3589TIP3    H210707   1.781   4.182   2.047
 3590TIP3   OH210708   2.520   4.378   2.201
 3590TIP3    H110709   2.512   4.280   2.189
 3590TIP3    H210710   2.476   4.409   2.120
 3591TIP3   OH210711   1.733   2.908   3.986
 3591TIP3    H110712   1.697   2.839   4.045
 3591TIP3    H210713   1.827   2.909   4.015
 3592TIP3   OH210714   1.981   2.907   4.107
 3592TIP3    H110715   2.068   2.887   4.069
 3592TIP3    H210716   1.971   2.836   4.173
 3593TIP3   OH210717   1.109   4.119   2.156
 3593TIP3    H110718   1.100   4.116   2.253
 3593TIP3    H210719   1.194   4.074   2.141
 3594TIP3   OH210720   2.808   2.965   3.895
 3594TIP3    H110721   2.827   2.938   3.987
 3594TIP3    H210722   2.898   2.965   3.855
 3595TIP3   OH210723   2.746   4.521   3.388
 3595TIP3    H110724   2.667   4.491   3.338
 3595TIP3    H210725   2.727   4.617   3.392
 3596TIP3   OH210726   4.011   3.892   2.155
 3596TIP3    H110727   3.984   3.984   2.135
 3596TIP3    H210728   3.936   3.843   2.117
 3597TIP3   OH210729   4.012   3.897   2.534
 3597TIP3    H110730   4.045   3.870   2.622
 3597TIP3    H210731   3.974   3.815   2.499
 3598TIP3   OH210732   3.320   3.777   2.891
 3598TIP3    H110733   3.338   3.738   2.978
 3598TIP3    H210734   3.382   3.851   2.891
 3599TIP3   OH210735   4.255   4.196   2.217
 3599TIP3    H110736   4.243   4.129   2.285
 3599TIP3    H210737   4.286   4.272   2.269
 3600TIP3   OH210738   3.282   4.198   2.624
 3600TIP3    H110739   3.275   4.100   2.626
 3600TIP3    H210740   3.379   4.208   2.617
 3601TIP3   OH210741   2.988   3.401   2.413
 3601TIP3    H110742   2.940   3.485   2.425
 3601TIP3    H210743   2.920   3.348   2.368
 3602TIP3   OH210744   3.047   3.694   2.581
 3602TIP3    H110745   3.096   3.615   2.613
 3602TIP3    H210746   3.105   3.727   2.511
 3603TIP3   OH210747   3.905   4.659   2.233
 3603TIP3    H110748   3.950   4.587   2.183
 3603TIP3    H210749   3.899   4.621   2.321
 3604TIP3   OH210750   3.810   4.118   2.585
 3604TIP3    H110751   3.852   4.045   2.537
 3604TIP3    H210752   3.892   4.166   2.611
 3605TIP3   OH210753   4.823   3.438   2.581
 3605TIP3    H110754   4.852   3.521   2.625
 3605TIP3    H210755   4.849   3.456   2.489
 3606TIP3   OH210756   4.211   3.615   2.619
 3606TIP3    H110757   4.264   3.535   2.636
 3606TIP3    H210758   4.190   3.603   2.524
 3607TIP3   OH210759   3.543   3.304   2.626
 3607TIP3    H110760   3.532   3.363   2.549
 3607TIP3    H210761   3.502   3.223   2.588
 3608TIP3   OH210762   4.255   3.375   2.203
 3608TIP3    H110763   4.328   3.359   2.268
 3608TIP3    H210764   4.308   3.407   2.127
 3609TIP3   OH210765   3.192   3.485   2.681
 3609TIP3    H110766   3.287   3.479   2.680
 3609TIP3    H210767   3.174   3.418   2.611
 3610TIP3   OH210768   3.636   3.675   2.481
 3610TIP3    H110769   3.731   3.653   2.488
 3610TIP3    H210770   3.599   3.592   2.443
 3611TIP3   OH210771   4.894   3.643   2.759
 3611TIP3    H110772   4.813   3.694   2.740
 3611TIP3    H210773   4.929   3.691   2.836
 3612TIP3   OH210774   3.901   4.112   2.024
 3612TIP3    H110775   3.863   4.099   1.936
 3612TIP3    H210776   3.859   4.197   2.050
 3613TIP3   OH210777   3.659   4.033   2.808
 3613TIP3    H110778   3.601   4.103   2.847
 3613TIP3    H210779   3.704   4.083   2.737
 3614TIP3   OH210780   4.463   3.376   2.376
 3614TIP3    H110781   4.463   3.325   2.458
 3614TIP3    H210782   4.520   3.452   2.400
 3615TIP3   OH210783   3.491   4.233   2.906
 3615TIP3    H110784   3.468   4.320   2.869
 3615TIP3    H210785   3.413   4.219   2.963
 3616TIP3   OH210786   2.886   3.923   2.144
 3616TIP3    H110787   2.846   3.950   2.059
 3616TIP3    H210788   2.917   4.009   2.179
 3617TIP3   OH210789   4.325   4.439   2.382
 3617TIP3    H110790   4.235   4.431   2.422
 3617TIP3    H210791   4.318   4.526   2.338
 3618TIP3   OH210792   4.616   3.338   2.745
 3618TIP3    H110793   4.530   3.368   2.711
 3618TIP3    H210794   4.678   3.372   2.678
 3619TIP3   OH210795   3.915   2.975   2.724
 3619TIP3    H110796   3.910   2.879   2.742
 3619TIP3    H210797   3.837   3.005   2.776
 3620TIP3   OH210798   4.026   4.485   2.056
 3620TIP3    H110799   4.076   4.402   2.036
 3620TIP3    H210800   4.089   4.550   2.017
 3621TIP3   OH210801   4.169   4.270   1.966
 3621TIP3    H110802   4.138   4.189   1.922
 3621TIP3    H210803   4.206   4.234   2.050
 3622TIP3   OH210804   4.550   4.352   2.728
 3622TIP3    H110805   4.540   4.275   2.667
 3622TIP3    H210806   4.534   4.427   2.667
 3623TIP3   OH210807   3.844   3.746   1.985
 3623TIP3    H110808   3.765   3.799   1.963
 3623TIP3    H210809   3.890   3.743   1.900
 3624TIP3   OH210810   3.803   3.529   1.701
 3624TIP3    H110811   3.869   3.583   1.748
 3624TIP3    H210812   3.861   3.467   1.653
 3625TIP3   OH210813   4.745   3.985   2.571
 3625TIP3    H110814   4.664   4.040   2.576
 3625TIP3    H210815   4.778   4.012   2.483
 3626TIP3   OH210816   4.190   3.828   1.956
 3626TIP3    H110817   4.137   3.852   2.035
 3626TIP3    H210818   4.275   3.804   1.999
 3627TIP3   OH210819   4.424   3.866   2.871
 3627TIP3    H110820   4.425   3.948   2.923
 3627TIP3    H210821   4.340   3.877   2.823
 3628TIP3   OH210822   3.422   3.824   2.377
 3628TIP3    H110823   3.380   3.769   2.307
 3628TIP3    H210824   3.501   3.771   2.401
 3629TIP3   OH210825   3.551   4.234   2.523
 3629TIP3    H110826   3.534   4.200   2.434
 3629TIP3    H210827   3.642   4.201   2.540
 3630TIP3   OH210828   3.567   3.776   2.735
 3630TIP3    H110829   3.595   3.764   2.642
 3630TIP3    H210830   3.601   3.866   2.754
 3631TIP3   OH210831   4.084   4.434   2.504
 3631TIP3    H110832   4.072   4.516   2.556
 3631TIP3    H210833   4.068   4.363   2.570
 3632TIP3   OH210834   3.698   4.353   3.051
 3632TIP3    H110835   3.639   4.415   3.098
 3632TIP3    H210836   3.632   4.301   3.001
 3633TIP3   OH210837   4.030   3.687   1.782
 3633TIP3    H110838   4.089   3.746   1.833
 3633TIP3    H210839   4.057   3.708   1.689
 3634TIP3   OH210840   3.448   3.905   3.147
 3634TIP3    H110841   3.460   3.991   3.192
 3634TIP3    H210842   3.355   3.887   3.173
 3635TIP3   OH210843   3.775   4.365   2.060
 3635TIP3    H110844   3.856   4.418   2.071
 3635TIP3    H210845   3.715   4.428   2.017
 3636TIP3   OH210846   3.492   4.520   3.138
 3636TIP3    H110847   3.456   4.522   3.048
 3636TIP3    H210848   3.412   4.499   3.192
 3637TIP3   OH210849   4.548   2.927   1.831
 3637TIP3    H110850   4.466   2.949   1.880
 3637TIP3    H210851   4.563   3.009   1.780
 3638TIP3   OH210852   3.288   3.668   2.181
 3638TIP3    H110853   3.225   3.716   2.123
 3638TIP3    H210854   3.248   3.581   2.185
 3639TIP3   OH210855   4.347   4.294   1.380
 3639TIP3    H110856   4.355   4.390   1.364
 3639TIP3    H210857   4.439   4.264   1.367
 3640TIP3   OH210858   3.071   4.051   3.086
 3640TIP3    H110859   3.003   4.032   3.018
 3640TIP3    H210860   3.106   3.963   3.109
 3641TIP3   OH210861   2.925   4.244   2.720
 3641TIP3    H110862   3.022   4.243   2.710
 3641TIP3    H210863   2.913   4.325   2.772
 3642TIP3   OH210864   4.788   4.696   2.774
 3642TIP3    H110865   4.787   4.600   2.789
 3642TIP3    H210866   4.706   4.723   2.820
 3643TIP3   OH210867   3.895   4.482   2.908
 3643TIP3    H110868   3.894   4.574   2.941
 3643TIP3    H210869   3.824   4.442   2.963
 3644TIP3   OH210870   3.656   4.610   1.861
 3644TIP3    H110871   3.611   4.593   1.776
 3644TIP3    H210872   3.624   4.699   1.885
 3645TIP3   OH210873   3.094   4.461   2.245
 3645TIP3    H110874   3.142   4.452   2.330
 3645TIP3    H210875   3.036   4.382   2.249
 3646TIP3   OH210876   3.857   4.513   1.500
 3646TIP3    H110877   3.916   4.443   1.463
 3646TIP3    H210878   3.892   4.523   1.590
 3647TIP3   OH210879   3.908   4.561   1.770
 3647TIP3    H110880   3.820   4.570   1.812
 3647TIP3    H210881   3.959   4.522   1.842
 3648TIP3   OH210882   4.684   3.820   3.052
 3648TIP3    H110883   4.601   3.846   3.010
 3648TIP3    H210884   4.690   3.725   3.027
 3649TIP3   OH210885   3.276   4.234   3.072
 3649TIP3    H110886   3.325   4.220   3.156
 3649TIP3    H210887   3.201   4.172   3.082
 3650TIP3   OH210888   3.677   3.047   2.852
 3650TIP3    H110889   3.587   3.010   2.835
 3650TIP3    H210890   3.660   3.141   2.834
 3651TIP3   OH210891   4.215   3.174   3.053
 3651TIP3    H110892   4.283   3.143   3.117
 3651TIP3    H210893   4.131   3.150   3.098
 3652TIP3   OH210894   4.437   3.600   2.973
 3652TIP3    H110895   4.394   3.603   3.061
 3652TIP3    H210896   4.423   3.691   2.939
 3653TIP3   OH210897   4.107   3.732   1.527
 3653TIP3    H110898   4.073   3.707   1.439
 3653TIP3    H210899   4.190   3.778   1.503
 3654TIP3   OH210900   3.819   3.107   1.829
 3654TIP3    H110901   3.784   3.103   1.921
 3654TIP3    H210902   3.781   3.025   1.794
 3655TIP3   OH210903   3.496   3.452   2.399
 3655TIP3    H110904   3.401   3.427   2.409
 3655TIP3    H210905   3.511   3.414   2.309
 3656TIP3   OH210906   3.981   3.546   2.118
 3656TIP3    H110907   3.930   3.617   2.075
 3656TIP3    H210908   4.037   3.514   2.044
 3657TIP3   OH210909   4.153   3.819   3.197
 3657TIP3    H110910   4.132   3.755   3.268
 3657TIP3    H210911   4.244   3.844   3.221
 3658TIP3   OH210912   4.133   3.574   2.357
 3658TIP3    H110913   4.077   3.605   2.282
 3658TIP3    H210914   4.170   3.494   2.314
 3659TIP3   OH210915   3.447   3.566   3.057
 3659TIP3    H110916   3.474   3.641   3.114
 3659TIP3    H210917   3.421   3.500   3.127
 3660TIP3   OH210918   3.475   3.080   1.795
 3660TIP3    H110919   3.465   3.079   1.892
 3660TIP3    H210920   3.398   3.134   1.769
 3661TIP3   OH210921   3.020   3.124   2.665
 3661TIP3    H110922   3.102   3.159   2.704
 3661TIP3    H210923   3.048   3.090   2.578
 3662TIP3   OH210924   2.990   3.106   2.186
 3662TIP3    H110925   3.035   3.143   2.107
 3662TIP3    H210926   2.928   3.179   2.205
 3663TIP3   OH210927   4.140   3.819   2.779
 3663TIP3    H110928   4.176   3.748   2.722
 3663TIP3    H210929   4.116   3.767   2.858
 3664TIP3   OH210930   3.823   3.284   2.448
 3664TIP3    H110931   3.743   3.282   2.503
 3664TIP3    H210932   3.894   3.276   2.513
 3665TIP3   OH210933   3.251   3.339   2.456
 3665TIP3    H110934   3.157   3.344   2.426
 3665TIP3    H210935   3.275   3.246   2.438
 3666TIP3   OH210936   3.521   3.337   2.150
 3666TIP3    H110937   3.614   3.350   2.126
 3666TIP3    H210938   3.473   3.358   2.066
 3667TIP3   OH210939   4.313   3.359   2.657
 3667TIP3    H110940   4.275   3.369   2.747
 3667TIP3    H210941   4.252   3.296   2.617
 3668TIP3   OH210942   3.365   3.367   1.927
 3668TIP3    H110943   3.295   3.323   1.877
 3668TIP3    H210944   3.418   3.405   1.853
 3669TIP3   OH210945   4.481   5.048   2.873
 3669TIP3    H110946   4.480   5.071   2.778
 3669TIP3    H210947   4.562   5.093   2.903
 3670TIP3   OH210948   3.440   4.154   3.293
 3670TIP3    H110949   3.519   4.185   3.341
 3670TIP3    H210950   3.375   4.155   3.366
 3671TIP3   OH210951   3.904   3.606   2.541
 3671TIP3    H110952   3.974   3.579   2.478
 3671TIP3    H210953   3.939   3.574   2.625
 3672TIP3   OH210954   3.435   3.107   2.444
 3672TIP3    H110955   3.398   3.026   2.484
 3672TIP3    H210956   3.478   3.073   2.364
 3673TIP3   OH210957   3.844   3.527   2.876
 3673TIP3    H110958   3.825   3.621   2.859
 3673TIP3    H210959   3.938   3.537   2.900
 3674TIP3   OH210960   3.614   3.898   1.934
 3674TIP3    H110961   3.541   3.833   1.922
 3674TIP3    H210962   3.595   3.932   2.025
 3675TIP3   OH210963   4.515   4.134   2.562
 3675TIP3    H110964   4.540   4.185   2.482
 3675TIP3    H210965   4.430   4.093   2.536
 3676TIP3   OH210966   4.073   3.208   1.802
 3676TIP3    H110967   3.976   3.192   1.805
 3676TIP3    H210968   4.081   3.303   1.821
 3677TIP3   OH210969   4.007   4.212   2.935
 3677TIP3    H110970   4.044   4.200   3.023
 3677TIP3    H210971   3.975   4.304   2.937
 3678TIP3   OH210972   4.141   3.459   1.902
 3678TIP3    H110973   4.238   3.465   1.915
 3678TIP3    H210974   4.123   3.538   1.847
 3679TIP3   OH210975   3.307   3.917   2.612
 3679TIP3    H110976   3.342   3.892   2.524
 3679TIP3    H210977   3.355   3.857   2.670
 3680TIP3   OH210978   3.760   4.048   1.756
 3680TIP3    H110979   3.711   4.134   1.760
 3680TIP3    H210980   3.705   3.993   1.817
 3681TIP3   OH210981   3.190   3.835   3.221
 3681TIP3    H110982   3.212   3.829   3.316
 3681TIP3    H210983   3.116   3.773   3.215
 3682TIP3   OH210984   3.915   3.957   3.237
 3682TIP3    H110985   3.860   3.891   3.193
 3682TIP3    H210986   4.005   3.925   3.213
 3683TIP3   OH210987   4.172   4.471   2.830
 3683TIP3    H110988   4.076   4.476   2.842
 3683TIP3    H210989   4.203   4.525   2.905
 3684TIP3   OH210990   4.582   3.550   1.737
 3684TIP3    H110991   4.520   3.506   1.674
 3684TIP3    H210992   4.580   3.639   1.695
 3685TIP3   OH210993   4.801   4.404   2.817
 3685TIP3    H110994   4.703   4.401   2.807
 3685TIP3    H210995   4.827   4.376   2.726
 3686TIP3   OH210996   4.283   4.367   1.644
 3686TIP3    H110997   4.259   4.296   1.704
 3686TIP3    H210998   4.297   4.322   1.559
 3687TIP3   OH210999   4.280   3.997   2.482
 3687TIP3    H111000   4.186   3.974   2.493
 3687TIP3    H211001   4.313   3.917   2.436
 3688TIP3   OH211002   3.408   4.225   2.235
 3688TIP3    H111003   3.409   4.306   2.180
 3688TIP3    H211004   3.314   4.210   2.244
 3689TIP3   OH211005   2.973   3.528   1.940
 3689TIP3    H111006   3.017   3.614   1.959
 3689TIP3    H211007   2.895   3.533   1.999
 3690TIP3   OH211008   3.543   3.988   2.179
 3690TIP3    H111009   3.511   4.079   2.195
 3690TIP3    H211010   3.506   3.941   2.255
 3691TIP3   OH211011   3.677   4.568   2.703
 3691TIP3    H111012   3.718   4.641   2.653
 3691TIP3    H211013   3.753   4.533   2.752
 3692TIP3   OH211014   3.327   4.463   2.087
 3692TIP3    H111015   3.241   4.473   2.133
 3692TIP3    H211016   3.360   4.556   2.089
 3693TIP3   OH211017   4.062   4.201   2.665
 3693TIP3    H111018   4.053   4.199   2.762
 3693TIP3    H211019   4.146   4.154   2.652
 3694TIP3   OH211020   4.040   4.095   1.546
 3694TIP3    H111021   4.093   4.070   1.625
 3694TIP3    H211022   3.952   4.069   1.575
 3695TIP3   OH211023   4.312   4.735   2.711
 3695TIP3    H111024   4.232   4.680   2.703
 3695TIP3    H211025   4.298   4.800   2.640
 3696TIP3   OH211026   4.379   4.569   1.365
 3696TIP3    H111027   4.417   4.641   1.311
 3696TIP3    H211028   4.299   4.615   1.398
 3697TIP3   OH211029   3.396   3.352   3.223
 3697TIP3    H111030   3.303   3.349   3.251
 3697TIP3    H211031   3.438   3.292   3.286
 3698TIP3   OH211032   4.200   4.030   1.764
 3698TIP3    H111033   4.191   3.962   1.833
 3698TIP3    H211034   4.297   4.026   1.749
 3699TIP3   OH211035   3.115   4.429   2.862
 3699TIP3    H111036   3.170   4.358   2.898
 3699TIP3    H211037   3.141   4.504   2.919
 3700TIP3   OH211038   3.405   4.076   1.545
 3700TIP3    H111039   3.419   3.984   1.517
 3700TIP3    H211040   3.385   4.064   1.640
 3701TIP3   OH211041   3.350   4.080   1.818
 3701TIP3    H111042   3.425   4.056   1.874
 3701TIP3    H211043   3.353   4.179   1.824
 3702TIP3   OH211044   3.086   3.774   2.022
 3702TIP3    H111045   3.020   3.820   2.077
 3702TIP3    H211046   3.100   3.842   1.953
 3703TIP3   OH211047   4.228   3.411   2.914
 3703TIP3    H111048   4.312   3.453   2.944
 3703TIP3    H211049   4.225   3.330   2.970
 3704TIP3   OH211050   4.114   3.161   2.080
 3704TIP3    H111051   4.102   3.182   1.985
 3704TIP3    H211052   4.154   3.245   2.113
 3705TIP3   OH211053   3.616   4.277   1.766
 3705TIP3    H111054   3.529   4.304   1.802
 3705TIP3    H211055   3.633   4.349   1.704
 3706TIP3   OH211056   3.803   3.342   2.178
 3706TIP3    H111057   3.868   3.414   2.159
 3706TIP3    H211058   3.811   3.335   2.275
 3707TIP3   OH211059   4.074   3.652   2.986
 3707TIP3    H111060   4.093   3.710   3.063
 3707TIP3    H211061   4.136   3.578   3.000
 3708TIP3   OH211062   3.948   3.066   2.280
 3708TIP3    H111063   3.942   3.144   2.338
 3708TIP3    H211064   4.009   3.100   2.210
 3709TIP3   OH211065   3.360   4.353   1.834
 3709TIP3    H111066   3.331   4.423   1.771
 3709TIP3    H211067   3.345   4.397   1.920
 3710TIP3   OH211068   3.459   3.068   2.072
 3710TIP3    H111069   3.459   3.160   2.107
 3710TIP3    H211070   3.555   3.049   2.080
 3711TIP3   OH211071   4.708   3.555   2.976
 3711TIP3    H111072   4.611   3.549   2.971
 3711TIP3    H211073   4.734   3.527   2.887
 3712TIP3   OH211074   4.364   3.754   2.358
 3712TIP3    H111075   4.290   3.692   2.367
 3712TIP3    H211076   4.438   3.708   2.404
 3713TIP3   OH211077   3.078   3.981   1.826
 3713TIP3    H111078   3.144   4.052   1.835
 3713TIP3    H211079   3.123   3.926   1.759
 3714TIP3   OH211080   3.020   3.258   1.962
 3714TIP3    H111081   3.022   3.356   1.958
 3714TIP3    H211082   2.941   3.239   1.911
 3715TIP3   OH211083   4.334   4.711   2.305
 3715TIP3    H111084   4.291   4.758   2.230
 3715TIP3    H211085   4.428   4.730   2.285
 3716TIP3   OH211086   3.411   2.980   2.837
 3716TIP3    H111087   3.380   2.946   2.750
 3716TIP3    H211088   3.399   2.901   2.894
 3717TIP3   OH211089   2.947   4.193   2.212
 3717TIP3    H111090   2.879   4.227   2.272
 3717TIP3    H211091   2.920   4.236   2.127
 3718TIP3   OH211092   3.106   4.741   3.286
 3718TIP3    H111093   3.193   4.742   3.333
 3718TIP3    H211094   3.088   4.645   3.284
 3719TIP3   OH211095   3.584   4.703   3.330
 3719TIP3    H111096   3.679   4.687   3.339
 3719TIP3    H211097   3.562   4.643   3.256
 3720TIP3   OH211098   3.569   4.279   1.457
 3720TIP3    H111099   3.513   4.207   1.494
 3720TIP3    H211100   3.644   4.228   1.422
 3721TIP3   OH211101   4.228   4.609   3.061
 3721TIP3    H111102   4.218   4.540   3.131
 3721TIP3    H211103   4.304   4.660   3.093
 3722TIP3   OH211104   4.004   4.319   1.369
 3722TIP3    H111105   4.050   4.256   1.427
 3722TIP3    H211106   4.060   4.318   1.288
 3723TIP3   OH211107   3.237   4.148   3.484
 3723TIP3    H111108   3.253   4.052   3.496
 3723TIP3    H211109   3.149   4.148   3.440
 3724TIP3   OH211110   3.213   3.795   1.679
 3724TIP3    H111111   3.270   3.765   1.752
 3724TIP3    H211112   3.279   3.800   1.607
 3725TIP3   OH211113   3.843   4.232   3.260
 3725TIP3    H111114   3.804   4.251   3.172
 3725TIP3    H211115   3.876   4.141   3.250
 3726TIP3   OH211116   3.724   3.995   1.486
 3726TIP3    H111117   3.727   4.007   1.583
 3726TIP3    H211118   3.724   3.897   1.480
 3727TIP3   OH211119   4.334   4.239   2.864
 3727TIP3    H111120   4.411   4.282   2.821
 3727TIP3    H211121   4.267   4.309   2.851
 3728TIP3   OH211122   3.359   3.877   3.463
 3728TIP3    H111123   3.435   3.820   3.449
 3728TIP3    H211124   3.380   3.912   3.553
 3729TIP3   OH211125   3.421   3.700   1.900
 3729TIP3    H111126   3.395   3.655   1.982
 3729TIP3    H211127   3.459   3.626   1.848
 3730TIP3   OH211128   3.680   3.750   3.108
 3730TIP3    H111129   3.614   3.819   3.128
 3730TIP3    H211130   3.738   3.795   3.043
 3731TIP3   OH211131   3.522   3.494   1.742
 3731TIP3    H111132   3.497   3.499   1.647
 3731TIP3    H211133   3.620   3.497   1.734
 3732TIP3   OH211134   4.203   4.162   3.259
 3732TIP3    H111135   4.290   4.145   3.222
 3732TIP3    H211136   4.202   4.104   3.338
 3733TIP3   OH211137   4.342   3.823   1.406
 3733TIP3    H111138   4.323   3.778   1.321
 3733TIP3    H211139   4.310   3.914   1.383
 3734TIP3   OH211140   3.815   3.559   3.257
 3734TIP3    H111141   3.819   3.476   3.206
 3734TIP3    H211142   3.770   3.621   3.196
 3735TIP3   OH211143   3.815   3.332   3.078
 3735TIP3    H111144   3.834   3.388   2.999
 3735TIP3    H211145   3.729   3.295   3.058
 3736TIP3   OH211146   3.842   3.863   2.921
 3736TIP3    H111147   3.929   3.891   2.891
 3736TIP3    H211148   3.785   3.934   2.884
 3737TIP3   OH211149   4.418   3.847   3.311
 3737TIP3    H111150   4.471   3.775   3.349
 3737TIP3    H211151   4.487   3.911   3.286
 3738TIP3   OH211152   4.468   4.090   3.046
 3738TIP3    H111153   4.408   4.146   2.991
 3738TIP3    H211154   4.555   4.117   3.007
 3739TIP3   OH211155   3.679   3.670   3.479
 3739TIP3    H111156   3.617   3.598   3.500
 3739TIP3    H211157   3.727   3.632   3.402
 3740TIP3   OH211158   3.955   3.093   3.117
 3740TIP3    H111159   3.906   3.178   3.112
 3740TIP3    H211160   3.883   3.027   3.114
 3741TIP3   OH211161   4.078   3.607   3.349
 3741TIP3    H111162   4.075   3.587   3.445
 3741TIP3    H211163   3.985   3.585   3.328
 3742TIP3   OH211164   4.305   3.546   3.210
 3742TIP3    H111165   4.223   3.573   3.257
 3742TIP3    H211166   4.341   3.484   3.275
 3743TIP3   OH211167   3.532   3.442   3.538
 3743TIP3    H111168   3.540   3.349   3.510
 3743TIP3    H211169   3.568   3.437   3.629
 3744TIP3   OH211170   4.024   3.090   3.380
 3744TIP3    H111171   4.101   3.031   3.383
 3744TIP3    H211172   3.998   3.082   3.286
 3745TIP3   OH211173   4.096   3.305   3.532
 3745TIP3    H111174   4.060   3.243   3.466
 3745TIP3    H211175   4.035   3.381   3.530
 3746TIP3   OH211176   3.330   4.555   1.646
 3746TIP3    H111177   3.425   4.550   1.627
 3746TIP3    H211178   3.301   4.605   1.568
 3747TIP3   OH211179   2.809   3.937   1.863
 3747TIP3    H111180   2.904   3.959   1.848
 3747TIP3    H211181   2.803   3.848   1.821
 3748TIP3   OH211182   2.725   4.550   2.276
 3748TIP3    H111183   2.658   4.488   2.239
 3748TIP3    H211184   2.769   4.491   2.342
 3749TIP3   OH211185   2.861   4.399   2.462
 3749TIP3    H111186   2.848   4.328   2.527
 3749TIP3    H211187   2.912   4.462   2.516
 3750TIP3   OH211188   4.586   4.803   2.263
 3750TIP3    H111189   4.616   4.833   2.351
 3750TIP3    H211190   4.653   4.842   2.204
 3751TIP3   OH211191   4.616   4.822   2.545
 3751TIP3    H111192   4.573   4.734   2.541
 3751TIP3    H211193   4.693   4.800   2.601
 3752TIP3   OH211194   4.661   4.498   3.118
 3752TIP3    H111195   4.589   4.509   3.183
 3752TIP3    H211196   4.704   4.586   3.122
 3753TIP3   OH211197   4.478   4.011   1.738
 3753TIP3    H111198   4.545   4.076   1.707
 3753TIP3    H211199   4.524   3.973   1.816
 3754TIP3   OH211200   4.607   3.879   1.941
 3754TIP3    H111201   4.541   3.837   2.001
 3754TIP3    H211202   4.673   3.915   2.003
 3755TIP3   OH211203   4.660   4.270   2.372
 3755TIP3    H111204   4.714   4.205   2.323
 3755TIP3    H211205   4.656   4.345   2.310
 3756TIP3   OH211206   4.492   4.571   2.568
 3756TIP3    H111207   4.420   4.614   2.619
 3756TIP3    H211208   4.442   4.525   2.498
 3757TIP3   OH211209   4.545   3.786   1.588
 3757TIP3    H111210   4.473   3.788   1.520
 3757TIP3    H211211   4.516   3.863   1.643
 3758TIP3   OH211212   4.414   3.461   1.544
 3758TIP3    H111213   4.375   3.497   1.464
 3758TIP3    H211214   4.389   3.366   1.535
 3759TIP3   OH211215   4.419   3.737   2.088
 3759TIP3    H111216   4.429   3.640   2.080
 3759TIP3    H211217   4.407   3.749   2.184
 3760TIP3   OH211218   3.049   3.804   2.835
 3760TIP3    H111219   3.043   3.778   2.741
 3760TIP3    H211220   3.147   3.807   2.847
 3761TIP3   OH211221   4.710   4.161   2.941
 3761TIP3    H111222   4.784   4.095   2.934
 3761TIP3    H211223   4.739   4.232   2.882
 3762TIP3   OH211224   4.893   3.964   2.961
 3762TIP3    H111225   4.822   3.911   3.002
 3762TIP3    H211226   4.969   3.904   2.973
 3763TIP3   OH211227   4.358   3.195   1.531
 3763TIP3    H111228   4.434   3.162   1.582
 3763TIP3    H211229   4.287   3.132   1.550
 3764TIP3   OH211230   4.417   3.452   1.982
 3764TIP3    H111231   4.458   3.363   1.997
 3764TIP3    H211232   4.475   3.485   1.911
 3765TIP3   OH211233   4.578   3.626   2.479
 3765TIP3    H111234   4.663   3.650   2.437
 3765TIP3    H211235   4.594   3.663   2.568
 3766TIP3   OH211236   4.647   3.770   2.712
 3766TIP3    H111237   4.570   3.807   2.759
 3766TIP3    H211238   4.681   3.849   2.664
 3767TIP3   OH211239   3.265   3.491   3.498
 3767TIP3    H111240   3.362   3.490   3.509
 3767TIP3    H211241   3.241   3.409   3.545
 3768TIP3   OH211242   5.088   3.348   3.261
 3768TIP3    H111243   5.156   3.292   3.220
 3768TIP3    H211244   5.070   3.415   3.193
 3769TIP3   OH211245   4.525   3.202   2.021
 3769TIP3    H111246   4.575   3.185   2.104
 3769TIP3    H211247   4.465   3.124   2.019
 3770TIP3   OH211248   3.241   3.202   2.817
 3770TIP3    H111249   3.297   3.122   2.830
 3770TIP3    H211250   3.231   3.235   2.907
 3771TIP3   OH211251   3.037   3.452   2.916
 3771TIP3    H111252   3.081   3.461   2.829
 3771TIP3    H211253   3.042   3.543   2.950
 3772TIP3   OH211254   4.965   3.499   3.062
 3772TIP3    H111255   4.873   3.531   3.058
 3772TIP3    H211256   4.956   3.417   3.011
 3773TIP3   OH211257   4.606   3.134   1.654
 3773TIP3    H111258   4.645   3.064   1.598
 3773TIP3    H211259   4.673   3.205   1.647
 3774TIP3   OH211260   3.012   2.971   2.418
 3774TIP3    H111261   2.917   2.960   2.439
 3774TIP3    H211262   3.008   3.025   2.337
 3775TIP3   OH211263   4.171   4.669   1.920
 3775TIP3    H111264   4.221   4.655   1.837
 3775TIP3    H211265   4.225   4.735   1.965
 3776TIP3   OH211266   3.230   3.041   3.225
 3776TIP3    H111267   3.185   3.039   3.311
 3776TIP3    H211268   3.161   3.080   3.168
 3777TIP3   OH211269   3.272   4.471   3.302
 3777TIP3    H111270   3.178   4.446   3.289
 3777TIP3    H211271   3.285   4.454   3.396
 3778TIP3   OH211272   3.450   4.503   2.851
 3778TIP3    H111273   3.403   4.580   2.812
 3778TIP3    H211274   3.537   4.518   2.807
 3779TIP3   OH211275   3.894   4.748   2.989
 3779TIP3    H111276   3.935   4.749   3.078
 3779TIP3    H211277   3.960   4.800   2.938
 3780TIP3   OH211278   4.074   4.901   2.850
 3780TIP3    H111279   4.146   4.851   2.809
 3780TIP3    H211280   4.124   4.959   2.911
 3781TIP3   OH211281   4.870   3.259   2.948
 3781TIP3    H111282   4.780   3.250   2.914
 3781TIP3    H211283   4.903   3.166   2.937
 3782TIP3   OH211284   3.125   4.759   2.878
 3782TIP3    H111285   3.036   4.793   2.854
 3782TIP3    H211286   3.139   4.805   2.962
 3783TIP3   OH211287   3.362   4.738   2.734
 3783TIP3    H111288   3.275   4.752   2.778
 3783TIP3    H211289   3.344   4.773   2.644
 3784TIP3   OH211290   3.788   4.768   2.532
 3784TIP3    H111291   3.719   4.788   2.466
 3784TIP3    H211292   3.801   4.855   2.575
 3785TIP3   OH211293   4.057   4.706   2.583
 3785TIP3    H111294   3.963   4.724   2.564
 3785TIP3    H211295   4.101   4.782   2.542
 3786TIP3   OH211296   4.265   4.901   2.498
 3786TIP3    H111297   4.250   4.985   2.450
 3786TIP3    H211298   4.291   4.840   2.425
 3787TIP3   OH211299   3.037   4.554   2.620
 3787TIP3    H111300   3.064   4.529   2.711
 3787TIP3    H211301   3.110   4.511   2.570
 3788TIP3   OH211302   3.232   4.426   2.478
 3788TIP3    H111303   3.248   4.343   2.528
 3788TIP3    H211304   3.322   4.464   2.474
 3789TIP3   OH211305   3.497   4.521   2.483
 3789TIP3    H111306   3.530   4.430   2.470
 3789TIP3    H211307   3.543   4.544   2.566
 3790TIP3   OH211308   4.068   3.177   2.568
 3790TIP3    H111309   4.030   3.102   2.617
 3790TIP3    H211310   4.144   3.135   2.523
 3791TIP3   OH211311   4.594   3.060   2.475
 3791TIP3    H111312   4.633   3.109   2.399
 3791TIP3    H211313   4.499   3.078   2.466
 3792TIP3   OH211314   4.690   3.156   2.238
 3792TIP3    H111315   4.763   3.105   2.198
 3792TIP3    H211316   4.724   3.248   2.223
 3793TIP3   OH211317   3.323   2.888   2.590
 3793TIP3    H111318   3.230   2.856   2.589
 3793TIP3    H211319   3.371   2.802   2.584
 3794TIP3   OH211320   3.109   2.756   2.232
 3794TIP3    H111321   3.140   2.812   2.159
 3794TIP3    H211322   3.082   2.823   2.298
 3795TIP3   OH211323   3.767   2.920   2.467
 3795TIP3    H111324   3.822   2.966   2.402
 3795TIP3    H211325   3.805   2.951   2.551
 3796TIP3   OH211326   4.307   3.067   2.450
 3796TIP3    H111327   4.313   3.028   2.361
 3796TIP3    H211328   4.296   2.986   2.506
 3797TIP3   OH211329   4.342   2.988   2.012
 3797TIP3    H111330   4.255   3.030   2.022
 3797TIP3    H211331   4.328   2.903   2.057
 3798TIP3   OH211332   2.826   4.329   2.013
 3798TIP3    H111333   2.740   4.296   1.979
 3798TIP3    H211334   2.816   4.423   1.991
 3799TIP3   OH211335   3.226   2.913   1.997
 3799TIP3    H111336   3.274   2.851   1.938
 3799TIP3    H211337   3.300   2.968   2.031
 3800TIP3   OH211338   3.736   3.091   2.095
 3800TIP3    H111339   3.798   3.044   2.153
 3800TIP3    H211340   3.760   3.184   2.118
 3801TIP3   OH211341   3.598   4.515   1.595
 3801TIP3    H111342   3.686   4.537   1.558
 3801TIP3    H211343   3.576   4.440   1.534
 3802TIP3   OH211344   4.316   4.634   1.688
 3802TIP3    H111345   4.308   4.536   1.676
 3802TIP3    H211346   4.271   4.666   1.606
 3803TIP3   OH211347   3.533   3.164   3.469
 3803TIP3    H111348   3.494   3.098   3.529
 3803TIP3    H211349   3.626   3.164   3.500
 3804TIP3   OH211350   3.778   3.160   3.592
 3804TIP3    H111351   3.868   3.141   3.558
 3804TIP3    H211352   3.768   3.090   3.660
 3805TIP3   OH211353   2.901   4.351   1.649
 3805TIP3    H111354   2.904   4.377   1.742
 3805TIP3    H211355   2.990   4.309   1.636
 3806TIP3   OH211356   4.630   3.298   3.411
 3806TIP3    H111357   4.633   3.225   3.478
 3806TIP3    H211358   4.699   3.267   3.347
 3807TIP3   OH211359   4.542   4.778   2.874
 3807TIP3    H111360   4.463   4.747   2.825
 3807TIP3    H211361   4.523   4.874   2.879
 3808TIP3   OH211362   5.809   4.149   1.640
 3808TIP3    H111363   5.783   4.242   1.621
 3808TIP3    H211364   5.730   4.102   1.608
 3809TIP3   OH211365   5.809   4.149   2.021
 3809TIP3    H111366   5.842   4.127   2.111
 3809TIP3    H211367   5.765   4.066   1.995
 3810TIP3   OH211368   5.107   4.045   2.388
 3810TIP3    H111369   5.138   3.977   2.451
 3810TIP3    H211370   5.185   4.102   2.382
 3811TIP3   OH211371   6.051   4.452   1.705
 3811TIP3    H111372   6.039   4.386   1.775
 3811TIP3    H211373   6.082   4.529   1.756
 3812TIP3   OH211374   5.078   4.455   2.110
 3812TIP3    H111375   5.071   4.357   2.113
 3812TIP3    H211376   5.175   4.465   2.106
 3813TIP3   OH211377   4.785   3.656   1.896
 3813TIP3    H111378   4.739   3.740   1.911
 3813TIP3    H211379   4.714   3.604   1.853
 3814TIP3   OH211380   4.843   3.945   2.069
 3814TIP3    H111381   4.893   3.868   2.104
 3814TIP3    H211382   4.905   3.980   2.004
 3815TIP3   OH211383   5.701   4.914   1.720
 3815TIP3    H111384   5.746   4.843   1.670
 3815TIP3    H211385   5.697   4.877   1.809
 3816TIP3   OH211386   5.607   4.376   2.070
 3816TIP3    H111387   5.648   4.301   2.024
 3816TIP3    H211388   5.689   4.423   2.096
 3817TIP3   OH211389   6.618   3.696   2.069
 3817TIP3    H111390   6.647   3.777   2.115
 3817TIP3    H211391   6.641   3.718   1.977
 3818TIP3   OH211392   6.019   3.876   2.102
 3818TIP3    H111393   6.061   3.791   2.123
 3818TIP3    H211394   5.988   3.860   2.011
 3819TIP3   OH211395   5.360   3.536   2.066
 3819TIP3    H111396   5.338   3.610   2.005
 3819TIP3    H211397   5.311   3.463   2.022
 3820TIP3   OH211398   6.055   3.627   1.690
 3820TIP3    H111399   6.127   3.612   1.756
 3820TIP3    H211400   6.106   3.664   1.616
 3821TIP3   OH211401   4.990   3.738   2.174
 3821TIP3    H111402   5.073   3.721   2.222
 3821TIP3    H211403   5.004   3.683   2.095
 3822TIP3   OH211404   5.432   3.936   1.967
 3822TIP3    H111405   5.525   3.911   1.980
 3822TIP3    H211406   5.393   3.852   1.935
 3823TIP3   OH211407   6.689   3.901   2.242
 3823TIP3    H111408   6.609   3.953   2.222
 3823TIP3    H211409   6.717   3.941   2.326
 3824TIP3   OH211410   5.354   3.520   2.500
 3824TIP3    H111411   5.294   3.558   2.434
 3824TIP3    H211412   5.303   3.538   2.582
 3825TIP3   OH211413   5.701   4.372   1.507
 3825TIP3    H111414   5.656   4.356   1.423
 3825TIP3    H211415   5.658   4.455   1.536
 3826TIP3   OH211416   5.460   4.296   2.296
 3826TIP3    H111417   5.399   4.363   2.334
 3826TIP3    H211418   5.503   4.346   2.224
 3827TIP3   OH211419   6.263   3.629   1.867
 3827TIP3    H111420   6.237   3.596   1.954
 3827TIP3    H211421   6.315   3.708   1.889
 3828TIP3   OH211422   5.224   3.635   2.285
 3828TIP3    H111423   5.286   3.708   2.310
 3828TIP3    H211424   5.275   3.595   2.210
 3829TIP3   OH211425   5.287   4.490   2.393
 3829TIP3    H111426   5.263   4.578   2.356
 3829TIP3    H211427   5.209   4.475   2.450
 3830TIP3   OH211428   4.681   4.180   1.630
 3830TIP3    H111429   4.642   4.208   1.545
 3830TIP3    H211430   4.713   4.265   1.666
 3831TIP3   OH211431   6.120   4.695   1.868
 3831TIP3    H111432   6.031   4.687   1.908
 3831TIP3    H211433   6.114   4.782   1.824
 3832TIP3   OH211434   6.411   3.594   2.231
 3832TIP3    H111435   6.326   3.631   2.202
 3832TIP3    H211436   6.473   3.629   2.164
 3833TIP3   OH211437   5.710   3.239   2.218
 3833TIP3    H111438   5.693   3.144   2.234
 3833TIP3    H211439   5.633   3.279   2.264
 3834TIP3   OH211440   5.823   4.741   1.542
 3834TIP3    H111441   5.874   4.659   1.523
 3834TIP3    H211442   5.885   4.807   1.503
 3835TIP3   OH211443   5.967   4.525   1.453
 3835TIP3    H111444   5.920   4.447   1.421
 3835TIP3    H211445   6.005   4.491   1.538
 3836TIP3   OH211446   6.348   4.608   2.215
 3836TIP3    H111447   6.337   4.531   2.155
 3836TIP3    H211448   6.331   4.683   2.155
 3837TIP3   OH211449   5.639   4.000   1.470
 3837TIP3    H111450   5.558   4.053   1.454
 3837TIP3    H211451   5.682   4.003   1.383
 3838TIP3   OH211452   5.596   3.789   1.188
 3838TIP3    H111453   5.668   3.837   1.232
 3838TIP3    H211454   5.645   3.716   1.145
 3839TIP3   OH211455   6.542   4.241   2.056
 3839TIP3    H111456   6.461   4.295   2.061
 3839TIP3    H211457   6.576   4.269   1.968
 3840TIP3   OH211458   5.987   4.081   1.444
 3840TIP3    H111459   5.932   4.107   1.522
 3840TIP3    H211460   6.072   4.059   1.488
 3841TIP3   OH211461   6.222   4.123   2.357
 3841TIP3    H111462   6.222   4.204   2.411
 3841TIP3    H211463   6.136   4.132   2.311
 3842TIP3   OH211464   5.219   4.082   1.861
 3842TIP3    H111465   5.178   4.024   1.793
 3842TIP3    H211466   5.296   4.029   1.890
 3843TIP3   OH211467   5.348   4.493   2.009
 3843TIP3    H111468   5.330   4.454   1.922
 3843TIP3    H211469   5.439   4.459   2.028
 3844TIP3   OH211470   5.355   4.054   2.214
 3844TIP3    H111471   5.389   4.033   2.125
 3844TIP3    H211472   5.399   4.139   2.234
 3845TIP3   OH211473   5.880   4.691   1.991
 3845TIP3    H111474   5.868   4.772   2.043
 3845TIP3    H211475   5.865   4.620   2.056
 3846TIP3   OH211476   5.495   4.611   2.536
 3846TIP3    H111477   5.435   4.672   2.585
 3846TIP3    H211478   5.429   4.557   2.488
 3847TIP3   OH211479   5.834   3.939   1.264
 3847TIP3    H111480   5.887   4.001   1.319
 3847TIP3    H211481   5.858   3.967   1.173
 3848TIP3   OH211482   5.249   4.167   2.640
 3848TIP3    H111483   5.255   4.254   2.684
 3848TIP3    H211484   5.154   4.148   2.652
 3849TIP3   OH211485   5.571   4.621   1.546
 3849TIP3    H111486   5.652   4.674   1.558
 3849TIP3    H211487   5.511   4.684   1.504
 3850TIP3   OH211488   5.288   4.777   2.625
 3850TIP3    H111489   5.252   4.778   2.534
 3850TIP3    H211490   5.208   4.757   2.678
 3851TIP3   OH211491   6.344   3.185   1.319
 3851TIP3    H111492   6.262   3.206   1.367
 3851TIP3    H211493   6.358   3.267   1.267
 3852TIP3   OH211494   5.086   3.925   1.665
 3852TIP3    H111495   5.020   3.970   1.609
 3852TIP3    H211496   5.045   3.838   1.675
 3853TIP3   OH211497   6.139   4.546   0.865
 3853TIP3    H111498   6.147   4.643   0.851
 3853TIP3    H211499   6.233   4.519   0.856
 3854TIP3   OH211500   4.866   4.310   2.572
 3854TIP3    H111501   4.802   4.287   2.502
 3854TIP3    H211502   4.905   4.223   2.596
 3855TIP3   OH211503   4.722   4.501   2.206
 3855TIP3    H111504   4.818   4.494   2.194
 3855TIP3    H211505   4.715   4.580   2.261
 3856TIP3   OH211506   6.586   4.955   2.261
 3856TIP3    H111507   6.584   4.858   2.275
 3856TIP3    H211508   6.502   4.980   2.307
 3857TIP3   OH211509   5.690   4.740   2.393
 3857TIP3    H111510   5.689   4.832   2.428
 3857TIP3    H211511   5.621   4.699   2.449
 3858TIP3   OH211512   5.452   4.866   1.348
 3858TIP3    H111513   5.408   4.850   1.263
 3858TIP3    H211514   5.421   4.955   1.372
 3859TIP3   OH211515   4.890   4.717   1.732
 3859TIP3    H111516   4.938   4.708   1.817
 3859TIP3    H211517   4.835   4.637   1.735
 3860TIP3   OH211518   5.653   4.769   0.989
 3860TIP3    H111519   5.711   4.699   0.952
 3860TIP3    H211520   5.689   4.780   1.079
 3861TIP3   OH211521   5.704   4.817   1.257
 3861TIP3    H111522   5.616   4.826   1.300
 3861TIP3    H211523   5.757   4.782   1.330
 3862TIP3   OH211524   6.478   4.082   2.535
 3862TIP3    H111525   6.392   4.096   2.493
 3862TIP3    H211526   6.488   3.985   2.530
 3863TIP3   OH211527   5.071   4.492   2.560
 3863TIP3    H111528   5.122   4.476   2.643
 3863TIP3    H211529   4.997   4.429   2.569
 3864TIP3   OH211530   5.472   3.315   2.345
 3864TIP3    H111531   5.382   3.285   2.318
 3864TIP3    H211532   5.447   3.397   2.392
 3865TIP3   OH211533   6.006   3.426   2.539
 3865TIP3    H111534   6.073   3.406   2.607
 3865TIP3    H211535   5.921   3.412   2.586
 3866TIP3   OH211536   6.242   3.860   2.456
 3866TIP3    H111537   6.195   3.856   2.542
 3866TIP3    H211538   6.220   3.949   2.423
 3867TIP3   OH211539   5.902   3.986   1.000
 3867TIP3    H111540   5.862   4.021   0.920
 3867TIP3    H211541   5.989   4.030   0.997
 3868TIP3   OH211542   5.625   3.359   1.323
 3868TIP3    H111543   5.582   3.356   1.410
 3868TIP3    H211544   5.579   3.285   1.279
 3869TIP3   OH211545   5.401   3.831   2.362
 3869TIP3    H111546   5.355   3.855   2.445
 3869TIP3    H211547   5.387   3.912   2.309
 3870TIP3   OH211548   5.287   3.716   1.877
 3870TIP3    H111549   5.194   3.692   1.895
 3870TIP3    H211550   5.299   3.676   1.788
 3871TIP3   OH211551   5.777   3.803   1.606
 3871TIP3    H111552   5.724   3.875   1.564
 3871TIP3    H211553   5.832   3.773   1.531
 3872TIP3   OH211554   5.951   4.078   2.686
 3872TIP3    H111555   5.931   4.008   2.752
 3872TIP3    H211556   6.042   4.101   2.713
 3873TIP3   OH211557   5.933   3.829   1.845
 3873TIP3    H111558   5.874   3.863   1.775
 3873TIP3    H211559   5.966   3.749   1.799
 3874TIP3   OH211560   5.220   3.860   2.573
 3874TIP3    H111561   5.257   3.924   2.636
 3874TIP3    H211562   5.214   3.779   2.627
 3875TIP3   OH211563   5.278   3.345   1.283
 3875TIP3    H111564   5.261   3.340   1.379
 3875TIP3    H211565   5.196   3.388   1.251
 3876TIP3   OH211566   4.814   3.380   2.156
 3876TIP3    H111567   4.890   3.413   2.207
 3876TIP3    H211568   4.854   3.352   2.072
 3877TIP3   OH211569   4.786   3.362   1.674
 3877TIP3    H111570   4.830   3.399   1.595
 3877TIP3    H211571   4.724   3.436   1.693
 3878TIP3   OH211572   5.939   4.076   2.265
 3878TIP3    H111573   5.976   4.005   2.208
 3878TIP3    H211574   5.913   4.024   2.344
 3879TIP3   OH211575   5.616   3.534   1.938
 3879TIP3    H111576   5.532   3.535   1.988
 3879TIP3    H211577   5.681   3.543   2.010
 3880TIP3   OH211578   5.048   3.595   1.947
 3880TIP3    H111579   4.953   3.603   1.919
 3880TIP3    H211580   5.070   3.504   1.922
 3881TIP3   OH211581   5.317   3.591   1.635
 3881TIP3    H111582   5.409   3.607   1.609
 3881TIP3    H211583   5.267   3.613   1.552
 3882TIP3   OH211584   6.104   3.611   2.133
 3882TIP3    H111585   6.079   3.626   2.228
 3882TIP3    H211586   6.030   3.553   2.105
 3883TIP3   OH211587   5.160   3.625   1.414
 3883TIP3    H111588   5.090   3.579   1.364
 3883TIP3    H211589   5.213   3.662   1.340
 3884TIP3   OH211590   6.277   5.304   2.360
 3884TIP3    H111591   6.275   5.329   2.266
 3884TIP3    H211592   6.356   5.353   2.391
 3885TIP3   OH211593   5.234   4.414   2.781
 3885TIP3    H111594   5.315   4.443   2.829
 3885TIP3    H211595   5.170   4.414   2.855
 3886TIP3   OH211596   5.695   3.865   2.034
 3886TIP3    H111597   5.773   3.831   1.988
 3886TIP3    H211598   5.706   3.827   2.124
 3887TIP3   OH211599   5.220   3.355   1.915
 3887TIP3    H111600   5.185   3.276   1.962
 3887TIP3    H211601   5.262   3.316   1.837
 3888TIP3   OH211602   5.674   3.765   2.327
 3888TIP3    H111603   5.585   3.803   2.340
 3888TIP3    H211604   5.732   3.827   2.377
 3889TIP3   OH211605   5.411   4.154   1.421
 3889TIP3    H111606   5.338   4.089   1.409
 3889TIP3    H211607   5.391   4.188   1.512
 3890TIP3   OH211608   6.312   4.391   2.048
 3890TIP3    H111609   6.336   4.441   1.968
 3890TIP3    H211610   6.226   4.351   2.023
 3891TIP3   OH211611   5.863   3.476   1.267
 3891TIP3    H111612   5.770   3.449   1.289
 3891TIP3    H211613   5.872   3.564   1.309
 3892TIP3   OH211614   5.805   4.470   2.420
 3892TIP3    H111615   5.841   4.454   2.508
 3892TIP3    H211616   5.772   4.561   2.427
 3893TIP3   OH211617   5.938   3.713   1.389
 3893TIP3    H111618   6.034   3.719   1.406
 3893TIP3    H211619   5.920   3.796   1.340
 3894TIP3   OH211620   5.101   4.175   2.096
 3894TIP3    H111621   5.140   4.148   2.011
 3894TIP3    H211622   5.147   4.117   2.158
 3895TIP3   OH211623   5.557   4.304   1.243
 3895TIP3    H111624   5.508   4.390   1.246
 3895TIP3    H211625   5.502   4.250   1.303
 3896TIP3   OH211626   4.984   4.100   2.711
 3896TIP3    H111627   5.011   4.089   2.804
 3896TIP3    H211628   4.917   4.030   2.700
 3897TIP3   OH211629   5.712   4.213   2.727
 3897TIP3    H111630   5.655   4.152   2.678
 3897TIP3    H211631   5.801   4.180   2.701
 3898TIP3   OH211632   5.968   4.729   2.315
 3898TIP3    H111633   5.872   4.732   2.328
 3898TIP3    H211634   5.998   4.782   2.392
 3899TIP3   OH211635   6.380   3.809   1.229
 3899TIP3    H111636   6.317   3.764   1.168
 3899TIP3    H211637   6.378   3.897   1.186
 3900TIP3   OH211638   6.598   4.662   2.304
 3900TIP3    H111639   6.500   4.658   2.296
 3900TIP3    H211640   6.624   4.632   2.214
 3901TIP3   OH211641   6.076   4.625   1.129
 3901TIP3    H111642   6.057   4.553   1.191
 3901TIP3    H211643   6.095   4.578   1.045
 3902TIP3   OH211644   6.075   4.255   1.966
 3902TIP3    H111645   5.982   4.230   1.980
 3902TIP3    H211646   6.109   4.174   1.922
 3903TIP3   OH211647   5.205   4.481   1.720
 3903TIP3    H111648   5.204   4.562   1.667
 3903TIP3    H211649   5.110   4.465   1.731
 3904TIP3   OH211650   4.768   3.785   1.424
 3904TIP3    H111651   4.813   3.870   1.446
 3904TIP3    H211652   4.691   3.789   1.486
 3905TIP3   OH211653   5.340   4.245   1.665
 3905TIP3    H111654   5.306   4.335   1.683
 3905TIP3    H211655   5.304   4.196   1.740
 3906TIP3   OH211656   5.473   4.824   2.190
 3906TIP3    H111657   5.516   4.897   2.140
 3906TIP3    H211658   5.549   4.789   2.239
 3907TIP3   OH211659   5.123   4.720   1.573
 3907TIP3    H111660   5.037   4.730   1.620
 3907TIP3    H211661   5.156   4.813   1.576
 3908TIP3   OH211662   5.859   4.457   2.151
 3908TIP3    H111663   5.848   4.456   2.249
 3908TIP3    H211664   5.943   4.410   2.140
 3909TIP3   OH211665   5.828   4.340   1.040
 3909TIP3    H111666   5.882   4.320   1.120
 3909TIP3    H211667   5.738   4.329   1.076
 3910TIP3   OH211668   6.109   4.991   2.198
 3910TIP3    H111669   6.028   4.936   2.190
 3910TIP3    H211670   6.094   5.057   2.127
 3911TIP3   OH211671   6.172   4.818   0.854
 3911TIP3    H111672   6.201   4.876   0.781
 3911TIP3    H211673   6.098   4.872   0.888
 3912TIP3   OH211674   5.197   3.600   2.717
 3912TIP3    H111675   5.101   3.601   2.733
 3912TIP3    H211676   5.229   3.547   2.791
 3913TIP3   OH211677   5.997   4.277   1.247
 3913TIP3    H111678   5.990   4.216   1.324
 3913TIP3    H211679   6.094   4.280   1.237
 3914TIP3   OH211680   4.910   4.687   2.350
 3914TIP3    H111681   4.965   4.613   2.382
 3914TIP3    H211682   4.940   4.758   2.407
 3915TIP3   OH211683   5.203   4.331   1.032
 3915TIP3    H111684   5.214   4.238   1.004
 3915TIP3    H211685   5.182   4.320   1.127
 3916TIP3   OH211686   5.146   4.337   1.304
 3916TIP3    H111687   5.219   4.312   1.363
 3916TIP3    H211688   5.149   4.435   1.310
 3917TIP3   OH211689   4.882   4.031   1.508
 3917TIP3    H111690   4.815   4.076   1.564
 3917TIP3    H211691   4.895   4.099   1.440
 3918TIP3   OH211692   6.040   3.659   2.393
 3918TIP3    H111693   6.108   3.709   2.442
 3918TIP3    H211694   6.022   3.584   2.452
 3919TIP3   OH211695   5.917   3.417   1.564
 3919TIP3    H111696   5.897   3.443   1.473
 3919TIP3    H211697   5.954   3.500   1.602
 3920TIP3   OH211698   5.413   4.533   1.252
 3920TIP3    H111699   5.327   4.560   1.288
 3920TIP3    H211700   5.430   4.606   1.191
 3921TIP3   OH211701   5.604   3.596   1.667
 3921TIP3    H111702   5.665   3.671   1.651
 3921TIP3    H211703   5.606   3.591   1.765
 3922TIP3   OH211704   5.872   3.916   2.475
 3922TIP3    H111705   5.890   3.975   2.551
 3922TIP3    H211706   5.926   3.839   2.497
 3923TIP3   OH211707   5.746   3.325   1.771
 3923TIP3    H111708   5.729   3.405   1.824
 3923TIP3    H211709   5.805   3.362   1.701
 3924TIP3   OH211710   5.157   4.609   1.321
 3924TIP3    H111711   5.127   4.679   1.258
 3924TIP3    H211712   5.141   4.653   1.407
 3925TIP3   OH211713   5.254   3.323   1.561
 3925TIP3    H111714   5.254   3.414   1.595
 3925TIP3    H211715   5.350   3.304   1.566
 3926TIP3   OH211716   6.509   3.811   2.460
 3926TIP3    H111717   6.411   3.809   2.462
 3926TIP3    H211718   6.526   3.794   2.366
 3927TIP3   OH211719   6.162   4.011   1.843
 3927TIP3    H111720   6.086   3.952   1.859
 3927TIP3    H211721   6.234   3.965   1.892
 3928TIP3   OH211722   4.874   4.238   1.313
 3928TIP3    H111723   4.940   4.309   1.321
 3928TIP3    H211724   4.919   4.183   1.245
 3929TIP3   OH211725   4.816   3.515   1.452
 3929TIP3    H111726   4.818   3.613   1.444
 3929TIP3    H211727   4.741   3.493   1.395
 3930TIP3   OH211728   6.130   4.966   1.791
 3930TIP3    H111729   6.088   5.013   1.716
 3930TIP3    H211730   6.225   4.986   1.771
 3931TIP3   OH211731   5.206   3.236   2.319
 3931TIP3    H111732   5.175   3.202   2.232
 3931TIP3    H211733   5.195   3.157   2.377
 3932TIP3   OH211734   4.744   4.452   1.699
 3932TIP3    H111735   4.674   4.484   1.758
 3932TIP3    H211736   4.717   4.494   1.614
 3933TIP3   OH211737   4.902   4.997   2.776
 3933TIP3    H111738   4.989   4.998   2.821
 3933TIP3    H211739   4.885   4.902   2.772
 3934TIP3   OH211740   5.381   4.961   2.815
 3934TIP3    H111741   5.475   4.941   2.826
 3934TIP3    H211742   5.358   4.900   2.742
 3935TIP3   OH211743   5.365   4.536   0.943
 3935TIP3    H111744   5.310   4.463   0.981
 3935TIP3    H211745   5.440   4.485   0.908
 3936TIP3   OH211746   6.024   4.866   2.547
 3936TIP3    H111747   6.012   4.796   2.616
 3936TIP3    H211748   6.100   4.916   2.581
 3937TIP3   OH211749   5.797   4.575   0.858
 3937TIP3    H111750   5.856   4.524   0.916
 3937TIP3    H211751   5.848   4.579   0.774
 3938TIP3   OH211752   5.032   4.404   2.971
 3938TIP3    H111753   5.048   4.308   2.982
 3938TIP3    H211754   4.945   4.404   2.926
 3939TIP3   OH211755   5.009   4.052   1.166
 3939TIP3    H111756   5.065   4.020   1.238
 3939TIP3    H211757   5.076   4.057   1.094
 3940TIP3   OH211758   5.638   4.488   2.747
 3940TIP3    H111759   5.601   4.505   2.658
 3940TIP3    H211760   5.673   4.396   2.738
 3941TIP3   OH211761   5.518   4.253   0.973
 3941TIP3    H111762   5.522   4.266   1.070
 3941TIP3    H211763   5.512   4.155   0.969
 3942TIP3   OH211764   6.130   4.496   2.349
 3942TIP3    H111765   6.208   4.539   2.308
 3942TIP3    H211766   6.063   4.566   2.337
 3943TIP3   OH211767   5.152   4.130   2.952
 3943TIP3    H111768   5.233   4.081   2.932
 3943TIP3    H211769   5.174   4.165   3.041
 3944TIP3   OH211770   5.218   3.957   1.388
 3944TIP3    H111771   5.189   3.914   1.470
 3944TIP3    H211772   5.253   3.882   1.336
 3945TIP3   OH211773   5.483   4.015   2.610
 3945TIP3    H111774   5.410   4.080   2.615
 3945TIP3    H211775   5.537   4.052   2.536
 3946TIP3   OH211776   5.316   3.752   1.228
 3946TIP3    H111777   5.289   3.752   1.134
 3946TIP3    H211778   5.414   3.757   1.219
 3947TIP3   OH211779   6.000   4.419   2.747
 3947TIP3    H111780   6.087   4.400   2.711
 3947TIP3    H211781   5.998   4.359   2.824
 3948TIP3   OH211782   6.144   4.079   0.875
 3948TIP3    H111783   6.148   4.054   0.782
 3948TIP3    H211784   6.103   4.169   0.866
 3949TIP3   OH211785   5.608   3.809   2.741
 3949TIP3    H111786   5.611   3.730   2.683
 3949TIP3    H211787   5.565   3.875   2.683
 3950TIP3   OH211788   5.613   3.593   2.548
 3950TIP3    H111789   5.641   3.638   2.465
 3950TIP3    H211790   5.519   3.573   2.529
 3951TIP3   OH211791   5.638   4.127   2.420
 3951TIP3    H111792   5.724   4.143   2.380
 3951TIP3    H211793   5.582   4.196   2.377
 3952TIP3   OH211794   6.218   4.096   2.798
 3952TIP3    H111795   6.270   4.021   2.831
 3952TIP3    H211796   6.287   4.160   2.775
 3953TIP3   OH211797   6.264   4.347   2.533
 3953TIP3    H111798   6.204   4.403   2.477
 3953TIP3    H211799   6.351   4.372   2.494
 3954TIP3   OH211800   5.485   3.922   2.969
 3954TIP3    H111801   5.417   3.854   2.988
 3954TIP3    H211802   5.522   3.890   2.884
 3955TIP3   OH211803   5.744   3.357   2.614
 3955TIP3    H111804   5.696   3.440   2.593
 3955TIP3    H211805   5.674   3.290   2.605
 3956TIP3   OH211806   5.873   3.861   2.832
 3956TIP3    H111807   5.868   3.853   2.929
 3956TIP3    H211808   5.781   3.838   2.808
 3957TIP3   OH211809   6.106   3.801   2.681
 3957TIP3    H111810   6.034   3.814   2.747
 3957TIP3    H211811   6.182   3.779   2.739
 3958TIP3   OH211812   6.338   3.748   2.830
 3958TIP3    H111813   6.349   3.655   2.856
 3958TIP3    H211814   6.330   3.794   2.917
 3959TIP3   OH211815   5.324   3.700   3.025
 3959TIP3    H111816   5.336   3.609   2.995
 3959TIP3    H211817   5.361   3.695   3.115
 3960TIP3   OH211818   5.838   3.367   2.873
 3960TIP3    H111819   5.905   3.297   2.868
 3960TIP3    H211820   5.798   3.362   2.784
 3961TIP3   OH211821   5.903   3.583   3.034
 3961TIP3    H111822   5.881   3.513   2.969
 3961TIP3    H211823   5.826   3.643   3.028
 3962TIP3   OH211824   5.125   4.811   1.133
 3962TIP3    H111825   5.221   4.806   1.115
 3962TIP3    H211826   5.097   4.862   1.055
 3963TIP3   OH211827   4.605   4.194   1.350
 3963TIP3    H111828   4.700   4.216   1.335
 3963TIP3    H211829   4.600   4.105   1.308
 3964TIP3   OH211830   4.520   4.806   1.764
 3964TIP3    H111831   4.454   4.744   1.726
 3964TIP3    H211832   4.565   4.748   1.829
 3965TIP3   OH211833   4.656   4.656   1.950
 3965TIP3    H111834   4.645   4.584   2.013
 3965TIP3    H211835   4.709   4.718   2.003
 3966TIP3   OH211836   6.383   5.058   1.750
 3966TIP3    H111837   6.410   5.091   1.837
 3966TIP3    H211838   6.446   5.102   1.691
 3967TIP3   OH211839   6.411   5.078   2.032
 3967TIP3    H111840   6.370   4.989   2.028
 3967TIP3    H211841   6.489   5.058   2.086
 3968TIP3   OH211842   6.458   4.754   2.606
 3968TIP3    H111843   6.385   4.763   2.671
 3968TIP3    H211844   6.499   4.842   2.610
 3969TIP3   OH211845   6.275   4.266   1.222
 3969TIP3    H111846   6.341   4.333   1.193
 3969TIP3    H211847   6.321   4.230   1.302
 3970TIP3   OH211848   6.403   4.133   1.425
 3970TIP3    H111849   6.339   4.095   1.489
 3970TIP3    H211850   6.472   4.170   1.484
 3971TIP3   OH211851   6.458   4.525   1.858
 3971TIP3    H111852   6.512   4.463   1.805
 3971TIP3    H211853   6.453   4.603   1.798
 3972TIP3   OH211854   6.287   4.826   2.055
 3972TIP3    H111855   6.217   4.871   2.106
 3972TIP3    H211856   6.237   4.781   1.985
 3973TIP3   OH211857   6.337   4.041   1.073
 3973TIP3    H111858   6.268   4.050   1.004
 3973TIP3    H211859   6.313   4.118   1.130
 3974TIP3   OH211860   6.207   3.720   1.043
 3974TIP3    H111861   6.179   3.764   0.962
 3974TIP3    H211862   6.184   3.626   1.025
 3975TIP3   OH211863   6.215   3.993   1.575
 3975TIP3    H111864   6.226   3.897   1.571
 3975TIP3    H211865   6.202   4.008   1.672
 3976TIP3   OH211866   4.842   4.063   2.323
 3976TIP3    H111867   4.841   4.033   2.230
 3976TIP3    H211868   4.940   4.066   2.339
 3977TIP3   OH211869   6.507   4.418   2.430
 3977TIP3    H111870   6.580   4.352   2.420
 3977TIP3    H211871   6.535   4.488   2.369
 3978TIP3   OH211872   6.690   4.220   2.442
 3978TIP3    H111873   6.617   4.171   2.485
 3978TIP3    H211874   6.764   4.157   2.459
 3979TIP3   OH211875   6.153   3.456   1.007
 3979TIP3    H111876   6.227   3.423   1.062
 3979TIP3    H211877   6.080   3.395   1.029
 3980TIP3   OH211878   6.212   3.707   1.469
 3980TIP3    H111879   6.254   3.619   1.481
 3980TIP3    H211880   6.272   3.744   1.401
 3981TIP3   OH211881   6.373   3.878   1.964
 3981TIP3    H111882   6.459   3.904   1.923
 3981TIP3    H211883   6.386   3.918   2.053
 3982TIP3   OH211884   6.441   4.024   2.195
 3982TIP3    H111885   6.366   4.060   2.245
 3982TIP3    H211886   6.475   4.105   2.150
 3983TIP3   OH211887   5.056   3.748   2.987
 3983TIP3    H111888   5.154   3.749   2.995
 3983TIP3    H211889   5.036   3.664   3.032
 3984TIP3   OH211890   6.897   3.617   2.752
 3984TIP3    H111891   6.955   3.552   2.708
 3984TIP3    H211892   6.865   3.671   2.677
 3985TIP3   OH211893   6.323   3.459   1.506
 3985TIP3    H111894   6.370   3.445   1.591
 3985TIP3    H211895   6.262   3.383   1.506
 3986TIP3   OH211896   5.021   3.444   2.330
 3986TIP3    H111897   5.084   3.369   2.337
 3986TIP3    H211898   5.083   3.519   2.320
 3987TIP3   OH211899   4.824   3.717   2.399
 3987TIP3    H111900   4.873   3.712   2.315
 3987TIP3    H211901   4.851   3.803   2.432
 3988TIP3   OH211902   6.766   3.756   2.561
 3988TIP3    H111903   6.683   3.799   2.588
 3988TIP3    H211904   6.731   3.689   2.500
 3989TIP3   OH211905   6.400   3.392   1.138
 3989TIP3    H111906   6.441   3.322   1.083
 3989TIP3    H211907   6.467   3.463   1.136
 3990TIP3   OH211908   4.808   3.222   1.903
 3990TIP3    H111909   4.714   3.218   1.926
 3990TIP3    H211910   4.806   3.280   1.823
 3991TIP3   OH211911   5.966   4.925   1.406
 3991TIP3    H111912   6.017   4.913   1.323
 3991TIP3    H211913   6.019   4.991   1.453
 3992TIP3   OH211914   5.028   3.300   2.714
 3992TIP3    H111915   4.977   3.296   2.796
 3992TIP3    H211916   4.962   3.338   2.653
 3993TIP3   OH211917   5.067   4.731   2.790
 3993TIP3    H111918   4.975   4.702   2.777
 3993TIP3    H211919   5.083   4.710   2.883
 3994TIP3   OH211920   5.246   4.761   2.337
 3994TIP3    H111921   5.200   4.838   2.299
 3994TIP3    H211922   5.333   4.774   2.295
 3995TIP3   OH211923   5.690   5.006   2.477
 3995TIP3    H111924   5.732   5.005   2.565
 3995TIP3    H211925   5.757   5.057   2.426
 3996TIP3   OH211926   5.870   5.158   2.336
 3996TIP3    H111927   5.942   5.108   2.295
 3996TIP3    H211928   5.921   5.216   2.397
 3997TIP3   OH211929   6.670   3.521   2.436
 3997TIP3    H111930   6.579   3.521   2.402
 3997TIP3    H211931   6.696   3.427   2.425
 3998TIP3   OH211932   4.921   5.018   2.364
 3998TIP3    H111933   4.832   5.054   2.343
 3998TIP3    H211934   4.937   5.064   2.448
 3999TIP3   OH211935   5.158   4.996   2.222
 3999TIP3    H111936   5.071   5.009   2.265
 3999TIP3    H211937   5.140   5.028   2.131
 4000TIP3   OH211938   5.584   5.025   2.019
 4000TIP3    H111939   5.516   5.045   1.953
 4000TIP3    H211940   5.597   5.112   2.062
 4001TIP3   OH211941   5.854   4.962   2.070
 4001TIP3    H111942   5.760   4.982   2.050
 4001TIP3    H211943   5.899   5.038   2.028
 4002TIP3   OH211944   6.057   5.154   1.984
 4002TIP3    H111945   6.045   5.240   1.937
 4002TIP3    H211946   6.086   5.095   1.911
 4003TIP3   OH211947   4.833   4.811   2.108
 4003TIP3    H111948   4.861   4.786   2.199
 4003TIP3    H211949   4.905   4.768   2.057
 4004TIP3   OH211950   5.028   4.683   1.966
 4004TIP3    H111951   5.044   4.599   2.015
 4004TIP3    H211952   5.118   4.720   1.961
 4005TIP3   OH211953   5.294   4.777   1.970
 4005TIP3    H111954   5.326   4.686   1.958
 4005TIP3    H211955   5.341   4.800   2.053
 4006TIP3   OH211956   5.874   3.435   2.062
 4006TIP3    H111957   5.824   3.369   2.113
 4006TIP3    H211958   5.937   3.381   2.013
 4007TIP3   OH211959   6.399   3.319   1.976
 4007TIP3    H111960   6.431   3.371   1.899
 4007TIP3    H211961   6.301   3.331   1.965
 4008TIP3   OH211962   6.484   3.408   1.728
 4008TIP3    H111963   6.560   3.362   1.686
 4008TIP3    H211964   6.515   3.502   1.715
 4009TIP3   OH211965   5.118   3.142   2.071
 4009TIP3    H111966   5.025   3.111   2.072
 4009TIP3    H211967   5.166   3.057   2.067
 4010TIP3   OH211968   4.909   3.012   1.720
 4010TIP3    H111969   4.937   3.068   1.646
 4010TIP3    H211970   4.879   3.079   1.785
 4011TIP3   OH211971   5.565   3.172   1.952
 4011TIP3    H111972   5.620   3.225   1.893
 4011TIP3    H211973   5.581   3.215   2.038
 4012TIP3   OH211974   6.124   3.316   1.932
 4012TIP3    H111975   6.090   3.291   1.845
 4012TIP3    H211976   6.100   3.238   1.987
 4013TIP3   OH211977   6.139   3.246   1.502
 4013TIP3    H111978   6.053   3.291   1.513
 4013TIP3    H211979   6.120   3.159   1.543
 4014TIP3   OH211980   4.621   4.585   1.499
 4014TIP3    H111981   4.536   4.552   1.465
 4014TIP3    H211982   4.612   4.679   1.477
 4015TIP3   OH211983   5.022   3.167   1.485
 4015TIP3    H111984   5.070   3.106   1.425
 4015TIP3    H211985   5.096   3.222   1.519
 4016TIP3   OH211986   5.531   3.347   1.583
 4016TIP3    H111987   5.591   3.299   1.642
 4016TIP3    H211988   5.555   3.440   1.607
 4017TIP3   OH211989   5.394   4.771   1.082
 4017TIP3    H111990   5.482   4.794   1.046
 4017TIP3    H211991   5.372   4.697   1.021
 4018TIP3   OH211992   6.112   4.891   1.175
 4018TIP3    H111993   6.103   4.794   1.161
 4018TIP3    H211994   6.069   4.924   1.093
 4019TIP3   OH211995   5.325   3.418   2.960
 4019TIP3    H111996   5.292   3.348   3.019
 4019TIP3    H211997   5.419   3.421   2.988
 4020TIP3   OH211998   5.573   3.418   3.078
 4020TIP3    H111999   5.662   3.397   3.043
 4020TIP3    H212000   5.563   3.349   3.147
 4021TIP3   OH212001   4.697   4.607   1.136
 4021TIP3    H112002   4.701   4.634   1.229
 4021TIP3    H212003   4.785   4.565   1.123
 4022TIP3   OH212004   6.400   3.477   2.869
 4022TIP3    H112005   6.418   3.450   2.961
 4022TIP3    H212006   6.490   3.477   2.830
 4023TIP3   OH212007   6.338   5.034   2.362
 4023TIP3    H112008   6.259   5.004   2.312
 4023TIP3    H212009   6.320   5.131   2.366
 4024TIP3   OH212010   7.606   4.409   1.125
 4024TIP3    H112011   7.578   4.501   1.108
 4024TIP3    H212012   7.522   4.362   1.114
 4025TIP3   OH212013   7.635   4.386   1.495
 4025TIP3    H112014   7.627   4.389   1.592
 4025TIP3    H212015   7.544   4.366   1.469
 4026TIP3   OH212016   6.921   4.314   1.863
 4026TIP3    H112017   6.950   4.248   1.929
 4026TIP3    H212018   6.992   4.381   1.870
 4027TIP3   OH212019   7.850   4.704   1.190
 4027TIP3    H112020   7.826   4.641   1.260
 4027TIP3    H212021   7.874   4.783   1.241
 4028TIP3   OH212022   6.875   4.704   1.600
 4028TIP3    H112023   6.864   4.607   1.597
 4028TIP3    H212024   6.971   4.709   1.612
 4029TIP3   OH212025   6.582   3.909   1.384
 4029TIP3    H112026   6.542   3.996   1.402
 4029TIP3    H212027   6.508   3.864   1.339
 4030TIP3   OH212028   6.640   4.201   1.551
 4030TIP3    H112029   6.692   4.126   1.588
 4030TIP3    H212030   6.709   4.254   1.509
 4031TIP3   OH212031   7.497   5.174   1.208
 4031TIP3    H112032   7.543   5.101   1.163
 4031TIP3    H212033   7.486   5.137   1.297
 4032TIP3   OH212034   7.820   4.156   1.590
 4032TIP3    H112035   7.825   4.060   1.609
 4032TIP3    H212036   7.766   4.155   1.509
 4033TIP3   OH212037   7.151   3.790   1.559
 4033TIP3    H112038   7.136   3.864   1.496
 4033TIP3    H212039   7.103   3.719   1.511
 4034TIP3   OH212040   7.837   3.883   1.188
 4034TIP3    H112041   7.912   3.838   1.229
 4034TIP3    H212042   7.882   3.940   1.124
 4035TIP3   OH212043   6.786   3.995   1.662
 4035TIP3    H112044   6.870   3.980   1.710
 4035TIP3    H212045   6.802   3.941   1.582
 4036TIP3   OH212046   7.229   4.188   1.421
 4036TIP3    H112047   7.314   4.170   1.465
 4036TIP3    H212048   7.192   4.098   1.409
 4037TIP3   OH212049   7.150   3.777   1.989
 4037TIP3    H112050   7.092   3.816   1.921
 4037TIP3    H212051   7.097   3.795   2.069
 4038TIP3   OH212052   7.503   4.632   0.989
 4038TIP3    H112053   7.454   4.611   0.908
 4038TIP3    H212054   7.455   4.712   1.020
 4039TIP3   OH212055   7.021   3.894   1.775
 4039TIP3    H112056   7.080   3.970   1.794
 4039TIP3    H212057   7.070   3.853   1.699
 4040TIP3   OH212058   7.083   4.761   1.911
 4040TIP3    H112059   7.060   4.832   1.849
 4040TIP3    H212060   6.998   4.746   1.955
 4041TIP3   OH212061   6.476   4.437   1.119
 4041TIP3    H112062   6.440   4.465   1.032
 4041TIP3    H212063   6.509   4.522   1.155
 4042TIP3   OH212064   7.920   4.950   1.354
 4042TIP3    H112065   7.832   4.938   1.399
 4042TIP3    H212066   7.906   5.038   1.314
 4043TIP3   OH212067   7.514   3.488   1.720
 4043TIP3    H112068   7.484   3.395   1.728
 4043TIP3    H212069   7.435   3.534   1.755
 4044TIP3   OH212070   7.621   4.999   1.035
 4044TIP3    H112071   7.667   4.915   1.013
 4044TIP3    H212072   7.683   5.062   0.993
 4045TIP3   OH212073   7.756   4.779   0.938
 4045TIP3    H112074   7.693   4.706   0.924
 4045TIP3    H212075   7.803   4.749   1.018
 4046TIP3   OH212076   8.146   4.860   1.703
 4046TIP3    H112077   8.144   4.783   1.643
 4046TIP3    H212078   8.136   4.935   1.644
 4047TIP3   OH212079   7.430   4.250   0.954
 4047TIP3    H112080   7.350   4.304   0.944
 4047TIP3    H212081   7.475   4.265   0.870
 4048TIP3   OH212082   7.389   4.054   0.678
 4048TIP3    H112083   7.458   4.092   0.734
 4048TIP3    H212084   7.439   3.978   0.638
 4049TIP3   OH212085   7.779   4.339   0.930
 4049TIP3    H112086   7.721   4.370   1.005
 4049TIP3    H212087   7.851   4.296   0.981
 4050TIP3   OH212088   8.009   4.358   1.839
 4050TIP3    H112089   8.035   4.443   1.876
 4050TIP3    H212090   7.918   4.378   1.808
 4051TIP3   OH212091   7.017   4.342   1.344
 4051TIP3    H112092   6.985   4.277   1.279
 4051TIP3    H212093   7.097   4.296   1.381
 4052TIP3   OH212094   7.148   4.760   1.498
 4052TIP3    H112095   7.136   4.697   1.426
 4052TIP3    H212096   7.198   4.705   1.561
 4053TIP3   OH212097   7.680   4.950   1.473
 4053TIP3    H112098   7.666   5.028   1.529
 4053TIP3    H212099   7.672   4.876   1.537
 4054TIP3   OH212100   7.297   4.868   2.032
 4054TIP3    H112101   7.232   4.929   2.072
 4054TIP3    H212102   7.236   4.811   1.981
 4055TIP3   OH212103   7.630   4.199   0.752
 4055TIP3    H112104   7.681   4.258   0.814
 4055TIP3    H212105   7.673   4.222   0.667
 4056TIP3   OH212106   7.044   4.413   2.134
 4056TIP3    H112107   7.053   4.505   2.165
 4056TIP3    H212108   6.948   4.400   2.145
 4057TIP3   OH212109   7.370   4.873   1.029
 4057TIP3    H112110   7.448   4.927   1.049
 4057TIP3    H212111   7.307   4.937   0.995
 4058TIP3   OH212112   7.085   5.036   2.111
 4058TIP3    H112113   7.051   5.034   2.019
 4058TIP3    H212114   7.005   5.012   2.163
 4059TIP3   OH212115   6.888   4.175   1.136
 4059TIP3    H112116   6.818   4.226   1.090
 4059TIP3    H212117   6.839   4.098   1.166
 4060TIP3   OH212118   6.658   4.562   2.061
 4060TIP3    H112119   6.595   4.541   1.989
 4060TIP3    H212120   6.698   4.475   2.083
 4061TIP3   OH212121   6.518   4.757   1.694
 4061TIP3    H112122   6.614   4.752   1.683
 4061TIP3    H212123   6.510   4.837   1.748
 4062TIP3   OH212124   7.486   4.994   1.881
 4062TIP3    H112125   7.486   5.087   1.912
 4062TIP3    H212126   7.415   4.955   1.937
 4063TIP3   OH212127   7.251   5.136   0.828
 4063TIP3    H112128   7.180   5.110   0.767
 4063TIP3    H212129   7.219   5.221   0.863
 4064TIP3   OH212130   6.689   4.974   1.220
 4064TIP3    H112131   6.736   4.963   1.305
 4064TIP3    H212132   6.629   4.897   1.222
 4065TIP3   OH212133   7.486   5.021   0.741
 4065TIP3    H112134   7.405   5.064   0.775
 4065TIP3    H212135   7.546   5.029   0.817
 4066TIP3   OH212136   6.852   4.756   2.055
 4066TIP3    H112137   6.910   4.734   2.131
 4066TIP3    H212138   6.784   4.686   2.059
 4067TIP3   OH212139   7.269   3.570   1.832
 4067TIP3    H112140   7.178   3.540   1.808
 4067TIP3    H212141   7.246   3.655   1.874
 4068TIP3   OH212142   7.800   3.680   2.033
 4068TIP3    H112143   7.842   3.676   2.120
 4068TIP3    H212144   7.705   3.668   2.057
 4069TIP3   OH212145   8.072   4.105   1.946
 4069TIP3    H112146   8.014   4.113   2.025
 4069TIP3    H212147   8.055   4.191   1.902
 4070TIP3   OH212148   7.421   3.615   0.806
 4070TIP3    H112149   7.384   3.614   0.896
 4070TIP3    H212150   7.374   3.539   0.767
 4071TIP3   OH212151   7.195   4.101   1.840
 4071TIP3    H112152   7.148   4.121   1.923
 4071TIP3    H212153   7.195   4.189   1.796
 4072TIP3   OH212154   7.083   3.962   1.365
 4072TIP3    H112155   6.989   3.943   1.382
 4072TIP3    H212156   7.094   3.924   1.275
 4073TIP3   OH212157   7.575   4.059   1.089
 4073TIP3    H112158   7.518   4.128   1.050
 4073TIP3    H212159   7.631   4.033   1.014
 4074TIP3   OH212160   7.747   4.336   2.177
 4074TIP3    H112161   7.727   4.265   2.241
 4074TIP3    H212162   7.842   4.351   2.195
 4075TIP3   OH212163   7.716   4.094   1.335
 4075TIP3    H112164   7.656   4.117   1.261
 4075TIP3    H212165   7.746   4.007   1.303
 4076TIP3   OH212166   7.020   4.118   2.057
 4076TIP3    H112167   7.044   4.187   2.121
 4076TIP3    H212168   7.011   4.039   2.114
 4077TIP3   OH212169   7.068   3.593   0.770
 4077TIP3    H112170   7.060   3.593   0.867
 4077TIP3    H212171   6.990   3.646   0.745
 4078TIP3   OH212172   6.611   3.631   1.644
 4078TIP3    H112173   6.682   3.670   1.698
 4078TIP3    H212174   6.655   3.617   1.559
 4079TIP3   OH212175   6.581   3.617   1.162
 4079TIP3    H112176   6.628   3.654   1.083
 4079TIP3    H212177   6.524   3.693   1.182
 4080TIP3   OH212178   7.730   4.347   1.762
 4080TIP3    H112179   7.768   4.283   1.698
 4080TIP3    H212180   7.702   4.287   1.834
 4081TIP3   OH212181   7.398   3.796   1.418
 4081TIP3    H112182   7.324   3.800   1.482
 4081TIP3    H212183   7.476   3.791   1.477
 4082TIP3   OH212184   6.842   3.850   1.436
 4082TIP3    H112185   6.748   3.859   1.407
 4082TIP3    H212186   6.867   3.760   1.408
 4083TIP3   OH212187   7.112   3.841   1.120
 4083TIP3    H112188   7.205   3.864   1.104
 4083TIP3    H212189   7.066   3.869   1.038
 4084TIP3   OH212190   7.824   3.887   1.621
 4084TIP3    H112191   7.815   3.896   1.718
 4084TIP3    H212192   7.895   3.820   1.614
 4085TIP3   OH212193   6.956   3.876   0.898
 4085TIP3    H112194   6.883   3.836   0.848
 4085TIP3    H212195   7.009   3.916   0.826
 4086TIP3   OH212196   8.065   5.566   1.848
 4086TIP3    H112197   8.062   5.573   1.749
 4086TIP3    H212198   8.131   5.633   1.868
 4087TIP3   OH212199   7.027   4.669   2.265
 4087TIP3    H112200   7.107   4.701   2.309
 4087TIP3    H212201   6.964   4.670   2.339
 4088TIP3   OH212202   7.484   4.103   1.523
 4088TIP3    H112203   7.565   4.090   1.471
 4088TIP3    H212204   7.508   4.072   1.611
 4089TIP3   OH212205   7.013   3.614   1.399
 4089TIP3    H112206   6.983   3.533   1.446
 4089TIP3    H212207   7.063   3.579   1.325
 4090TIP3   OH212208   7.468   4.015   1.829
 4090TIP3    H112209   7.381   4.060   1.823
 4090TIP3    H212210   7.526   4.083   1.869
 4091TIP3   OH212211   7.205   4.406   0.909
 4091TIP3    H112212   7.131   4.343   0.897
 4091TIP3    H212213   7.186   4.442   1.000
 4092TIP3   OH212214   8.110   4.646   1.524
 4092TIP3    H112215   8.111   4.669   1.431
 4092TIP3    H212216   8.021   4.605   1.530
 4093TIP3   OH212217   7.677   3.710   0.779
 4093TIP3    H112218   7.580   3.689   0.778
 4093TIP3    H212219   7.674   3.807   0.766
 4094TIP3   OH212220   7.620   4.739   1.902
 4094TIP3    H112221   7.616   4.707   1.992
 4094TIP3    H212222   7.562   4.818   1.903
 4095TIP3   OH212223   7.765   3.982   0.857
 4095TIP3    H112224   7.850   4.026   0.858
 4095TIP3    H212225   7.710   4.047   0.808
 4096TIP3   OH212226   6.879   4.417   1.578
 4096TIP3    H112227   6.936   4.403   1.499
 4096TIP3    H212228   6.943   4.395   1.649
 4097TIP3   OH212229   7.350   4.570   0.750
 4097TIP3    H112230   7.298   4.655   0.750
 4097TIP3    H212231   7.294   4.513   0.807
 4098TIP3   OH212232   6.779   4.353   2.198
 4098TIP3    H112233   6.799   4.341   2.293
 4098TIP3    H212234   6.709   4.286   2.185
 4099TIP3   OH212235   7.506   4.468   2.216
 4099TIP3    H112236   7.445   4.420   2.157
 4099TIP3    H212237   7.592   4.433   2.187
 4100TIP3   OH212238   7.768   5.015   1.790
 4100TIP3    H112239   7.677   4.987   1.806
 4100TIP3    H212240   7.791   5.053   1.878
 4101TIP3   OH212241   7.875   4.510   1.454
 4101TIP3    H112242   7.781   4.483   1.467
 4101TIP3    H212243   7.910   4.425   1.423
 4102TIP3   OH212244   6.994   4.732   1.191
 4102TIP3    H112245   6.993   4.820   1.149
 4102TIP3    H212246   6.903   4.724   1.222
 4103TIP3   OH212247   6.567   4.041   0.918
 4103TIP3    H112248   6.613   4.126   0.935
 4103TIP3    H212249   6.490   4.049   0.979
 4104TIP3   OH212250   7.138   4.502   1.148
 4104TIP3    H112251   7.099   4.590   1.168
 4104TIP3    H212252   7.109   4.452   1.227
 4105TIP3   OH212253   7.267   5.083   1.677
 4105TIP3    H112254   7.314   5.154   1.628
 4105TIP3    H212255   7.342   5.039   1.722
 4106TIP3   OH212256   6.916   4.979   1.055
 4106TIP3    H112257   6.831   4.984   1.105
 4106TIP3    H212258   6.947   5.072   1.063
 4107TIP3   OH212259   7.692   4.730   1.639
 4107TIP3    H112260   7.660   4.723   1.731
 4107TIP3    H212261   7.738   4.646   1.627
 4108TIP3   OH212262   7.912   5.246   1.685
 4108TIP3    H112263   7.836   5.184   1.690
 4108TIP3    H212264   7.884   5.308   1.614
 4109TIP3   OH212265   6.992   3.858   2.206
 4109TIP3    H112266   6.896   3.862   2.220
 4109TIP3    H212267   7.020   3.799   2.278
 4110TIP3   OH212268   7.773   4.531   0.728
 4110TIP3    H112269   7.771   4.470   0.804
 4110TIP3    H212270   7.853   4.582   0.745
 4111TIP3   OH212271   6.706   4.943   1.837
 4111TIP3    H112272   6.761   4.870   1.872
 4111TIP3    H212273   6.738   5.017   1.890
 4112TIP3   OH212274   7.020   4.574   0.537
 4112TIP3    H112275   7.012   4.481   0.508
 4112TIP3    H212276   7.000   4.568   0.632
 4113TIP3   OH212277   6.946   4.594   0.802
 4113TIP3    H112278   7.005   4.565   0.873
 4113TIP3    H212279   6.950   4.692   0.811
 4114TIP3   OH212280   6.676   4.287   0.996
 4114TIP3    H112281   6.611   4.333   1.053
 4114TIP3    H212282   6.689   4.356   0.927
 4115TIP3   OH212283   7.830   3.926   1.895
 4115TIP3    H112284   7.914   3.963   1.926
 4115TIP3    H212285   7.820   3.844   1.947
 4116TIP3   OH212286   7.695   3.678   1.060
 4116TIP3    H112287   7.687   3.695   0.965
 4116TIP3    H212288   7.738   3.759   1.093
 4117TIP3   OH212289   7.208   4.797   0.723
 4117TIP3    H112290   7.123   4.823   0.765
 4117TIP3    H212291   7.209   4.852   0.644
 4118TIP3   OH212292   7.393   3.856   1.151
 4118TIP3    H112293   7.459   3.927   1.138
 4118TIP3    H212294   7.397   3.843   1.248
 4119TIP3   OH212295   7.662   4.172   1.960
 4119TIP3    H112296   7.686   4.227   2.037
 4119TIP3    H212297   7.722   4.096   1.970
 4120TIP3   OH212298   7.533   3.574   1.254
 4120TIP3    H112299   7.548   3.635   1.329
 4120TIP3    H212300   7.591   3.616   1.186
 4121TIP3   OH212301   6.954   4.865   0.808
 4121TIP3    H112302   6.931   4.938   0.746
 4121TIP3    H212303   6.936   4.906   0.895
 4122TIP3   OH212304   7.054   3.579   1.047
 4122TIP3    H112305   7.051   3.671   1.080
 4122TIP3    H212306   7.150   3.563   1.055
 4123TIP3   OH212307   7.956   4.248   1.364
 4123TIP3    H112308   7.866   4.218   1.341
 4123TIP3    H212309   7.964   4.205   1.452
 4124TIP3   OH212310   6.668   4.496   0.805
 4124TIP3    H112311   6.732   4.568   0.815
 4124TIP3    H212312   6.714   4.442   0.737
 4125TIP3   OH212313   6.617   3.771   0.940
 4125TIP3    H112314   6.620   3.869   0.939
 4125TIP3    H212315   6.543   3.752   0.881
 4126TIP3   OH212316   7.933   5.223   1.277
 4126TIP3    H112317   7.890   5.271   1.202
 4126TIP3    H212318   8.025   5.244   1.264
 4127TIP3   OH212319   7.003   3.488   1.810
 4127TIP3    H112320   6.972   3.457   1.723
 4127TIP3    H212321   6.986   3.410   1.867
 4128TIP3   OH212322   6.538   4.706   1.184
 4128TIP3    H112323   6.472   4.740   1.245
 4128TIP3    H212324   6.511   4.750   1.101
 4129TIP3   OH212325   6.698   5.253   2.260
 4129TIP3    H112326   6.785   5.253   2.305
 4129TIP3    H212327   6.679   5.157   2.257
 4130TIP3   OH212328   7.179   5.213   2.306
 4130TIP3    H112329   7.274   5.197   2.306
 4130TIP3    H212330   7.151   5.156   2.231
 4131TIP3   OH212331   7.812   5.126   2.041
 4131TIP3    H112332   7.808   5.054   2.108
 4131TIP3    H212333   7.892   5.176   2.067
 4132TIP3   OH212334   6.828   4.659   2.460
 4132TIP3    H112335   6.844   4.563   2.464
 4132TIP3    H212336   6.741   4.662   2.415
 4133TIP3   OH212337   6.816   4.315   0.662
 4133TIP3    H112338   6.875   4.284   0.733
 4133TIP3    H212339   6.878   4.318   0.586
 4134TIP3   OH212340   7.435   4.743   2.234
 4134TIP3    H112341   7.393   4.766   2.148
 4134TIP3    H212342   7.463   4.650   2.221
 4135TIP3   OH212343   7.328   4.504   0.488
 4135TIP3    H112344   7.326   4.525   0.584
 4135TIP3    H212345   7.267   4.428   0.484
 4136TIP3   OH212346   7.938   4.746   1.846
 4136TIP3    H112347   8.008   4.799   1.802
 4136TIP3    H212348   7.858   4.794   1.820
 4137TIP3   OH212349   6.945   4.393   2.443
 4137TIP3    H112350   7.024   4.345   2.415
 4137TIP3    H212351   6.973   4.426   2.531
 4138TIP3   OH212352   7.009   4.215   0.871
 4138TIP3    H112353   6.983   4.180   0.959
 4138TIP3    H212354   7.047   4.135   0.829
 4139TIP3   OH212355   7.284   4.277   2.096
 4139TIP3    H112356   7.205   4.334   2.101
 4139TIP3    H212357   7.333   4.319   2.021
 4140TIP3   OH212358   7.114   4.006   0.719
 4140TIP3    H112359   7.089   4.016   0.625
 4140TIP3    H212360   7.212   4.010   0.712
 4141TIP3   OH212361   7.802   4.682   2.242
 4141TIP3    H112362   7.869   4.654   2.178
 4141TIP3    H212363   7.800   4.608   2.305
 4142TIP3   OH212364   7.408   4.069   2.225
 4142TIP3    H112365   7.405   3.989   2.169
 4142TIP3    H212366   7.365   4.136   2.168
 4143TIP3   OH212367   7.409   3.846   2.039
 4143TIP3    H112368   7.436   3.896   1.959
 4143TIP3    H212369   7.315   3.828   2.020
 4144TIP3   OH212370   7.426   4.404   1.908
 4144TIP3    H112371   7.509   4.411   1.859
 4144TIP3    H212372   7.363   4.441   1.841
 4145TIP3   OH212373   8.017   4.360   2.289
 4145TIP3    H112374   8.070   4.279   2.291
 4145TIP3    H212375   8.078   4.423   2.247
 4146TIP3   OH212376   8.070   4.604   2.033
 4146TIP3    H112377   8.018   4.660   1.970
 4146TIP3    H212378   8.151   4.589   1.978
 4147TIP3   OH212379   7.288   4.174   2.462
 4147TIP3    H112380   7.217   4.108   2.475
 4147TIP3    H212381   7.318   4.152   2.371
 4148TIP3   OH212382   7.540   3.613   2.098
 4148TIP3    H112383   7.490   3.696   2.079
 4148TIP3    H212384   7.469   3.546   2.090
 4149TIP3   OH212385   7.669   4.116   2.318
 4149TIP3    H112386   7.652   4.106   2.413
 4149TIP3    H212387   7.579   4.096   2.284
 4150TIP3   OH212388   7.909   4.066   2.171
 4150TIP3    H112389   7.830   4.075   2.228
 4150TIP3    H212390   7.974   4.027   2.233
 4151TIP3   OH212391   8.114   3.968   2.337
 4151TIP3    H112392   8.148   3.896   2.391
 4151TIP3    H212393   8.117   4.043   2.401
 4152TIP3   OH212394   7.121   3.957   2.512
 4152TIP3    H112395   7.128   3.866   2.479
 4152TIP3    H212396   7.157   3.946   2.603
 4153TIP3   OH212397   7.636   3.627   2.357
 4153TIP3    H112398   7.696   3.550   2.354
 4153TIP3    H212399   7.593   3.621   2.269
 4154TIP3   OH212400   7.702   3.841   2.520
 4154TIP3    H112401   7.678   3.772   2.455
 4154TIP3    H212402   7.625   3.902   2.515
 4155TIP3   OH212403   6.941   5.061   0.616
 4155TIP3    H112404   7.021   5.060   0.560
 4155TIP3    H212405   6.879   5.111   0.562
 4156TIP3   OH212406   6.402   4.453   0.844
 4156TIP3    H112407   6.494   4.480   0.825
 4156TIP3    H212408   6.402   4.365   0.801
 4157TIP3   OH212409   6.316   5.064   1.252
 4157TIP3    H112410   6.252   5.002   1.212
 4157TIP3    H212411   6.361   5.005   1.316
 4158TIP3   OH212412   6.454   4.912   1.436
 4158TIP3    H112413   6.442   4.840   1.500
 4158TIP3    H212414   6.506   4.975   1.490
 4159TIP3   OH212415   8.250   5.307   1.511
 4159TIP3    H112416   8.195   5.225   1.508
 4159TIP3    H212417   8.231   5.336   1.602
 4160TIP3   OH212418   8.225   5.031   2.094
 4160TIP3    H112419   8.156   5.030   2.163
 4160TIP3    H212420   8.262   5.121   2.102
 4161TIP3   OH212421   8.086   5.083   1.537
 4161TIP3    H112422   8.021   5.123   1.598
 4161TIP3    H212423   8.029   5.033   1.476
 4162TIP3   OH212424   7.988   4.213   1.061
 4162TIP3    H112425   8.077   4.172   1.071
 4162TIP3    H212426   7.984   4.263   1.144
 4163TIP3   OH212427   6.648   4.317   1.810
 4163TIP3    H112428   6.642   4.292   1.716
 4163TIP3    H212429   6.746   4.324   1.820
 4164TIP3   OH212430   6.854   4.004   2.474
 4164TIP3    H112431   6.952   4.001   2.481
 4164TIP3    H212432   6.831   3.921   2.520
 4165TIP3   OH212433   6.818   3.699   1.813
 4165TIP3    H112434   6.882   3.627   1.826
 4165TIP3    H212435   6.878   3.776   1.806
 4166TIP3   OH212436   6.619   3.972   1.886
 4166TIP3    H112437   6.670   3.972   1.803
 4166TIP3    H212438   6.642   4.059   1.922
 4167TIP3   OH212439   6.603   3.467   1.384
 4167TIP3    H112440   6.511   3.473   1.415
 4167TIP3    H212441   6.603   3.531   1.309
 4168TIP3   OH212442   7.760   5.178   0.886
 4168TIP3    H112443   7.794   5.174   0.795
 4168TIP3    H212444   7.816   5.246   0.927
 4169TIP3   OH212445   6.829   3.564   2.202
 4169TIP3    H112446   6.778   3.557   2.285
 4169TIP3    H212447   6.762   3.600   2.141
 4170TIP3   OH212448   6.865   4.987   2.281
 4170TIP3    H112449   6.775   4.958   2.258
 4170TIP3    H212450   6.870   4.969   2.375
 4171TIP3   OH212451   7.038   5.027   1.826
 4171TIP3    H112452   6.996   5.105   1.784
 4171TIP3    H212453   7.126   5.033   1.783
 4172TIP3   OH212454   7.486   5.263   1.965
 4172TIP3    H112455   7.530   5.265   2.053
 4172TIP3    H212456   7.552   5.312   1.911
 4173TIP3   OH212457   7.665   5.414   1.823
 4173TIP3    H112458   7.735   5.362   1.782
 4173TIP3    H212459   7.716   5.472   1.883
 4174TIP3   OH212460   6.717   5.274   1.849
 4174TIP3    H112461   6.627   5.307   1.828
 4174TIP3    H212462   6.731   5.316   1.935
 4175TIP3   OH212463   6.954   5.259   1.707
 4175TIP3    H112464   6.866   5.269   1.751
 4175TIP3    H212465   6.934   5.290   1.616
 4176TIP3   OH212466   7.381   5.284   1.502
 4176TIP3    H112467   7.308   5.304   1.442
 4176TIP3    H212468   7.394   5.369   1.548
 4177TIP3   OH212469   7.648   5.221   1.555
 4177TIP3    H112470   7.554   5.240   1.535
 4177TIP3    H212471   7.693   5.301   1.522
 4178TIP3   OH212472   7.841   5.406   1.470
 4178TIP3    H112473   7.838   5.495   1.427
 4178TIP3    H212474   7.869   5.348   1.396
 4179TIP3   OH212475   6.631   5.066   1.593
 4179TIP3    H112476   6.657   5.042   1.685
 4179TIP3    H212477   6.704   5.022   1.544
 4180TIP3   OH212478   6.828   4.935   1.453
 4180TIP3    H112479   6.845   4.852   1.502
 4180TIP3    H212480   6.918   4.973   1.449
 4181TIP3   OH212481   7.094   5.033   1.453
 4181TIP3    H112482   7.123   4.939   1.446
 4181TIP3    H212483   7.138   5.055   1.538
 4182TIP3   OH212484   7.630   3.656   1.507
 4182TIP3    H112485   7.613   3.608   1.590
 4182TIP3    H212486   7.727   3.648   1.498
 4183TIP3   OH212487   6.917   3.401   1.556
 4183TIP3    H112488   6.823   3.374   1.554
 4183TIP3    H212489   6.962   3.314   1.553
 4184TIP3   OH212490   6.709   3.268   1.210
 4184TIP3    H112491   6.735   3.324   1.134
 4184TIP3    H212492   6.675   3.335   1.273
 4185TIP3   OH212493   7.364   3.426   1.440
 4185TIP3    H112494   7.413   3.481   1.376
 4185TIP3    H212495   7.371   3.480   1.520
 4186TIP3   OH212496   7.885   3.561   1.429
 4186TIP3    H112497   7.897   3.557   1.334
 4186TIP3    H212498   7.873   3.467   1.453
 4187TIP3   OH212499   6.416   4.845   0.989
 4187TIP3    H112500   6.333   4.811   0.952
 4187TIP3    H212501   6.409   4.938   0.958
 4188TIP3   OH212502   6.819   3.425   0.972
 4188TIP3    H112503   6.866   3.365   0.911
 4188TIP3    H212504   6.892   3.481   1.006
 4189TIP3   OH212505   7.330   3.604   1.069
 4189TIP3    H112506   7.394   3.564   1.132
 4189TIP3    H212507   7.346   3.698   1.091
 4190TIP3   OH212508   7.122   3.678   2.446
 4190TIP3    H112509   7.085   3.610   2.505
 4190TIP3    H212510   7.216   3.679   2.476
 4191TIP3   OH212511   7.370   3.677   2.569
 4191TIP3    H112512   7.457   3.652   2.533
 4191TIP3    H212513   7.357   3.606   2.636
 4192TIP3   OH212514   6.471   4.838   0.648
 4192TIP3    H112515   6.475   4.905   0.718
 4192TIP3    H212516   6.565   4.817   0.633
 4193TIP3   OH212517   8.130   5.299   1.854
 4193TIP3    H112518   8.057   5.262   1.802
 4193TIP3    H212519   8.107   5.395   1.854
 4194TIP3   OH212520   0.043   5.188   2.828
 4194TIP3    H112521   0.017   5.280   2.813
 4194TIP3    H212522  -0.012   5.143   2.760
 4195TIP3   OH212523   0.090   5.169   3.191
 4195TIP3    H112524   0.042   5.169   3.275
 4195TIP3    H212525   0.033   5.113   3.136
 4196TIP3   OH212526   0.298   5.500   2.881
 4196TIP3    H112527   0.294   5.431   2.947
 4196TIP3    H212528   0.329   5.576   2.933
 4197TIP3   OH212529   0.003   5.984   2.884
 4197TIP3    H112530   0.048   5.900   2.862
 4197TIP3    H212531  -0.067   5.954   2.945
 4198TIP3   OH212532  -0.116   5.366   3.267
 4198TIP3    H112533  -0.091   5.331   3.181
 4198TIP3    H212534  -0.041   5.426   3.286
 4199TIP3   OH212535   0.866   4.737   3.244
 4199TIP3    H112536   0.892   4.815   3.298
 4199TIP3    H212537   0.892   4.765   3.155
 4200TIP3   OH212538   0.260   4.921   3.284
 4200TIP3    H112539   0.310   4.838   3.296
 4200TIP3    H212540   0.233   4.914   3.191
 4201TIP3   OH212541   0.300   4.678   2.867
 4201TIP3    H112542   0.374   4.662   2.930
 4201TIP3    H212543   0.350   4.710   2.790
 4202TIP3   OH212544   0.920   4.933   3.435
 4202TIP3    H112545   0.858   5.000   3.398
 4202TIP3    H212546   0.989   4.991   3.472
 4203TIP3   OH212547  -0.073   5.420   2.696
 4203TIP3    H112548  -0.078   5.378   2.609
 4203TIP3    H212549  -0.002   5.486   2.682
 4204TIP3   OH212550   0.510   4.677   3.040
 4204TIP3    H112551   0.509   4.628   3.123
 4204TIP3    H212552   0.565   4.754   3.063
 4205TIP3   OH212553   0.368   5.739   3.043
 4205TIP3    H112554   0.278   5.733   3.083
 4205TIP3    H212555   0.364   5.828   3.003
 4206TIP3   OH212556   0.661   4.632   3.405
 4206TIP3    H112557   0.578   4.673   3.375
 4206TIP3    H212558   0.726   4.669   3.342
 4207TIP3   OH212559  -0.037   4.272   3.380
 4207TIP3    H112560  -0.039   4.175   3.398
 4207TIP3    H212561  -0.086   4.305   3.456
 4208TIP3   OH212562   0.067   5.767   2.708
 4208TIP3    H112563   0.115   5.685   2.685
 4208TIP3    H212564   0.132   5.835   2.676
 4209TIP3   OH212565   0.189   5.538   2.629
 4209TIP3    H112566   0.222   5.471   2.565
 4209TIP3    H212567   0.242   5.517   2.710
 4210TIP3   OH212568   0.594   5.654   3.394
 4210TIP3    H112569   0.584   5.578   3.333
 4210TIP3    H212570   0.578   5.730   3.335
 4211TIP3   OH212571  -0.101   5.060   2.638
 4211TIP3    H112572  -0.189   5.052   2.600
 4211TIP3    H212573  -0.050   5.036   2.556
 4212TIP3   OH212574   0.772   5.280   3.223
 4212TIP3    H112575   0.698   5.345   3.228
 4212TIP3    H212576   0.817   5.307   3.141
 4213TIP3   OH212577   0.243   5.151   2.631
 4213TIP3    H112578   0.185   5.153   2.709
 4213TIP3    H212579   0.323   5.106   2.666
 4214TIP3   OH212580   0.475   5.172   3.541
 4214TIP3    H112581   0.483   5.254   3.595
 4214TIP3    H212582   0.409   5.200   3.475
 4215TIP3   OH212583   0.127   5.736   3.163
 4215TIP3    H112584   0.107   5.822   3.205
 4215TIP3    H212585   0.110   5.671   3.233
 4216TIP3   OH212586   0.592   4.226   2.495
 4216TIP3    H112587   0.510   4.248   2.545
 4216TIP3    H212588   0.607   4.310   2.446
 4217TIP3   OH212589   0.389   5.595   2.038
 4217TIP3    H112590   0.400   5.692   2.026
 4217TIP3    H212591   0.482   5.565   2.028
 4218TIP3   OH212592   0.833   5.998   3.436
 4218TIP3    H112593   0.834   5.902   3.452
 4218TIP3    H212594   0.750   6.023   3.483
 4219TIP3   OH212595  -0.055   5.837   2.165
 4219TIP3    H112596  -0.017   5.753   2.133
 4219TIP3    H212597  -0.058   5.823   2.262
 4220TIP3   OH212598  -0.051   5.862   2.450
 4220TIP3    H112599  -0.117   5.868   2.521
 4220TIP3    H212600   0.028   5.843   2.502
 4221TIP3   OH212601   0.723   5.123   3.716
 4221TIP3    H112602   0.658   5.136   3.646
 4221TIP3    H212603   0.742   5.027   3.708
 4222TIP3   OH212604   0.261   4.479   3.714
 4222TIP3    H112605   0.332   4.449   3.775
 4222TIP3    H212606   0.180   4.455   3.763
 4223TIP3   OH212607   0.472   4.898   3.617
 4223TIP3    H112608   0.447   4.899   3.712
 4223TIP3    H212609   0.484   4.992   3.596
 4224TIP3   OH212610  -0.152   4.417   2.474
 4224TIP3    H112611  -0.162   4.410   2.571
 4224TIP3    H212612  -0.178   4.326   2.449
 4225TIP3   OH212613   0.018   4.845   2.771
 4225TIP3    H112614  -0.017   4.924   2.724
 4225TIP3    H212615   0.079   4.812   2.701
 4226TIP3   OH212616   0.176   4.875   3.022
 4226TIP3    H112617   0.124   4.909   2.946
 4226TIP3    H212618   0.214   4.796   2.979
 4227TIP3   OH212619   0.200   5.079   3.505
 4227TIP3    H112620   0.190   5.090   3.408
 4227TIP3    H212621   0.253   4.997   3.499
 4228TIP3   OH212622  -0.127   4.587   3.098
 4228TIP3    H112623  -0.215   4.592   3.137
 4228TIP3    H212624  -0.067   4.583   3.175
 4229TIP3   OH212625   0.353   4.663   3.319
 4229TIP3    H112626   0.314   4.672   3.409
 4229TIP3    H212627   0.294   4.597   3.279
 4230TIP3   OH212628   0.528   6.345   3.537
 4230TIP3    H112629   0.524   6.372   3.443
 4230TIP3    H212630   0.600   6.400   3.571
 4231TIP3   OH212631  -0.050   4.903   3.211
 4231TIP3    H112632   0.023   4.880   3.150
 4231TIP3    H212633  -0.026   4.854   3.291
 4232TIP3   OH212634  -0.087   4.812   3.500
 4232TIP3    H112635  -0.123   4.902   3.517
 4232TIP3    H212636   0.006   4.824   3.521
 4233TIP3   OH212637   0.552   5.445   3.225
 4233TIP3    H112638   0.580   5.493   3.145
 4233TIP3    H212639   0.471   5.398   3.195
 4234TIP3   OH212640   0.111   4.513   2.470
 4234TIP3    H112641   0.014   4.504   2.460
 4234TIP3    H212642   0.123   4.610   2.476
 4235TIP3   OH212643   0.043   5.507   3.614
 4235TIP3    H112644   0.085   5.536   3.696
 4235TIP3    H212645  -0.009   5.587   3.590
 4236TIP3   OH212646   0.180   4.772   2.560
 4236TIP3    H112647   0.274   4.795   2.556
 4236TIP3    H212648   0.140   4.834   2.494
 4237TIP3   OH212649  -0.204   5.354   2.424
 4237TIP3    H112650  -0.254   5.436   2.417
 4237TIP3    H212651  -0.269   5.296   2.467
 4238TIP3   OH212652   0.213   5.759   3.495
 4238TIP3    H112653   0.121   5.787   3.498
 4238TIP3    H212654   0.251   5.815   3.568
 4239TIP3   OH212655   0.630   4.848   2.396
 4239TIP3    H112656   0.570   4.803   2.333
 4239TIP3    H212657   0.624   4.939   2.359
 4240TIP3   OH212658   0.848   5.707   3.478
 4240TIP3    H112659   0.750   5.701   3.470
 4240TIP3    H212660   0.875   5.668   3.391
 4241TIP3   OH212661   0.332   5.664   2.307
 4241TIP3    H112662   0.303   5.590   2.361
 4241TIP3    H212663   0.342   5.624   2.219
 4242TIP3   OH212664   0.331   5.295   3.147
 4242TIP3    H112665   0.239   5.262   3.159
 4242TIP3    H212666   0.368   5.218   3.100
 4243TIP3   OH212667   0.118   5.496   3.331
 4243TIP3    H112668   0.115   5.503   3.428
 4243TIP3    H212669   0.210   5.468   3.316
 4244TIP3   OH212670   0.095   5.401   2.208
 4244TIP3    H112671   0.143   5.376   2.290
 4244TIP3    H212672   0.010   5.357   2.223
 4245TIP3   OH212673   0.359   6.031   3.370
 4245TIP3    H112674   0.274   5.984   3.360
 4245TIP3    H212675   0.347   6.103   3.304
 4246TIP3   OH212676   0.421   5.869   2.026
 4246TIP3    H112677   0.459   5.942   1.974
 4246TIP3    H212678   0.344   5.916   2.066
 4247TIP3   OH212679   0.248   5.344   2.436
 4247TIP3    H112680   0.228   5.266   2.493
 4247TIP3    H212681   0.343   5.326   2.418
 4248TIP3   OH212682   0.259   4.719   3.573
 4248TIP3    H112683   0.341   4.764   3.599
 4248TIP3    H212684   0.261   4.638   3.630
 4249TIP3   OH212685   0.157   4.465   2.745
 4249TIP3    H112686   0.142   4.486   2.650
 4249TIP3    H212687   0.199   4.548   2.776
 4250TIP3   OH212688  -0.177   4.648   2.838
 4250TIP3    H112689  -0.103   4.707   2.812
 4250TIP3    H212690  -0.159   4.638   2.934
 4251TIP3   OH212691   0.002   4.369   2.954
 4251TIP3    H112692  -0.007   4.450   3.007
 4251TIP3    H212693   0.058   4.401   2.880
 4252TIP3   OH212694   0.753   4.859   3.648
 4252TIP3    H112695   0.662   4.839   3.622
 4252TIP3    H212696   0.799   4.865   3.562
 4253TIP3   OH212697   0.410   5.057   3.020
 4253TIP3    H112698   0.336   4.995   3.032
 4253TIP3    H212699   0.484   5.010   3.066
 4254TIP3   OH212700   0.381   6.007   2.969
 4254TIP3    H112701   0.338   6.055   2.895
 4254TIP3    H212702   0.475   6.028   2.949
 4255TIP3   OH212703   0.289   5.901   3.712
 4255TIP3    H112704   0.268   5.847   3.791
 4255TIP3    H212705   0.349   5.968   3.749
 4256TIP3   OH212706   0.077   5.617   2.030
 4256TIP3    H112707   0.098   5.550   2.098
 4256TIP3    H212708   0.152   5.609   1.970
 4257TIP3   OH212709  -0.205   5.266   2.162
 4257TIP3    H112710  -0.204   5.289   2.257
 4257TIP3    H212711  -0.193   5.171   2.164
 4258TIP3   OH212712   0.377   5.539   3.523
 4258TIP3    H112713   0.456   5.580   3.483
 4258TIP3    H212714   0.313   5.613   3.514
 4259TIP3   OH212715   0.238   5.425   3.909
 4259TIP3    H112716   0.326   5.456   3.885
 4259TIP3    H212717   0.254   5.386   3.997
 4260TIP3   OH212718   0.414   5.129   2.044
 4260TIP3    H112719   0.340   5.068   2.033
 4260TIP3    H212720   0.369   5.215   2.028
 4261TIP3   OH212721  -0.168   4.593   3.654
 4261TIP3    H112722  -0.130   4.665   3.598
 4261TIP3    H212723  -0.212   4.646   3.723
 4262TIP3   OH212724   0.483   5.144   3.980
 4262TIP3    H112725   0.528   5.059   3.994
 4262TIP3    H212726   0.555   5.199   3.945
 4263TIP3   OH212727   0.509   5.393   3.707
 4263TIP3    H112728   0.455   5.453   3.651
 4263TIP3    H212729   0.599   5.415   3.674
 4264TIP3   OH212730   0.003   4.404   3.784
 4264TIP3    H112731  -0.055   4.476   3.752
 4264TIP3    H212732  -0.054   4.326   3.769
 4265TIP3   OH212733   0.106   4.941   3.991
 4265TIP3    H112734   0.152   4.940   4.077
 4265TIP3    H212735   0.032   4.880   4.010
 4266TIP3   OH212736   0.363   4.881   3.865
 4266TIP3    H112737   0.291   4.856   3.925
 4266TIP3    H212738   0.440   4.844   3.913
 4267TIP3   OH212739   0.577   4.797   4.013
 4267TIP3    H112740   0.596   4.702   4.030
 4267TIP3    H212741   0.578   4.835   4.103
 4268TIP3   OH212742   0.094   4.416   4.044
 4268TIP3    H112743   0.159   4.343   4.044
 4268TIP3    H212744   0.055   4.407   3.955
 4269TIP3   OH212745   0.169   4.630   4.195
 4269TIP3    H112746   0.147   4.551   4.141
 4269TIP3    H212747   0.081   4.673   4.200
 4270TIP3   OH212748   0.634   6.100   2.928
 4270TIP3    H112749   0.658   6.134   3.016
 4270TIP3    H212750   0.694   6.148   2.870
 4271TIP3   OH212751   0.663   6.123   3.209
 4271TIP3    H112752   0.618   6.036   3.204
 4271TIP3    H212753   0.736   6.099   3.268
 4272TIP3   OH212754   0.709   5.798   3.779
 4272TIP3    H112755   0.637   5.809   3.844
 4272TIP3    H212756   0.751   5.887   3.783
 4273TIP3   OH212757   0.523   5.313   2.401
 4273TIP3    H112758   0.592   5.375   2.371
 4273TIP3    H212759   0.566   5.272   2.479
 4274TIP3   OH212760   0.652   5.180   2.604
 4274TIP3    H112761   0.585   5.137   2.663
 4274TIP3    H212762   0.717   5.216   2.668
 4275TIP3   OH212763   0.706   5.573   3.038
 4275TIP3    H112764   0.762   5.506   2.993
 4275TIP3    H212765   0.703   5.645   2.972
 4276TIP3   OH212766   0.538   5.871   3.231
 4276TIP3    H112767   0.467   5.917   3.281
 4276TIP3    H212768   0.487   5.826   3.161
 4277TIP3   OH212769   0.589   5.087   2.251
 4277TIP3    H112770   0.527   5.093   2.174
 4277TIP3    H212771   0.557   5.161   2.305
 4278TIP3   OH212772   0.469   4.752   2.201
 4278TIP3    H112773   0.406   4.799   2.147
 4278TIP3    H212774   0.443   4.659   2.183
 4279TIP3   OH212775   0.467   5.034   2.752
 4279TIP3    H112776   0.473   4.938   2.744
 4279TIP3    H212777   0.454   5.048   2.848
 4280TIP3   OH212778   0.753   5.458   3.605
 4280TIP3    H112779   0.830   5.396   3.608
 4280TIP3    H212780   0.784   5.527   3.545
 4281TIP3   OH212781   0.942   5.278   3.672
 4281TIP3    H112782   0.871   5.213   3.689
 4281TIP3    H212783   1.011   5.218   3.636
 4282TIP3   OH212784   0.410   4.482   2.176
 4282TIP3    H112785   0.474   4.460   2.247
 4282TIP3    H212786   0.327   4.441   2.207
 4283TIP3   OH212787   0.465   4.754   2.652
 4283TIP3    H112788   0.503   4.664   2.662
 4283TIP3    H212789   0.517   4.785   2.575
 4284TIP3   OH212790   0.621   4.928   3.140
 4284TIP3    H112791   0.707   4.953   3.098
 4284TIP3    H212792   0.638   4.965   3.229
 4285TIP3   OH212793   0.684   5.073   3.372
 4285TIP3    H112794   0.610   5.116   3.417
 4285TIP3    H212795   0.723   5.148   3.322
 4286TIP3   OH212796   1.146   4.661   3.931
 4286TIP3    H112797   1.205   4.597   3.887
 4286TIP3    H212798   1.113   4.714   3.855
 4287TIP3   OH212799   0.573   4.501   2.682
 4287TIP3    H112800   0.620   4.486   2.766
 4287TIP3    H212801   0.511   4.426   2.681
 4288TIP3   OH212802   1.011   4.797   3.740
 4288TIP3    H112803   0.924   4.840   3.752
 4288TIP3    H212804   0.985   4.728   3.675
 4289TIP3   OH212805   0.651   4.435   2.321
 4289TIP3    H112806   0.689   4.366   2.263
 4289TIP3    H212807   0.715   4.508   2.312
 4290TIP3   OH212808   0.218   5.953   2.587
 4290TIP3    H112809   0.272   5.951   2.505
 4290TIP3    H212810   0.256   6.029   2.634
 4291TIP3   OH212811   0.115   6.191   3.522
 4291TIP3    H112812   0.183   6.137   3.481
 4291TIP3    H212813   0.170   6.253   3.575
 4292TIP3   OH212814   0.913   4.563   3.615
 4292TIP3    H112815   0.824   4.562   3.575
 4292TIP3    H212816   0.943   4.471   3.600
 4293TIP3   OH212817   0.096   6.010   3.252
 4293TIP3    H112818   0.007   6.037   3.281
 4293TIP3    H212819   0.124   6.091   3.206
 4294TIP3   OH212820   0.323   6.205   3.162
 4294TIP3    H112821   0.298   6.286   3.113
 4294TIP3    H212822   0.337   6.140   3.090
 4295TIP3   OH212823   0.118   4.479   3.235
 4295TIP3    H112824   0.077   4.400   3.275
 4295TIP3    H212825   0.192   4.439   3.184
 4296TIP3   OH212826   0.639   4.357   3.136
 4296TIP3    H112827   0.678   4.409   3.062
 4296TIP3    H212828   0.545   4.379   3.130
 4297TIP3   OH212829   0.736   4.458   2.901
 4297TIP3    H112830   0.810   4.407   2.862
 4297TIP3    H212831   0.769   4.550   2.886
 4298TIP3   OH212832  -0.177   4.218   3.134
 4298TIP3    H112833  -0.127   4.265   3.065
 4298TIP3    H212834  -0.130   4.246   3.214
 4299TIP3   OH212835   0.350   4.368   3.114
 4299TIP3    H112836   0.356   4.330   3.025
 4299TIP3    H212837   0.340   4.287   3.169
 4300TIP3   OH212838   0.388   4.290   2.675
 4300TIP3    H112839   0.300   4.331   2.684
 4300TIP3    H212840   0.372   4.204   2.722
 4301TIP3   OH212841  -0.183   4.395   2.741
 4301TIP3    H112842  -0.162   4.332   2.811
 4301TIP3    H212843  -0.162   4.480   2.784
 4302TIP3   OH212844   0.363   5.932   2.354
 4302TIP3    H112845   0.357   5.835   2.341
 4302TIP3    H212846   0.316   5.964   2.274
 4303TIP3   OH212847   0.650   4.528   4.044
 4303TIP3    H112848   0.669   4.497   4.136
 4303TIP3    H212849   0.739   4.523   4.003
 4304TIP3   OH212850   0.587   6.077   3.538
 4304TIP3    H112851   0.508   6.046   3.490
 4304TIP3    H212852   0.568   6.173   3.543
 4305TIP3   OH212853   1.855   5.452   2.303
 4305TIP3    H112854   1.826   5.543   2.283
 4305TIP3    H212855   1.777   5.402   2.272
 4306TIP3   OH212856   1.854   5.452   2.686
 4306TIP3    H112857   1.887   5.425   2.774
 4306TIP3    H212858   1.811   5.371   2.655
 4307TIP3   OH212859   1.152   5.354   3.042
 4307TIP3    H112860   1.144   5.296   3.121
 4307TIP3    H212861   1.227   5.408   3.069
 4308TIP3   OH212862   2.097   5.755   2.367
 4308TIP3    H112863   2.082   5.684   2.432
 4308TIP3    H212864   2.127   5.828   2.423
 4309TIP3   OH212865   1.123   5.757   2.773
 4309TIP3    H112866   1.114   5.659   2.775
 4309TIP3    H212867   1.220   5.766   2.773
 4310TIP3   OH212868   0.832   4.958   2.557
 4310TIP3    H112869   0.785   5.041   2.575
 4310TIP3    H212870   0.759   4.906   2.518
 4311TIP3   OH212871   0.888   5.247   2.734
 4311TIP3    H112872   0.937   5.170   2.771
 4311TIP3    H212873   0.951   5.281   2.669
 4312TIP3   OH212874   1.748   6.218   2.385
 4312TIP3    H112875   1.792   6.146   2.334
 4312TIP3    H212876   1.737   6.176   2.471
 4313TIP3   OH212877   1.652   5.680   2.732
 4313TIP3    H112878   1.689   5.602   2.688
 4313TIP3    H212879   1.736   5.724   2.756
 4314TIP3   OH212880   2.666   4.997   2.731
 4314TIP3    H112881   2.695   5.080   2.775
 4314TIP3    H212882   2.688   5.016   2.638
 4315TIP3   OH212883   2.065   5.179   2.765
 4315TIP3    H112884   2.107   5.094   2.786
 4315TIP3    H212885   2.033   5.162   2.674
 4316TIP3   OH212886   1.405   4.837   2.729
 4316TIP3    H112887   1.383   4.911   2.668
 4316TIP3    H212888   1.353   4.766   2.687
 4317TIP3   OH212889   2.097   4.929   2.352
 4317TIP3    H112890   2.169   4.913   2.418
 4317TIP3    H212891   2.150   4.965   2.278
 4318TIP3   OH212892   1.035   5.042   2.837
 4318TIP3    H112893   1.117   5.024   2.887
 4318TIP3    H212894   1.051   4.985   2.759
 4319TIP3   OH212895   1.479   5.239   2.624
 4319TIP3    H112896   1.571   5.212   2.642
 4319TIP3    H212897   1.439   5.153   2.596
 4320TIP3   OH212898   2.738   5.204   2.903
 4320TIP3    H112899   2.655   5.252   2.883
 4320TIP3    H212900   2.758   5.237   2.992
 4321TIP3   OH212901   1.403   4.818   3.159
 4321TIP3    H112902   1.339   4.861   3.099
 4321TIP3    H212903   1.354   4.827   3.244
 4322TIP3   OH212904   1.745   5.673   2.172
 4322TIP3    H112905   1.702   5.654   2.088
 4322TIP3    H212906   1.700   5.756   2.198
 4323TIP3   OH212907   1.507   5.597   2.960
 4323TIP3    H112908   1.443   5.660   3.001
 4323TIP3    H212909   1.544   5.651   2.887
 4324TIP3   OH212910   2.306   4.932   2.526
 4324TIP3    H112911   2.291   4.888   2.611
 4324TIP3    H212912   2.358   5.010   2.552
 4325TIP3   OH212913   1.268   4.938   2.947
 4325TIP3    H112914   1.328   5.010   2.975
 4325TIP3    H212915   1.321   4.897   2.875
 4326TIP3   OH212916   1.334   5.792   3.059
 4326TIP3    H112917   1.304   5.879   3.025
 4326TIP3    H212918   1.256   5.769   3.114
 4327TIP3   OH212919   0.727   5.482   2.294
 4327TIP3    H112920   0.686   5.509   2.210
 4327TIP3    H212921   0.759   5.567   2.330
 4328TIP3   OH212922   2.167   5.998   2.534
 4328TIP3    H112923   2.077   5.989   2.574
 4328TIP3    H212924   2.157   6.084   2.488
 4329TIP3   OH212925   2.459   4.896   2.896
 4329TIP3    H112926   2.371   4.926   2.866
 4329TIP3    H212927   2.518   4.929   2.827
 4330TIP3   OH212928   1.754   4.540   2.880
 4330TIP3    H112929   1.738   4.446   2.898
 4330TIP3    H212930   1.677   4.580   2.926
 4331TIP3   OH212931   1.868   6.044   2.207
 4331TIP3    H112932   1.917   5.961   2.188
 4331TIP3    H212933   1.930   6.108   2.166
 4332TIP3   OH212934   2.011   5.829   2.116
 4332TIP3    H112935   1.973   5.749   2.077
 4332TIP3    H212936   2.048   5.794   2.200
 4333TIP3   OH212937   2.392   5.910   2.877
 4333TIP3    H112938   2.381   5.832   2.819
 4333TIP3    H212939   2.377   5.984   2.814
 4334TIP3   OH212940   1.684   5.302   2.135
 4334TIP3    H112941   1.605   5.355   2.115
 4334TIP3    H212942   1.731   5.302   2.050
 4335TIP3   OH212943   1.643   5.087   1.850
 4335TIP3    H112944   1.709   5.140   1.900
 4335TIP3    H212945   1.703   5.026   1.802
 4336TIP3   OH212946   2.587   5.545   2.722
 4336TIP3    H112947   2.504   5.598   2.727
 4336TIP3    H212948   2.618   5.571   2.632
 4337TIP3   OH212949   2.032   5.386   2.105
 4337TIP3    H112950   1.978   5.410   2.184
 4337TIP3    H212951   2.117   5.361   2.149
 4338TIP3   OH212952   2.267   5.425   3.020
 4338TIP3    H112953   2.264   5.508   3.070
 4338TIP3    H212954   2.180   5.428   2.975
 4339TIP3   OH212955   1.265   5.382   2.523
 4339TIP3    H112956   1.225   5.325   2.455
 4339TIP3    H212957   1.343   5.329   2.552
 4340TIP3   OH212958   1.397   5.799   2.670
 4340TIP3    H112959   1.373   5.755   2.587
 4340TIP3    H212960   1.486   5.762   2.688
 4341TIP3   OH212961   1.415   5.349   2.876
 4341TIP3    H112962   1.442   5.335   2.783
 4341TIP3    H212963   1.448   5.439   2.896
 4342TIP3   OH212964   1.926   5.994   2.656
 4342TIP3    H112965   1.913   6.071   2.713
 4342TIP3    H212966   1.910   5.918   2.716
 4343TIP3   OH212967   1.539   5.912   3.201
 4343TIP3    H112968   1.477   5.973   3.248
 4343TIP3    H212969   1.474   5.857   3.152
 4344TIP3   OH212970   1.872   5.244   1.932
 4344TIP3    H112971   1.931   5.304   1.983
 4344TIP3    H212972   1.898   5.267   1.840
 4345TIP3   OH212973   1.302   5.484   3.275
 4345TIP3    H112974   1.283   5.556   3.338
 4345TIP3    H212975   1.245   5.411   3.308
 4346TIP3   OH212976   1.617   5.922   2.208
 4346TIP3    H112977   1.697   5.976   2.222
 4346TIP3    H212978   1.555   5.984   2.168
 4347TIP3   OH212979   1.333   6.080   3.290
 4347TIP3    H112980   1.297   6.079   3.199
 4347TIP3    H212981   1.253   6.058   3.343
 4348TIP3   OH212982   2.388   4.484   1.981
 4348TIP3    H112983   2.307   4.506   2.031
 4348TIP3    H212984   2.403   4.567   1.931
 4349TIP3   OH212985   1.133   5.225   2.323
 4349TIP3    H112986   1.065   5.270   2.269
 4349TIP3    H212987   1.089   5.142   2.344
 4350TIP3   OH212988   2.188   5.851   1.530
 4350TIP3    H112989   2.197   5.948   1.515
 4350TIP3    H212990   2.280   5.821   1.517
 4351TIP3   OH212991   0.916   5.588   3.242
 4351TIP3    H112992   0.849   5.585   3.171
 4351TIP3    H212993   0.949   5.497   3.241
 4352TIP3   OH212994   0.766   5.802   2.868
 4352TIP3    H112995   0.862   5.797   2.860
 4352TIP3    H212996   0.755   5.882   2.922
 4353TIP3   OH212997   2.627   6.253   2.923
 4353TIP3    H112998   2.628   6.157   2.937
 4353TIP3    H212999   2.545   6.278   2.971
 4354TIP3   OH213000   1.735   6.039   3.059
 4354TIP3    H113001   1.732   6.132   3.091
 4354TIP3    H213002   1.663   5.999   3.112
 4355TIP3   OH213003   1.498   6.170   2.010
 4355TIP3    H113004   1.450   6.150   1.927
 4355TIP3    H213005   1.464   6.257   2.035
 4356TIP3   OH213006   0.936   6.019   2.395
 4356TIP3    H113007   0.982   6.009   2.481
 4356TIP3    H213008   0.880   5.939   2.396
 4357TIP3   OH213009   1.699   6.071   1.650
 4357TIP3    H113010   1.757   6.001   1.614
 4357TIP3    H213011   1.733   6.080   1.741
 4358TIP3   OH213012   1.749   6.119   1.920
 4358TIP3    H113013   1.661   6.129   1.961
 4358TIP3    H213014   1.799   6.077   1.992
 4359TIP3   OH213015   2.518   5.384   3.200
 4359TIP3    H113016   2.437   5.395   3.148
 4359TIP3    H213017   2.534   5.288   3.190
 4360TIP3   OH213018   1.112   5.790   3.223
 4360TIP3    H113019   1.166   5.778   3.305
 4360TIP3    H213020   1.045   5.719   3.234
 4361TIP3   OH213021   1.517   4.616   3.008
 4361TIP3    H113022   1.427   4.586   2.981
 4361TIP3    H213023   1.491   4.698   3.056
 4362TIP3   OH213024   2.050   4.731   3.203
 4362TIP3    H113025   2.118   4.704   3.268
 4362TIP3    H213026   1.966   4.712   3.250
 4363TIP3   OH213027   2.288   5.161   3.121
 4363TIP3    H113028   2.237   5.158   3.205
 4363TIP3    H213029   2.264   5.248   3.085
 4364TIP3   OH213030   1.949   5.290   1.677
 4364TIP3    H113031   1.914   5.266   1.589
 4364TIP3    H213032   2.031   5.336   1.653
 4365TIP3   OH213033   1.654   4.669   1.979
 4365TIP3    H113034   1.627   4.667   2.073
 4365TIP3    H213035   1.627   4.580   1.951
 4366TIP3   OH213036   1.441   5.132   3.035
 4366TIP3    H113037   1.406   5.166   3.119
 4366TIP3    H213038   1.429   5.211   2.976
 4367TIP3   OH213039   1.331   5.018   2.540
 4367TIP3    H113040   1.239   4.993   2.560
 4367TIP3    H213041   1.343   4.976   2.452
 4368TIP3   OH213042   1.822   5.103   2.268
 4368TIP3    H113043   1.770   5.175   2.226
 4368TIP3    H213044   1.877   5.072   2.193
 4369TIP3   OH213045   1.996   5.382   3.355
 4369TIP3    H113046   1.974   5.309   3.417
 4369TIP3    H213047   2.091   5.395   3.376
 4370TIP3   OH213048   1.979   5.132   2.507
 4370TIP3    H113049   1.918   5.161   2.437
 4370TIP3    H213050   2.013   5.051   2.463
 4371TIP3   OH213051   1.303   4.618   1.942
 4371TIP3    H113052   1.300   4.627   2.040
 4371TIP3    H213053   1.235   4.683   1.916
 4372TIP3   OH213054   0.860   4.680   2.816
 4372TIP3    H113055   0.932   4.715   2.872
 4372TIP3    H213056   0.906   4.653   2.735
 4373TIP3   OH213057   0.833   4.664   2.332
 4373TIP3    H113058   0.874   4.706   2.253
 4373TIP3    H213059   0.771   4.735   2.356
 4374TIP3   OH213060   1.990   5.379   2.929
 4374TIP3    H113061   2.023   5.307   2.871
 4374TIP3    H213062   1.960   5.326   3.006
 4375TIP3   OH213063   1.659   4.839   2.601
 4375TIP3    H113064   1.577   4.839   2.654
 4375TIP3    H213065   1.728   4.838   2.670
 4376TIP3   OH213066   1.093   4.897   2.609
 4376TIP3    H113067   0.999   4.905   2.582
 4376TIP3    H213068   1.115   4.805   2.587
 4377TIP3   OH213069   1.362   4.889   2.300
 4377TIP3    H113070   1.456   4.908   2.280
 4377TIP3    H213071   1.315   4.913   2.217
 4378TIP3   OH213072   2.151   4.916   2.802
 4378TIP3    H113073   2.119   4.929   2.894
 4378TIP3    H213074   2.083   4.856   2.768
 4379TIP3   OH213075   1.209   4.923   2.077
 4379TIP3    H113076   1.135   4.883   2.027
 4379TIP3    H213077   1.259   4.963   2.003
 4380TIP3   OH213078   2.314   6.610   3.021
 4380TIP3    H113079   2.319   6.627   2.925
 4380TIP3    H213080   2.399   6.650   3.050
 4381TIP3   OH213081   1.274   5.727   3.444
 4381TIP3    H113082   1.356   5.749   3.493
 4381TIP3    H213083   1.213   5.712   3.519
 4382TIP3   OH213084   1.741   5.169   2.700
 4382TIP3    H113085   1.816   5.129   2.653
 4382TIP3    H213086   1.747   5.127   2.788
 4383TIP3   OH213087   1.262   4.656   2.579
 4383TIP3    H113088   1.226   4.578   2.628
 4383TIP3    H213089   1.319   4.614   2.514
 4384TIP3   OH213090   1.717   5.069   2.987
 4384TIP3    H113091   1.627   5.103   3.003
 4384TIP3    H213092   1.774   5.128   3.039
 4385TIP3   OH213093   1.455   5.456   2.084
 4385TIP3    H113094   1.383   5.391   2.072
 4385TIP3    H213095   1.436   5.490   2.175
 4386TIP3   OH213096   2.355   5.693   2.713
 4386TIP3    H113097   2.379   5.743   2.631
 4386TIP3    H213098   2.270   5.650   2.687
 4387TIP3   OH213099   1.911   4.767   1.949
 4387TIP3    H113100   1.814   4.755   1.954
 4387TIP3    H213101   1.924   4.861   1.971
 4388TIP3   OH213102   1.861   5.780   3.079
 4388TIP3    H113103   1.875   5.749   3.170
 4388TIP3    H213104   1.813   5.863   3.091
 4389TIP3   OH213105   1.983   5.015   2.049
 4389TIP3    H113106   2.079   5.022   2.066
 4389TIP3    H213107   1.964   5.096   1.997
 4390TIP3   OH213108   1.148   5.481   2.762
 4390TIP3    H113109   1.189   5.444   2.681
 4390TIP3    H213110   1.180   5.422   2.832
 4391TIP3   OH213111   1.600   5.605   1.906
 4391TIP3    H113112   1.552   5.691   1.911
 4391TIP3    H213113   1.545   5.550   1.966
 4392TIP3   OH213114   1.753   5.513   3.394
 4392TIP3    H113115   1.689   5.454   3.349
 4392TIP3    H213116   1.838   5.476   3.363
 4393TIP3   OH213117   2.014   6.044   2.973
 4393TIP3    H113118   1.919   6.032   2.989
 4393TIP3    H213119   2.041   6.091   3.055
 4394TIP3   OH213120   2.423   5.107   1.887
 4394TIP3    H113121   2.361   5.063   1.824
 4394TIP3    H213122   2.421   5.197   1.846
 4395TIP3   OH213123   2.643   5.965   2.966
 4395TIP3    H113124   2.545   5.959   2.958
 4395TIP3    H213125   2.669   5.935   2.876
 4396TIP3   OH213126   2.125   5.925   1.795
 4396TIP3    H113127   2.099   5.855   1.856
 4396TIP3    H213128   2.137   5.878   1.710
 4397TIP3   OH213129   2.121   5.555   2.631
 4397TIP3    H113130   2.027   5.530   2.644
 4397TIP3    H213131   2.155   5.475   2.586
 4398TIP3   OH213132   1.248   5.782   2.383
 4398TIP3    H113133   1.245   5.864   2.330
 4398TIP3    H213134   1.155   5.765   2.397
 4399TIP3   OH213135   0.817   5.084   2.095
 4399TIP3    H113136   0.858   5.171   2.113
 4399TIP3    H213137   0.737   5.089   2.153
 4400TIP3   OH213138   1.385   5.547   2.328
 4400TIP3    H113139   1.350   5.637   2.347
 4400TIP3    H213140   1.350   5.496   2.403
 4401TIP3   OH213141   1.517   6.126   2.854
 4401TIP3    H113142   1.560   6.198   2.803
 4401TIP3    H213143   1.593   6.088   2.901
 4402TIP3   OH213144   1.167   6.022   2.236
 4402TIP3    H113145   1.081   6.029   2.283
 4402TIP3    H213146   1.198   6.115   2.239
 4403TIP3   OH213147   1.906   5.760   2.812
 4403TIP3    H113148   1.897   5.759   2.910
 4403TIP3    H213149   1.984   5.704   2.800
 4404TIP3   OH213150   1.881   5.655   1.696
 4404TIP3    H113151   1.934   5.629   1.775
 4404TIP3    H213152   1.793   5.626   1.724
 4405TIP3   OH213153   2.150   6.299   2.869
 4405TIP3    H113154   2.076   6.236   2.861
 4405TIP3    H213155   2.135   6.357   2.791
 4406TIP3   OH213156   2.220   6.127   1.515
 4406TIP3    H113157   2.258   6.200   1.463
 4406TIP3    H213158   2.139   6.172   1.548
 4407TIP3   OH213159   1.255   4.871   3.379
 4407TIP3    H113160   1.214   4.959   3.385
 4407TIP3    H213161   1.252   4.837   3.470
 4408TIP3   OH213162   2.041   5.587   1.912
 4408TIP3    H113163   2.031   5.521   1.983
 4408TIP3    H213164   2.139   5.583   1.899
 4409TIP3   OH213165   0.958   5.987   3.012
 4409TIP3    H113166   1.010   5.913   3.047
 4409TIP3    H213167   0.981   6.057   3.074
 4410TIP3   OH213168   1.246   5.635   1.696
 4410TIP3    H113169   1.259   5.543   1.666
 4410TIP3    H213170   1.227   5.622   1.791
 4411TIP3   OH213171   1.191   5.638   1.968
 4411TIP3    H113172   1.263   5.611   2.027
 4411TIP3    H213173   1.195   5.736   1.975
 4412TIP3   OH213174   0.926   5.332   2.172
 4412TIP3    H113175   0.860   5.377   2.228
 4412TIP3    H213176   0.939   5.401   2.103
 4413TIP3   OH213177   2.079   4.966   3.061
 4413TIP3    H113178   2.157   5.006   3.103
 4413TIP3    H213179   2.064   4.886   3.117
 4414TIP3   OH213180   1.958   4.718   2.229
 4414TIP3    H113181   1.945   4.742   2.135
 4414TIP3    H213182   1.997   4.800   2.266
 4415TIP3   OH213183   1.458   5.836   1.916
 4415TIP3    H113184   1.371   5.861   1.953
 4415TIP3    H213185   1.472   5.907   1.853
 4416TIP3   OH213186   1.644   4.899   2.330
 4416TIP3    H113187   1.708   4.972   2.313
 4416TIP3    H213188   1.650   4.891   2.428
 4417TIP3   OH213189   1.916   5.218   3.136
 4417TIP3    H113190   1.934   5.272   3.216
 4417TIP3    H213191   1.969   5.138   3.153
 4418TIP3   OH213192   1.789   4.624   2.432
 4418TIP3    H113193   1.783   4.700   2.493
 4418TIP3    H213194   1.850   4.660   2.363
 4419TIP3   OH213195   1.203   5.911   1.984
 4419TIP3    H113196   1.171   5.981   1.922
 4419TIP3    H213197   1.185   5.953   2.071
 4420TIP3   OH213198   1.304   4.627   2.218
 4420TIP3    H113199   1.300   4.716   2.258
 4420TIP3    H213200   1.400   4.610   2.230
 4421TIP3   OH213201   2.555   5.118   3.121
 4421TIP3    H113202   2.457   5.115   3.127
 4421TIP3    H213203   2.568   5.079   3.033
 4422TIP3   OH213204   2.206   5.313   2.507
 4422TIP3    H113205   2.130   5.253   2.520
 4422TIP3    H213206   2.278   5.266   2.555
 4423TIP3   OH213207   0.918   5.540   1.976
 4423TIP3    H113208   0.985   5.610   1.986
 4423TIP3    H213209   0.964   5.484   1.909
 4424TIP3   OH213210   0.859   4.815   2.105
 4424TIP3    H113211   0.864   4.913   2.105
 4424TIP3    H213212   0.768   4.801   2.076
 4425TIP3   OH213213   2.174   6.271   2.456
 4425TIP3    H113214   2.132   6.317   2.381
 4425TIP3    H213215   2.268   6.289   2.435
 4426TIP3   OH213216   1.252   4.536   2.981
 4426TIP3    H113217   1.220   4.502   2.896
 4426TIP3    H213218   1.241   4.458   3.040
 4427TIP3   OH213219   0.790   5.755   2.362
 4427TIP3    H113220   0.721   5.785   2.424
 4427TIP3    H213221   0.759   5.796   2.278
 4428TIP3   OH213222   0.947   6.297   3.434
 4428TIP3    H113223   1.033   6.296   3.480
 4428TIP3    H213224   0.926   6.202   3.433
 4429TIP3   OH213225   1.430   6.261   3.478
 4429TIP3    H113226   1.523   6.236   3.485
 4429TIP3    H213227   1.400   6.202   3.406
 4430TIP3   OH213228   1.411   5.837   1.608
 4430TIP3    H113229   1.354   5.765   1.645
 4430TIP3    H213230   1.485   5.784   1.574
 4431TIP3   OH213231   2.066   6.170   3.215
 4431TIP3    H113232   2.056   6.098   3.281
 4431TIP3    H213233   2.148   6.214   3.245
 4432TIP3   OH213234   1.846   5.877   1.520
 4432TIP3    H113235   1.888   5.812   1.579
 4432TIP3    H213236   1.902   5.874   1.440
 4433TIP3   OH213237   1.074   5.710   3.641
 4433TIP3    H113238   1.103   5.615   3.639
 4433TIP3    H213239   0.989   5.704   3.593
 4434TIP3   OH213240   1.056   5.356   1.830
 4434TIP3    H113241   1.111   5.322   1.903
 4434TIP3    H213242   1.123   5.359   1.758
 4435TIP3   OH213243   1.685   5.789   3.408
 4435TIP3    H113244   1.640   5.804   3.323
 4435TIP3    H213245   1.713   5.695   3.401
 4436TIP3   OH213246   1.566   5.553   1.636
 4436TIP3    H113247   1.568   5.564   1.733
 4436TIP3    H213248   1.565   5.455   1.630
 4437TIP3   OH213249   2.178   5.796   3.017
 4437TIP3    H113250   2.252   5.843   2.972
 4437TIP3    H213251   2.105   5.858   3.001
 4438TIP3   OH213252   1.195   5.471   3.606
 4438TIP3    H113253   1.208   5.382   3.568
 4438TIP3    H213254   1.236   5.465   3.694
 4439TIP3   OH213255   1.262   5.259   2.051
 4439TIP3    H113256   1.234   5.220   2.135
 4439TIP3    H213257   1.298   5.181   2.003
 4440TIP3   OH213258   1.535   5.320   3.278
 4440TIP3    H113259   1.450   5.370   3.279
 4440TIP3    H213260   1.581   5.361   3.201
 4441TIP3   OH213261   1.364   5.049   1.891
 4441TIP3    H113262   1.337   5.058   1.797
 4441TIP3    H213263   1.461   5.056   1.883
 4442TIP3   OH213264   2.051   5.726   3.414
 4442TIP3    H113265   2.128   5.696   3.364
 4442TIP3    H213266   2.043   5.658   3.483
 4443TIP3   OH213267   2.184   5.382   1.556
 4443TIP3    H113268   2.164   5.336   1.472
 4443TIP3    H213269   2.151   5.472   1.533
 4444TIP3   OH213270   1.660   5.112   3.402
 4444TIP3    H113271   1.653   5.031   3.347
 4444TIP3    H213272   1.611   5.178   3.348
 4445TIP3   OH213273   1.659   4.895   3.211
 4445TIP3    H113274   1.684   4.938   3.127
 4445TIP3    H213275   1.564   4.874   3.194
 4446TIP3   OH213276   1.687   5.435   3.086
 4446TIP3    H113277   1.768   5.444   3.034
 4446TIP3    H213278   1.626   5.498   3.040
 4447TIP3   OH213279   2.266   5.398   3.466
 4447TIP3    H113280   2.315   5.315   3.476
 4447TIP3    H213281   2.334   5.457   3.430
 4448TIP3   OH213282   2.308   5.652   3.204
 4448TIP3    H113283   2.250   5.706   3.144
 4448TIP3    H213284   2.396   5.673   3.164
 4449TIP3   OH213285   1.540   5.217   3.642
 4449TIP3    H113286   1.463   5.158   3.651
 4449TIP3    H213287   1.566   5.200   3.549
 4450TIP3   OH213288   1.789   4.659   3.280
 4450TIP3    H113289   1.740   4.741   3.257
 4450TIP3    H213290   1.719   4.591   3.269
 4451TIP3   OH213291   1.916   5.164   3.496
 4451TIP3    H113292   1.899   5.150   3.591
 4451TIP3    H213293   1.827   5.141   3.461
 4452TIP3   OH213294   2.154   5.113   3.351
 4452TIP3    H113295   2.079   5.116   3.413
 4452TIP3    H213296   2.227   5.083   3.408
 4453TIP3   OH213297   2.384   5.055   3.501
 4453TIP3    H113298   2.396   4.959   3.519
 4453TIP3    H213299   2.380   5.093   3.592
 4454TIP3   OH213300   1.366   5.002   3.690
 4454TIP3    H113301   1.376   4.913   3.652
 4454TIP3    H213302   1.404   4.989   3.779
 4455TIP3   OH213303   1.884   4.670   3.538
 4455TIP3    H113304   1.950   4.598   3.531
 4455TIP3    H213305   1.843   4.664   3.449
 4456TIP3   OH213306   1.951   4.884   3.697
 4456TIP3    H113307   1.928   4.814   3.632
 4456TIP3    H213308   1.873   4.944   3.691
 4457TIP3   OH213309   1.173   6.116   1.799
 4457TIP3    H113310   1.267   6.109   1.776
 4457TIP3    H213311   1.139   6.161   1.721
 4458TIP3   OH213312   0.650   5.497   2.014
 4458TIP3    H113313   0.744   5.519   1.999
 4458TIP3    H213314   0.645   5.408   1.972
 4459TIP3   OH213315   0.565   6.111   2.425
 4459TIP3    H113316   0.499   6.047   2.389
 4459TIP3    H213317   0.610   6.053   2.491
 4460TIP3   OH213318   0.701   5.959   2.612
 4460TIP3    H113319   0.688   5.887   2.675
 4460TIP3    H213320   0.752   6.021   2.668
 4461TIP3   OH213321   2.426   6.364   2.413
 4461TIP3    H113322   2.458   6.392   2.501
 4461TIP3    H213323   2.495   6.399   2.354
 4462TIP3   OH213324   2.458   6.379   2.697
 4462TIP3    H113325   2.413   6.292   2.692
 4462TIP3    H213326   2.535   6.354   2.751
 4463TIP3   OH213327   2.502   6.057   3.268
 4463TIP3    H113328   2.431   6.066   3.335
 4463TIP3    H213329   2.546   6.145   3.273
 4464TIP3   OH213330   2.320   5.569   1.888
 4464TIP3    H113331   2.388   5.633   1.858
 4464TIP3    H213332   2.364   5.530   1.967
 4465TIP3   OH213333   2.447   5.436   2.091
 4465TIP3    H113334   2.382   5.395   2.151
 4465TIP3    H213335   2.513   5.473   2.154
 4466TIP3   OH213336   2.501   5.829   2.522
 4466TIP3    H113337   2.555   5.762   2.475
 4466TIP3    H213338   2.496   5.901   2.457
 4467TIP3   OH213339   2.332   6.131   2.717
 4467TIP3    H113340   2.258   6.166   2.770
 4467TIP3    H213341   2.285   6.082   2.646
 4468TIP3   OH213342   2.385   5.344   1.738
 4468TIP3    H113343   2.314   5.346   1.670
 4468TIP3    H213344   2.357   5.420   1.794
 4469TIP3   OH213345   2.256   5.018   1.692
 4469TIP3    H113346   2.214   5.055   1.614
 4469TIP3    H213347   2.231   4.923   1.684
 4470TIP3   OH213348   2.261   5.294   2.238
 4470TIP3    H113349   2.270   5.197   2.232
 4470TIP3    H213350   2.247   5.307   2.334
 4471TIP3   OH213351   0.888   5.375   2.982
 4471TIP3    H113352   0.883   5.338   2.892
 4471TIP3    H213353   0.985   5.373   2.997
 4472TIP3   OH213354   2.551   5.719   3.095
 4472TIP3    H113355   2.623   5.652   3.086
 4472TIP3    H213356   2.579   5.787   3.031
 4473TIP3   OH213357   2.734   5.521   3.111
 4473TIP3    H113358   2.660   5.470   3.151
 4473TIP3    H213359   2.808   5.458   3.125
 4474TIP3   OH213360   2.200   4.752   1.679
 4474TIP3    H113361   2.276   4.721   1.732
 4474TIP3    H213362   2.128   4.690   1.702
 4475TIP3   OH213363   2.258   5.009   2.132
 4475TIP3    H113364   2.298   4.921   2.147
 4475TIP3    H213365   2.316   5.042   2.061
 4476TIP3   OH213366   2.419   5.182   2.628
 4476TIP3    H113367   2.504   5.208   2.587
 4476TIP3    H213368   2.433   5.219   2.717
 4477TIP3   OH213369   2.489   5.326   2.859
 4477TIP3    H113370   2.411   5.361   2.907
 4477TIP3    H213371   2.521   5.407   2.814
 4478TIP3   OH213372   1.097   5.048   3.651
 4478TIP3    H113373   1.195   5.048   3.652
 4478TIP3    H213374   1.078   4.964   3.696
 4479TIP3   OH213375   2.939   4.918   3.416
 4479TIP3    H113376   3.000   4.853   3.373
 4479TIP3    H213377   2.910   4.972   3.339
 4480TIP3   OH213378   2.366   4.760   2.170
 4480TIP3    H113379   2.415   4.744   2.254
 4480TIP3    H213380   2.306   4.683   2.169
 4481TIP3   OH213381   1.066   4.744   2.987
 4481TIP3    H113382   1.130   4.671   3.000
 4481TIP3    H213383   1.126   4.821   2.984
 4482TIP3   OH213384   0.869   5.017   3.065
 4482TIP3    H113385   0.919   5.024   2.981
 4482TIP3    H213386   0.912   5.085   3.119
 4483TIP3   OH213387   2.810   5.057   3.221
 4483TIP3    H113388   2.724   5.099   3.240
 4483TIP3    H213389   2.780   4.984   3.162
 4484TIP3   OH213390   2.446   4.693   1.803
 4484TIP3    H113391   2.487   4.622   1.749
 4484TIP3    H213392   2.514   4.763   1.799
 4485TIP3   OH213393   0.851   4.518   2.559
 4485TIP3    H113394   0.759   4.518   2.591
 4485TIP3    H213395   0.847   4.580   2.484
 4486TIP3   OH213396   2.012   6.228   2.070
 4486TIP3    H113397   2.062   6.213   1.987
 4486TIP3    H213398   2.068   6.292   2.116
 4487TIP3   OH213399   1.068   4.585   3.373
 4487TIP3    H113400   1.023   4.598   3.458
 4487TIP3    H213401   1.009   4.636   3.314
 4488TIP3   OH213402   1.112   6.035   3.455
 4488TIP3    H113403   1.022   6.004   3.436
 4488TIP3    H213404   1.124   6.007   3.547
 4489TIP3   OH213405   1.290   6.064   3.004
 4489TIP3    H113406   1.242   6.139   2.964
 4489TIP3    H213407   1.376   6.076   2.959
 4490TIP3   OH213408   1.735   6.305   3.141
 4490TIP3    H113409   1.776   6.304   3.230
 4490TIP3    H213410   1.802   6.355   3.091
 4491TIP3   OH213411   1.919   6.458   3.004
 4491TIP3    H113412   1.982   6.403   2.955
 4491TIP3    H213413   1.976   6.524   3.043
 4492TIP3   OH213414   2.710   4.820   3.099
 4492TIP3    H113415   2.619   4.814   3.065
 4492TIP3    H213416   2.741   4.727   3.089
 4493TIP3   OH213417   0.967   6.321   3.025
 4493TIP3    H113418   0.877   6.354   3.003
 4493TIP3    H213419   0.977   6.357   3.114
 4494TIP3   OH213420   1.205   6.300   2.885
 4494TIP3    H113421   1.118   6.312   2.929
 4494TIP3    H213422   1.184   6.331   2.795
 4495TIP3   OH213423   1.630   6.327   2.681
 4495TIP3    H113424   1.559   6.344   2.617
 4495TIP3    H213425   1.640   6.415   2.723
 4496TIP3   OH213426   1.898   6.269   2.737
 4496TIP3    H113427   1.804   6.283   2.714
 4496TIP3    H213428   1.941   6.340   2.687
 4497TIP3   OH213429   2.106   6.458   2.648
 4497TIP3    H113430   2.091   6.542   2.599
 4497TIP3    H213431   2.133   6.397   2.576
 4498TIP3   OH213432   0.880   6.113   2.771
 4498TIP3    H113433   0.905   6.087   2.862
 4498TIP3    H213434   0.951   6.068   2.721
 4499TIP3   OH213435   1.073   5.984   2.629
 4499TIP3    H113436   1.088   5.900   2.678
 4499TIP3    H213437   1.164   6.019   2.624
 4500TIP3   OH213438   1.341   6.079   2.631
 4500TIP3    H113439   1.370   5.986   2.620
 4500TIP3    H213440   1.385   6.100   2.716
 4501TIP3   OH213441   1.913   4.734   2.716
 4501TIP3    H113442   1.871   4.665   2.770
 4501TIP3    H213443   1.989   4.687   2.676
 4502TIP3   OH213444   2.437   4.613   2.623
 4502TIP3    H113445   2.473   4.667   2.549
 4502TIP3    H213446   2.342   4.635   2.618
 4503TIP3   OH213447   2.532   4.715   2.387
 4503TIP3    H113448   2.606   4.664   2.347
 4503TIP3    H213449   2.565   4.807   2.373
 4504TIP3   OH213450   1.163   4.443   2.732
 4504TIP3    H113451   1.071   4.411   2.736
 4504TIP3    H213452   1.211   4.358   2.730
 4505TIP3   OH213453   0.951   4.316   2.393
 4505TIP3    H113454   0.961   4.377   2.320
 4505TIP3    H213455   0.917   4.376   2.463
 4506TIP3   OH213456   1.606   4.476   2.615
 4506TIP3    H113457   1.665   4.526   2.556
 4506TIP3    H213458   1.627   4.515   2.701
 4507TIP3   OH213459   2.152   4.623   2.599
 4507TIP3    H113460   2.153   4.585   2.511
 4507TIP3    H213461   2.139   4.543   2.655
 4508TIP3   OH213462   2.183   4.546   2.161
 4508TIP3    H113463   2.097   4.590   2.176
 4508TIP3    H213464   2.169   4.461   2.208
 4509TIP3   OH213465   0.666   5.883   2.164
 4509TIP3    H113466   0.580   5.851   2.130
 4509TIP3    H213467   0.660   5.976   2.134
 4510TIP3   OH213468   1.078   4.469   2.128
 4510TIP3    H113469   1.125   4.394   2.165
 4510TIP3    H213470   1.130   4.544   2.165
 4511TIP3   OH213471   1.582   4.648   2.244
 4511TIP3    H113472   1.641   4.604   2.307
 4511TIP3    H213473   1.600   4.741   2.269
 4512TIP3   OH213474   1.439   6.074   1.742
 4512TIP3    H113475   1.528   6.094   1.707
 4512TIP3    H213476   1.417   5.998   1.683
 4513TIP3   OH213477   2.158   6.192   1.838
 4513TIP3    H113478   2.150   6.094   1.827
 4513TIP3    H213479   2.113   6.223   1.757
 4514TIP3   OH213480   1.368   4.720   3.631
 4514TIP3    H113481   1.336   4.648   3.689
 4514TIP3    H213482   1.463   4.723   3.657
 4515TIP3   OH213483   1.620   4.723   3.746
 4515TIP3    H113484   1.705   4.698   3.705
 4515TIP3    H213485   1.609   4.651   3.811
 4516TIP3   OH213486   0.734   5.889   1.814
 4516TIP3    H113487   0.734   5.929   1.902
 4516TIP3    H213488   0.826   5.856   1.805
 4517TIP3   OH213489   2.446   4.784   3.532
 4517TIP3    H113490   2.464   4.753   3.623
 4517TIP3    H213491   2.535   4.779   3.491
 4518TIP3   OH213492   2.380   6.337   3.028
 4518TIP3    H113493   2.304   6.306   2.976
 4518TIP3    H213494   2.363   6.433   3.028
 4519TIP3   OH213495   3.651   5.708   1.790
 4519TIP3    H113496   3.622   5.799   1.770
 4519TIP3    H213497   3.574   5.658   1.758
 4520TIP3   OH213498   3.651   5.708   2.172
 4520TIP3    H113499   3.683   5.682   2.261
 4520TIP3    H213500   3.608   5.627   2.142
 4521TIP3   OH213501   2.947   5.604   2.539
 4521TIP3    H113502   2.976   5.535   2.601
 4521TIP3    H213503   3.026   5.659   2.533
 4522TIP3   OH213504   3.894   6.011   1.854
 4522TIP3    H113505   3.878   5.942   1.920
 4522TIP3    H213506   3.922   6.086   1.909
 4523TIP3   OH213507   2.916   6.012   2.259
 4523TIP3    H113508   2.910   5.914   2.261
 4523TIP3    H213509   3.012   6.024   2.263
 4524TIP3   OH213510   2.627   5.214   2.045
 4524TIP3    H113511   2.580   5.298   2.062
 4524TIP3    H213512   2.555   5.162   2.005
 4525TIP3   OH213513   2.685   5.503   2.220
 4525TIP3    H113514   2.734   5.425   2.255
 4525TIP3    H213515   2.747   5.537   2.154
 4526TIP3   OH213516   3.543   6.475   1.871
 4526TIP3    H113517   3.587   6.402   1.822
 4526TIP3    H213518   3.536   6.437   1.959
 4527TIP3   OH213519   3.448   5.935   2.218
 4527TIP3    H113520   3.488   5.858   2.174
 4527TIP3    H213521   3.530   5.981   2.245
 4528TIP3   OH213522   4.463   5.260   2.219
 4528TIP3    H113523   4.492   5.347   2.252
 4528TIP3    H213524   4.485   5.268   2.125
 4529TIP3   OH213525   3.860   5.435   2.252
 4529TIP3    H113526   3.903   5.349   2.273
 4529TIP3    H213527   3.830   5.419   2.161
 4530TIP3   OH213528   3.199   5.095   2.217
 4530TIP3    H113529   3.179   5.168   2.155
 4530TIP3    H213530   3.151   5.022   2.173
 4531TIP3   OH213531   3.893   5.187   1.839
 4531TIP3    H113532   3.965   5.170   1.904
 4531TIP3    H213533   3.946   5.221   1.764
 4532TIP3   OH213534   2.831   5.297   2.324
 4532TIP3    H113535   2.914   5.278   2.373
 4532TIP3    H213536   2.846   5.241   2.245
 4533TIP3   OH213537   3.273   5.494   2.118
 4533TIP3    H113538   3.367   5.469   2.130
 4533TIP3    H213539   3.234   5.410   2.085
 4534TIP3   OH213540   4.537   5.473   2.401
 4534TIP3    H113541   4.458   5.520   2.368
 4534TIP3    H213542   4.498   5.436   2.483
 4535TIP3   OH213543   3.195   5.078   2.652
 4535TIP3    H113544   3.135   5.116   2.584
 4535TIP3    H213545   3.143   5.097   2.733
 4536TIP3   OH213546   3.540   5.929   1.660
 4536TIP3    H113547   3.499   5.911   1.575
 4536TIP3    H213548   3.496   6.012   1.686
 4537TIP3   OH213549   3.300   5.854   2.447
 4537TIP3    H113550   3.237   5.918   2.486
 4537TIP3    H213551   3.343   5.908   2.377
 4538TIP3   OH213552   4.102   5.189   2.013
 4538TIP3    H113553   4.088   5.143   2.097
 4538TIP3    H213554   4.154   5.266   2.040
 4539TIP3   OH213555   3.065   5.193   2.436
 4539TIP3    H113556   3.126   5.266   2.460
 4539TIP3    H213557   3.115   5.153   2.361
 4540TIP3   OH213558   3.116   6.041   2.537
 4540TIP3    H113559   3.101   6.132   2.506
 4540TIP3    H213560   3.039   6.031   2.597
 4541TIP3   OH213561   2.523   5.738   1.780
 4541TIP3    H113562   2.482   5.766   1.696
 4541TIP3    H213563   2.555   5.823   1.817
 4542TIP3   OH213564   3.963   6.254   2.021
 4542TIP3    H113565   3.874   6.245   2.062
 4542TIP3    H213566   3.954   6.340   1.976
 4543TIP3   OH213567   4.256   5.161   2.388
 4543TIP3    H113568   4.167   5.182   2.354
 4543TIP3    H213569   4.313   5.190   2.314
 4544TIP3   OH213570   3.550   4.797   2.366
 4544TIP3    H113571   3.535   4.702   2.384
 4544TIP3    H213572   3.473   4.836   2.413
 4545TIP3   OH213573   3.663   6.300   1.693
 4545TIP3    H113574   3.713   6.217   1.674
 4545TIP3    H213575   3.726   6.365   1.653
 4546TIP3   OH213576   3.807   6.085   1.603
 4546TIP3    H113577   3.772   6.005   1.562
 4546TIP3    H213578   3.844   6.050   1.687
 4547TIP3   OH213579   4.189   6.164   2.364
 4547TIP3    H113580   4.175   6.088   2.304
 4547TIP3    H213581   4.170   6.240   2.305
 4548TIP3   OH213582   3.480   5.560   1.622
 4548TIP3    H113583   3.401   5.612   1.600
 4548TIP3    H213584   3.527   5.557   1.537
 4549TIP3   OH213585   3.439   5.345   1.337
 4549TIP3    H113586   3.506   5.397   1.385
 4549TIP3    H213587   3.497   5.282   1.289
 4550TIP3   OH213588   4.388   5.807   2.211
 4550TIP3    H113589   4.303   5.856   2.215
 4550TIP3    H213590   4.415   5.828   2.119
 4551TIP3   OH213591   3.829   5.642   1.592
 4551TIP3    H113592   3.774   5.666   1.671
 4551TIP3    H213593   3.913   5.618   1.636
 4552TIP3   OH213594   4.063   5.681   2.501
 4552TIP3    H113595   4.060   5.759   2.560
 4552TIP3    H213596   3.975   5.688   2.459
 4553TIP3   OH213597   3.061   5.640   2.011
 4553TIP3    H113598   3.020   5.582   1.943
 4553TIP3    H213599   3.138   5.587   2.040
 4554TIP3   OH213600   3.191   6.055   2.157
 4554TIP3    H113601   3.172   6.010   2.074
 4554TIP3    H213602   3.280   6.021   2.178
 4555TIP3   OH213603   3.195   5.612   2.364
 4555TIP3    H113604   3.230   5.590   2.275
 4555TIP3    H213605   3.239   5.698   2.384
 4556TIP3   OH213606   3.723   6.248   2.143
 4556TIP3    H113607   3.709   6.329   2.195
 4556TIP3    H213608   3.703   6.177   2.207
 4557TIP3   OH213609   3.323   6.184   2.668
 4557TIP3    H113610   3.272   6.240   2.728
 4557TIP3    H213611   3.259   6.116   2.642
 4558TIP3   OH213612   3.667   5.501   1.419
 4558TIP3    H113613   3.727   5.561   1.470
 4558TIP3    H213614   3.694   5.524   1.326
 4559TIP3   OH213615   3.089   5.725   2.792
 4559TIP3    H113616   3.093   5.813   2.833
 4559TIP3    H213617   2.994   5.705   2.803
 4560TIP3   OH213618   3.412   6.179   1.694
 4560TIP3    H113619   3.493   6.232   1.709
 4560TIP3    H213620   3.352   6.243   1.655
 4561TIP3   OH213621   3.119   6.346   2.777
 4561TIP3    H113622   3.090   6.338   2.684
 4561TIP3    H213623   3.040   6.321   2.828
 4562TIP3   OH213624   4.185   4.741   1.468
 4562TIP3    H113625   4.103   4.763   1.518
 4562TIP3    H213626   4.199   4.824   1.417
 4563TIP3   OH213627   2.927   5.483   1.814
 4563TIP3    H113628   2.860   5.527   1.758
 4563TIP3    H213629   2.888   5.396   1.827
 4564TIP3   OH213630   3.984   6.107   1.018
 4564TIP3    H113631   3.992   6.204   1.001
 4564TIP3    H213632   4.077   6.078   1.005
 4565TIP3   OH213633   2.707   5.868   2.722
 4565TIP3    H113634   2.643   5.843   2.653
 4565TIP3    H213635   2.745   5.781   2.748
 4566TIP3   OH213636   2.563   6.060   2.353
 4566TIP3    H113637   2.659   6.049   2.343
 4566TIP3    H213638   2.559   6.137   2.412
 4567TIP3   OH213639   4.427   6.513   2.412
 4567TIP3    H113640   4.423   6.416   2.425
 4567TIP3    H213641   4.344   6.540   2.457
 4568TIP3   OH213642   3.523   6.315   2.514
 4568TIP3    H113643   3.523   6.396   2.569
 4568TIP3    H213644   3.497   6.249   2.582
 4569TIP3   OH213645   3.292   6.425   1.497
 4569TIP3    H113646   3.248   6.406   1.413
 4569TIP3    H213647   3.259   6.514   1.520
 4570TIP3   OH213648   2.731   6.275   1.883
 4570TIP3    H113649   2.779   6.266   1.968
 4570TIP3    H213650   2.678   6.193   1.884
 4571TIP3   OH213651   3.494   6.327   1.137
 4571TIP3    H113652   3.553   6.258   1.100
 4571TIP3    H213653   3.529   6.337   1.228
 4572TIP3   OH213654   3.545   6.376   1.407
 4572TIP3    H113655   3.457   6.384   1.450
 4572TIP3    H213656   3.596   6.334   1.479
 4573TIP3   OH213657   4.355   5.656   2.665
 4573TIP3    H113658   4.264   5.681   2.643
 4573TIP3    H213659   4.350   5.559   2.657
 4574TIP3   OH213660   2.909   6.053   2.713
 4574TIP3    H113661   2.962   6.034   2.793
 4574TIP3    H213662   2.836   5.987   2.720
 4575TIP3   OH213663   3.312   4.873   2.496
 4575TIP3    H113664   3.223   4.843   2.468
 4575TIP3    H213665   3.288   4.955   2.542
 4576TIP3   OH213666   3.846   4.986   2.689
 4576TIP3    H113667   3.915   4.961   2.754
 4576TIP3    H213668   3.763   4.968   2.737
 4577TIP3   OH213669   4.094   5.426   2.617
 4577TIP3    H113670   4.037   5.416   2.696
 4577TIP3    H213671   4.062   5.509   2.577
 4578TIP3   OH213672   3.744   5.547   1.164
 4578TIP3    H113673   3.711   5.522   1.076
 4578TIP3    H213674   3.827   5.592   1.140
 4579TIP3   OH213675   3.456   4.922   1.467
 4579TIP3    H113676   3.423   4.918   1.558
 4579TIP3    H213677   3.418   4.839   1.432
 4580TIP3   OH213678   3.242   5.389   2.511
 4580TIP3    H113679   3.200   5.414   2.596
 4580TIP3    H213680   3.227   5.470   2.458
 4581TIP3   OH213681   3.128   5.275   2.028
 4581TIP3    H113682   3.035   5.249   2.046
 4581TIP3    H213683   3.140   5.234   1.939
 4582TIP3   OH213684   3.618   5.360   1.756
 4582TIP3    H113685   3.567   5.432   1.713
 4582TIP3    H213686   3.673   5.328   1.681
 4583TIP3   OH213687   3.803   5.634   2.828
 4583TIP3    H113688   3.772   5.572   2.897
 4583TIP3    H213689   3.890   5.659   2.864
 4584TIP3   OH213690   3.775   5.389   1.994
 4584TIP3    H113691   3.714   5.418   1.924
 4584TIP3    H213692   3.809   5.308   1.950
 4585TIP3   OH213693   3.057   5.418   2.722
 4585TIP3    H113694   3.103   5.479   2.781
 4585TIP3    H213695   3.051   5.337   2.777
 4586TIP3   OH213696   3.112   4.895   1.432
 4586TIP3    H113697   3.104   4.894   1.529
 4586TIP3    H213698   3.034   4.948   1.407
 4587TIP3   OH213699   2.656   4.938   2.304
 4587TIP3    H113700   2.731   4.972   2.358
 4587TIP3    H213701   2.698   4.909   2.222
 4588TIP3   OH213702   2.626   4.920   1.823
 4588TIP3    H113703   2.672   4.957   1.744
 4588TIP3    H213704   2.566   4.994   1.842
 4589TIP3   OH213705   3.784   5.635   2.416
 4589TIP3    H113706   3.818   5.562   2.358
 4589TIP3    H213707   3.756   5.583   2.494
 4590TIP3   OH213708   3.456   5.096   2.088
 4590TIP3    H113709   3.374   5.095   2.142
 4590TIP3    H213710   3.525   5.095   2.157
 4591TIP3   OH213711   2.889   5.153   2.097
 4591TIP3    H113712   2.795   5.160   2.069
 4591TIP3    H213713   2.912   5.061   2.073
 4592TIP3   OH213714   3.157   5.148   1.786
 4592TIP3    H113715   3.251   5.163   1.765
 4592TIP3    H213716   3.111   5.171   1.702
 4593TIP3   OH213717   3.950   5.172   2.289
 4593TIP3    H113718   3.919   5.185   2.381
 4593TIP3    H213719   3.881   5.112   2.255
 4594TIP3   OH213720   3.001   5.183   1.564
 4594TIP3    H113721   2.930   5.138   1.515
 4594TIP3    H213722   3.053   5.220   1.489
 4595TIP3   OH213723   4.119   6.861   2.511
 4595TIP3    H113724   4.117   6.885   2.417
 4595TIP3    H213725   4.198   6.909   2.542
 4596TIP3   OH213726   3.072   5.972   2.930
 4596TIP3    H113727   3.155   6.000   2.974
 4596TIP3    H213728   3.011   5.972   3.006
 4597TIP3   OH213729   3.537   5.425   2.186
 4597TIP3    H113730   3.611   5.387   2.137
 4597TIP3    H213731   3.546   5.383   2.274
 4598TIP3   OH213732   3.059   4.913   2.065
 4598TIP3    H113733   3.025   4.835   2.113
 4598TIP3    H213734   3.109   4.873   1.993
 4599TIP3   OH213735   3.514   5.323   2.477
 4599TIP3    H113736   3.425   5.361   2.491
 4599TIP3    H213737   3.572   5.385   2.527
 4600TIP3   OH213738   3.250   5.713   1.570
 4600TIP3    H113739   3.178   5.647   1.559
 4600TIP3    H213740   3.232   5.746   1.661
 4601TIP3   OH213741   4.153   5.947   2.199
 4601TIP3    H113742   4.175   5.998   2.118
 4601TIP3    H213743   4.067   5.905   2.175
 4602TIP3   OH213744   3.709   5.023   1.436
 4602TIP3    H113745   3.612   5.007   1.443
 4602TIP3    H213746   3.718   5.118   1.459
 4603TIP3   OH213747   3.778   5.273   1.538
 4603TIP3    H113748   3.875   5.279   1.553
 4603TIP3    H213749   3.760   5.353   1.485
 4604TIP3   OH213750   2.941   5.733   2.246
 4604TIP3    H113751   2.981   5.705   2.161
 4604TIP3    H213752   2.988   5.676   2.309
 4605TIP3   OH213753   3.396   5.862   1.392
 4605TIP3    H113754   3.348   5.948   1.397
 4605TIP3    H213755   3.342   5.807   1.453
 4606TIP3   OH213756   2.822   5.659   2.862
 4606TIP3    H113757   2.846   5.644   2.956
 4606TIP3    H213758   2.757   5.588   2.847
 4607TIP3   OH213759   3.544   5.738   2.900
 4607TIP3    H113760   3.490   5.717   2.823
 4607TIP3    H213761   3.630   5.756   2.858
 4608TIP3   OH213762   3.803   6.286   2.468
 4608TIP3    H113763   3.706   6.283   2.481
 4608TIP3    H213764   3.828   6.338   2.547
 4609TIP3   OH213765   4.219   5.364   1.374
 4609TIP3    H113766   4.157   5.320   1.311
 4609TIP3    H213767   4.217   5.453   1.332
 4610TIP3   OH213768   4.438   6.219   2.454
 4610TIP3    H113769   4.340   6.214   2.444
 4610TIP3    H213770   4.465   6.190   2.364
 4611TIP3   OH213771   3.920   6.182   1.281
 4611TIP3    H113772   3.896   6.109   1.341
 4611TIP3    H213773   3.935   6.137   1.196
 4612TIP3   OH213774   3.917   5.812   2.118
 4612TIP3    H113775   3.823   5.786   2.132
 4612TIP3    H213776   3.950   5.732   2.073
 4613TIP3   OH213777   3.044   6.038   1.869
 4613TIP3    H113778   3.043   6.120   1.816
 4613TIP3    H213779   2.950   6.022   1.882
 4614TIP3   OH213780   2.609   5.342   1.576
 4614TIP3    H113781   2.654   5.427   1.597
 4614TIP3    H213782   2.532   5.347   1.637
 4615TIP3   OH213783   3.181   5.803   1.814
 4615TIP3    H113784   3.147   5.892   1.833
 4615TIP3    H213785   3.147   5.753   1.890
 4616TIP3   OH213786   3.312   6.380   2.341
 4616TIP3    H113787   3.362   6.449   2.295
 4616TIP3    H213788   3.381   6.344   2.400
 4617TIP3   OH213789   2.962   6.280   1.722
 4617TIP3    H113790   2.877   6.287   1.770
 4617TIP3    H213791   2.993   6.373   1.726
 4618TIP3   OH213792   3.701   6.014   2.304
 4618TIP3    H113793   3.715   6.030   2.399
 4618TIP3    H213794   3.780   5.964   2.281
 4619TIP3   OH213795   3.677   5.910   1.183
 4619TIP3    H113796   3.731   5.885   1.262
 4619TIP3    H213797   3.589   5.882   1.213
 4620TIP3   OH213798   3.951   6.546   2.349
 4620TIP3    H113799   3.870   6.491   2.346
 4620TIP3    H213800   3.932   6.611   2.278
 4621TIP3   OH213801   4.015   6.381   1.004
 4621TIP3    H113802   4.051   6.446   0.942
 4621TIP3    H213803   3.937   6.431   1.036
 4622TIP3   OH213804   3.036   5.160   2.868
 4622TIP3    H113805   2.940   5.164   2.881
 4622TIP3    H213806   3.064   5.102   2.941
 4623TIP3   OH213807   3.838   5.845   1.400
 4623TIP3    H113808   3.827   5.777   1.470
 4623TIP3    H213809   3.935   5.841   1.386
 4624TIP3   OH213810   2.750   6.245   2.501
 4624TIP3    H113811   2.805   6.169   2.529
 4624TIP3    H213812   2.786   6.314   2.558
 4625TIP3   OH213813   3.041   5.891   1.182
 4625TIP3    H113814   3.056   5.799   1.154
 4625TIP3    H213815   3.022   5.879   1.278
 4626TIP3   OH213816   2.986   5.895   1.455
 4626TIP3    H113817   3.060   5.867   1.511
 4626TIP3    H213818   2.992   5.993   1.462
 4627TIP3   OH213819   2.722   5.588   1.658
 4627TIP3    H113820   2.656   5.632   1.715
 4627TIP3    H213821   2.737   5.657   1.590
 4628TIP3   OH213822   3.879   5.221   2.548
 4628TIP3    H113823   3.951   5.261   2.598
 4628TIP3    H213824   3.859   5.141   2.602
 4629TIP3   OH213825   3.753   4.975   1.716
 4629TIP3    H113826   3.740   4.997   1.622
 4629TIP3    H213827   3.792   5.058   1.752
 4630TIP3   OH213828   3.253   6.091   1.402
 4630TIP3    H113829   3.167   6.118   1.439
 4630TIP3    H213830   3.270   6.164   1.341
 4631TIP3   OH213831   3.440   5.156   1.817
 4631TIP3    H113832   3.505   5.228   1.800
 4631TIP3    H213833   3.446   5.148   1.915
 4632TIP3   OH213834   3.710   5.474   2.623
 4632TIP3    H113835   3.732   5.533   2.698
 4632TIP3    H213836   3.764   5.396   2.643
 4633TIP3   OH213837   3.585   4.881   1.919
 4633TIP3    H113838   3.578   4.958   1.978
 4633TIP3    H213839   3.646   4.916   1.850
 4634TIP3   OH213840   2.998   6.168   1.471
 4634TIP3    H113841   2.967   6.238   1.409
 4634TIP3    H213842   2.982   6.211   1.558
 4635TIP3   OH213843   3.097   4.882   1.709
 4635TIP3    H113844   3.096   4.972   1.745
 4635TIP3    H213845   3.193   4.863   1.716
 4636TIP3   OH213846   4.355   5.368   2.585
 4636TIP3    H113847   4.261   5.384   2.610
 4636TIP3    H213848   4.339   5.300   2.517
 4637TIP3   OH213849   4.002   5.569   1.994
 4637TIP3    H113850   3.926   5.510   2.006
 4637TIP3    H213851   4.073   5.521   2.041
 4638TIP3   OH213852   2.715   5.797   1.462
 4638TIP3    H113853   2.784   5.865   1.472
 4638TIP3    H213854   2.760   5.740   1.395
 4639TIP3   OH213855   2.658   5.073   1.598
 4639TIP3    H113856   2.659   5.170   1.594
 4639TIP3    H213857   2.577   5.052   1.550
 4640TIP3   OH213858   3.971   6.526   1.942
 4640TIP3    H113859   3.928   6.574   1.868
 4640TIP3    H213860   4.065   6.545   1.921
 4641TIP3   OH213861   3.047   4.793   2.469
 4641TIP3    H113862   3.016   4.760   2.382
 4641TIP3    H213863   3.036   4.715   2.527
 4642TIP3   OH213864   2.587   6.014   1.849
 4642TIP3    H113865   2.516   6.042   1.909
 4642TIP3    H213866   2.557   6.053   1.764
 4643TIP3   OH213867   2.744   6.556   2.924
 4643TIP3    H113868   2.832   6.556   2.969
 4643TIP3    H213869   2.728   6.460   2.920
 4644TIP3   OH213870   3.225   6.518   2.966
 4644TIP3    H113871   3.317   6.488   2.974
 4644TIP3    H213872   3.196   6.461   2.892
 4645TIP3   OH213873   3.206   6.093   1.094
 4645TIP3    H113874   3.150   6.021   1.132
 4645TIP3    H213875   3.281   6.041   1.062
 4646TIP3   OH213876   3.861   6.424   2.700
 4646TIP3    H113877   3.837   6.341   2.749
 4646TIP3    H213878   3.938   6.459   2.747
 4647TIP3   OH213879   3.640   6.134   1.006
 4647TIP3    H113880   3.686   6.071   1.065
 4647TIP3    H213881   3.697   6.132   0.927
 4648TIP3   OH213882   2.872   5.960   3.124
 4648TIP3    H113883   2.889   5.864   3.129
 4648TIP3    H213884   2.786   5.962   3.077
 4649TIP3   OH213885   2.850   5.610   1.317
 4649TIP3    H113886   2.906   5.577   1.389
 4649TIP3    H213887   2.917   5.615   1.245
 4650TIP3   OH213888   3.360   5.809   1.123
 4650TIP3    H113889   3.364   5.821   1.220
 4650TIP3    H213890   3.361   5.711   1.117
 4651TIP3   OH213891   3.971   6.052   2.502
 4651TIP3    H113892   4.044   6.098   2.457
 4651TIP3    H213893   3.905   6.124   2.508
 4652TIP3   OH213894   2.992   5.693   3.104
 4652TIP3    H113895   3.071   5.645   3.077
 4652TIP3    H213896   3.019   5.727   3.192
 4653TIP3   OH213897   3.057   5.515   1.537
 4653TIP3    H113898   3.031   5.473   1.621
 4653TIP3    H213899   3.095   5.439   1.487
 4654TIP3   OH213900   3.313   5.563   2.754
 4654TIP3    H113901   3.247   5.635   2.764
 4654TIP3    H213902   3.374   5.602   2.687
 4655TIP3   OH213903   3.159   5.309   1.378
 4655TIP3    H113904   3.134   5.314   1.283
 4655TIP3    H213905   3.257   5.312   1.371
 4656TIP3   OH213906   3.979   5.638   1.043
 4656TIP3    H113907   3.960   5.593   0.959
 4656TIP3    H213908   3.947   5.728   1.020
 4657TIP3   OH213909   3.450   5.368   2.892
 4657TIP3    H113910   3.452   5.289   2.835
 4657TIP3    H213911   3.406   5.434   2.834
 4658TIP3   OH213912   3.454   5.152   2.699
 4658TIP3    H113913   3.481   5.196   2.616
 4658TIP3    H213914   3.360   5.131   2.680
 4659TIP3   OH213915   3.474   5.685   2.576
 4659TIP3    H113916   3.559   5.695   2.532
 4659TIP3    H213917   3.419   5.752   2.530
 4660TIP3   OH213918   4.056   5.658   2.955
 4660TIP3    H113919   4.113   5.580   2.967
 4660TIP3    H213920   4.118   5.724   2.921
 4661TIP3   OH213921   4.112   5.896   2.681
 4661TIP3    H113922   4.045   5.953   2.636
 4661TIP3    H213923   4.195   5.931   2.643
 4662TIP3   OH213924   3.327   5.478   3.126
 4662TIP3    H113925   3.261   5.407   3.136
 4662TIP3    H213926   3.363   5.458   3.037
 4663TIP3   OH213927   3.585   4.916   2.767
 4663TIP3    H113928   3.536   4.998   2.744
 4663TIP3    H213929   3.516   4.848   2.756
 4664TIP3   OH213930   3.715   5.421   2.980
 4664TIP3    H113931   3.703   5.412   3.076
 4664TIP3    H213932   3.623   5.401   2.950
 4665TIP3   OH213933   3.949   5.358   2.834
 4665TIP3    H113934   3.874   5.374   2.895
 4665TIP3    H213935   4.021   5.335   2.895
 4666TIP3   OH213936   4.188   5.313   2.987
 4666TIP3    H113937   4.196   5.217   3.005
 4666TIP3    H213938   4.178   5.351   3.077
 4667TIP3   OH213939   3.166   5.257   3.176
 4667TIP3    H113940   3.174   5.166   3.142
 4667TIP3    H213941   3.204   5.246   3.266
 4668TIP3   OH213942   3.679   4.925   3.025
 4668TIP3    H113943   3.746   4.855   3.019
 4668TIP3    H213944   3.640   4.920   2.935
 4669TIP3   OH213945   3.745   5.141   3.184
 4669TIP3    H113946   3.723   5.071   3.119
 4669TIP3    H213947   3.668   5.201   3.176
 4670TIP3   OH213948   2.967   6.373   1.284
 4670TIP3    H113949   3.063   6.365   1.265
 4670TIP3    H213950   2.939   6.421   1.204
 4671TIP3   OH213951   2.446   5.752   1.499
 4671TIP3    H113952   2.541   5.774   1.484
 4671TIP3    H213953   2.440   5.663   1.458
 4672TIP3   OH213954   2.361   6.365   1.914
 4672TIP3    H113955   2.295   6.303   1.877
 4672TIP3    H213956   2.406   6.307   1.980
 4673TIP3   OH213957   2.496   6.215   2.101
 4673TIP3    H113958   2.486   6.141   2.163
 4673TIP3    H213959   2.549   6.276   2.155
 4674TIP3   OH213960   4.224   6.618   1.899
 4674TIP3    H113961   4.252   6.648   1.988
 4674TIP3    H213962   4.291   6.657   1.842
 4675TIP3   OH213963   4.254   6.636   2.181
 4675TIP3    H113964   4.209   6.549   2.178
 4675TIP3    H213965   4.329   6.614   2.238
 4676TIP3   OH213966   4.300   6.309   2.760
 4676TIP3    H113967   4.225   6.320   2.822
 4676TIP3    H213968   4.340   6.399   2.761
 4677TIP3   OH213969   4.115   5.826   1.375
 4677TIP3    H113970   4.183   5.890   1.344
 4677TIP3    H213971   4.160   5.788   1.453
 4678TIP3   OH213972   4.244   5.693   1.578
 4678TIP3    H113973   4.178   5.651   1.637
 4678TIP3    H213974   4.309   5.730   1.642
 4679TIP3   OH213975   4.301   6.086   2.011
 4679TIP3    H113976   4.350   6.020   1.959
 4679TIP3    H213977   4.293   6.160   1.948
 4680TIP3   OH213978   4.129   6.385   2.207
 4680TIP3    H113979   4.057   6.428   2.257
 4680TIP3    H213980   4.078   6.339   2.136
 4681TIP3   OH213981   4.181   5.601   1.225
 4681TIP3    H113982   4.110   5.603   1.157
 4681TIP3    H213983   4.153   5.677   1.280
 4682TIP3   OH213984   4.051   5.275   1.180
 4682TIP3    H113985   4.011   5.311   1.101
 4682TIP3    H213986   4.027   5.180   1.172
 4683TIP3   OH213987   4.057   5.551   1.725
 4683TIP3    H113988   4.065   5.454   1.717
 4683TIP3    H213989   4.043   5.563   1.821
 4684TIP3   OH213990   2.683   5.624   2.472
 4684TIP3    H113991   2.682   5.592   2.379
 4684TIP3    H213992   2.780   5.626   2.489
 4685TIP3   OH213993   4.362   5.966   2.580
 4685TIP3    H113994   4.399   5.893   2.529
 4685TIP3    H213995   4.377   6.041   2.520
 4686TIP3   OH213996   3.996   5.009   1.166
 4686TIP3    H113997   4.071   4.976   1.219
 4686TIP3    H213998   3.923   4.948   1.187
 4687TIP3   OH213999   4.054   5.266   1.619
 4687TIP3    H114000   4.095   5.178   1.634
 4687TIP3    H214001   4.113   5.299   1.548
 4688TIP3   OH214002   4.215   5.438   2.114
 4688TIP3    H114003   4.302   5.463   2.074
 4688TIP3    H214004   4.228   5.475   2.203
 4689TIP3   OH214005   4.285   5.584   2.343
 4689TIP3    H114006   4.207   5.614   2.394
 4689TIP3    H214007   4.313   5.666   2.298
 4690TIP3   OH214008   2.899   5.308   3.144
 4690TIP3    H114009   2.997   5.303   3.147
 4690TIP3    H214010   2.877   5.223   3.186
 4691TIP3   OH214011   4.730   5.175   2.898
 4691TIP3    H114012   4.793   5.110   2.860
 4691TIP3    H214013   4.712   5.232   2.820
 4692TIP3   OH214014   4.162   5.016   1.657
 4692TIP3    H114015   4.211   5.000   1.741
 4692TIP3    H214016   4.102   4.939   1.656
 4693TIP3   OH214017   2.862   5.002   2.478
 4693TIP3    H114018   2.924   4.927   2.487
 4693TIP3    H214019   2.924   5.076   2.470
 4694TIP3   OH214020   2.664   5.275   2.549
 4694TIP3    H114021   2.714   5.271   2.465
 4694TIP3    H214022   2.695   5.359   2.585
 4695TIP3   OH214023   4.614   5.327   2.703
 4695TIP3    H114024   4.527   5.364   2.724
 4695TIP3    H214025   4.588   5.253   2.645
 4696TIP3   OH214026   4.243   4.949   1.291
 4696TIP3    H114027   4.283   4.878   1.236
 4696TIP3    H214028   4.310   5.020   1.285
 4697TIP3   OH214029   2.649   4.777   2.050
 4697TIP3    H114030   2.556   4.775   2.078
 4697TIP3    H214031   2.646   4.837   1.972
 4698TIP3   OH214032   3.806   6.486   1.556
 4698TIP3    H114033   3.856   6.470   1.473
 4698TIP3    H214034   3.866   6.547   1.603
 4699TIP3   OH214035   2.869   4.857   2.864
 4699TIP3    H114036   2.818   4.854   2.947
 4699TIP3    H214037   2.803   4.897   2.804
 4700TIP3   OH214038   2.904   6.291   2.943
 4700TIP3    H114039   2.813   6.258   2.928
 4700TIP3    H214040   2.920   6.266   3.034
 4701TIP3   OH214041   3.082   6.317   2.489
 4701TIP3    H114042   3.044   6.397   2.448
 4701TIP3    H214043   3.173   6.324   2.454
 4702TIP3   OH214044   3.529   6.575   2.632
 4702TIP3    H114045   3.573   6.566   2.719
 4702TIP3    H214046   3.599   6.619   2.580
 4703TIP3   OH214047   3.712   6.719   2.483
 4703TIP3    H114048   3.782   6.662   2.448
 4703TIP3    H214049   3.763   6.774   2.546
 4704TIP3   OH214050   4.507   5.076   2.587
 4704TIP3    H114051   4.416   5.065   2.554
 4704TIP3    H214052   4.541   4.984   2.577
 4705TIP3   OH214053   2.762   6.578   2.510
 4705TIP3    H114054   2.672   6.613   2.492
 4705TIP3    H214055   2.776   6.611   2.599
 4706TIP3   OH214056   3.001   6.556   2.372
 4706TIP3    H114057   2.913   6.568   2.415
 4706TIP3    H214058   2.981   6.586   2.281
 4707TIP3   OH214059   3.429   6.586   2.165
 4707TIP3    H114060   3.356   6.605   2.105
 4707TIP3    H214061   3.439   6.671   2.212
 4708TIP3   OH214062   3.697   6.522   2.217
 4708TIP3    H114063   3.601   6.538   2.201
 4708TIP3    H214064   3.737   6.601   2.179
 4709TIP3   OH214065   3.904   6.715   2.135
 4709TIP3    H114066   3.889   6.799   2.086
 4709TIP3    H214067   3.929   6.653   2.064
 4710TIP3   OH214068   2.675   6.369   2.259
 4710TIP3    H114069   2.702   6.343   2.350
 4710TIP3    H214070   2.747   6.325   2.208
 4711TIP3   OH214071   2.870   6.242   2.116
 4711TIP3    H114072   2.884   6.157   2.164
 4711TIP3    H214073   2.961   6.277   2.113
 4712TIP3   OH214074   3.137   6.336   2.121
 4712TIP3    H114075   3.166   6.243   2.110
 4712TIP3    H214076   3.185   6.357   2.204
 4713TIP3   OH214077   3.711   4.992   2.205
 4713TIP3    H114078   3.667   4.922   2.257
 4713TIP3    H214079   3.784   4.944   2.162
 4714TIP3   OH214080   4.233   4.874   2.112
 4714TIP3    H114081   4.269   4.924   2.036
 4714TIP3    H214082   4.137   4.891   2.104
 4715TIP3   OH214083   4.328   4.971   1.875
 4715TIP3    H114084   4.401   4.920   1.835
 4715TIP3    H214085   4.361   5.063   1.860
 4716TIP3   OH214086   2.959   4.700   2.221
 4716TIP3    H114087   2.866   4.668   2.223
 4716TIP3    H214088   3.007   4.615   2.217
 4717TIP3   OH214089   2.747   4.571   1.870
 4717TIP3    H114090   2.776   4.628   1.797
 4717TIP3    H214091   2.719   4.636   1.937
 4718TIP3   OH214092   3.404   4.731   2.103
 4718TIP3    H114093   3.460   4.781   2.041
 4718TIP3    H214094   3.427   4.772   2.188
 4719TIP3   OH214095   3.949   4.880   2.085
 4719TIP3    H114096   3.948   4.842   1.997
 4719TIP3    H214097   3.936   4.800   2.141
 4720TIP3   OH214098   3.979   4.803   1.648
 4720TIP3    H114099   3.893   4.846   1.661
 4720TIP3    H214100   3.965   4.718   1.694
 4721TIP3   OH214101   2.463   6.142   1.648
 4721TIP3    H114102   2.378   6.108   1.615
 4721TIP3    H214103   2.452   6.237   1.628
 4722TIP3   OH214104   2.864   4.728   1.633
 4722TIP3    H114105   2.912   4.666   1.575
 4722TIP3    H214106   2.937   4.783   1.668
 4723TIP3   OH214107   3.375   4.906   1.732
 4723TIP3    H114108   3.436   4.859   1.791
 4723TIP3    H214109   3.397   4.998   1.756
 4724TIP3   OH214110   3.235   6.330   1.231
 4724TIP3    H114111   3.324   6.351   1.195
 4724TIP3    H214112   3.213   6.254   1.171
 4725TIP3   OH214113   3.952   6.448   1.325
 4725TIP3    H114114   3.945   6.350   1.313
 4725TIP3    H214115   3.910   6.479   1.243
 4726TIP3   OH214116   3.167   4.979   3.110
 4726TIP3    H114117   3.132   4.910   3.169
 4726TIP3    H214118   3.261   4.980   3.139
 4727TIP3   OH214119   3.415   4.978   3.231
 4727TIP3    H114120   3.501   4.956   3.192
 4727TIP3    H214121   3.405   4.907   3.298
 4728TIP3   OH214122   2.540   6.167   1.287
 4728TIP3    H114123   2.541   6.187   1.382
 4728TIP3    H214124   2.627   6.124   1.273
 4729TIP3   OH214125   4.241   5.040   3.019
 4729TIP3    H114126   4.260   5.009   3.111
 4729TIP3    H214127   4.331   5.036   2.979
 4730TIP3   OH214128   4.181   6.592   2.510
 4730TIP3    H114129   4.101   6.561   2.463
 4730TIP3    H214130   4.160   6.687   2.517
 4731TIP3   OH214131   5.446   5.964   1.277
 4731TIP3    H114132   5.418   6.056   1.258
 4731TIP3    H214133   5.370   5.915   1.243
 4732TIP3   OH214134   5.440   5.966   1.661
 4732TIP3    H114135   5.477   5.941   1.748
 4732TIP3    H214136   5.404   5.881   1.629
 4733TIP3   OH214137   4.747   5.871   2.038
 4733TIP3    H114138   4.779   5.794   2.089
 4733TIP3    H214139   4.829   5.903   1.997
 4734TIP3   OH214140   5.688   6.270   1.341
 4734TIP3    H114141   5.677   6.200   1.407
 4734TIP3    H214142   5.720   6.344   1.395
 4735TIP3   OH214143   4.716   6.269   1.749
 4735TIP3    H114144   4.709   6.172   1.750
 4735TIP3    H214145   4.813   6.279   1.740
 4736TIP3   OH214146   4.422   5.471   1.533
 4736TIP3    H114147   4.374   5.555   1.548
 4736TIP3    H214148   4.352   5.418   1.491
 4737TIP3   OH214149   4.482   5.760   1.707
 4737TIP3    H114150   4.531   5.682   1.740
 4737TIP3    H214151   4.540   5.791   1.636
 4738TIP3   OH214152   5.340   6.729   1.358
 4738TIP3    H114153   5.383   6.658   1.307
 4738TIP3    H214154   5.337   6.690   1.446
 4739TIP3   OH214155   5.244   6.190   1.709
 4739TIP3    H114156   5.285   6.113   1.665
 4739TIP3    H214157   5.326   6.237   1.734
 4740TIP3   OH214158   6.257   5.511   1.705
 4740TIP3    H114159   6.286   5.592   1.750
 4740TIP3    H214160   6.278   5.531   1.613
 4741TIP3   OH214161   5.654   5.692   1.739
 4741TIP3    H114162   5.699   5.608   1.760
 4741TIP3    H214163   5.625   5.674   1.648
 4742TIP3   OH214164   4.994   5.351   1.705
 4742TIP3    H114165   4.976   5.424   1.641
 4742TIP3    H214166   4.947   5.278   1.660
 4743TIP3   OH214167   5.689   5.444   1.326
 4743TIP3    H114168   5.761   5.428   1.392
 4743TIP3    H214169   5.742   5.478   1.252
 4744TIP3   OH214170   4.628   5.553   1.812
 4744TIP3    H114171   4.711   5.532   1.858
 4744TIP3    H214172   4.640   5.498   1.731
 4745TIP3   OH214173   5.067   5.750   1.612
 4745TIP3    H114174   5.162   5.727   1.619
 4745TIP3    H214175   5.030   5.667   1.575
 4746TIP3   OH214176   6.329   5.716   1.879
 4746TIP3    H114177   6.247   5.766   1.860
 4746TIP3    H214178   6.358   5.759   1.962
 4747TIP3   OH214179   4.990   5.337   2.141
 4747TIP3    H114180   4.929   5.372   2.073
 4747TIP3    H214181   4.939   5.352   2.222
 4748TIP3   OH214182   5.336   6.186   1.146
 4748TIP3    H114183   5.296   6.168   1.060
 4748TIP3    H214184   5.291   6.268   1.173
 4749TIP3   OH214185   5.097   6.109   1.932
 4749TIP3    H114186   5.038   6.179   1.968
 4749TIP3    H214187   5.143   6.157   1.861
 4750TIP3   OH214188   5.897   5.447   1.501
 4750TIP3    H114189   5.889   5.400   1.585
 4750TIP3    H214190   5.952   5.524   1.525
 4751TIP3   OH214191   4.861   5.449   1.923
 4751TIP3    H114192   4.926   5.520   1.946
 4751TIP3    H214193   4.909   5.408   1.847
 4752TIP3   OH214194   4.925   6.305   2.031
 4752TIP3    H114195   4.902   6.392   1.991
 4752TIP3    H214196   4.846   6.292   2.087
 4753TIP3   OH214197   4.318   5.994   1.267
 4753TIP3    H114198   4.280   6.021   1.182
 4753TIP3    H214199   4.351   6.080   1.302
 4754TIP3   OH214200   5.755   6.508   1.503
 4754TIP3    H114201   5.666   6.500   1.544
 4754TIP3    H214202   5.750   6.597   1.464
 4755TIP3   OH214203   6.051   5.406   1.869
 4755TIP3    H114204   5.965   5.440   1.839
 4755TIP3    H214205   6.112   5.442   1.801
 4756TIP3   OH214206   5.345   5.052   1.851
 4756TIP3    H114207   5.333   4.958   1.870
 4756TIP3    H214208   5.269   5.091   1.899
 4757TIP3   OH214209   5.458   6.557   1.176
 4757TIP3    H114210   5.508   6.473   1.160
 4757TIP3    H214211   5.524   6.621   1.141
 4758TIP3   OH214212   5.604   6.342   1.088
 4758TIP3    H114213   5.567   6.261   1.050
 4758TIP3    H214214   5.640   6.308   1.173
 4759TIP3   OH214215   5.976   6.418   1.855
 4759TIP3    H114216   5.979   6.345   1.790
 4759TIP3    H214217   5.998   6.495   1.801
 4760TIP3   OH214218   5.277   5.817   1.109
 4760TIP3    H114219   5.197   5.869   1.086
 4760TIP3    H214220   5.323   5.813   1.024
 4761TIP3   OH214221   5.236   5.601   0.823
 4761TIP3    H114222   5.303   5.652   0.871
 4761TIP3    H214223   5.294   5.540   0.774
 4762TIP3   OH214224   6.179   6.050   1.691
 4762TIP3    H114225   6.098   6.106   1.699
 4762TIP3    H214226   6.214   6.083   1.606
 4763TIP3   OH214227   5.625   5.899   1.080
 4763TIP3    H114228   5.570   5.922   1.158
 4763TIP3    H214229   5.709   5.873   1.124
 4764TIP3   OH214230   5.860   5.937   1.995
 4764TIP3    H114231   5.862   6.020   2.047
 4764TIP3    H214232   5.775   5.949   1.947
 4765TIP3   OH214233   4.856   5.897   1.499
 4765TIP3    H114234   4.815   5.839   1.431
 4765TIP3    H214235   4.933   5.843   1.528
 4766TIP3   OH214236   4.985   6.306   1.647
 4766TIP3    H114237   4.967   6.269   1.559
 4766TIP3    H214238   5.075   6.272   1.665
 4767TIP3   OH214239   4.983   5.871   1.854
 4767TIP3    H114240   5.020   5.843   1.767
 4767TIP3    H214241   5.033   5.954   1.871
 4768TIP3   OH214242   5.514   6.506   1.628
 4768TIP3    H114243   5.506   6.586   1.682
 4768TIP3    H214244   5.502   6.433   1.692
 4769TIP3   OH214245   5.132   6.426   2.176
 4769TIP3    H114246   5.072   6.487   2.223
 4769TIP3    H214247   5.067   6.372   2.125
 4770TIP3   OH214248   5.463   5.759   0.905
 4770TIP3    H114249   5.523   5.818   0.955
 4770TIP3    H214250   5.484   5.783   0.812
 4771TIP3   OH214251   4.884   5.974   2.301
 4771TIP3    H114252   4.890   6.066   2.333
 4771TIP3    H214253   4.797   5.974   2.258
 4772TIP3   OH214254   5.207   6.436   1.187
 4772TIP3    H114255   5.288   6.488   1.196
 4772TIP3    H214256   5.147   6.496   1.141
 4773TIP3   OH214257   4.924   6.591   2.262
 4773TIP3    H114258   4.890   6.593   2.171
 4773TIP3    H214259   4.845   6.569   2.315
 4774TIP3   OH214260   5.983   4.998   0.955
 4774TIP3    H114261   5.901   5.022   1.003
 4774TIP3    H214262   5.997   5.079   0.901
 4775TIP3   OH214263   4.721   5.740   1.305
 4775TIP3    H114264   4.656   5.785   1.246
 4775TIP3    H214265   4.685   5.652   1.311
 4776TIP3   OH214266   4.501   6.128   2.207
 4776TIP3    H114267   4.434   6.109   2.138
 4776TIP3    H214268   4.529   6.039   2.235
 4777TIP3   OH214269   4.359   6.316   1.842
 4777TIP3    H114270   4.455   6.309   1.831
 4777TIP3    H214271   4.351   6.395   1.897
 4778TIP3   OH214272   6.213   6.773   1.883
 4778TIP3    H114273   6.244   6.692   1.929
 4778TIP3    H214274   6.132   6.790   1.936
 4779TIP3   OH214275   5.327   6.556   2.031
 4779TIP3    H114276   5.325   6.648   2.065
 4779TIP3    H214277   5.258   6.514   2.087
 4780TIP3   OH214278   5.084   6.682   0.986
 4780TIP3    H114279   5.041   6.662   0.901
 4780TIP3    H214280   5.052   6.772   1.007
 4781TIP3   OH214281   4.527   6.532   1.370
 4781TIP3    H114282   4.575   6.522   1.455
 4781TIP3    H214283   4.474   6.450   1.369
 4782TIP3   OH214284   5.303   6.547   0.668
 4782TIP3    H114285   5.386   6.497   0.662
 4782TIP3    H214286   5.313   6.582   0.759
 4783TIP3   OH214287   5.341   6.634   0.921
 4783TIP3    H114288   5.250   6.644   0.959
 4783TIP3    H214289   5.390   6.598   0.997
 4784TIP3   OH214290   6.110   5.893   2.181
 4784TIP3    H114291   6.034   5.911   2.123
 4784TIP3    H214292   6.126   5.798   2.165
 4785TIP3   OH214293   4.709   6.305   2.197
 4785TIP3    H114294   4.755   6.292   2.282
 4785TIP3    H214295   4.633   6.245   2.204
 4786TIP3   OH214296   5.108   5.129   1.982
 4786TIP3    H114297   5.018   5.099   1.955
 4786TIP3    H214298   5.084   5.212   2.028
 4787TIP3   OH214299   5.644   5.244   2.176
 4787TIP3    H114300   5.713   5.217   2.240
 4787TIP3    H214301   5.561   5.225   2.224
 4788TIP3   OH214302   5.876   5.671   2.090
 4788TIP3    H114303   5.830   5.671   2.177
 4788TIP3    H214304   5.860   5.762   2.058
 4789TIP3   OH214305   5.520   5.806   0.640
 4789TIP3    H114306   5.522   5.765   0.553
 4789TIP3    H214307   5.607   5.851   0.637
 4790TIP3   OH214308   5.252   5.179   0.954
 4790TIP3    H114309   5.218   5.174   1.046
 4790TIP3    H214310   5.213   5.097   0.918
 4791TIP3   OH214311   5.038   5.646   1.998
 4791TIP3    H114312   4.992   5.670   2.081
 4791TIP3    H214313   5.025   5.727   1.944
 4792TIP3   OH214314   4.924   5.532   1.515
 4792TIP3    H114315   4.831   5.505   1.532
 4792TIP3    H214316   4.937   5.491   1.426
 4793TIP3   OH214317   5.414   5.616   1.242
 4793TIP3    H114318   5.363   5.688   1.199
 4793TIP3    H214319   5.470   5.584   1.168
 4794TIP3   OH214320   5.590   5.895   2.327
 4794TIP3    H114321   5.571   5.822   2.389
 4794TIP3    H214322   5.684   5.912   2.347
 4795TIP3   OH214323   5.569   5.644   1.481
 4795TIP3    H114324   5.510   5.674   1.409
 4795TIP3    H214325   5.605   5.564   1.438
 4796TIP3   OH214326   4.856   5.677   2.211
 4796TIP3    H114327   4.911   5.733   2.268
 4796TIP3    H214328   4.849   5.595   2.262
 4797TIP3   OH214329   4.908   5.151   0.919
 4797TIP3    H114330   4.899   5.151   1.017
 4797TIP3    H214331   4.830   5.204   0.893
 4798TIP3   OH214332   4.452   5.195   1.792
 4798TIP3    H114333   4.529   5.227   1.843
 4798TIP3    H214334   4.491   5.165   1.709
 4799TIP3   OH214335   4.423   5.176   1.310
 4799TIP3    H114336   4.468   5.213   1.231
 4799TIP3    H214337   4.362   5.250   1.329
 4800TIP3   OH214338   5.571   5.890   1.902
 4800TIP3    H114339   5.610   5.820   1.844
 4800TIP3    H214340   5.549   5.836   1.981
 4801TIP3   OH214341   5.252   5.354   1.575
 4801TIP3    H114342   5.172   5.352   1.631
 4801TIP3    H214343   5.323   5.350   1.642
 4802TIP3   OH214344   4.685   5.409   1.585
 4802TIP3    H114345   4.591   5.416   1.556
 4802TIP3    H214346   4.709   5.318   1.560
 4803TIP3   OH214347   4.953   5.406   1.273
 4803TIP3    H114348   5.047   5.420   1.252
 4803TIP3    H214349   4.907   5.428   1.188
 4804TIP3   OH214350   5.742   5.431   1.778
 4804TIP3    H114351   5.708   5.443   1.870
 4804TIP3    H214352   5.677   5.369   1.742
 4805TIP3   OH214353   4.797   5.439   1.051
 4805TIP3    H114354   4.727   5.394   1.000
 4805TIP3    H214355   4.850   5.477   0.977
 4806TIP3   OH214356   5.911   7.124   1.997
 4806TIP3    H114357   5.915   7.143   1.902
 4806TIP3    H214358   5.994   7.164   2.029
 4807TIP3   OH214359   4.871   6.224   2.421
 4807TIP3    H114360   4.952   6.256   2.467
 4807TIP3    H214361   4.805   6.237   2.492
 4808TIP3   OH214362   5.334   5.681   1.671
 4808TIP3    H114363   5.408   5.646   1.619
 4808TIP3    H214364   5.347   5.638   1.757
 4809TIP3   OH214365   4.856   5.170   1.552
 4809TIP3    H114366   4.822   5.091   1.598
 4809TIP3    H214367   4.906   5.132   1.478
 4810TIP3   OH214368   5.312   5.576   1.967
 4810TIP3    H114369   5.223   5.616   1.977
 4810TIP3    H214370   5.371   5.638   2.014
 4811TIP3   OH214371   5.047   5.970   1.057
 4811TIP3    H114372   4.975   5.904   1.045
 4811TIP3    H214373   5.028   6.003   1.148
 4812TIP3   OH214374   5.951   6.201   1.684
 4812TIP3    H114375   5.974   6.254   1.605
 4812TIP3    H214376   5.864   6.164   1.660
 4813TIP3   OH214377   5.506   5.278   0.926
 4813TIP3    H114378   5.408   5.263   0.930
 4813TIP3    H214379   5.514   5.374   0.943
 4814TIP3   OH214380   5.435   6.282   2.059
 4814TIP3    H114381   5.485   6.272   2.141
 4814TIP3    H214382   5.410   6.376   2.061
 4815TIP3   OH214383   5.574   5.530   1.026
 4815TIP3    H114384   5.671   5.534   1.040
 4815TIP3    H214385   5.557   5.609   0.971
 4816TIP3   OH214386   4.738   5.989   1.732
 4816TIP3    H114387   4.774   5.966   1.644
 4816TIP3    H214388   4.791   5.931   1.789
 4817TIP3   OH214389   5.194   6.118   0.877
 4817TIP3    H114390   5.147   6.204   0.885
 4817TIP3    H214391   5.140   6.063   0.937
 4818TIP3   OH214392   4.592   5.915   2.367
 4818TIP3    H114393   4.654   5.862   2.418
 4818TIP3    H214394   4.542   5.848   2.315
 4819TIP3   OH214395   5.348   6.022   2.368
 4819TIP3    H114396   5.297   5.973   2.302
 4819TIP3    H214397   5.439   5.993   2.344
 4820TIP3   OH214398   5.603   6.546   1.954
 4820TIP3    H114399   5.507   6.551   1.967
 4820TIP3    H214400   5.635   6.598   2.030
 4821TIP3   OH214401   6.013   5.617   0.861
 4821TIP3    H114402   5.951   5.575   0.796
 4821TIP3    H214403   6.010   5.708   0.824
 4822TIP3   OH214404   5.741   6.430   0.756
 4822TIP3    H114405   5.706   6.378   0.830
 4822TIP3    H214406   5.693   6.393   0.681
 4823TIP3   OH214407   5.711   6.069   1.604
 4823TIP3    H114408   5.617   6.044   1.616
 4823TIP3    H214409   5.746   5.989   1.560
 4824TIP3   OH214410   4.842   6.297   1.361
 4824TIP3    H114411   4.842   6.376   1.305
 4824TIP3    H214412   4.747   6.277   1.366
 4825TIP3   OH214413   4.405   5.599   1.061
 4825TIP3    H114414   4.450   5.683   1.082
 4825TIP3    H214415   4.328   5.604   1.123
 4826TIP3   OH214416   4.976   6.060   1.302
 4826TIP3    H114417   4.944   6.150   1.321
 4826TIP3    H214418   4.941   6.010   1.378
 4827TIP3   OH214419   5.111   6.639   1.827
 4827TIP3    H114420   5.154   6.711   1.777
 4827TIP3    H214421   5.187   6.602   1.876
 4828TIP3   OH214422   4.759   6.535   1.210
 4828TIP3    H114423   4.674   6.544   1.257
 4828TIP3    H214424   4.791   6.628   1.213
 4829TIP3   OH214425   5.496   6.273   1.788
 4829TIP3    H114426   5.487   6.268   1.886
 4829TIP3    H214427   5.580   6.227   1.774
 4830TIP3   OH214428   5.454   6.154   0.677
 4830TIP3    H114429   5.517   6.133   0.749
 4830TIP3    H214430   5.369   6.139   0.720
 4831TIP3   OH214431   5.740   6.812   1.844
 4831TIP3    H114432   5.665   6.750   1.830
 4831TIP3    H214433   5.730   6.871   1.767
 4832TIP3   OH214434   4.833   5.425   2.365
 4832TIP3    H114435   4.736   5.418   2.374
 4832TIP3    H214436   4.863   5.365   2.436
 4833TIP3   OH214437   5.632   6.100   0.888
 4833TIP3    H114438   5.624   6.033   0.959
 4833TIP3    H214439   5.729   6.098   0.873
 4834TIP3   OH214440   4.547   6.502   1.986
 4834TIP3    H114441   4.603   6.428   2.015
 4834TIP3    H214442   4.577   6.572   2.045
 4835TIP3   OH214443   4.827   6.152   0.670
 4835TIP3    H114444   4.861   6.066   0.639
 4835TIP3    H214445   4.814   6.134   0.765
 4836TIP3   OH214446   4.783   6.152   0.945
 4836TIP3    H114447   4.859   6.125   0.998
 4836TIP3    H214448   4.788   6.250   0.949
 4837TIP3   OH214449   4.518   5.844   1.145
 4837TIP3    H114450   4.452   5.890   1.200
 4837TIP3    H214451   4.534   5.912   1.076
 4838TIP3   OH214452   5.666   5.483   2.038
 4838TIP3    H114453   5.748   5.523   2.071
 4838TIP3    H214454   5.658   5.402   2.093
 4839TIP3   OH214455   5.548   5.232   1.204
 4839TIP3    H114456   5.535   5.253   1.109
 4839TIP3    H214457   5.588   5.315   1.238
 4840TIP3   OH214458   5.052   6.347   0.896
 4840TIP3    H114459   4.965   6.378   0.927
 4840TIP3    H214460   5.064   6.401   0.816
 4841TIP3   OH214461   5.235   5.413   1.304
 4841TIP3    H114462   5.301   5.484   1.286
 4841TIP3    H214463   5.243   5.405   1.401
 4842TIP3   OH214464   5.506   5.729   2.113
 4842TIP3    H114465   5.533   5.782   2.191
 4842TIP3    H214466   5.563   5.651   2.121
 4843TIP3   OH214467   5.381   5.137   1.405
 4843TIP3    H114468   5.378   5.213   1.465
 4843TIP3    H214469   5.442   5.172   1.336
 4844TIP3   OH214470   4.795   6.425   0.956
 4844TIP3    H114471   4.763   6.494   0.894
 4844TIP3    H214472   4.779   6.468   1.043
 4845TIP3   OH214473   4.893   5.139   1.196
 4845TIP3    H114474   4.892   5.229   1.232
 4845TIP3    H214475   4.989   5.120   1.203
 4846TIP3   OH214476   6.145   5.629   2.097
 4846TIP3    H114477   6.047   5.624   2.097
 4846TIP3    H214478   6.165   5.601   2.007
 4847TIP3   OH214479   5.798   5.825   1.480
 4847TIP3    H114480   5.724   5.764   1.493
 4847TIP3    H214481   5.871   5.780   1.528
 4848TIP3   OH214482   4.511   6.052   0.949
 4848TIP3    H114483   4.580   6.121   0.957
 4848TIP3    H214484   4.556   5.995   0.882
 4849TIP3   OH214485   4.453   5.329   1.086
 4849TIP3    H114486   4.455   5.427   1.081
 4849TIP3    H214487   4.375   5.308   1.035
 4850TIP3   OH214488   5.765   6.782   1.428
 4850TIP3    H114489   5.724   6.831   1.353
 4850TIP3    H214490   5.860   6.801   1.410
 4851TIP3   OH214491   4.841   5.051   1.957
 4851TIP3    H114492   4.812   5.016   1.870
 4851TIP3    H214493   4.832   4.972   2.014
 4852TIP3   OH214494   4.383   6.270   1.336
 4852TIP3    H114495   4.311   6.299   1.394
 4852TIP3    H214496   4.356   6.310   1.251
 4853TIP3   OH214497   4.540   6.813   2.408
 4853TIP3    H114498   4.626   6.814   2.456
 4853TIP3    H214499   4.520   6.718   2.409
 4854TIP3   OH214500   5.018   6.774   2.453
 4854TIP3    H114501   5.113   6.758   2.462
 4854TIP3    H214502   4.996   6.714   2.380
 4855TIP3   OH214503   5.012   6.343   0.596
 4855TIP3    H114504   4.935   6.285   0.617
 4855TIP3    H214505   5.078   6.274   0.581
 4856TIP3   OH214506   5.656   6.682   2.189
 4856TIP3    H114507   5.652   6.611   2.257
 4856TIP3    H214508   5.739   6.729   2.214
 4857TIP3   OH214509   4.666   6.230   2.607
 4857TIP3    H114510   4.666   6.145   2.653
 4857TIP3    H214511   4.579   6.229   2.561
 4858TIP3   OH214512   4.649   5.867   0.802
 4858TIP3    H114513   4.709   5.834   0.871
 4858TIP3    H214514   4.712   5.882   0.730
 4859TIP3   OH214515   5.274   6.299   2.384
 4859TIP3    H114516   5.241   6.321   2.295
 4859TIP3    H214517   5.310   6.209   2.372
 4860TIP3   OH214518   5.131   6.070   0.609
 4860TIP3    H114519   5.154   6.079   0.703
 4860TIP3    H214520   5.138   5.973   0.598
 4861TIP3   OH214521   5.763   6.311   1.988
 4861TIP3    H114522   5.844   6.348   1.946
 4861TIP3    H214523   5.702   6.386   1.972
 4862TIP3   OH214524   4.789   5.848   2.643
 4862TIP3    H114525   4.854   5.870   2.573
 4862TIP3    H214526   4.806   5.926   2.702
 4863TIP3   OH214527   4.854   5.771   1.024
 4863TIP3    H114528   4.829   5.727   1.106
 4863TIP3    H214529   4.892   5.697   0.972
 4864TIP3   OH214530   5.114   5.825   2.247
 4864TIP3    H114531   5.047   5.895   2.256
 4864TIP3    H214532   5.172   5.863   2.176
 4865TIP3   OH214533   4.956   5.565   0.868
 4865TIP3    H114534   4.930   5.568   0.773
 4865TIP3    H214535   5.054   5.568   0.859
 4866TIP3   OH214536   5.639   6.235   2.385
 4866TIP3    H114537   5.722   6.218   2.339
 4866TIP3    H214538   5.642   6.170   2.458
 4867TIP3   OH214539   5.776   5.859   0.536
 4867TIP3    H114540   5.795   5.800   0.461
 4867TIP3    H214541   5.773   5.947   0.491
 4868TIP3   OH214542   5.243   5.623   2.382
 4868TIP3    H114543   5.250   5.543   2.326
 4868TIP3    H214544   5.203   5.687   2.320
 4869TIP3   OH214545   5.249   5.412   2.190
 4869TIP3    H114546   5.280   5.452   2.106
 4869TIP3    H214547   5.156   5.388   2.169
 4870TIP3   OH214548   5.273   5.944   2.066
 4870TIP3    H114549   5.360   5.950   2.022
 4870TIP3    H214550   5.222   6.012   2.017
 4871TIP3   OH214551   5.858   5.914   2.440
 4871TIP3    H114552   5.909   5.832   2.447
 4871TIP3    H214553   5.925   5.974   2.404
 4872TIP3   OH214554   5.898   6.163   2.171
 4872TIP3    H114555   5.841   6.220   2.114
 4872TIP3    H214556   5.987   6.189   2.136
 4873TIP3   OH214557   5.105   5.723   2.609
 4873TIP3    H114558   5.073   5.633   2.589
 4873TIP3    H214559   5.158   5.739   2.529
 4874TIP3   OH214560   5.382   5.173   2.253
 4874TIP3    H114561   5.332   5.255   2.232
 4874TIP3    H214562   5.313   5.104   2.242
 4875TIP3   OH214563   5.509   5.678   2.470
 4875TIP3    H114564   5.503   5.664   2.566
 4875TIP3    H214565   5.419   5.651   2.444
 4876TIP3   OH214566   5.747   5.628   2.324
 4876TIP3    H114567   5.673   5.628   2.388
 4876TIP3    H214568   5.822   5.598   2.379
 4877TIP3   OH214569   5.970   5.567   2.476
 4877TIP3    H114570   5.986   5.471   2.493
 4877TIP3    H214571   5.970   5.605   2.566
 4878TIP3   OH214572   5.476   5.184   2.511
 4878TIP3    H114573   5.543   5.113   2.506
 4878TIP3    H214574   5.437   5.176   2.421
 4879TIP3   OH214575   5.543   5.397   2.670
 4879TIP3    H114576   5.522   5.325   2.606
 4879TIP3    H214577   5.464   5.455   2.662
 4880TIP3   OH214578   4.760   6.631   0.770
 4880TIP3    H114579   4.856   6.625   0.751
 4880TIP3    H214580   4.731   6.675   0.689
 4881TIP3   OH214581   4.243   6.008   0.988
 4881TIP3    H114582   4.338   6.030   0.972
 4881TIP3    H214583   4.237   5.920   0.946
 4882TIP3   OH214584   4.155   6.622   1.402
 4882TIP3    H114585   4.091   6.559   1.363
 4882TIP3    H214586   4.201   6.564   1.466
 4883TIP3   OH214587   4.292   6.472   1.587
 4883TIP3    H114588   4.282   6.398   1.649
 4883TIP3    H214589   4.345   6.533   1.642
 4884TIP3   OH214590   6.018   6.878   1.387
 4884TIP3    H114591   6.046   6.899   1.478
 4884TIP3    H214592   6.090   6.915   1.334
 4885TIP3   OH214593   6.054   6.892   1.668
 4885TIP3    H114594   6.006   6.806   1.664
 4885TIP3    H214595   6.124   6.865   1.731
 4886TIP3   OH214596   6.057   6.578   2.227
 4886TIP3    H114597   6.011   6.583   2.313
 4886TIP3    H214598   6.128   6.644   2.237
 4887TIP3   OH214599   5.912   6.081   0.867
 4887TIP3    H114600   5.984   6.143   0.845
 4887TIP3    H214601   5.951   6.037   0.946
 4888TIP3   OH214602   6.039   5.948   1.066
 4888TIP3    H114603   5.974   5.907   1.128
 4888TIP3    H214604   6.106   5.985   1.128
 4889TIP3   OH214605   6.086   6.338   1.491
 4889TIP3    H114606   6.149   6.276   1.449
 4889TIP3    H214607   6.084   6.412   1.428
 4890TIP3   OH214608   5.927   6.649   1.684
 4890TIP3    H114609   5.860   6.669   1.751
 4890TIP3    H214610   5.878   6.590   1.623
 4891TIP3   OH214611   5.978   5.854   0.722
 4891TIP3    H114612   5.902   5.842   0.660
 4891TIP3    H214613   5.948   5.933   0.771
 4892TIP3   OH214614   5.849   5.540   0.657
 4892TIP3    H114615   5.826   5.562   0.565
 4892TIP3    H214616   5.816   5.448   0.663
 4893TIP3   OH214617   5.853   5.806   1.211
 4893TIP3    H114618   5.862   5.710   1.205
 4893TIP3    H214619   5.840   5.819   1.308
 4894TIP3   OH214620   4.481   5.874   1.961
 4894TIP3    H114621   4.479   5.845   1.867
 4894TIP3    H214622   4.577   5.884   1.975
 4895TIP3   OH214623   6.139   6.238   2.067
 4895TIP3    H114624   6.216   6.178   2.054
 4895TIP3    H214625   6.154   6.309   2.003
 4896TIP3   OH214626   6.319   6.035   2.080
 4896TIP3    H114627   6.251   5.982   2.127
 4896TIP3    H214628   6.399   5.979   2.095
 4897TIP3   OH214629   5.780   5.277   0.665
 4897TIP3    H114630   5.862   5.238   0.701
 4897TIP3    H214631   5.712   5.211   0.686
 4898TIP3   OH214632   5.850   5.523   1.105
 4898TIP3    H114633   5.890   5.434   1.121
 4898TIP3    H214634   5.908   5.553   1.033
 4899TIP3   OH214635   6.010   5.696   1.601
 4899TIP3    H114636   6.097   5.721   1.560
 4899TIP3    H214637   6.025   5.734   1.691
 4900TIP3   OH214638   6.079   5.838   1.834
 4900TIP3    H114639   6.003   5.876   1.882
 4900TIP3    H214640   6.114   5.918   1.787
 4901TIP3   OH214641   6.533   5.431   2.391
 4901TIP3    H114642   6.593   5.366   2.347
 4901TIP3    H214643   6.502   5.484   2.314
 4902TIP3   OH214644   5.957   5.273   1.145
 4902TIP3    H114645   6.007   5.257   1.228
 4902TIP3    H214646   5.898   5.195   1.144
 4903TIP3   OH214647   4.658   5.260   1.968
 4903TIP3    H114648   4.719   5.183   1.975
 4903TIP3    H214649   4.722   5.332   1.957
 4904TIP3   OH214650   4.463   5.532   2.039
 4904TIP3    H114651   4.510   5.522   1.954
 4904TIP3    H214652   4.490   5.622   2.063
 4905TIP3   OH214653   6.401   5.568   2.198
 4905TIP3    H114654   6.316   5.612   2.218
 4905TIP3    H214655   6.369   5.498   2.137
 4906TIP3   OH214656   6.038   5.205   0.774
 4906TIP3    H114657   6.075   5.131   0.721
 4906TIP3    H214658   6.109   5.272   0.765
 4907TIP3   OH214659   4.445   5.037   1.540
 4907TIP3    H114660   4.351   5.032   1.564
 4907TIP3    H214661   4.442   5.095   1.460
 4908TIP3   OH214662   5.609   6.739   1.046
 4908TIP3    H114663   5.655   6.728   0.960
 4908TIP3    H214664   5.664   6.806   1.090
 4909TIP3   OH214665   4.666   5.121   2.353
 4909TIP3    H114666   4.617   5.112   2.436
 4909TIP3    H214667   4.597   5.157   2.293
 4910TIP3   OH214668   4.705   6.538   2.428
 4910TIP3    H114669   4.611   6.516   2.415
 4910TIP3    H214670   4.715   6.528   2.523
 4911TIP3   OH214671   4.883   6.576   1.975
 4911TIP3    H114672   4.837   6.653   1.935
 4911TIP3    H214673   4.970   6.589   1.932
 4912TIP3   OH214674   5.327   6.823   2.114
 4912TIP3    H114675   5.370   6.821   2.202
 4912TIP3    H214676   5.395   6.872   2.062
 4913TIP3   OH214677   5.508   6.972   1.972
 4913TIP3    H114678   5.580   6.920   1.932
 4913TIP3    H214679   5.559   7.029   2.034
 4914TIP3   OH214680   6.302   5.333   2.073
 4914TIP3    H114681   6.211   5.328   2.037
 4914TIP3    H214682   6.333   5.240   2.062
 4915TIP3   OH214683   4.558   6.834   1.999
 4915TIP3    H114684   4.468   6.867   1.978
 4915TIP3    H214685   4.571   6.871   2.087
 4916TIP3   OH214686   4.796   6.812   1.859
 4916TIP3    H114687   4.708   6.824   1.902
 4916TIP3    H214688   4.777   6.842   1.768
 4917TIP3   OH214689   5.220   6.840   1.657
 4917TIP3    H114690   5.152   6.861   1.590
 4917TIP3    H214691   5.234   6.927   1.700
 4918TIP3   OH214692   5.490   6.777   1.706
 4918TIP3    H114693   5.397   6.796   1.686
 4918TIP3    H214694   5.536   6.852   1.667
 4919TIP3   OH214695   5.697   6.970   1.622
 4919TIP3    H114696   5.684   7.054   1.572
 4919TIP3    H214697   5.724   6.908   1.550
 4920TIP3   OH214698   4.471   6.626   1.745
 4920TIP3    H114699   4.498   6.600   1.836
 4920TIP3    H214700   4.542   6.582   1.694
 4921TIP3   OH214701   4.665   6.498   1.603
 4921TIP3    H114702   4.681   6.414   1.652
 4921TIP3    H214703   4.756   6.534   1.598
 4922TIP3   OH214704   4.931   6.593   1.607
 4922TIP3    H114705   4.963   6.502   1.592
 4922TIP3    H214706   4.979   6.613   1.690
 4923TIP3   OH214707   5.504   5.248   1.689
 4923TIP3    H114708   5.463   5.177   1.742
 4923TIP3    H214709   5.580   5.203   1.648
 4924TIP3   OH214710   6.028   5.127   1.597
 4924TIP3    H114711   6.066   5.180   1.523
 4924TIP3    H214712   5.934   5.149   1.591
 4925TIP3   OH214713   6.124   5.229   1.362
 4925TIP3    H114714   6.197   5.178   1.322
 4925TIP3    H214715   6.157   5.321   1.347
 4926TIP3   OH214716   4.755   4.957   1.709
 4926TIP3    H114717   4.663   4.925   1.710
 4926TIP3    H214718   4.803   4.872   1.704
 4927TIP3   OH214719   4.543   4.827   1.357
 4927TIP3    H114720   4.573   4.883   1.283
 4927TIP3    H214721   4.516   4.893   1.423
 4928TIP3   OH214722   5.199   4.989   1.590
 4928TIP3    H114723   5.255   5.037   1.527
 4928TIP3    H214724   5.228   5.028   1.675
 4929TIP3   OH214725   5.742   5.137   1.573
 4929TIP3    H114726   5.746   5.099   1.485
 4929TIP3    H214727   5.730   5.056   1.628
 4930TIP3   OH214728   5.775   5.060   1.135
 4930TIP3    H114729   5.688   5.102   1.147
 4930TIP3    H214730   5.761   4.974   1.181
 4931TIP3   OH214731   4.258   6.401   1.137
 4931TIP3    H114732   4.173   6.366   1.103
 4931TIP3    H214733   4.249   6.494   1.110
 4932TIP3   OH214734   4.660   4.984   1.121
 4932TIP3    H114735   4.708   4.923   1.062
 4932TIP3    H214736   4.733   5.039   1.155
 4933TIP3   OH214737   5.170   5.162   1.220
 4933TIP3    H114738   5.232   5.116   1.278
 4933TIP3    H214739   5.192   5.255   1.243
 4934TIP3   OH214740   5.029   6.589   0.715
 4934TIP3    H114741   5.122   6.600   0.689
 4934TIP3    H214742   5.007   6.511   0.659
 4935TIP3   OH214743   5.750   6.704   0.808
 4935TIP3    H114744   5.742   6.609   0.786
 4935TIP3    H214745   5.751   6.746   0.720
 4936TIP3   OH214746   4.954   5.225   2.591
 4936TIP3    H114747   4.928   5.160   2.658
 4936TIP3    H214748   5.044   5.248   2.624
 4937TIP3   OH214749   5.205   5.242   2.720
 4937TIP3    H114750   5.290   5.216   2.679
 4937TIP3    H214751   5.194   5.171   2.786
 4938TIP3   OH214752   4.337   6.417   0.778
 4938TIP3    H114753   4.342   6.444   0.870
 4938TIP3    H214754   4.426   6.377   0.763
 4939TIP3   OH214755   6.038   5.297   2.506
 4939TIP3    H114756   6.057   5.266   2.597
 4939TIP3    H214757   6.127   5.292   2.465
 4940TIP3   OH214758   5.973   6.855   1.999
 4940TIP3    H114759   5.894   6.821   1.953
 4940TIP3    H214760   5.951   6.950   2.005
 4941TIP3   OH214761   7.227   6.209   1.136
 4941TIP3    H114762   7.267   6.204   1.226
 4941TIP3    H214763   7.181   6.123   1.135
 4942TIP3   OH214764   6.541   6.115   1.507
 4942TIP3    H114765   6.569   6.047   1.571
 4942TIP3    H214766   6.610   6.182   1.521
 4943TIP3   OH214767   6.510   6.524   1.230
 4943TIP3    H114768   6.503   6.426   1.235
 4943TIP3    H214769   6.606   6.535   1.238
 4944TIP3   OH214770   6.221   5.731   1.014
 4944TIP3    H114771   6.172   5.812   1.035
 4944TIP3    H214772   6.149   5.674   0.982
 4945TIP3   OH214773   6.277   6.015   1.191
 4945TIP3    H114774   6.325   5.938   1.229
 4945TIP3    H214775   6.345   6.054   1.134
 4946TIP3   OH214776   7.045   6.447   1.194
 4946TIP3    H114777   7.089   6.371   1.152
 4946TIP3    H214778   7.124   6.495   1.227
 4947TIP3   OH214779   8.047   5.773   1.192
 4947TIP3    H114780   8.072   5.848   1.247
 4947TIP3    H214781   8.070   5.805   1.104
 4948TIP3   OH214782   7.469   5.947   1.231
 4948TIP3    H114783   7.505   5.859   1.252
 4948TIP3    H214784   7.428   5.931   1.144
 4949TIP3   OH214785   6.794   5.607   1.190
 4949TIP3    H114786   6.770   5.680   1.129
 4949TIP3    H214787   6.744   5.533   1.148
 4950TIP3   OH214788   7.461   5.699   0.845
 4950TIP3    H114789   7.545   5.683   0.893
 4950TIP3    H214790   7.494   5.730   0.758
 4951TIP3   OH214791   6.424   5.810   1.297
 4951TIP3    H114792   6.506   5.793   1.346
 4951TIP3    H214793   6.438   5.753   1.219
 4952TIP3   OH214794   6.866   6.006   1.085
 4952TIP3    H114795   6.958   5.980   1.104
 4952TIP3    H214796   6.826   5.921   1.058
 4953TIP3   OH214797   6.787   5.591   1.624
 4953TIP3    H114798   6.727   5.630   1.559
 4953TIP3    H214799   6.736   5.608   1.707
 4954TIP3   OH214800   6.892   6.367   1.419
 4954TIP3    H114801   6.831   6.432   1.459
 4954TIP3    H214802   6.936   6.420   1.351
 4955TIP3   OH214803   7.700   5.702   0.985
 4955TIP3    H114804   7.672   5.660   1.068
 4955TIP3    H214805   7.742   5.785   1.018
 4956TIP3   OH214806   6.658   5.707   1.408
 4956TIP3    H114807   6.718   5.780   1.434
 4956TIP3    H214808   6.711   5.666   1.336
 4957TIP3   OH214809   6.717   6.559   1.517
 4957TIP3    H114810   6.695   6.649   1.484
 4957TIP3    H214811   6.641   6.546   1.578
 4958TIP3   OH214812   6.117   6.241   0.757
 4958TIP3    H114813   6.039   6.273   0.710
 4958TIP3    H214814   6.150   6.325   0.798
 4959TIP3   OH214815   7.848   5.659   1.355
 4959TIP3    H114816   7.762   5.699   1.336
 4959TIP3    H214817   7.905   5.697   1.284
 4960TIP3   OH214818   7.141   5.309   1.339
 4960TIP3    H114819   7.130   5.215   1.361
 4960TIP3    H214820   7.065   5.348   1.388
 4961TIP3   OH214821   8.013   6.294   1.213
 4961TIP3    H114822   7.922   6.327   1.225
 4961TIP3    H214823   8.034   6.338   1.130
 4962TIP3   OH214824   7.660   6.194   1.475
 4962TIP3    H114825   7.650   6.280   1.522
 4962TIP3    H214826   7.577   6.203   1.426
 4963TIP3   OH214827   6.656   6.154   0.985
 4963TIP3    H114828   6.614   6.092   0.920
 4963TIP3    H214829   6.733   6.102   1.015
 4964TIP3   OH214830   6.787   6.568   1.141
 4964TIP3    H114831   6.762   6.528   1.056
 4964TIP3    H214832   6.877   6.533   1.155
 4965TIP3   OH214833   6.793   6.125   1.335
 4965TIP3    H114834   6.828   6.108   1.245
 4965TIP3    H214835   6.833   6.211   1.359
 4966TIP3   OH214836   7.293   6.743   1.102
 4966TIP3    H114837   7.294   6.826   1.152
 4966TIP3    H214838   7.295   6.676   1.173
 4967TIP3   OH214839   6.927   6.679   1.664
 4967TIP3    H114840   6.869   6.742   1.711
 4967TIP3    H214841   6.862   6.626   1.616
 4968TIP3   OH214842   6.678   6.241   1.761
 4968TIP3    H114843   6.682   6.325   1.811
 4968TIP3    H214844   6.584   6.219   1.777
 4969TIP3   OH214845   6.722   6.851   1.748
 4969TIP3    H114846   6.684   6.845   1.658
 4969TIP3    H214847   6.643   6.834   1.805
 4970TIP3   OH214848   6.517   5.988   0.808
 4970TIP3    H114849   6.456   6.033   0.747
 4970TIP3    H214850   6.468   5.908   0.831
 4971TIP3   OH214851   6.311   6.381   1.680
 4971TIP3    H114852   6.234   6.349   1.631
 4971TIP3    H214853   6.341   6.303   1.730
 4972TIP3   OH214854   6.155   6.578   1.320
 4972TIP3    H114855   6.250   6.562   1.321
 4972TIP3    H214856   6.147   6.647   1.388
 4973TIP3   OH214857   7.097   6.827   1.500
 4973TIP3    H114858   7.105   6.913   1.546
 4973TIP3    H214859   7.053   6.771   1.567
 4974TIP3   OH214860   6.301   6.780   0.870
 4974TIP3    H114861   6.373   6.777   0.937
 4974TIP3    H214862   6.225   6.759   0.928
 4975TIP3   OH214863   7.917   6.162   1.675
 4975TIP3    H114864   7.853   6.194   1.609
 4975TIP3    H214865   7.939   6.073   1.641
 4976TIP3   OH214866   6.506   6.568   1.690
 4976TIP3    H114867   6.548   6.547   1.776
 4976TIP3    H214868   6.430   6.504   1.692
 4977TIP3   OH214869   6.904   5.388   1.466
 4977TIP3    H114870   6.814   5.357   1.441
 4977TIP3    H214871   6.879   5.468   1.516
 4978TIP3   OH214872   7.438   5.500   1.664
 4978TIP3    H114873   7.507   5.473   1.728
 4978TIP3    H214874   7.355   5.481   1.712
 4979TIP3   OH214875   7.670   5.928   1.575
 4979TIP3    H114876   7.627   5.928   1.664
 4979TIP3    H214877   7.660   6.021   1.547
 4980TIP3   OH214878   6.833   5.903   1.486
 4980TIP3    H114879   6.787   5.926   1.569
 4980TIP3    H214880   6.819   5.985   1.433
 4981TIP3   OH214881   6.720   5.783   0.998
 4981TIP3    H114882   6.627   5.761   1.022
 4981TIP3    H214883   6.723   5.746   0.908
 4982TIP3   OH214884   7.383   6.149   1.815
 4982TIP3    H114885   7.368   6.077   1.880
 4982TIP3    H214886   7.477   6.169   1.829
 4983TIP3   OH214887   7.360   5.905   0.986
 4983TIP3    H114888   7.321   5.956   0.915
 4983TIP3    H214889   7.390   5.823   0.940
 4984TIP3   OH214890   6.653   5.932   1.696
 4984TIP3    H114891   6.678   5.999   1.762
 4984TIP3    H214892   6.646   5.852   1.751
 4985TIP3   OH214893   6.245   5.455   1.278
 4985TIP3    H114894   6.324   5.483   1.329
 4985TIP3    H214895   6.282   5.418   1.196
 4986TIP3   OH214896   6.222   5.436   0.805
 4986TIP3    H114897   6.267   5.470   0.725
 4986TIP3    H214898   6.158   5.508   0.821
 4987TIP3   OH214899   7.334   6.139   1.371
 4987TIP3    H114900   7.389   6.068   1.332
 4987TIP3    H214901   7.347   6.122   1.466
 4988TIP3   OH214902   7.044   5.608   1.058
 4988TIP3    H114903   6.962   5.608   1.112
 4988TIP3    H214904   7.112   5.613   1.127
 4989TIP3   OH214905   6.481   5.666   1.067
 4989TIP3    H114906   6.386   5.675   1.042
 4989TIP3    H214907   6.500   5.573   1.049
 4990TIP3   OH214908   6.751   5.669   0.743
 4990TIP3    H114909   6.848   5.676   0.759
 4990TIP3    H214910   6.740   5.723   0.663
 4991TIP3   OH214911   7.538   5.680   1.253
 4991TIP3    H114912   7.515   5.694   1.348
 4991TIP3    H214913   7.465   5.621   1.227
 4992TIP3   OH214914   6.644   6.480   1.923
 4992TIP3    H114915   6.724   6.511   1.971
 4992TIP3    H214916   6.574   6.502   1.989
 4993TIP3   OH214917   7.127   5.935   1.161
 4993TIP3    H114918   7.210   5.903   1.124
 4993TIP3    H214919   7.132   5.904   1.253
 4994TIP3   OH214920   6.656   5.424   1.038
 4994TIP3    H114921   6.615   5.349   1.088
 4994TIP3    H214922   6.709   5.376   0.973
 4995TIP3   OH214923   7.108   5.840   1.448
 4995TIP3    H114924   7.019   5.877   1.466
 4995TIP3    H214925   7.167   5.897   1.501
 4996TIP3   OH214926   7.756   6.369   1.142
 4996TIP3    H114927   7.738   6.466   1.137
 4996TIP3    H214928   7.664   6.337   1.157
 4997TIP3   OH214929   6.531   6.243   1.220
 4997TIP3    H114930   6.576   6.214   1.139
 4997TIP3    H214931   6.575   6.190   1.288
 4998TIP3   OH214932   6.418   6.173   1.835
 4998TIP3    H114933   6.451   6.166   1.927
 4998TIP3    H214934   6.351   6.103   1.834
 4999TIP3   OH214935   7.144   6.281   1.857
 4999TIP3    H114936   7.085   6.226   1.803
 4999TIP3    H214937   7.232   6.250   1.824
 5000TIP3   OH214938   7.373   6.807   1.439
 5000TIP3    H114939   7.277   6.792   1.445
 5000TIP3    H214940   7.393   6.833   1.531
 5001TIP3   OH214941   7.490   6.306   1.109
 5001TIP3    H114942   7.394   6.288   1.108
 5001TIP3    H214943   7.523   6.237   1.049
 5002TIP3   OH214944   6.639   6.558   0.883
 5002TIP3    H114945   6.651   6.609   0.800
 5002TIP3    H214946   6.547   6.579   0.905
 5003TIP3   OH214947   6.198   5.856   0.563
 5003TIP3    H114948   6.243   5.933   0.602
 5003TIP3    H214949   6.120   5.849   0.623
 5004TIP3   OH214950   6.764   6.332   0.798
 5004TIP3    H114951   6.740   6.416   0.840
 5004TIP3    H214952   6.745   6.268   0.868
 5005TIP3   OH214953   6.901   6.888   1.315
 5005TIP3    H114954   6.949   6.953   1.259
 5005TIP3    H214955   6.976   6.857   1.371
 5006TIP3   OH214956   7.302   6.522   1.290
 5006TIP3    H114957   7.332   6.531   1.382
 5006TIP3    H214958   7.374   6.467   1.257
 5007TIP3   OH214959   6.629   5.671   1.842
 5007TIP3    H114960   6.533   5.677   1.858
 5007TIP3    H214961   6.658   5.615   1.916
 5008TIP3   OH214962   6.344   6.757   1.474
 5008TIP3    H114963   6.395   6.681   1.506
 5008TIP3    H214964   6.367   6.822   1.542
 5009TIP3   OH214965   6.321   6.097   0.646
 5009TIP3    H114966   6.248   6.135   0.700
 5009TIP3    H214967   6.351   6.178   0.603
 5010TIP3   OH214968   7.476   5.726   1.510
 5010TIP3    H114969   7.543   5.781   1.555
 5010TIP3    H214970   7.460   5.655   1.575
 5011TIP3   OH214971   7.022   5.662   0.791
 5011TIP3    H114972   7.094   5.725   0.777
 5011TIP3    H214973   7.029   5.649   0.889
 5012TIP3   OH214974   7.299   5.981   1.608
 5012TIP3    H114975   7.317   6.046   1.679
 5012TIP3    H214976   7.364   5.913   1.628
 5013TIP3   OH214977   7.191   5.406   0.901
 5013TIP3    H114978   7.178   5.465   0.979
 5013TIP3    H214979   7.263   5.454   0.857
 5014TIP3   OH214980   6.688   5.394   0.673
 5014TIP3    H114981   6.681   5.483   0.710
 5014TIP3    H214982   6.776   5.369   0.709
 5015TIP3   OH214983   7.942   5.905   1.563
 5015TIP3    H114984   7.846   5.900   1.578
 5015TIP3    H214985   7.951   5.854   1.483
 5016TIP3   OH214986   7.591   6.083   0.970
 5016TIP3    H114987   7.519   6.023   0.995
 5016TIP3    H214988   7.667   6.040   1.013
 5017TIP3   OH214989   6.256   5.585   0.574
 5017TIP3    H114990   6.237   5.681   0.570
 5017TIP3    H214991   6.180   5.548   0.527
 5018TIP3   OH214992   6.640   5.305   1.443
 5018TIP3    H114993   6.608   5.271   1.357
 5018TIP3    H214994   6.630   5.227   1.501
 5019TIP3   OH214995   6.169   6.493   0.838
 5019TIP3    H114996   6.115   6.548   0.896
 5019TIP3    H214997   6.235   6.557   0.808
 5020TIP3   OH214998   6.336   7.068   1.895
 5020TIP3    H114999   6.422   7.065   1.941
 5020TIP3    H215000   6.314   6.973   1.893
 5021TIP3   OH215001   6.814   7.034   1.936
 5021TIP3    H115002   6.907   7.013   1.949
 5021TIP3    H215003   6.791   6.970   1.865
 5022TIP3   OH215004   7.447   6.927   1.678
 5022TIP3    H115005   7.437   6.856   1.746
 5022TIP3    H215006   7.533   6.964   1.701
 5023TIP3   OH215007   7.072   6.559   1.874
 5023TIP3    H115008   7.042   6.582   1.783
 5023TIP3    H215009   7.110   6.470   1.861
 5024TIP3   OH215010   6.595   6.164   2.071
 5024TIP3    H115011   6.691   6.148   2.072
 5024TIP3    H215012   6.588   6.236   2.136
 5025TIP3   OH215013   6.917   6.089   1.736
 5025TIP3    H115014   6.843   6.152   1.739
 5025TIP3    H215015   6.970   6.124   1.661
 5026TIP3   OH215016   7.447   6.503   1.879
 5026TIP3    H115017   7.455   6.474   1.785
 5026TIP3    H215018   7.444   6.420   1.927
 5027TIP3   OH215019   7.044   5.881   1.865
 5027TIP3    H115020   7.045   5.803   1.807
 5027TIP3    H215021   7.001   5.948   1.807
 5028TIP3   OH215022   7.046   5.666   1.671
 5028TIP3    H115023   7.074   5.710   1.589
 5028TIP3    H215024   6.952   5.645   1.653
 5029TIP3   OH215025   7.071   6.196   1.543
 5029TIP3    H115026   7.157   6.206   1.500
 5029TIP3    H215027   7.018   6.265   1.498
 5030TIP3   OH215028   7.662   6.168   1.931
 5030TIP3    H115029   7.711   6.085   1.926
 5030TIP3    H215030   7.727   6.231   1.898
 5031TIP3   OH215031   6.922   5.989   2.099
 5031TIP3    H115032   6.852   5.922   2.111
 5031TIP3    H215033   6.955   5.967   2.010
 5032TIP3   OH215034   7.178   5.429   1.741
 5032TIP3    H115035   7.128   5.511   1.718
 5032TIP3    H215036   7.108   5.361   1.730
 5033TIP3   OH215037   7.306   5.929   1.958
 5033TIP3    H115038   7.289   5.920   2.053
 5033TIP3    H215039   7.217   5.909   1.923
 5034TIP3   OH215040   7.541   5.879   1.810
 5034TIP3    H115041   7.467   5.885   1.873
 5034TIP3    H215042   7.616   5.853   1.868
 5035TIP3   OH215043   7.774   5.826   1.963
 5035TIP3    H115044   7.784   5.730   1.980
 5035TIP3    H215045   7.770   5.864   2.054
 5036TIP3   OH215046   6.757   5.771   2.150
 5036TIP3    H115047   6.765   5.680   2.116
 5036TIP3    H215048   6.794   5.761   2.240
 5037TIP3   OH215049   7.271   5.439   1.999
 5037TIP3    H115050   7.338   5.368   1.992
 5037TIP3    H215051   7.232   5.434   1.909
 5038TIP3   OH215052   7.337   5.653   2.160
 5038TIP3    H115053   7.316   5.584   2.093
 5038TIP3    H215054   7.260   5.713   2.151
 5039TIP3   OH215055   5.949   6.883   0.901
 5039TIP3    H115056   5.888   6.827   0.849
 5039TIP3    H215057   5.992   6.817   0.958
 5040TIP3   OH215058   6.106   6.721   1.065
 5040TIP3    H115059   6.085   6.651   1.130
 5040TIP3    H215060   6.146   6.786   1.125
 5041TIP3   OH215061   6.275   6.138   1.445
 5041TIP3    H115062   6.276   6.107   1.352
 5041TIP3    H215063   6.372   6.140   1.463
 5042TIP3   OH215064   7.887   6.454   1.557
 5042TIP3    H115065   7.978   6.428   1.575
 5042TIP3    H215066   7.897   6.525   1.492
 5043TIP3   OH215067   7.811   5.946   1.077
 5043TIP3    H115068   7.887   5.995   1.044
 5043TIP3    H215069   7.810   5.981   1.170
 5044TIP3   OH215070   7.852   6.079   1.307
 5044TIP3    H115071   7.785   6.119   1.367
 5044TIP3    H215072   7.916   6.153   1.300
 5045TIP3   OH215073   6.488   5.816   2.109
 5045TIP3    H115074   6.585   5.819   2.116
 5045TIP3    H215075   6.469   5.733   2.157
 5046TIP3   OH215076   6.456   5.514   1.448
 5046TIP3    H115077   6.518   5.439   1.460
 5046TIP3    H215078   6.517   5.589   1.443
 5047TIP3   OH215079   6.257   5.786   1.523
 5047TIP3    H115080   6.308   5.787   1.440
 5047TIP3    H215081   6.281   5.871   1.562
 5048TIP3   OH215082   6.241   5.297   1.034
 5048TIP3    H115083   6.146   5.287   1.052
 5048TIP3    H215084   6.241   5.351   0.952
 5049TIP3   OH215085   6.460   5.369   1.837
 5049TIP3    H115086   6.411   5.368   1.921
 5049TIP3    H215087   6.395   5.409   1.777
 5050TIP3   OH215088   6.504   6.813   1.909
 5050TIP3    H115089   6.420   6.772   1.882
 5050TIP3    H215090   6.514   6.765   1.994
 5051TIP3   OH215091   6.678   6.830   1.462
 5051TIP3    H115092   6.634   6.907   1.422
 5051TIP3    H215093   6.766   6.840   1.420
 5052TIP3   OH215094   7.135   7.095   1.599
 5052TIP3    H115095   7.166   7.084   1.692
 5052TIP3    H215096   7.219   7.121   1.557
 5053TIP3   OH215097   8.083   5.566   1.577
 5053TIP3    H115098   8.008   5.601   1.527
 5053TIP3    H215099   8.127   5.509   1.513
 5054TIP3   OH215100   6.353   7.096   1.480
 5054TIP3    H115101   6.262   7.131   1.468
 5054TIP3    H215102   6.366   7.115   1.574
 5055TIP3   OH215103   6.585   7.063   1.342
 5055TIP3    H115104   6.498   7.076   1.387
 5055TIP3    H215105   6.566   7.090   1.251
 5056TIP3   OH215106   7.004   7.077   1.154
 5056TIP3    H115107   6.948   7.113   1.084
 5056TIP3    H215108   7.029   7.156   1.206
 5057TIP3   OH215109   6.269   6.881   1.232
 5057TIP3    H115110   6.293   6.855   1.324
 5057TIP3    H215111   6.341   6.837   1.184
 5058TIP3   OH215112   6.464   6.752   1.088
 5058TIP3    H115113   6.477   6.670   1.142
 5058TIP3    H215114   6.555   6.789   1.090
 5059TIP3   OH215115   6.726   6.845   1.099
 5059TIP3    H115116   6.759   6.753   1.093
 5059TIP3    H215117   6.778   6.873   1.177
 5060TIP3   OH215118   7.296   5.496   1.166
 5060TIP3    H115119   7.257   5.433   1.230
 5060TIP3    H215120   7.378   5.450   1.138
 5061TIP3   OH215121   7.830   5.380   1.083
 5061TIP3    H115122   7.865   5.435   1.010
 5061TIP3    H215123   7.735   5.403   1.082
 5062TIP3   OH215124   6.302   3.846   9.033
 5062TIP3    H115125   6.371   3.803   8.981
 5062TIP3    H215126   6.318   3.940   9.018
 5063TIP3   OH215127   6.552   5.214   1.193
 5063TIP3    H115128   6.459   5.183   1.194
 5063TIP3    H215129   6.600   5.128   1.190
 5064TIP3   OH215130   6.353   5.081   0.853
 5064TIP3    H115131   6.379   5.136   0.776
 5064TIP3    H215132   6.313   5.147   0.912
 5065TIP3   OH215133   6.996   5.244   1.080
 5065TIP3    H115134   7.055   5.300   1.029
 5065TIP3    H215135   7.011   5.276   1.170
 5066TIP3   OH215136   7.545   5.390   1.057
 5066TIP3    H115137   7.549   5.343   0.973
 5066TIP3    H215138   7.531   5.314   1.119
 5067TIP3   OH215139   6.458   5.230   0.647
 5067TIP3    H115140   6.468   5.188   0.560
 5067TIP3    H215141   6.537   5.287   0.654
 5068TIP3   OH215142   6.941   5.395   0.769
 5068TIP3    H115143   7.017   5.351   0.809
 5068TIP3    H215144   6.971   5.487   0.776
 5069TIP3   OH215145   6.759   5.493   2.084
 5069TIP3    H115146   6.724   5.424   2.143
 5069TIP3    H215147   6.853   5.494   2.113
 5070TIP3   OH215148   7.008   5.492   2.205
 5070TIP3    H115149   7.093   5.468   2.164
 5070TIP3    H215150   6.997   5.421   2.271
 5071TIP3   OH215151   7.831   5.554   1.993
 5071TIP3    H115152   7.852   5.522   2.084
 5071TIP3    H215153   7.919   5.550   1.950
 5072TIP3   OH215154   0.507   6.555   2.882
 5072TIP3    H115155   0.534   6.638   2.927
 5072TIP3    H215156   0.527   6.577   2.789
 5073TIP3   OH215157  -0.061   6.461   2.498
 5073TIP3    H115158   0.004   6.472   2.570
 5073TIP3    H215159  -0.030   6.525   2.434
 5074TIP3   OH215160   0.573   6.763   3.055
 5074TIP3    H115161   0.490   6.812   3.040
 5074TIP3    H215162   0.600   6.799   3.142
 5075TIP3   OH215163   0.146   6.501   2.670
 5075TIP3    H115164   0.151   6.422   2.727
 5075TIP3    H215165   0.204   6.566   2.713
 5076TIP3   OH215166   0.304   6.462   3.050
 5076TIP3    H115167   0.222   6.503   3.020
 5076TIP3    H215168   0.368   6.487   2.980
 5077TIP3   OH215169   0.225   7.482   3.031
 5077TIP3    H115170   0.209   7.395   2.991
 5077TIP3    H215171   0.256   7.535   2.955
 5078TIP3   OH215172   0.431   7.101   2.871
 5078TIP3    H115173   0.349   7.154   2.881
 5078TIP3    H215174   0.459   7.129   2.781
 5079TIP3   OH215175   0.235   6.041   2.137
 5079TIP3    H115176   0.156   6.063   2.191
 5079TIP3    H215177   0.261   6.130   2.103
 5080TIP3   OH215178   0.377   6.944   3.354
 5080TIP3    H115179   0.297   6.971   3.308
 5080TIP3    H215180   0.376   6.847   3.341
 5081TIP3   OH215181   0.201   7.252   2.871
 5081TIP3    H115182   0.231   7.301   2.790
 5081TIP3    H215183   0.108   7.236   2.853
 5082TIP3   OH215184   0.477   7.505   3.127
 5082TIP3    H115185   0.380   7.514   3.109
 5082TIP3    H215186   0.509   7.492   3.035
 5083TIP3   OH215187   0.375   6.679   3.273
 5083TIP3    H115188   0.291   6.637   3.296
 5083TIP3    H215189   0.393   6.642   3.185
 5084TIP3   OH215190   0.045   6.851   2.646
 5084TIP3    H115191  -0.023   6.791   2.677
 5084TIP3    H215192   0.124   6.819   2.695
 5085TIP3   OH215193   0.304   6.597   3.697
 5085TIP3    H115194   0.296   6.500   3.689
 5085TIP3    H215195   0.208   6.620   3.700
 5086TIP3   OH215196   0.293   6.999   2.227
 5086TIP3    H115197   0.228   6.954   2.285
 5086TIP3    H215198   0.360   7.030   2.291
 5087TIP3   OH215199   0.326   7.379   2.669
 5087TIP3    H115200   0.394   7.327   2.623
 5087TIP3    H215201   0.331   7.467   2.627
 5088TIP3   OH215202   0.131   6.839   2.384
 5088TIP3    H115203   0.120   6.742   2.382
 5088TIP3    H215204   0.102   6.857   2.477
 5089TIP3   OH215205   0.385   7.268   3.246
 5089TIP3    H115206   0.461   7.207   3.239
 5089TIP3    H215207   0.411   7.342   3.189
 5090TIP3   OH215208   0.583   7.081   3.252
 5090TIP3    H115209   0.510   7.036   3.300
 5090TIP3    H215210   0.655   7.018   3.269
 5091TIP3   OH215211   0.130   6.567   2.304
 5091TIP3    H115212   0.139   6.478   2.345
 5091TIP3    H215213   0.171   6.547   2.219
 5092TIP3   OH215214   0.261   6.743   2.783
 5092TIP3    H115215   0.346   6.767   2.740
 5092TIP3    H215216   0.276   6.785   2.870
 5093TIP3   OH215217   0.319   6.887   3.011
 5093TIP3    H115218   0.235   6.918   3.052
 5093TIP3    H215219   0.354   6.970   2.971
 5094TIP3   OH215220   0.785   6.479   3.564
 5094TIP3    H115221   0.842   6.411   3.521
 5094TIP3    H215222   0.753   6.530   3.488
 5095TIP3   OH215223   0.218   6.304   2.318
 5095TIP3    H115224   0.259   6.294   2.406
 5095TIP3    H215225   0.147   6.237   2.323
 5096TIP3   OH215226   0.648   6.615   3.371
 5096TIP3    H115227   0.568   6.657   3.405
 5096TIP3    H215228   0.610   6.545   3.314
 5097TIP3   OH215229   0.337   6.252   1.993
 5097TIP3    H115230   0.355   6.188   1.921
 5097TIP3    H215231   0.359   6.338   1.952
 5098TIP3   OH215232   0.549   6.377   3.249
 5098TIP3    H115233   0.459   6.363   3.217
 5098TIP3    H215234   0.585   6.286   3.241
 5099TIP3   OH215235   0.298   6.170   2.771
 5099TIP3    H115236   0.332   6.222   2.696
 5099TIP3    H215237   0.202   6.189   2.765
 5100TIP3   OH215238   0.378   6.282   2.539
 5100TIP3    H115239   0.451   6.229   2.498
 5100TIP3    H215240   0.409   6.374   2.521
 5101TIP3   OH215241   0.036   6.211   2.737
 5101TIP3    H115242  -0.037   6.211   2.674
 5101TIP3    H215243   0.015   6.132   2.792
 5102TIP3   OH215244   0.030   6.099   2.311
 5102TIP3    H115245  -0.057   6.129   2.281
 5102TIP3    H215246   0.007   6.014   2.353
 5103TIP3   OH215247   0.289   6.326   3.680
 5103TIP3    H115248   0.303   6.302   3.775
 5103TIP3    H215249   0.379   6.321   3.644
 5104TIP3   OH215250   1.494   7.255   1.948
 5104TIP3    H115251   1.452   7.341   1.930
 5104TIP3    H215252   1.425   7.196   1.914
 5105TIP3   OH215253   1.493   7.264   2.320
 5105TIP3    H115254   1.524   7.241   2.410
 5105TIP3    H215255   1.449   7.181   2.293
 5106TIP3   OH215256   0.789   7.161   2.685
 5106TIP3    H115257   0.818   7.093   2.749
 5106TIP3    H215258   0.861   7.225   2.693
 5107TIP3   OH215259   1.712   7.569   2.008
 5107TIP3    H115260   1.708   7.496   2.073
 5107TIP3    H215261   1.761   7.636   2.057
 5108TIP3   OH215262   0.817   7.515   2.483
 5108TIP3    H115263   0.788   7.428   2.450
 5108TIP3    H215264   0.898   7.530   2.428
 5109TIP3   OH215265   0.455   6.754   2.185
 5109TIP3    H115266   0.419   6.845   2.181
 5109TIP3    H215267   0.410   6.720   2.264
 5110TIP3   OH215268   0.527   7.058   2.363
 5110TIP3    H115269   0.573   6.981   2.405
 5110TIP3    H215270   0.603   7.109   2.330
 5111TIP3   OH215271   1.303   7.483   2.364
 5111TIP3    H115272   1.351   7.406   2.328
 5111TIP3    H215273   1.381   7.536   2.392
 5112TIP3   OH215274   2.301   6.811   2.368
 5112TIP3    H115275   2.331   6.893   2.412
 5112TIP3    H215276   2.324   6.829   2.275
 5113TIP3   OH215277   1.703   6.993   2.402
 5113TIP3    H115278   1.745   6.907   2.422
 5113TIP3    H215279   1.670   6.977   2.311
 5114TIP3   OH215280   1.041   6.652   2.367
 5114TIP3    H115281   1.019   6.725   2.305
 5114TIP3    H215282   0.993   6.579   2.324
 5115TIP3   OH215283   1.734   6.743   1.988
 5115TIP3    H115284   1.805   6.728   2.055
 5115TIP3    H215285   1.788   6.779   1.915
 5116TIP3   OH215286   0.673   6.854   2.474
 5116TIP3    H115287   0.754   6.837   2.525
 5116TIP3    H215288   0.691   6.798   2.395
 5117TIP3   OH215289   1.114   7.054   2.266
 5117TIP3    H115290   1.208   7.028   2.281
 5117TIP3    H215291   1.074   6.969   2.238
 5118TIP3   OH215292   2.375   7.018   2.542
 5118TIP3    H115293   2.291   7.066   2.523
 5118TIP3    H215294   2.401   7.060   2.626
 5119TIP3   OH215295   1.036   6.636   2.802
 5119TIP3    H115296   0.975   6.674   2.736
 5119TIP3    H215297   0.985   6.652   2.884
 5120TIP3   OH215298   1.363   7.464   1.826
 5120TIP3    H115299   1.346   7.444   1.732
 5120TIP3    H215300   1.397   7.555   1.822
 5121TIP3   OH215301   1.138   7.415   2.597
 5121TIP3    H115302   1.075   7.480   2.634
 5121TIP3    H215303   1.176   7.466   2.523
 5122TIP3   OH215304   1.942   6.748   2.162
 5122TIP3    H115305   1.933   6.697   2.244
 5122TIP3    H215306   1.995   6.824   2.191
 5123TIP3   OH215307   0.907   6.752   2.586
 5123TIP3    H115308   0.968   6.825   2.611
 5123TIP3    H215309   0.957   6.711   2.512
 5124TIP3   OH215310   0.970   7.627   2.699
 5124TIP3    H115311   0.923   7.625   2.614
 5124TIP3    H215312   0.893   7.621   2.760
 5125TIP3   OH215313   2.094   6.713   2.535
 5125TIP3    H115314   2.006   6.739   2.501
 5125TIP3    H215315   2.154   6.745   2.464
 5126TIP3   OH215316   1.391   6.354   2.517
 5126TIP3    H115317   1.376   6.259   2.535
 5126TIP3    H215318   1.314   6.393   2.564
 5127TIP3   OH215319   1.737   7.576   1.729
 5127TIP3    H115320   1.693   7.497   1.692
 5127TIP3    H215321   1.747   7.552   1.824
 5128TIP3   OH215322   2.019   7.725   2.517
 5128TIP3    H115323   2.011   7.646   2.459
 5128TIP3    H215324   2.046   7.794   2.453
 5129TIP3   OH215325   1.335   7.109   1.775
 5129TIP3    H115326   1.258   7.169   1.766
 5129TIP3    H215327   1.374   7.115   1.686
 5130TIP3   OH215328   1.302   6.892   1.507
 5130TIP3    H115329   1.369   6.950   1.549
 5130TIP3    H215330   1.361   6.834   1.455
 5131TIP3   OH215331   2.228   7.360   2.359
 5131TIP3    H115332   2.144   7.411   2.368
 5131TIP3    H215333   2.255   7.388   2.269
 5132TIP3   OH215334   1.672   7.196   1.749
 5132TIP3    H115335   1.615   7.217   1.827
 5132TIP3    H215336   1.755   7.170   1.794
 5133TIP3   OH215337   1.903   7.238   2.656
 5133TIP3    H115338   1.902   7.321   2.707
 5133TIP3    H215339   1.815   7.244   2.612
 5134TIP3   OH215340   0.908   7.198   2.151
 5134TIP3    H115341   0.863   7.134   2.093
 5134TIP3    H215342   0.984   7.145   2.186
 5135TIP3   OH215343   1.040   7.568   2.347
 5135TIP3    H115344   1.026   7.538   2.257
 5135TIP3    H215345   1.137   7.581   2.349
 5136TIP3   OH215346   1.037   7.172   2.511
 5136TIP3    H115347   1.074   7.151   2.423
 5136TIP3    H215348   1.079   7.258   2.533
 5137TIP3   OH215349   1.215   7.626   2.837
 5137TIP3    H115350   1.184   7.714   2.864
 5137TIP3    H215351   1.137   7.598   2.785
 5138TIP3   OH215352   1.517   7.053   1.570
 5138TIP3    H115353   1.571   7.118   1.621
 5138TIP3    H215354   1.542   7.076   1.477
 5139TIP3   OH215355   0.930   7.282   2.936
 5139TIP3    H115356   0.937   7.368   2.981
 5139TIP3    H215357   0.836   7.260   2.956
 5140TIP3   OH215358   2.025   6.299   1.618
 5140TIP3    H115359   1.944   6.319   1.668
 5140TIP3    H215360   2.038   6.382   1.568
 5141TIP3   OH215361   0.758   7.036   1.966
 5141TIP3    H115362   0.703   7.084   1.903
 5141TIP3    H215363   0.718   6.948   1.965
 5142TIP3   OH215364   0.564   7.424   2.881
 5142TIP3    H115365   0.495   7.404   2.816
 5142TIP3    H215366   0.598   7.336   2.906
 5143TIP3   OH215367   2.164   7.191   2.845
 5143TIP3    H115368   2.082   7.223   2.802
 5143TIP3    H215369   2.169   7.099   2.812
 5144TIP3   OH215370   0.757   7.622   2.870
 5144TIP3    H115371   0.808   7.589   2.947
 5144TIP3    H215372   0.682   7.558   2.869
 5145TIP3   OH215373   1.153   6.432   2.645
 5145TIP3    H115374   1.064   6.400   2.618
 5145TIP3    H215375   1.127   6.512   2.694
 5146TIP3   OH215376   1.686   6.548   2.842
 5146TIP3    H115377   1.751   6.513   2.906
 5146TIP3    H215378   1.600   6.527   2.884
 5147TIP3   OH215379   1.923   6.976   2.764
 5147TIP3    H115380   1.872   6.976   2.848
 5147TIP3    H215381   1.901   7.063   2.725
 5148TIP3   OH215382   1.590   7.089   1.315
 5148TIP3    H115383   1.557   7.070   1.225
 5148TIP3    H215384   1.640   7.170   1.300
 5149TIP3   OH215385   1.291   6.487   1.611
 5149TIP3    H115386   1.266   6.481   1.706
 5149TIP3    H215387   1.258   6.399   1.581
 5150TIP3   OH215388   1.084   6.949   2.662
 5150TIP3    H115389   1.035   6.970   2.744
 5150TIP3    H215390   1.066   7.031   2.610
 5151TIP3   OH215391   0.967   6.835   2.180
 5151TIP3    H115392   0.874   6.809   2.196
 5151TIP3    H215393   0.981   6.797   2.091
 5152TIP3   OH215394   1.464   6.912   1.909
 5152TIP3    H115395   1.412   6.983   1.864
 5152TIP3    H215396   1.519   6.880   1.835
 5153TIP3   OH215397   1.636   7.191   2.983
 5153TIP3    H115398   1.611   7.127   3.054
 5153TIP3    H215399   1.724   7.219   3.013
 5154TIP3   OH215400   1.618   6.946   2.145
 5154TIP3    H115401   1.555   6.975   2.075
 5154TIP3    H215402   1.651   6.865   2.101
 5155TIP3   OH215403   0.904   6.974   2.871
 5155TIP3    H115404   0.926   7.041   2.939
 5155TIP3    H215405   0.893   6.894   2.925
 5156TIP3   OH215406   0.938   6.436   1.572
 5156TIP3    H115407   0.952   6.443   1.669
 5156TIP3    H215408   0.855   6.485   1.566
 5157TIP3   OH215409   0.494   6.512   2.449
 5157TIP3    H115410   0.575   6.530   2.502
 5157TIP3    H215411   0.528   6.468   2.369
 5158TIP3   OH215412   0.458   6.505   1.947
 5158TIP3    H115413   0.545   6.515   1.905
 5158TIP3    H215414   0.457   6.579   2.011
 5159TIP3   OH215415   1.627   7.193   2.565
 5159TIP3    H115416   1.660   7.120   2.507
 5159TIP3    H215417   1.595   7.141   2.642
 5160TIP3   OH215418   1.297   6.656   2.239
 5160TIP3    H115419   1.215   6.654   2.292
 5160TIP3    H215420   1.365   6.652   2.309
 5161TIP3   OH215421   0.728   6.710   2.244
 5161TIP3    H115422   0.635   6.710   2.210
 5161TIP3    H215423   0.756   6.618   2.229
 5162TIP3   OH215424   1.006   6.714   1.939
 5162TIP3    H115425   1.103   6.722   1.925
 5162TIP3    H215426   0.971   6.715   1.847
 5163TIP3   OH215427   1.789   6.730   2.442
 5163TIP3    H115428   1.753   6.743   2.533
 5163TIP3    H215429   1.722   6.669   2.405
 5164TIP3   OH215430   0.872   6.693   1.706
 5164TIP3    H115431   0.777   6.707   1.720
 5164TIP3    H215432   0.890   6.755   1.632
 5165TIP3   OH215433   0.920   7.528   3.078
 5165TIP3    H115434   0.999   7.556   3.130
 5165TIP3    H215435   0.855   7.516   3.150
 5166TIP3   OH215436   1.377   6.984   2.337
 5166TIP3    H115437   1.451   6.943   2.289
 5166TIP3    H215438   1.383   6.942   2.425
 5167TIP3   OH215439   0.898   6.471   2.216
 5167TIP3    H115440   0.862   6.394   2.265
 5167TIP3    H215441   0.948   6.428   2.146
 5168TIP3   OH215442   1.354   6.882   2.625
 5168TIP3    H115443   1.264   6.918   2.639
 5168TIP3    H215444   1.410   6.944   2.676
 5169TIP3   OH215445   1.120   7.269   1.749
 5169TIP3    H115446   1.055   7.195   1.755
 5169TIP3    H215447   1.095   7.321   1.830
 5170TIP3   OH215448   1.994   7.501   2.353
 5170TIP3    H115449   2.019   7.552   2.272
 5170TIP3    H215450   1.908   7.462   2.327
 5171TIP3   OH215451   1.546   6.586   1.579
 5171TIP3    H115452   1.450   6.569   1.591
 5171TIP3    H215453   1.558   6.678   1.610
 5172TIP3   OH215454   1.504   7.609   2.719
 5172TIP3    H115455   1.532   7.560   2.797
 5172TIP3    H215456   1.425   7.654   2.753
 5173TIP3   OH215457   1.621   6.828   1.689
 5173TIP3    H115458   1.717   6.835   1.705
 5173TIP3    H215459   1.602   6.910   1.639
 5174TIP3   OH215460   0.763   7.246   2.387
 5174TIP3    H115461   0.820   7.240   2.308
 5174TIP3    H215462   0.819   7.209   2.457
 5175TIP3   OH215463   1.298   7.386   1.567
 5175TIP3    H115464   1.241   7.447   1.515
 5175TIP3    H215465   1.228   7.338   1.617
 5176TIP3   OH215466   0.670   7.204   3.010
 5176TIP3    H115467   0.685   7.193   3.107
 5176TIP3    H215468   0.597   7.142   2.997
 5177TIP3   OH215469   1.395   7.315   3.035
 5177TIP3    H115470   1.332   7.264   2.983
 5177TIP3    H215471   1.481   7.285   2.998
 5178TIP3   OH215472   2.061   6.921   1.525
 5178TIP3    H115473   2.000   6.877   1.462
 5178TIP3    H215474   2.059   7.010   1.484
 5179TIP3   OH215475   2.278   7.753   2.608
 5179TIP3    H115476   2.182   7.773   2.598
 5179TIP3    H215477   2.303   7.749   2.513
 5180TIP3   OH215478   1.757   7.374   2.257
 5180TIP3    H115479   1.665   7.348   2.279
 5180TIP3    H215480   1.790   7.290   2.219
 5181TIP3   OH215481   1.026   7.382   1.980
 5181TIP3    H115482   0.994   7.464   2.020
 5181TIP3    H215483   0.993   7.316   2.045
 5182TIP3   OH215484   1.544   7.570   2.448
 5182TIP3    H115485   1.533   7.584   2.544
 5182TIP3    H215486   1.632   7.531   2.443
 5183TIP3   OH215487   1.516   7.410   1.333
 5183TIP3    H115488   1.570   7.403   1.415
 5183TIP3    H215489   1.427   7.403   1.373
 5184TIP3   OH215490   0.877   6.716   3.017
 5184TIP3    H115491   0.781   6.721   3.034
 5184TIP3    H215492   0.906   6.660   3.091
 5185TIP3   OH215493   1.680   7.372   1.545
 5185TIP3    H115494   1.676   7.303   1.615
 5185TIP3    H215495   1.778   7.380   1.532
 5186TIP3   OH215496   1.714   6.783   2.701
 5186TIP3    H115497   1.795   6.820   2.738
 5186TIP3    H215498   1.699   6.703   2.755
 5187TIP3   OH215499   1.594   6.534   1.865
 5187TIP3    H115500   1.582   6.559   1.772
 5187TIP3    H215501   1.634   6.615   1.903
 5188TIP3   OH215502   1.283   6.714   1.969
 5188TIP3    H115503   1.348   6.785   1.952
 5188TIP3    H215504   1.289   6.706   2.067
 5189TIP3   OH215505   1.550   7.032   2.770
 5189TIP3    H115506   1.574   7.086   2.849
 5189TIP3    H215507   1.603   6.952   2.782
 5190TIP3   OH215508   1.427   6.440   2.070
 5190TIP3    H115509   1.421   6.517   2.130
 5190TIP3    H215510   1.488   6.474   2.001
 5191TIP3   OH215511   0.952   6.439   1.854
 5191TIP3    H115512   0.944   6.530   1.887
 5191TIP3    H215513   1.049   6.426   1.865
 5192TIP3   OH215514   2.190   6.928   2.760
 5192TIP3    H115515   2.092   6.927   2.761
 5192TIP3    H215516   2.207   6.891   2.672
 5193TIP3   OH215517   1.843   7.126   2.144
 5193TIP3    H115518   1.767   7.067   2.157
 5193TIP3    H215519   1.914   7.079   2.193
 5194TIP3   OH215520   0.889   6.351   2.619
 5194TIP3    H115521   0.858   6.316   2.533
 5194TIP3    H215522   0.879   6.273   2.678
 5195TIP3   OH215523   0.716   7.494   3.256
 5195TIP3    H115524   0.736   7.399   3.268
 5195TIP3    H215525   0.625   7.490   3.221
 5196TIP3   OH215526   1.339   7.580   3.074
 5196TIP3    H115527   1.304   7.594   2.984
 5196TIP3    H215528   1.372   7.488   3.067
 5197TIP3   OH215529   1.811   7.601   2.649
 5197TIP3    H115530   1.879   7.658   2.608
 5197TIP3    H215531   1.735   7.661   2.650
 5198TIP3   OH215532   0.841   7.245   3.256
 5198TIP3    H115533   0.917   7.188   3.240
 5198TIP3    H215534   0.864   7.282   3.344
 5199TIP3   OH215535   0.942   7.067   1.739
 5199TIP3    H115536   0.894   7.025   1.812
 5199TIP3    H215537   0.943   6.996   1.672
 5200TIP3   OH215538   1.169   7.135   2.915
 5200TIP3    H115539   1.091   7.195   2.918
 5200TIP3    H215540   1.218   7.171   2.838
 5201TIP3   OH215541   1.025   6.857   1.512
 5201TIP3    H115542   1.042   6.809   1.430
 5201TIP3    H215543   1.117   6.885   1.532
 5202TIP3   OH215544   1.687   7.524   3.047
 5202TIP3    H115545   1.776   7.514   3.012
 5202TIP3    H215546   1.688   7.466   3.126
 5203TIP3   OH215547   1.840   7.205   1.181
 5203TIP3    H115548   1.805   7.160   1.102
 5203TIP3    H215549   1.800   7.294   1.173
 5204TIP3   OH215550   1.295   6.926   3.039
 5204TIP3    H115551   1.291   6.846   2.983
 5204TIP3    H215552   1.249   6.993   2.983
 5205TIP3   OH215553   1.295   6.711   2.849
 5205TIP3    H115554   1.321   6.753   2.764
 5205TIP3    H215555   1.201   6.688   2.831
 5206TIP3   OH215556   1.318   7.248   2.721
 5206TIP3    H115557   1.401   7.260   2.674
 5206TIP3    H215558   1.261   7.317   2.679
 5207TIP3   OH215559   1.897   7.225   3.096
 5207TIP3    H115560   1.953   7.147   3.095
 5207TIP3    H215561   1.961   7.297   3.081
 5208TIP3   OH215562   1.945   7.459   2.835
 5208TIP3    H115563   1.885   7.513   2.778
 5208TIP3    H215564   2.032   7.486   2.795
 5209TIP3   OH215565   1.172   7.034   3.273
 5209TIP3    H115566   1.102   6.967   3.289
 5209TIP3    H215567   1.204   7.008   3.184
 5210TIP3   OH215568   1.427   6.474   2.915
 5210TIP3    H115569   1.376   6.555   2.894
 5210TIP3    H215570   1.358   6.405   2.906
 5211TIP3   OH215571   1.552   6.977   3.131
 5211TIP3    H115572   1.535   6.965   3.226
 5211TIP3    H215573   1.463   6.955   3.097
 5212TIP3   OH215574   1.789   6.923   2.999
 5212TIP3    H115575   1.704   6.947   3.041
 5212TIP3    H215576   1.824   6.864   3.067
 5213TIP3   OH215577   1.009   6.815   3.325
 5213TIP3    H115578   1.013   6.723   3.295
 5213TIP3    H215579   1.044   6.806   3.416
 5214TIP3   OH215580   1.523   6.486   3.173
 5214TIP3    H115581   1.586   6.411   3.168
 5214TIP3    H215582   1.481   6.479   3.085
 5215TIP3   OH215583   1.588   6.699   3.332
 5215TIP3    H115584   1.563   6.629   3.268
 5215TIP3    H215585   1.510   6.759   3.327
 5216TIP3   OH215586   2.167   7.885   2.887
 5216TIP3    H115587   2.094   7.869   2.950
 5216TIP3    H215588   2.206   7.966   2.922
 5217TIP3   OH215589   1.953   7.376   1.530
 5217TIP3    H115590   2.025   7.436   1.501
 5217TIP3    H215591   1.995   7.337   1.610
 5218TIP3   OH215592   2.083   7.248   1.731
 5218TIP3    H115593   2.018   7.205   1.791
 5218TIP3    H215594   2.149   7.284   1.793
 5219TIP3   OH215595   2.122   7.638   2.157
 5219TIP3    H115596   2.188   7.586   2.108
 5219TIP3    H215597   2.124   7.724   2.113
 5220TIP3   OH215598   2.026   7.157   1.377
 5220TIP3    H115599   1.957   7.160   1.307
 5220TIP3    H215600   1.995   7.232   1.433
 5221TIP3   OH215601   1.895   6.832   1.330
 5221TIP3    H115602   1.848   6.869   1.255
 5221TIP3    H215603   1.871   6.737   1.321
 5222TIP3   OH215604   1.899   7.106   1.877
 5222TIP3    H115605   1.907   7.010   1.869
 5222TIP3    H215606   1.885   7.118   1.974
 5223TIP3   OH215607   0.525   7.188   2.620
 5223TIP3    H115608   0.524   7.155   2.528
 5223TIP3    H215609   0.622   7.187   2.639
 5224TIP3   OH215610   2.184   7.526   2.731
 5224TIP3    H115611   2.261   7.465   2.722
 5224TIP3    H215612   2.212   7.602   2.676
 5225TIP3   OH215613   2.373   7.334   2.743
 5225TIP3    H115614   2.301   7.286   2.790
 5225TIP3    H215615   2.448   7.273   2.760
 5226TIP3   OH215616   1.836   6.566   1.316
 5226TIP3    H115617   1.912   6.535   1.368
 5226TIP3    H215618   1.765   6.504   1.339
 5227TIP3   OH215619   1.896   6.824   1.769
 5227TIP3    H115620   1.935   6.735   1.785
 5227TIP3    H215621   1.954   6.856   1.698
 5228TIP3   OH215622   2.056   6.997   2.266
 5228TIP3    H115623   2.142   7.022   2.226
 5228TIP3    H215624   2.070   7.034   2.355
 5229TIP3   OH215625   2.126   7.142   2.499
 5229TIP3    H115626   2.047   7.177   2.546
 5229TIP3    H215627   2.159   7.223   2.453
 5230TIP3   OH215628   0.742   6.863   3.288
 5230TIP3    H115629   0.840   6.860   3.297
 5230TIP3    H215630   0.717   6.781   3.334
 5231TIP3   OH215631   2.567   6.726   3.051
 5231TIP3    H115632   2.633   6.665   3.012
 5231TIP3    H215633   2.546   6.786   2.976
 5232TIP3   OH215634   2.003   6.574   1.807
 5232TIP3    H115635   2.052   6.558   1.891
 5232TIP3    H215636   1.943   6.497   1.806
 5233TIP3   OH215637   0.704   6.557   2.624
 5233TIP3    H115638   0.766   6.483   2.636
 5233TIP3    H215639   0.766   6.633   2.620
 5234TIP3   OH215640   0.506   6.831   2.700
 5234TIP3    H115641   0.557   6.829   2.616
 5234TIP3    H215642   0.534   6.915   2.738
 5235TIP3   OH215643   2.443   6.871   2.851
 5235TIP3    H115644   2.351   6.904   2.846
 5235TIP3    H215645   2.434   6.790   2.797
 5236TIP3   OH215646   2.083   6.508   1.439
 5236TIP3    H115647   2.122   6.435   1.386
 5236TIP3    H215648   2.152   6.577   1.434
 5237TIP3   OH215649   0.485   6.370   2.207
 5237TIP3    H115650   0.399   6.334   2.234
 5237TIP3    H215651   0.469   6.385   2.112
 5238TIP3   OH215652   0.710   6.415   3.014
 5238TIP3    H115653   0.660   6.412   3.097
 5238TIP3    H215654   0.643   6.454   2.954
 5239TIP3   OH215655   2.347   6.630   2.737
 5239TIP3    H115656   2.257   6.620   2.701
 5239TIP3    H215657   2.381   6.538   2.726
 5240TIP3   OH215658   1.551   6.549   2.356
 5240TIP3    H115659   1.508   6.479   2.408
 5240TIP3    H215660   1.624   6.501   2.313
 5241TIP3   OH215661   2.074   6.432   2.262
 5241TIP3    H115662   2.110   6.483   2.186
 5241TIP3    H215663   1.978   6.448   2.253
 5242TIP3   OH215664   2.169   6.531   2.024
 5242TIP3    H115665   2.242   6.479   1.985
 5242TIP3    H215666   2.202   6.622   2.009
 5243TIP3   OH215667   0.800   6.259   2.371
 5243TIP3    H115668   0.708   6.225   2.373
 5243TIP3    H215669   0.849   6.174   2.367
 5244TIP3   OH215670   0.606   6.112   2.037
 5244TIP3    H115671   0.650   6.166   1.967
 5244TIP3    H215672   0.551   6.179   2.081
 5245TIP3   OH215673   1.244   6.291   2.252
 5245TIP3    H115674   1.303   6.340   2.193
 5245TIP3    H215675   1.266   6.328   2.338
 5246TIP3   OH215676   1.791   6.438   2.235
 5246TIP3    H115677   1.790   6.397   2.147
 5246TIP3    H215678   1.778   6.359   2.293
 5247TIP3   OH215679   1.820   6.361   1.799
 5247TIP3    H115680   1.733   6.402   1.813
 5247TIP3    H215681   1.807   6.275   1.845
 5248TIP3   OH215682   0.735   6.263   1.853
 5248TIP3    H115683   0.740   6.224   1.764
 5248TIP3    H215684   0.812   6.323   1.852
 5249TIP3   OH215685   1.224   6.465   1.878
 5249TIP3    H115686   1.278   6.415   1.941
 5249TIP3    H215687   1.247   6.556   1.907
 5250TIP3   OH215688   1.008   6.540   3.263
 5250TIP3    H115689   0.971   6.470   3.319
 5250TIP3    H215690   1.102   6.539   3.292
 5251TIP3   OH215691   1.258   6.536   3.382
 5251TIP3    H115692   1.342   6.507   3.344
 5251TIP3    H215693   1.242   6.467   3.450
 5252TIP3   OH215694   2.115   6.657   3.203
 5252TIP3    H115695   2.112   6.567   3.242
 5252TIP3    H215696   2.182   6.644   3.132
 5253TIP3   OH215697   3.278   7.514   1.444
 5253TIP3    H115698   3.245   7.597   1.405
 5253TIP3    H215699   3.221   7.451   1.395
 5254TIP3   OH215700   3.240   7.525   1.814
 5254TIP3    H115701   3.287   7.511   1.898
 5254TIP3    H215702   3.238   7.434   1.781
 5255TIP3   OH215703   2.586   7.415   2.171
 5255TIP3    H115704   2.611   7.345   2.234
 5255TIP3    H215705   2.651   7.483   2.193
 5256TIP3   OH215706   3.503   7.828   1.506
 5256TIP3    H115707   3.511   7.749   1.563
 5256TIP3    H215708   3.577   7.882   1.536
 5257TIP3   OH215709   2.639   7.772   1.952
 5257TIP3    H115710   2.593   7.686   1.953
 5257TIP3    H215711   2.667   7.776   1.859
 5258TIP3   OH215712   2.266   7.031   1.682
 5258TIP3    H115713   2.216   7.113   1.699
 5258TIP3    H215714   2.196   6.975   1.644
 5259TIP3   OH215715   2.317   7.315   1.859
 5259TIP3    H115716   2.366   7.237   1.894
 5259TIP3    H215717   2.380   7.351   1.795
 5260TIP3   OH215718   4.096   7.069   1.853
 5260TIP3    H115719   4.128   7.151   1.898
 5260TIP3    H215720   4.124   7.085   1.762
 5261TIP3   OH215721   3.496   7.255   1.886
 5261TIP3    H115722   3.539   7.172   1.913
 5261TIP3    H215723   3.467   7.231   1.796
 5262TIP3   OH215724   2.835   6.912   1.852
 5262TIP3    H115725   2.814   6.983   1.788
 5262TIP3    H215726   2.789   6.836   1.810
 5263TIP3   OH215727   3.530   7.003   1.475
 5263TIP3    H115728   3.601   6.986   1.541
 5263TIP3    H215729   3.585   7.035   1.401
 5264TIP3   OH215730   2.470   7.112   1.960
 5264TIP3    H115731   2.551   7.090   2.010
 5264TIP3    H215732   2.482   7.055   1.882
 5265TIP3   OH215733   2.922   7.317   1.751
 5265TIP3    H115734   3.012   7.284   1.772
 5265TIP3    H215735   2.877   7.233   1.727
 5266TIP3   OH215736   4.174   7.276   2.023
 5266TIP3    H115737   4.089   7.323   2.006
 5266TIP3    H215738   4.189   7.301   2.115
 5267TIP3   OH215739   2.833   6.893   2.288
 5267TIP3    H115740   2.770   6.928   2.222
 5267TIP3    H215741   2.782   6.908   2.370
 5268TIP3   OH215742   3.160   7.713   1.303
 5268TIP3    H115743   3.129   7.702   1.212
 5268TIP3    H215744   3.187   7.806   1.305
 5269TIP3   OH215745   2.942   7.688   2.062
 5269TIP3    H115746   2.853   7.711   2.095
 5269TIP3    H215747   2.987   7.771   2.084
 5270TIP3   OH215748   3.737   7.005   1.649
 5270TIP3    H115749   3.734   6.951   1.729
 5270TIP3    H215750   3.794   7.079   1.677
 5271TIP3   OH215751   2.702   7.008   2.073
 5271TIP3    H115752   2.765   7.078   2.098
 5271TIP3    H215753   2.752   6.966   1.998
 5272TIP3   OH215754   2.764   7.881   2.189
 5272TIP3    H115755   2.716   7.886   2.103
 5272TIP3    H215756   2.687   7.878   2.251
 5273TIP3   OH215757   2.168   7.518   1.432
 5273TIP3    H115758   2.129   7.542   1.345
 5273TIP3    H215759   2.182   7.608   1.465
 5274TIP3   OH215760   3.891   6.970   2.020
 5274TIP3    H115761   3.804   7.000   1.989
 5274TIP3    H215762   3.952   7.002   1.950
 5275TIP3   OH215763   3.185   6.610   2.001
 5275TIP3    H115764   3.176   6.515   2.023
 5275TIP3    H215765   3.108   6.647   2.050
 5276TIP3   OH215766   3.533   7.839   1.222
 5276TIP3    H115767   3.508   7.759   1.170
 5276TIP3    H215768   3.544   7.804   1.312
 5277TIP3   OH215769   3.796   7.994   1.997
 5277TIP3    H115770   3.801   7.910   1.946
 5277TIP3    H215771   3.846   8.054   1.938
 5278TIP3   OH215772   3.125   7.376   1.262
 5278TIP3    H115773   3.042   7.419   1.234
 5278TIP3    H215774   3.171   7.364   1.177
 5279TIP3   OH215775   3.078   7.156   0.979
 5279TIP3    H115776   3.148   7.211   1.019
 5279TIP3    H215777   3.132   7.092   0.930
 5280TIP3   OH215778   4.015   7.612   1.835
 5280TIP3    H115779   3.941   7.673   1.852
 5280TIP3    H215780   4.050   7.647   1.751
 5281TIP3   OH215781   3.465   7.452   1.241
 5281TIP3    H115782   3.414   7.470   1.322
 5281TIP3    H215783   3.550   7.422   1.279
 5282TIP3   OH215784   3.700   7.495   2.145
 5282TIP3    H115785   3.700   7.573   2.203
 5282TIP3    H215786   3.614   7.505   2.100
 5283TIP3   OH215787   2.705   7.448   1.636
 5283TIP3    H115788   2.650   7.395   1.574
 5283TIP3    H215789   2.768   7.380   1.668
 5284TIP3   OH215790   2.835   7.429   1.996
 5284TIP3    H115791   2.875   7.392   1.916
 5284TIP3    H215792   2.885   7.510   2.014
 5285TIP3   OH215793   3.009   7.880   2.313
 5285TIP3    H115794   2.991   7.972   2.341
 5285TIP3    H215795   2.922   7.860   2.274
 5286TIP3   OH215796   3.299   7.318   1.059
 5286TIP3    H115797   3.364   7.374   1.107
 5286TIP3    H215798   3.329   7.333   0.966
 5287TIP3   OH215799   2.724   7.544   2.416
 5287TIP3    H115800   2.733   7.628   2.465
 5287TIP3    H215801   2.632   7.519   2.440
 5288TIP3   OH215802   3.822   6.556   1.105
 5288TIP3    H115803   3.741   6.577   1.155
 5288TIP3    H215804   3.836   6.638   1.054
 5289TIP3   OH215805   2.560   7.301   1.459
 5289TIP3    H115806   2.495   7.338   1.396
 5289TIP3    H215807   2.528   7.210   1.468
 5290TIP3   OH215808   2.362   7.679   2.357
 5290TIP3    H115809   2.285   7.662   2.300
 5290TIP3    H215810   2.389   7.589   2.386
 5291TIP3   OH215811   3.955   7.455   2.320
 5291TIP3    H115812   3.871   7.462   2.272
 5291TIP3    H215813   3.973   7.359   2.313
 5292TIP3   OH215814   2.555   7.872   2.360
 5292TIP3    H115815   2.603   7.839   2.439
 5292TIP3    H215816   2.479   7.810   2.356
 5293TIP3   OH215817   2.948   6.689   2.131
 5293TIP3    H115818   2.860   6.657   2.104
 5293TIP3    H215819   2.921   6.768   2.182
 5294TIP3   OH215820   3.484   6.803   2.327
 5294TIP3    H115821   3.554   6.774   2.389
 5294TIP3    H215822   3.402   6.781   2.375
 5295TIP3   OH215823   3.719   7.230   2.244
 5295TIP3    H115824   3.672   7.226   2.330
 5295TIP3    H215825   3.697   7.320   2.212
 5296TIP3   OH215826   3.388   7.350   0.811
 5296TIP3    H115827   3.344   7.331   0.725
 5296TIP3    H215828   3.456   7.414   0.783
 5297TIP3   OH215829   3.094   6.737   1.104
 5297TIP3    H115830   3.060   6.732   1.195
 5297TIP3    H215831   3.056   6.654   1.068
 5298TIP3   OH215832   2.878   7.206   2.151
 5298TIP3    H115833   2.830   7.222   2.235
 5298TIP3    H215834   2.858   7.288   2.103
 5299TIP3   OH215835   2.763   7.101   1.666
 5299TIP3    H115836   2.672   7.068   1.685
 5299TIP3    H215837   2.778   7.058   1.579
 5300TIP3   OH215838   3.259   7.176   1.394
 5300TIP3    H115839   3.206   7.242   1.346
 5300TIP3    H215840   3.315   7.140   1.322
 5301TIP3   OH215841   3.432   7.450   2.475
 5301TIP3    H115842   3.411   7.379   2.539
 5301TIP3    H215843   3.524   7.469   2.500
 5302TIP3   OH215844   3.412   7.204   1.628
 5302TIP3    H115845   3.350   7.223   1.554
 5302TIP3    H215846   3.452   7.122   1.590
 5303TIP3   OH215847   2.700   7.230   2.360
 5303TIP3    H115848   2.724   7.293   2.429
 5303TIP3    H215849   2.689   7.147   2.411
 5304TIP3   OH215850   2.751   6.711   1.068
 5304TIP3    H115851   2.741   6.708   1.165
 5304TIP3    H215852   2.670   6.761   1.043
 5305TIP3   OH215853   2.292   6.755   1.939
 5305TIP3    H115854   2.369   6.784   1.993
 5305TIP3    H215855   2.333   6.719   1.859
 5306TIP3   OH215856   2.264   6.734   1.460
 5306TIP3    H115857   2.310   6.771   1.382
 5306TIP3    H215858   2.203   6.807   1.479
 5307TIP3   OH215859   3.409   7.455   2.045
 5307TIP3    H115860   3.448   7.383   1.989
 5307TIP3    H215861   3.391   7.402   2.126
 5308TIP3   OH215862   3.094   6.923   1.728
 5308TIP3    H115863   3.014   6.912   1.782
 5308TIP3    H215864   3.165   6.901   1.791
 5309TIP3   OH215865   2.529   6.969   1.732
 5309TIP3    H115866   2.434   6.976   1.705
 5309TIP3    H215867   2.551   6.876   1.711
 5310TIP3   OH215868   2.793   6.971   1.425
 5310TIP3    H115869   2.888   6.976   1.403
 5310TIP3    H215870   2.748   6.986   1.339
 5311TIP3   OH215871   3.582   6.993   1.929
 5311TIP3    H115872   3.548   7.001   2.022
 5311TIP3    H215873   3.522   6.926   1.893
 5312TIP3   OH215874   2.637   7.002   1.201
 5312TIP3    H115875   2.567   6.954   1.155
 5312TIP3    H215876   2.690   7.034   1.125
 5313TIP3   OH215877   2.719   7.782   2.568
 5313TIP3    H115878   2.796   7.812   2.621
 5313TIP3    H215879   2.652   7.773   2.639
 5314TIP3   OH215880   3.174   7.241   1.824
 5314TIP3    H115881   3.243   7.192   1.776
 5314TIP3    H215882   3.178   7.198   1.912
 5315TIP3   OH215883   2.698   6.727   1.703
 5315TIP3    H115884   2.662   6.650   1.752
 5315TIP3    H215885   2.749   6.684   1.633
 5316TIP3   OH215886   3.151   7.146   2.102
 5316TIP3    H115887   3.061   7.175   2.127
 5316TIP3    H215888   3.209   7.197   2.161
 5317TIP3   OH215889   2.888   7.512   1.213
 5317TIP3    H115890   2.814   7.449   1.195
 5317TIP3    H215891   2.865   7.545   1.300
 5318TIP3   OH215892   3.788   7.770   1.840
 5318TIP3    H115893   3.815   7.810   1.754
 5318TIP3    H215894   3.709   7.719   1.814
 5319TIP3   OH215895   3.347   6.837   1.077
 5319TIP3    H115896   3.250   6.818   1.081
 5319TIP3    H215897   3.353   6.932   1.095
 5320TIP3   OH215898   3.295   7.872   2.214
 5320TIP3    H115899   3.326   7.812   2.283
 5320TIP3    H215900   3.229   7.923   2.264
 5321TIP3   OH215901   3.415   7.090   1.178
 5321TIP3    H115902   3.512   7.090   1.190
 5321TIP3    H215903   3.400   7.164   1.118
 5322TIP3   OH215904   2.566   7.514   1.875
 5322TIP3    H115905   2.614   7.486   1.796
 5322TIP3    H215906   2.608   7.461   1.946
 5323TIP3   OH215907   3.007   7.698   1.052
 5323TIP3    H115908   2.962   7.767   1.106
 5323TIP3    H215909   2.968   7.618   1.092
 5324TIP3   OH215910   2.469   7.460   2.496
 5324TIP3    H115911   2.485   7.450   2.592
 5324TIP3    H215912   2.393   7.399   2.483
 5325TIP3   OH215913   3.191   7.575   2.519
 5325TIP3    H115914   3.129   7.512   2.478
 5325TIP3    H215915   3.278   7.539   2.490
 5326TIP3   OH215916   3.856   7.178   1.011
 5326TIP3    H115917   3.793   7.134   0.950
 5326TIP3    H215918   3.855   7.267   0.969
 5327TIP3   OH215919   4.067   8.003   2.082
 5327TIP3    H115920   3.974   8.022   2.102
 5327TIP3    H215921   4.074   8.042   1.994
 5328TIP3   OH215922   3.555   7.632   1.742
 5328TIP3    H115923   3.471   7.595   1.772
 5328TIP3    H215924   3.596   7.550   1.704
 5329TIP3   OH215925   2.245   7.158   1.211
 5329TIP3    H115926   2.292   7.241   1.233
 5329TIP3    H215927   2.169   7.161   1.274
 5330TIP3   OH215928   2.866   7.642   1.544
 5330TIP3    H115929   2.818   7.711   1.496
 5330TIP3    H215930   2.791   7.581   1.563
 5331TIP3   OH215931   3.361   7.877   1.948
 5331TIP3    H115932   3.338   7.845   2.039
 5331TIP3    H215933   3.416   7.803   1.916
 5332TIP3   OH215934   3.350   7.666   0.791
 5332TIP3    H115935   3.380   7.651   0.883
 5332TIP3    H215936   3.266   7.714   0.804
 5333TIP3   OH215937   2.673   6.974   2.503
 5333TIP3    H115938   2.576   6.974   2.518
 5333TIP3    H215939   2.704   6.918   2.576
 5334TIP3   OH215940   3.470   7.639   1.043
 5334TIP3    H115941   3.467   7.564   1.106
 5334TIP3    H215942   3.566   7.638   1.018
 5335TIP3   OH215943   2.662   7.657   0.865
 5335TIP3    H115944   2.701   7.572   0.835
 5335TIP3    H215945   2.692   7.663   0.955
 5336TIP3   OH215946   2.368   7.399   1.290
 5336TIP3    H115947   2.302   7.436   1.353
 5336TIP3    H215948   2.372   7.472   1.225
 5337TIP3   OH215949   3.506   7.041   2.190
 5337TIP3    H115950   3.588   7.078   2.227
 5337TIP3    H215951   3.495   6.959   2.243
 5338TIP3   OH215952   3.386   6.792   1.355
 5338TIP3    H115953   3.376   6.811   1.259
 5338TIP3    H215954   3.428   6.874   1.388
 5339TIP3   OH215955   3.077   6.973   1.456
 5339TIP3    H115956   3.145   7.041   1.439
 5339TIP3    H215957   3.084   6.963   1.553
 5340TIP3   OH215958   3.352   7.293   2.258
 5340TIP3    H115959   3.376   7.341   2.340
 5340TIP3    H215960   3.402   7.210   2.268
 5341TIP3   OH215961   3.222   6.696   1.555
 5341TIP3    H115962   3.229   6.768   1.620
 5341TIP3    H215963   3.282   6.729   1.485
 5342TIP3   OH215964   2.734   6.696   1.345
 5342TIP3    H115965   2.732   6.785   1.386
 5342TIP3    H215966   2.829   6.676   1.353
 5343TIP3   OH215967   3.988   7.189   2.241
 5343TIP3    H115968   3.890   7.187   2.249
 5343TIP3    H215969   3.999   7.141   2.158
 5344TIP3   OH215970   3.638   7.388   1.633
 5344TIP3    H115971   3.565   7.323   1.643
 5344TIP3    H215972   3.711   7.341   1.679
 5345TIP3   OH215973   2.356   7.612   1.108
 5345TIP3    H115974   2.378   7.707   1.097
 5345TIP3    H215975   2.412   7.570   1.039
 5346TIP3   OH215976   2.297   6.889   1.236
 5346TIP3    H115977   2.293   6.986   1.231
 5346TIP3    H215978   2.217   6.863   1.189
 5347TIP3   OH215979   2.683   6.608   2.107
 5347TIP3    H115980   2.653   6.572   2.021
 5347TIP3    H215981   2.674   6.530   2.165
 5348TIP3   OH215982   2.513   7.750   2.742
 5348TIP3    H115983   2.529   7.655   2.755
 5348TIP3    H215984   2.421   7.750   2.707
 5349TIP3   OH215985   2.487   7.420   0.959
 5349TIP3    H115986   2.539   7.379   1.031
 5349TIP3    H215987   2.556   7.423   0.889
 5350TIP3   OH215988   3.134   7.840   2.555
 5350TIP3    H115989   3.096   7.848   2.465
 5350TIP3    H215990   3.167   7.748   2.551
 5351TIP3   OH215991   2.936   7.598   0.775
 5351TIP3    H115992   2.979   7.613   0.860
 5351TIP3    H215993   2.967   7.509   0.753
 5352TIP3   OH215994   3.606   7.851   2.134
 5352TIP3    H115995   3.673   7.907   2.089
 5352TIP3    H215996   3.537   7.914   2.156
 5353TIP3   OH215997   2.636   7.496   2.743
 5353TIP3    H115998   2.716   7.445   2.727
 5353TIP3    H215999   2.658   7.537   2.830
 5354TIP3   OH216000   2.695   7.323   1.178
 5354TIP3    H116001   2.661   7.271   1.252
 5354TIP3    H216002   2.732   7.253   1.120
 5355TIP3   OH216003   2.966   7.394   2.403
 5355TIP3    H116004   2.888   7.453   2.406
 5355TIP3    H216005   3.013   7.428   2.324
 5356TIP3   OH216006   2.797   7.126   1.016
 5356TIP3    H116007   2.772   7.124   0.921
 5356TIP3    H216008   2.895   7.125   1.008
 5357TIP3   OH216009   3.487   7.781   2.531
 5357TIP3    H116010   3.579   7.768   2.506
 5357TIP3    H216011   3.480   7.721   2.608
 5358TIP3   OH216012   3.615   7.482   0.709
 5358TIP3    H116013   3.597   7.418   0.638
 5358TIP3    H216014   3.603   7.564   0.658
 5359TIP3   OH216015   3.086   7.181   2.530
 5359TIP3    H116016   3.089   7.101   2.473
 5359TIP3    H216017   3.042   7.246   2.472
 5360TIP3   OH216018   3.090   6.972   2.335
 5360TIP3    H116019   3.119   7.004   2.248
 5360TIP3    H216020   2.997   6.946   2.318
 5361TIP3   OH216021   3.106   7.498   2.197
 5361TIP3    H116022   3.197   7.495   2.166
 5361TIP3    H216023   3.070   7.577   2.153
 5362TIP3   OH216024   3.697   7.470   2.588
 5362TIP3    H116025   3.745   7.388   2.608
 5362TIP3    H216026   3.769   7.530   2.565
 5363TIP3   OH216027   3.741   7.715   2.324
 5363TIP3    H116028   3.684   7.768   2.263
 5363TIP3    H216029   3.830   7.735   2.285
 5364TIP3   OH216030   2.960   7.295   2.756
 5364TIP3    H116031   2.895   7.224   2.774
 5364TIP3    H216032   2.999   7.263   2.672
 5365TIP3   OH216033   3.223   6.731   2.401
 5365TIP3    H116034   3.171   6.812   2.382
 5365TIP3    H216035   3.155   6.661   2.393
 5366TIP3   OH216036   3.348   7.237   2.620
 5366TIP3    H116037   3.343   7.222   2.717
 5366TIP3    H216038   3.258   7.210   2.595
 5367TIP3   OH216039   3.587   7.183   2.474
 5367TIP3    H116040   3.514   7.184   2.538
 5367TIP3    H216041   3.662   7.153   2.529
 5368TIP3   OH216042   3.815   7.124   2.621
 5368TIP3    H116043   3.829   7.029   2.641
 5368TIP3    H216044   3.811   7.164   2.711
 5369TIP3   OH216045   2.804   7.072   2.814
 5369TIP3    H116046   2.812   6.980   2.782
 5369TIP3    H216047   2.843   7.063   2.903
 5370TIP3   OH216048   3.312   6.744   2.662
 5370TIP3    H116049   3.382   6.675   2.661
 5370TIP3    H216050   3.277   6.733   2.571
 5371TIP3   OH216051   3.384   6.958   2.819
 5371TIP3    H116052   3.362   6.885   2.756
 5371TIP3    H216053   3.304   7.014   2.813
 5372TIP3   OH216054   2.082   7.528   1.115
 5372TIP3    H116055   2.171   7.568   1.105
 5372TIP3    H216056   2.092   7.442   1.070
 5373TIP3   OH216057   3.956   8.146   2.363
 5373TIP3    H116058   3.886   8.128   2.430
 5373TIP3    H216059   4.008   8.213   2.409
 5374TIP3   OH216060   3.744   7.638   1.021
 5374TIP3    H116061   3.817   7.694   0.990
 5374TIP3    H216062   3.787   7.596   1.099
 5375TIP3   OH216063   3.876   7.508   1.218
 5375TIP3    H116064   3.816   7.461   1.280
 5375TIP3    H216065   3.948   7.539   1.277
 5376TIP3   OH216066   3.900   7.885   1.622
 5376TIP3    H116067   3.980   7.833   1.601
 5376TIP3    H216068   3.923   7.973   1.590
 5377TIP3   OH216069   3.825   7.417   0.871
 5377TIP3    H116070   3.752   7.421   0.804
 5377TIP3    H216071   3.796   7.490   0.928
 5378TIP3   OH216072   3.685   7.094   0.821
 5378TIP3    H116073   3.671   7.124   0.729
 5378TIP3    H216074   3.660   6.999   0.813
 5379TIP3   OH216075   3.693   7.361   1.364
 5379TIP3    H116076   3.704   7.265   1.352
 5379TIP3    H216077   3.683   7.370   1.461
 5380TIP3   OH216078   2.320   7.441   2.108
 5380TIP3    H116079   2.316   7.407   2.017
 5380TIP3    H216080   2.417   7.439   2.125
 5381TIP3   OH216081   3.981   7.782   2.217
 5381TIP3    H116082   4.053   7.714   2.218
 5381TIP3    H216083   4.018   7.848   2.155
 5382TIP3   OH216084   4.173   7.600   2.255
 5382TIP3    H116085   4.098   7.542   2.284
 5382TIP3    H216086   4.245   7.534   2.253
 5383TIP3   OH216087   3.630   6.828   0.809
 5383TIP3    H116088   3.708   6.792   0.856
 5383TIP3    H216089   3.561   6.762   0.823
 5384TIP3   OH216090   3.693   7.082   1.255
 5384TIP3    H116091   3.732   6.993   1.272
 5384TIP3    H216092   3.751   7.110   1.182
 5385TIP3   OH216093   3.850   7.258   1.750
 5385TIP3    H116094   3.937   7.279   1.709
 5385TIP3    H216095   3.867   7.291   1.840
 5386TIP3   OH216096   3.923   7.397   1.982
 5386TIP3    H116097   3.848   7.433   2.033
 5386TIP3    H216098   3.958   7.478   1.938
 5387TIP3   OH216099   2.537   7.121   2.779
 5387TIP3    H116100   2.635   7.119   2.785
 5387TIP3    H216101   2.516   7.035   2.822
 5388TIP3   OH216102   4.371   6.989   2.538
 5388TIP3    H116103   4.432   6.924   2.497
 5388TIP3    H216104   4.345   7.044   2.461
 5389TIP3   OH216105   3.796   6.832   1.297
 5389TIP3    H116106   3.847   6.814   1.378
 5389TIP3    H216107   3.738   6.753   1.294
 5390TIP3   OH216108   2.499   6.816   2.114
 5390TIP3    H116109   2.560   6.740   2.123
 5390TIP3    H216110   2.563   6.889   2.108
 5391TIP3   OH216111   2.302   7.089   2.187
 5391TIP3    H116112   2.352   7.085   2.103
 5391TIP3    H216113   2.330   7.175   2.221
 5392TIP3   OH216114   4.245   7.130   2.342
 5392TIP3    H116115   4.160   7.170   2.369
 5392TIP3    H216116   4.212   7.057   2.286
 5393TIP3   OH216117   3.880   6.765   0.928
 5393TIP3    H116118   3.915   6.691   0.873
 5393TIP3    H216119   3.950   6.832   0.920
 5394TIP3   OH216120   2.286   6.596   1.691
 5394TIP3    H116121   2.193   6.589   1.715
 5394TIP3    H216122   2.282   6.653   1.611
 5395TIP3   OH216123   2.506   6.677   2.505
 5395TIP3    H116124   2.453   6.667   2.585
 5395TIP3    H216125   2.439   6.711   2.442
 5396TIP3   OH216126   4.143   6.890   2.223
 5396TIP3    H116127   4.051   6.879   2.192
 5396TIP3    H216128   4.176   6.798   2.214
 5397TIP3   OH216129   3.337   6.802   1.833
 5397TIP3    H116130   3.302   6.733   1.892
 5397TIP3    H216131   3.418   6.758   1.797
 5398TIP3   OH216132   3.869   6.689   1.749
 5398TIP3    H116133   3.906   6.739   1.672
 5398TIP3    H216134   3.774   6.704   1.739
 5399TIP3   OH216135   3.964   6.788   1.512
 5399TIP3    H116136   4.037   6.735   1.473
 5399TIP3    H216137   3.999   6.879   1.496
 5400TIP3   OH216138   2.596   6.515   1.858
 5400TIP3    H116139   2.504   6.482   1.861
 5400TIP3    H216140   2.645   6.430   1.855
 5401TIP3   OH216141   2.382   6.385   1.507
 5401TIP3    H116142   2.413   6.442   1.434
 5401TIP3    H216143   2.356   6.451   1.574
 5402TIP3   OH216144   3.038   6.550   1.741
 5402TIP3    H116145   3.098   6.595   1.679
 5402TIP3    H216146   3.070   6.582   1.826
 5403TIP3   OH216147   3.584   6.695   1.723
 5403TIP3    H116148   3.589   6.653   1.636
 5403TIP3    H216149   3.572   6.616   1.781
 5404TIP3   OH216150   3.616   6.617   1.286
 5404TIP3    H116151   3.528   6.655   1.296
 5404TIP3    H216152   3.604   6.531   1.332
 5405TIP3   OH216153   2.501   6.544   1.269
 5405TIP3    H116154   2.548   6.479   1.212
 5405TIP3    H216155   2.575   6.596   1.305
 5406TIP3   OH216156   3.010   6.722   1.369
 5406TIP3    H116157   3.070   6.672   1.428
 5406TIP3    H216158   3.036   6.813   1.395
 5407TIP3   OH216159   2.803   6.795   2.751
 5407TIP3    H116160   2.771   6.722   2.807
 5407TIP3    H216161   2.898   6.796   2.777
 5408TIP3   OH216162   3.054   6.792   2.867
 5408TIP3    H116163   3.139   6.768   2.827
 5408TIP3    H216164   3.044   6.722   2.935
 5409TIP3   OH216165   3.879   6.855   2.656
 5409TIP3    H116166   3.895   6.823   2.747
 5409TIP3    H216167   3.968   6.848   2.617
 5410TIP3   OH216168   5.081   7.766   0.922
 5410TIP3    H116169   5.059   7.859   0.904
 5410TIP3    H216170   5.006   7.721   0.879
 5411TIP3   OH216171   5.072   7.774   1.297
 5411TIP3    H116172   5.117   7.761   1.382
 5411TIP3    H216173   5.040   7.684   1.277
 5412TIP3   OH216174   4.439   7.746   1.745
 5412TIP3    H116175   4.432   7.650   1.767
 5412TIP3    H216176   4.475   7.742   1.654
 5413TIP3   OH216177   5.305   8.082   0.985
 5413TIP3    H116178   5.310   8.003   1.041
 5413TIP3    H216179   5.326   8.151   1.050
 5414TIP3   OH216180   4.415   8.010   1.484
 5414TIP3    H116181   4.376   7.936   1.433
 5414TIP3    H216182   4.487   8.037   1.422
 5415TIP3   OH216183   4.059   7.286   1.170
 5415TIP3    H116184   4.010   7.370   1.181
 5415TIP3    H216185   3.990   7.231   1.130
 5416TIP3   OH216186   4.112   7.571   1.345
 5416TIP3    H116187   4.162   7.493   1.379
 5416TIP3    H216188   4.179   7.613   1.289
 5417TIP3   OH216189   4.890   7.985   1.357
 5417TIP3    H116190   4.950   7.915   1.322
 5417TIP3    H216191   4.954   8.060   1.355
 5418TIP3   OH216192   5.893   7.327   1.343
 5418TIP3    H116193   5.924   7.409   1.387
 5418TIP3    H216194   5.913   7.347   1.250
 5419TIP3   OH216195   5.292   7.503   1.377
 5419TIP3    H116196   5.337   7.419   1.397
 5419TIP3    H216197   5.263   7.488   1.285
 5420TIP3   OH216198   4.630   7.166   1.342
 5420TIP3    H116199   4.612   7.238   1.278
 5420TIP3    H216200   4.585   7.091   1.297
 5421TIP3   OH216201   5.323   7.259   0.959
 5421TIP3    H116202   5.394   7.243   1.025
 5421TIP3    H216203   5.377   7.287   0.882
 5422TIP3   OH216204   4.267   7.370   1.448
 5422TIP3    H116205   4.349   7.345   1.495
 5422TIP3    H216206   4.278   7.315   1.368
 5423TIP3   OH216207   4.698   7.565   1.255
 5423TIP3    H116208   4.794   7.545   1.260
 5423TIP3    H216209   4.663   7.482   1.216
 5424TIP3   OH216210   5.969   7.536   1.509
 5424TIP3    H116211   5.883   7.581   1.492
 5424TIP3    H216212   5.976   7.549   1.605
 5425TIP3   OH216213   4.629   7.150   1.775
 5425TIP3    H116214   4.567   7.183   1.708
 5425TIP3    H216215   4.577   7.164   1.856
 5426TIP3   OH216216   4.963   7.976   0.741
 5426TIP3    H116217   4.869   7.949   0.739
 5426TIP3    H216218   4.958   8.056   0.795
 5427TIP3   OH216219   4.728   7.925   1.571
 5427TIP3    H116220   4.673   8.004   1.585
 5427TIP3    H216221   4.783   7.955   1.494
 5428TIP3   OH216222   5.530   7.264   1.136
 5428TIP3    H116223   5.526   7.210   1.216
 5428TIP3    H216224   5.584   7.339   1.165
 5429TIP3   OH216225   4.499   7.264   1.560
 5429TIP3    H116226   4.563   7.335   1.584
 5429TIP3    H216227   4.546   7.222   1.485
 5430TIP3   OH216228   4.550   8.155   1.679
 5430TIP3    H116229   4.536   8.154   1.583
 5430TIP3    H216230   4.457   8.154   1.707
 5431TIP3   OH216231   3.960   7.776   0.919
 5431TIP3    H116232   3.920   7.794   0.832
 5431TIP3    H216233   3.978   7.868   0.945
 5432TIP3   OH216234   5.687   7.227   1.508
 5432TIP3    H116235   5.600   7.254   1.475
 5432TIP3    H216236   5.747   7.258   1.438
 5433TIP3   OH216237   4.982   6.867   1.487
 5433TIP3    H116238   4.971   6.772   1.507
 5433TIP3    H216239   4.905   6.904   1.536
 5434TIP3   OH216240   5.619   8.237   1.490
 5434TIP3    H116241   5.607   8.155   1.438
 5434TIP3    H216242   5.602   8.305   1.423
 5435TIP3   OH216243   4.915   7.630   0.740
 5435TIP3    H116244   4.831   7.679   0.730
 5435TIP3    H216245   4.951   7.641   0.652
 5436TIP3   OH216246   5.816   7.874   1.330
 5436TIP3    H116247   5.732   7.924   1.340
 5436TIP3    H216248   5.841   7.900   1.239
 5437TIP3   OH216249   5.256   7.710   0.720
 5437TIP3    H116250   5.204   7.735   0.799
 5437TIP3    H216251   5.342   7.685   0.762
 5438TIP3   OH216252   5.495   7.753   1.630
 5438TIP3    H116253   5.493   7.836   1.681
 5438TIP3    H216254   5.409   7.759   1.583
 5439TIP3   OH216255   4.495   7.716   1.128
 5439TIP3    H116256   4.455   7.654   1.063
 5439TIP3    H216257   4.570   7.663   1.162
 5440TIP3   OH216258   4.625   8.082   1.337
 5440TIP3    H116259   4.613   8.066   1.242
 5440TIP3    H216260   4.720   8.104   1.341
 5441TIP3   OH216261   4.605   7.691   1.492
 5441TIP3    H116262   4.648   7.658   1.409
 5441TIP3    H216263   4.658   7.771   1.511
 5442TIP3   OH216264   4.779   8.130   1.834
 5442TIP3    H116265   4.761   8.224   1.850
 5442TIP3    H216266   4.716   8.114   1.761
 5443TIP3   OH216267   4.360   7.553   0.943
 5443TIP3    H116268   4.293   7.592   0.882
 5443TIP3    H216269   4.329   7.462   0.950
 5444TIP3   OH216270   5.753   7.715   1.807
 5444TIP3    H116271   5.669   7.727   1.761
 5444TIP3    H216272   5.768   7.619   1.797
 5445TIP3   OH216273   4.745   6.943   1.619
 5445TIP3    H116274   4.656   6.913   1.591
 5445TIP3    H216275   4.719   7.025   1.667
 5446TIP3   OH216276   5.281   7.059   1.813
 5446TIP3    H116277   5.352   7.031   1.875
 5446TIP3    H216278   5.199   7.038   1.862
 5447TIP3   OH216279   5.515   7.488   1.730
 5447TIP3    H116280   5.467   7.486   1.816
 5447TIP3    H216281   5.493   7.577   1.696
 5448TIP3   OH216282   4.903   7.003   0.593
 5448TIP3    H116283   4.864   6.986   0.680
 5448TIP3    H216284   4.874   6.925   0.544
 5449TIP3   OH216285   4.676   7.465   1.636
 5449TIP3    H116286   4.642   7.493   1.723
 5449TIP3    H216287   4.657   7.544   1.582
 5450TIP3   OH216288   4.559   7.347   1.151
 5450TIP3    H116289   4.467   7.318   1.169
 5450TIP3    H216290   4.574   7.306   1.063
 5451TIP3   OH216291   5.048   7.432   0.875
 5451TIP3    H116292   4.990   7.501   0.836
 5451TIP3    H216293   5.124   7.437   0.815
 5452TIP3   OH216294   5.231   7.709   1.966
 5452TIP3    H116295   5.210   7.635   2.028
 5452TIP3    H216296   5.325   7.723   1.987
 5453TIP3   OH216297   5.208   7.458   1.120
 5453TIP3    H116298   5.150   7.495   1.051
 5453TIP3    H216299   5.240   7.379   1.073
 5454TIP3   OH216300   4.485   7.494   1.856
 5454TIP3    H116301   4.554   7.521   1.918
 5454TIP3    H216302   4.465   7.403   1.889
 5455TIP3   OH216303   4.531   6.937   0.574
 5455TIP3    H116304   4.529   6.948   0.671
 5455TIP3    H216305   4.485   7.016   0.543
 5456TIP3   OH216306   4.088   7.013   1.428
 5456TIP3    H116307   4.166   7.041   1.479
 5456TIP3    H216308   4.125   6.977   1.346
 5457TIP3   OH216309   4.060   6.991   0.946
 5457TIP3    H116310   4.109   7.026   0.869
 5457TIP3    H216311   4.000   7.066   0.964
 5458TIP3   OH216312   5.214   7.701   1.540
 5458TIP3    H116313   5.248   7.630   1.482
 5458TIP3    H216314   5.188   7.648   1.618
 5459TIP3   OH216315   4.888   7.172   1.213
 5459TIP3    H116316   4.809   7.166   1.269
 5459TIP3    H216317   4.960   7.163   1.278
 5460TIP3   OH216318   4.322   7.224   1.222
 5460TIP3    H116319   4.227   7.228   1.194
 5460TIP3    H216320   4.347   7.132   1.200
 5461TIP3   OH216321   4.592   7.222   0.910
 5461TIP3    H116322   4.688   7.231   0.893
 5461TIP3    H216323   4.550   7.252   0.826
 5462TIP3   OH216324   5.381   7.244   1.417
 5462TIP3    H116325   5.346   7.256   1.508
 5462TIP3    H216326   5.316   7.182   1.380
 5463TIP3   OH216327   4.417   7.274   0.696
 5463TIP3    H116328   4.340   7.224   0.664
 5463TIP3    H216329   4.485   7.249   0.629
 5464TIP3   OH216330   4.490   8.001   2.011
 5464TIP3    H116331   4.570   8.043   2.047
 5464TIP3    H216332   4.431   8.011   2.088
 5465TIP3   OH216333   4.971   7.496   1.307
 5465TIP3    H116334   5.044   7.459   1.256
 5465TIP3    H216335   4.982   7.452   1.394
 5466TIP3   OH216336   4.493   6.984   1.189
 5466TIP3    H116337   4.459   6.906   1.236
 5466TIP3    H216338   4.541   6.944   1.115
 5467TIP3   OH216339   4.949   7.391   1.602
 5467TIP3    H116340   4.861   7.431   1.613
 5467TIP3    H216341   5.009   7.451   1.651
 5468TIP3   OH216342   4.696   7.784   0.700
 5468TIP3    H116343   4.623   7.720   0.682
 5468TIP3    H216344   4.665   7.823   0.785
 5469TIP3   OH216345   5.585   8.016   1.332
 5469TIP3    H116346   5.610   8.064   1.250
 5469TIP3    H216347   5.500   7.973   1.303
 5470TIP3   OH216348   5.077   8.065   1.733
 5470TIP3    H116349   5.117   8.094   1.815
 5470TIP3    H216350   5.047   8.146   1.692
 5471TIP3   OH216351   4.366   7.754   1.369
 5471TIP3    H116352   4.395   7.756   1.275
 5471TIP3    H216353   4.449   7.725   1.411
 5472TIP3   OH216354   4.987   7.822   1.998
 5472TIP3    H116355   4.957   7.797   1.909
 5472TIP3    H216356   5.082   7.803   1.988
 5473TIP3   OH216357   5.875   8.280   1.577
 5473TIP3    H116358   5.777   8.284   1.563
 5473TIP3    H216359   5.903   8.261   1.484
 5474TIP3   OH216360   5.366   7.887   1.230
 5474TIP3    H116361   5.274   7.883   1.259
 5474TIP3    H216362   5.380   7.797   1.192
 5475TIP3   OH216363   4.049   7.405   0.709
 5475TIP3    H116364   4.093   7.491   0.725
 5475TIP3    H216365   3.969   7.414   0.764
 5476TIP3   OH216366   4.618   7.878   0.939
 5476TIP3    H116367   4.602   7.970   0.961
 5476TIP3    H216368   4.583   7.829   1.016
 5477TIP3   OH216369   4.467   7.232   1.988
 5477TIP3    H116370   4.371   7.235   2.006
 5477TIP3    H216371   4.499   7.177   2.061
 5478TIP3   OH216372   4.162   7.652   0.781
 5478TIP3    H116373   4.097   7.690   0.845
 5478TIP3    H216374   4.176   7.728   0.721
 5479TIP3   OH216375   5.303   7.298   1.676
 5479TIP3    H116376   5.386   7.336   1.710
 5479TIP3    H216377   5.294   7.216   1.730
 5480TIP3   OH216378   5.179   7.051   0.839
 5480TIP3    H116379   5.132   7.091   0.764
 5480TIP3    H216380   5.228   7.127   0.876
 5481TIP3   OH216381   4.871   7.228   0.942
 5481TIP3    H116382   4.937   7.298   0.924
 5481TIP3    H216383   4.880   7.218   1.040
 5482TIP3   OH216384   5.141   7.543   1.753
 5482TIP3    H116385   5.171   7.596   1.830
 5482TIP3    H216386   5.198   7.464   1.760
 5483TIP3   OH216387   5.019   6.951   1.042
 5483TIP3    H116388   5.020   7.025   1.106
 5483TIP3    H216389   5.080   6.986   0.974
 5484TIP3   OH216390   4.530   6.956   0.847
 5484TIP3    H116391   4.535   7.047   0.882
 5484TIP3    H216392   4.625   6.933   0.848
 5485TIP3   OH216393   5.783   7.448   1.724
 5485TIP3    H116394   5.685   7.447   1.734
 5485TIP3    H216395   5.791   7.393   1.645
 5486TIP3   OH216396   5.435   7.637   1.119
 5486TIP3    H116397   5.362   7.574   1.130
 5486TIP3    H216398   5.509   7.591   1.166
 5487TIP3   OH216399   4.161   7.868   0.605
 5487TIP3    H116400   4.184   7.962   0.620
 5487TIP3    H216401   4.166   7.866   0.509
 5488TIP3   OH216402   4.100   7.141   0.717
 5488TIP3    H116403   4.093   7.238   0.722
 5488TIP3    H216404   4.015   7.117   0.678
 5489TIP3   OH216405   4.478   6.865   1.594
 5489TIP3    H116406   4.449   6.830   1.507
 5489TIP3    H216407   4.469   6.787   1.652
 5490TIP3   OH216408   4.309   8.010   2.219
 5490TIP3    H116409   4.335   7.919   2.243
 5490TIP3    H216410   4.215   7.997   2.193
 5491TIP3   OH216411   4.936   8.093   2.049
 5491TIP3    H116412   4.897   8.105   1.959
 5491TIP3    H216413   4.971   8.002   2.040
 5492TIP3   OH216414   5.402   8.123   1.636
 5492TIP3    H116415   5.462   8.184   1.589
 5492TIP3    H216416   5.324   8.122   1.578
 5493TIP3   OH216417   4.452   7.769   2.215
 5493TIP3    H116418   4.494   7.683   2.219
 5493TIP3    H216419   4.468   7.801   2.306
 5494TIP3   OH216420   4.508   7.580   0.675
 5494TIP3    H116421   4.465   7.544   0.754
 5494TIP3    H216422   4.533   7.501   0.627
 5495TIP3   OH216423   4.741   7.644   1.872
 5495TIP3    H116424   4.757   7.716   1.935
 5495TIP3    H216425   4.804   7.669   1.800
 5496TIP3   OH216426   5.281   8.046   2.024
 5496TIP3    H116427   5.357   8.023   1.970
 5496TIP3    H216428   5.286   7.980   2.096
 5497TIP3   OH216429   4.879   7.437   2.015
 5497TIP3    H116430   4.888   7.353   1.965
 5497TIP3    H216431   4.839   7.495   1.947
 5498TIP3   OH216432   4.886   7.226   1.827
 5498TIP3    H116433   4.917   7.264   1.742
 5498TIP3    H216434   4.794   7.201   1.805
 5499TIP3   OH216435   4.914   7.762   1.705
 5499TIP3    H116436   5.002   7.768   1.664
 5499TIP3    H216437   4.867   7.835   1.659
 5500TIP3   OH216438   5.494   7.727   2.077
 5500TIP3    H116439   5.545   7.645   2.090
 5500TIP3    H216440   5.563   7.787   2.044
 5501TIP3   OH216441   5.538   7.977   1.816
 5501TIP3    H116442   5.480   8.034   1.759
 5501TIP3    H216443   5.625   7.997   1.775
 5502TIP3   OH216444   4.753   7.553   2.236
 5502TIP3    H116445   4.690   7.482   2.259
 5502TIP3    H216446   4.796   7.515   2.157
 5503TIP3   OH216447   5.019   6.987   1.891
 5503TIP3    H116448   4.969   7.069   1.869
 5503TIP3    H216449   4.950   6.918   1.880
 5504TIP3   OH216450   5.145   7.492   2.108
 5504TIP3    H116451   5.139   7.478   2.204
 5504TIP3    H216452   5.054   7.467   2.081
 5505TIP3   OH216453   5.384   7.443   1.961
 5505TIP3    H116454   5.310   7.442   2.026
 5505TIP3    H216455   5.459   7.412   2.016
 5506TIP3   OH216456   5.609   7.381   2.111
 5506TIP3    H116457   5.625   7.286   2.128
 5506TIP3    H216458   5.608   7.419   2.201
 5507TIP3   OH216459   4.602   7.329   2.300
 5507TIP3    H116460   4.607   7.237   2.268
 5507TIP3    H216461   4.639   7.319   2.390
 5508TIP3   OH216462   5.112   6.997   2.149
 5508TIP3    H116463   5.181   6.928   2.145
 5508TIP3    H216464   5.074   6.990   2.059
 5509TIP3   OH216465   5.179   7.213   2.307
 5509TIP3    H116466   5.158   7.141   2.244
 5509TIP3    H216467   5.100   7.270   2.300
 5510TIP3   OH216468   3.885   7.797   0.603
 5510TIP3    H116469   3.982   7.811   0.606
 5510TIP3    H216470   3.879   7.700   0.585
 5511TIP3   OH216471   5.760   8.406   1.854
 5511TIP3    H116472   5.685   8.386   1.915
 5511TIP3    H216473   5.809   8.472   1.904
 5512TIP3   OH216474   5.724   8.148   1.139
 5512TIP3    H116475   5.783   8.093   1.084
 5512TIP3    H216476   5.711   8.228   1.087
 5513TIP3   OH216477   5.472   7.610   0.850
 5513TIP3    H116478   5.506   7.520   0.854
 5513TIP3    H216479   5.470   7.636   0.944
 5514TIP3   OH216480   4.120   7.706   1.590
 5514TIP3    H116481   4.107   7.663   1.503
 5514TIP3    H216482   4.215   7.724   1.585
 5515TIP3   OH216483   5.780   8.043   1.707
 5515TIP3    H116484   5.855   7.981   1.697
 5515TIP3    H216485   5.804   8.114   1.645
 5516TIP3   OH216486   5.972   7.851   1.723
 5516TIP3    H116487   5.894   7.804   1.761
 5516TIP3    H216488   6.041   7.783   1.738
 5517TIP3   OH216489   5.474   7.317   0.732
 5517TIP3    H116490   5.520   7.232   0.752
 5517TIP3    H216491   5.547   7.369   0.695
 5518TIP3   OH216492   5.648   7.508   1.240
 5518TIP3    H116493   5.735   7.534   1.200
 5518TIP3    H216494   5.661   7.545   1.329
 5519TIP3   OH216495   5.716   7.655   1.469
 5519TIP3    H116496   5.639   7.688   1.519
 5519TIP3    H216497   5.747   7.736   1.424
 5520TIP3   OH216498   4.336   7.381   2.265
 5520TIP3    H116499   4.434   7.375   2.272
 5520TIP3    H216500   4.310   7.297   2.307
 5521TIP3   OH216501   6.164   7.243   2.024
 5521TIP3    H116502   6.227   7.177   1.988
 5521TIP3    H216503   6.144   7.298   1.945
 5522TIP3   OH216504   5.580   7.080   0.788
 5522TIP3    H116505   5.641   7.067   0.864
 5522TIP3    H216506   5.530   6.996   0.790
 5523TIP3   OH216507   4.295   7.074   1.604
 5523TIP3    H116508   4.354   6.996   1.612
 5523TIP3    H216509   4.360   7.146   1.595
 5524TIP3   OH216510   4.095   7.344   1.670
 5524TIP3    H116511   4.149   7.341   1.588
 5524TIP3    H216512   4.125   7.426   1.711
 5525TIP3   OH216513   6.041   7.388   1.824
 5525TIP3    H116514   5.955   7.425   1.851
 5525TIP3    H216515   6.011   7.311   1.772
 5526TIP3   OH216516   4.082   6.858   1.180
 5526TIP3    H116517   3.988   6.847   1.199
 5526TIP3    H216518   4.080   6.912   1.098
 5527TIP3   OH216519   4.302   6.932   1.989
 5527TIP3    H116520   4.252   6.925   2.072
 5527TIP3    H216521   4.234   6.967   1.929
 5528TIP3   OH216522   5.941   7.145   1.710
 5528TIP3    H116523   5.850   7.132   1.679
 5528TIP3    H216524   5.977   7.054   1.702
 5529TIP3   OH216525   5.139   7.060   1.322
 5529TIP3    H116526   5.100   6.990   1.378
 5529TIP3    H216527   5.217   7.016   1.284
 5530TIP3   OH216528   5.664   6.946   1.236
 5530TIP3    H116529   5.700   6.998   1.160
 5530TIP3    H216530   5.569   6.963   1.228
 5531TIP3   OH216531   5.757   7.050   1.001
 5531TIP3    H116532   5.831   6.995   0.966
 5531TIP3    H216533   5.791   7.140   0.981
 5532TIP3   OH216534   4.392   6.772   1.346
 5532TIP3    H116535   4.299   6.739   1.347
 5532TIP3    H216536   4.441   6.687   1.342
 5533TIP3   OH216537   4.184   6.642   0.995
 5533TIP3    H116538   4.212   6.696   0.919
 5533TIP3    H216539   4.156   6.709   1.059
 5534TIP3   OH216540   4.835   6.805   1.228
 5534TIP3    H116541   4.892   6.852   1.165
 5534TIP3    H216542   4.866   6.841   1.313
 5535TIP3   OH216543   5.378   6.950   1.208
 5535TIP3    H116544   5.387   6.910   1.121
 5535TIP3    H216545   5.367   6.870   1.265
 5536TIP3   OH216546   5.406   6.875   0.796
 5536TIP3    H116547   5.315   6.907   0.804
 5536TIP3    H216548   5.401   6.786   0.837
 5537TIP3   OH216549   4.296   6.804   0.761
 5537TIP3    H116550   4.340   6.740   0.700
 5537TIP3    H216551   4.373   6.852   0.797
 5538TIP3   OH216552   4.807   6.976   0.856
 5538TIP3    H116553   4.866   6.927   0.914
 5538TIP3    H216554   4.831   7.068   0.881
 5539TIP3   OH216555   4.601   7.054   2.236
 5539TIP3    H116556   4.565   6.984   2.292
 5539TIP3    H216557   4.695   7.053   2.264
 5540TIP3   OH216558   4.850   7.049   2.355
 5540TIP3    H116559   4.936   7.025   2.316
 5540TIP3    H216560   4.839   6.978   2.422
 5541TIP3   OH216561   5.674   7.112   2.144
 5541TIP3    H116562   5.694   7.079   2.234
 5541TIP3    H216563   5.763   7.108   2.102
 5542TIP3   OH216564   6.173   7.926   1.142
 5542TIP3    H116565   6.224   7.880   1.210
 5542TIP3    H216566   6.243   7.958   1.081
 5543TIP3   OH216567   6.055   7.625   0.945
 5543TIP3    H116568   6.144   7.597   0.975
 5543TIP3    H216569   6.040   7.570   0.867
 5544TIP3   OH216570   6.414   7.402   1.268
 5544TIP3    H116571   6.354   7.439   1.201
 5544TIP3    H216572   6.361   7.416   1.350
 5545TIP3   OH216573   6.298   7.511   1.034
 5545TIP3    H116574   6.352   7.589   1.062
 5545TIP3    H216575   6.359   7.470   0.971
 5546TIP3   OH216576   6.778   7.127   0.989
 5546TIP3    H116577   6.765   7.031   0.999
 5546TIP3    H216578   6.693   7.160   1.024
 5547TIP3   OH216579   6.281   8.064   1.399
 5547TIP3    H116580   6.266   8.138   1.460
 5547TIP3    H216581   6.192   8.023   1.404
 5548TIP3   OH216582   5.946   8.189   1.335
 5548TIP3    H116583   5.872   8.179   1.272
 5548TIP3    H216584   5.971   8.098   1.356
 5549TIP3   OH216585   6.533   7.209   1.107
 5549TIP3    H116586   6.446   7.172   1.081
 5549TIP3    H216587   6.502   7.279   1.167
 5550TIP3   OH216588   7.049   7.287   1.329
 5550TIP3    H116589   7.086   7.305   1.417
 5550TIP3    H216590   6.954   7.273   1.350
 5551TIP3   OH216591   6.454   7.713   1.121
 5551TIP3    H116592   6.409   7.741   1.204
 5551TIP3    H216593   6.485   7.797   1.085
 5552TIP3   OH216594   6.310   7.751   1.350
 5552TIP3    H116595   6.288   7.813   1.421
 5552TIP3    H216596   6.290   7.665   1.391
 5553TIP3   OH216597   5.889   7.270   0.912
 5553TIP3    H116598   5.958   7.297   0.976
 5553TIP3    H216599   5.939   7.247   0.833
 5554TIP3   OH216600   6.040   7.963   1.477
 5554TIP3    H116601   6.046   7.945   1.573
 5554TIP3    H216602   5.963   7.909   1.452
 5555TIP3   OH216603   6.264   7.488   1.481
 5555TIP3    H116604   6.167   7.490   1.494
 5555TIP3    H216605   6.293   7.430   1.553
 5556TIP3   OH216606   6.274   7.124   1.088
 5556TIP3    H116607   6.240   7.089   1.002
 5556TIP3    H216608   6.266   7.045   1.145
 5557TIP3   OH216609   6.114   8.274   1.707
 5557TIP3    H116610   6.144   8.181   1.704
 5557TIP3    H216611   6.024   8.266   1.668
 5558TIP3   OH216612   6.238   8.024   1.708
 5558TIP3    H116613   6.294   7.945   1.706
 5558TIP3    H216614   6.250   8.052   1.801
 5559TIP3   OH216615   6.655   7.711   1.500
 5559TIP3    H116616   6.690   7.621   1.486
 5559TIP3    H216617   6.596   7.722   1.426
 5560TIP3   OH216618   6.663   7.504   1.285
 5560TIP3    H116619   6.638   7.531   1.195
 5560TIP3    H216620   6.578   7.462   1.311
 5561TIP3   OH216621   6.545   7.810   1.737
 5561TIP3    H116622   6.483   7.735   1.751
 5561TIP3    H216623   6.592   7.781   1.656
 5562TIP3   OH216624   6.785   7.248   1.382
 5562TIP3    H116625   6.727   7.320   1.355
 5562TIP3    H216626   6.727   7.169   1.371
 5563TIP3   OH216627   6.401   7.582   1.785
 5563TIP3    H116628   6.402   7.489   1.755
 5563TIP3    H216629   6.436   7.571   1.876
 5564TIP3   OH216630   6.907   7.252   1.629
 5564TIP3    H116631   6.980   7.187   1.626
 5564TIP3    H216632   6.860   7.234   1.546
 5565TIP3   OH216633   6.973   7.458   1.797
 5565TIP3    H116634   6.950   7.391   1.728
 5565TIP3    H216635   6.906   7.528   1.783
 5566TIP3   OH216636   5.914   7.949   1.074
 5566TIP3    H116637   5.924   7.901   0.991
 5566TIP3    H216638   6.008   7.952   1.104
 5567TIP3   OH216639   6.136   7.640   1.760
 5567TIP3    H116640   6.234   7.630   1.763
 5567TIP3    H216641   6.109   7.553   1.795
 5568TIP3   OH216642   6.089   7.329   1.088
 5568TIP3    H116643   6.148   7.252   1.100
 5568TIP3    H216644   6.155   7.401   1.081
 5569TIP3   OH216645   5.893   7.603   1.165
 5569TIP3    H116646   5.944   7.605   1.081
 5569TIP3    H216647   5.920   7.687   1.205
 5570TIP3   OH216648   6.099   7.193   1.477
 5570TIP3    H116649   6.049   7.179   1.559
 5570TIP3    H216650   6.028   7.225   1.417
 5571TIP3   OH216651   6.180   7.030   0.851
 5571TIP3    H116652   6.090   6.993   0.846
 5571TIP3    H216653   6.233   6.950   0.833
 5572TIP3   OH216654   6.396   7.312   1.724
 5572TIP3    H116655   6.360   7.239   1.778
 5572TIP3    H216656   6.491   7.308   1.752
 5573TIP3   OH216657   6.645   7.306   1.840
 5573TIP3    H116658   6.735   7.283   1.809
 5573TIP3    H216659   6.633   7.239   1.911
 5574TIP3   OH216660   1.841   0.497   5.748
 5574TIP3    H116661   1.812   0.443   5.822
 5574TIP3    H216662   1.865   0.580   5.791
 5575TIP3   OH216663   1.493   0.961   5.767
 5575TIP3    H116664   1.551   0.898   5.718
 5575TIP3    H216665   1.478   0.911   5.848
 5576TIP3   OH216666   2.436  -0.065   6.307
 5576TIP3    H116667   2.365  -0.006   6.276
 5576TIP3    H216668   2.500  -0.004   6.345
 5577TIP3   OH216669   1.527   0.429   5.526
 5577TIP3    H116670   1.447   0.387   5.491
 5577TIP3    H216671   1.488   0.507   5.567
 5578TIP3   OH216672   1.899   0.743   5.921
 5578TIP3    H116673   1.804   0.741   5.946
 5578TIP3    H216674   1.899   0.822   5.863
 5579TIP3   OH216675   1.657   0.796   5.628
 5579TIP3    H116676   1.684   0.712   5.585
 5579TIP3    H216677   1.689   0.858   5.560
 5580TIP3   OH216678   1.761   0.579   5.491
 5580TIP3    H116679   1.697   0.511   5.461
 5580TIP3    H216680   1.797   0.535   5.571
 5581TIP3   OH216681   2.128   0.654   6.257
 5581TIP3    H116682   2.122   0.578   6.196
 5581TIP3    H216683   2.115   0.730   6.196
 5582TIP3   OH216684   2.323   0.291   6.105
 5582TIP3    H116685   2.242   0.346   6.105
 5582TIP3    H216686   2.358   0.313   6.015
 5583TIP3   OH216687   1.763   0.151   5.492
 5583TIP3    H116688   1.703   0.152   5.567
 5583TIP3    H216689   1.841   0.104   5.527
 5584TIP3   OH216690   1.645   0.757   6.015
 5584TIP3    H116691   1.642   0.840   6.067
 5584TIP3    H216692   1.642   0.687   6.083
 5585TIP3   OH216693   1.388   0.735   5.529
 5585TIP3    H116694   1.417   0.743   5.620
 5585TIP3    H216695   1.295   0.713   5.538
 5586TIP3   OH216696   1.923   0.595   4.905
 5586TIP3    H116697   1.931   0.692   4.896
 5586TIP3    H216698   2.015   0.566   4.886
 5587TIP3   OH216699   2.363   0.999   6.298
 5587TIP3    H116700   2.366   0.903   6.314
 5587TIP3    H216701   2.282   1.023   6.348
 5588TIP3   OH216702   1.498   0.812   6.407
 5588TIP3    H116703   1.487   0.896   6.456
 5588TIP3    H216704   1.423   0.760   6.442
 5589TIP3   OH216705   1.232   0.935   5.369
 5589TIP3    H116706   1.169   0.920   5.296
 5589TIP3    H216707   1.186   0.999   5.425
 5590TIP3   OH216708   1.440   0.815   5.028
 5590TIP3    H116709   1.500   0.744   4.996
 5590TIP3    H216710   1.471   0.826   5.121
 5591TIP3   OH216711   1.485   0.864   5.296
 5591TIP3    H116712   1.396   0.883   5.333
 5591TIP3    H216713   1.516   0.804   5.367
 5592TIP3   OH216714   2.261   0.119   6.576
 5592TIP3    H116715   2.176   0.165   6.570
 5592TIP3    H216716   2.236   0.026   6.566
 5593TIP3   OH216717   1.675   0.045   5.050
 5593TIP3    H116718   1.652   0.006   4.965
 5593TIP3    H216719   1.761   0.087   5.033
 5594TIP3   OH216720   2.058   1.350   6.403
 5594TIP3    H116721   2.057   1.376   6.309
 5594TIP3    H216722   2.138   1.397   6.435
 5595TIP3   OH216723   2.089   0.442   6.087
 5595TIP3    H116724   2.128   0.492   6.011
 5595TIP3    H216725   2.007   0.407   6.048
 5596TIP3   OH216726   1.392   0.411   5.222
 5596TIP3    H116727   1.329   0.483   5.245
 5596TIP3    H216728   1.366   0.344   5.287
 5597TIP3   OH216729   1.768   0.780   6.373
 5597TIP3    H116730   1.670   0.789   6.370
 5597TIP3    H216731   1.787   0.841   6.448
 5598TIP3   OH216732   2.171  -0.141   5.253
 5598TIP3    H116733   2.108  -0.196   5.201
 5598TIP3    H216734   2.148  -0.053   5.217
 5599TIP3   OH216735   2.381   0.717   6.341
 5599TIP3    H116736   2.284   0.705   6.337
 5599TIP3    H216737   2.405   0.684   6.251
 5600TIP3   OH216738   1.856   0.671   5.172
 5600TIP3    H116739   1.838   0.604   5.239
 5600TIP3    H216740   1.876   0.618   5.093
 5601TIP3   OH216741   1.867   0.293   5.997
 5601TIP3    H116742   1.774   0.268   6.008
 5601TIP3    H216743   1.896   0.233   5.926
 5602TIP3   OH216744   1.275   0.880   6.248
 5602TIP3    H116745   1.293   0.947   6.180
 5602TIP3    H216746   1.363   0.869   6.288
 5603TIP3   OH216747   1.691   0.542   6.187
 5603TIP3    H116748   1.672   0.537   6.282
 5603TIP3    H216749   1.788   0.545   6.188
 5604TIP3   OH216750   1.618   0.403   5.071
 5604TIP3    H116751   1.677   0.370   5.143
 5604TIP3    H216752   1.534   0.404   5.122
 5605TIP3   OH216753   1.889   1.040   6.243
 5605TIP3    H116754   1.808   0.988   6.232
 5605TIP3    H216755   1.878   1.105   6.170
 5606TIP3   OH216756   1.952   0.873   4.892
 5606TIP3    H116757   1.996   0.950   4.853
 5606TIP3    H216758   1.871   0.917   4.926
 5607TIP3   OH216759   1.783   0.333   5.278
 5607TIP3    H116760   1.763   0.270   5.351
 5607TIP3    H216761   1.881   0.330   5.278
 5608TIP3   OH216762   1.198   0.597   5.283
 5608TIP3    H116763   1.130   0.602   5.352
 5608TIP3    H216764   1.207   0.689   5.255
 5609TIP3   OH216765   1.914   1.016   5.838
 5609TIP3    H116766   1.869   1.062   5.763
 5609TIP3    H216767   2.008   1.028   5.812
 5610TIP3   OH216768   1.147   0.561   4.996
 5610TIP3    H116769   1.152   0.520   5.086
 5610TIP3    H216770   1.224   0.520   4.953
 5611TIP3   OH216771   1.805   0.912   6.621
 5611TIP3    H116772   1.844   0.835   6.665
 5611TIP3    H216773   1.878   0.977   6.631
 5612TIP3   OH216774   1.586   0.620   4.897
 5612TIP3    H116775   1.623   0.556   4.962
 5612TIP3    H216776   1.652   0.616   4.826
 5613TIP3   OH216777   1.914   0.552   6.398
 5613TIP3    H116778   1.999   0.580   6.358
 5613TIP3    H216779   1.865   0.637   6.392
 5614TIP3   OH216780   1.923   0.126   4.927
 5614TIP3    H116781   1.898   0.083   4.843
 5614TIP3    H216782   1.887   0.216   4.910
 5615TIP3   OH216783   2.080   0.382   6.566
 5615TIP3    H116784   2.023   0.436   6.508
 5615TIP3    H216785   2.168   0.408   6.531
 5616TIP3   OH216786   0.915   0.877   5.155
 5616TIP3    H116787   1.010   0.856   5.144
 5616TIP3    H216788   0.899   0.926   5.072
 5617TIP3   OH216789   2.170   1.094   5.795
 5617TIP3    H116790   2.196   1.131   5.881
 5617TIP3    H216791   2.214   1.153   5.731
 5618TIP3   OH216792   2.199   1.124   6.077
 5618TIP3    H116793   2.153   1.038   6.066
 5618TIP3    H216794   2.266   1.096   6.142
 5619TIP3   OH216795   2.238   0.800   6.645
 5619TIP3    H116796   2.168   0.806   6.714
 5619TIP3    H216797   2.281   0.888   6.653
 5620TIP3   OH216798   2.063   0.319   5.268
 5620TIP3    H116799   2.136   0.384   5.260
 5620TIP3    H216800   2.101   0.267   5.342
 5621TIP3   OH216801   2.179   0.170   5.466
 5621TIP3    H116802   2.112   0.150   5.533
 5621TIP3    H216803   2.239   0.233   5.510
 5622TIP3   OH216804   2.235   0.567   5.902
 5622TIP3    H116805   2.290   0.503   5.853
 5622TIP3    H216806   2.241   0.647   5.844
 5623TIP3   OH216807   2.071   0.877   6.099
 5623TIP3    H116808   1.998   0.917   6.149
 5623TIP3    H216809   2.022   0.829   6.028
 5624TIP3   OH216810   2.117   0.092   5.116
 5624TIP3    H116811   2.046   0.101   5.050
 5624TIP3    H216812   2.100   0.172   5.171
 5625TIP3   OH216813   2.001  -0.250   5.059
 5625TIP3    H116814   1.953  -0.176   5.021
 5625TIP3    H216815   1.939  -0.322   5.046
 5626TIP3   OH216816   1.986   0.033   5.633
 5626TIP3    H116817   2.018  -0.053   5.603
 5626TIP3    H216818   2.019   0.036   5.724
 5627TIP3   OH216819   2.310   0.472   6.461
 5627TIP3    H116820   2.379   0.402   6.456
 5627TIP3    H216821   2.345   0.541   6.402
 5628TIP3   OH216822   2.475   0.265   6.491
 5628TIP3    H116823   2.401   0.211   6.526
 5628TIP3    H216824   2.550   0.204   6.509
 5629TIP3   OH216825   2.147  -0.059   6.013
 5629TIP3    H116826   2.231  -0.039   5.967
 5629TIP3    H216827   2.166  -0.020   6.100
 5630TIP3   OH216828   2.206   0.085   6.241
 5630TIP3    H116829   2.124   0.127   6.273
 5630TIP3    H216830   2.251   0.160   6.197
 5631TIP3   OH216831   1.748   0.978   5.447
 5631TIP3    H116832   1.791   0.954   5.362
 5631TIP3    H216833   1.815   1.034   5.487
 5632TIP3   OH216834   1.470   1.066   6.527
 5632TIP3    H116835   1.515   1.054   6.613
 5632TIP3    H216836   1.540   1.112   6.475
 5633TIP3   OH216837   1.663   1.194   6.388
 5633TIP3    H116838   1.733   1.154   6.335
 5633TIP3    H216839   1.714   1.259   6.442
 5634TIP3   OH216840   1.370   1.071   6.065
 5634TIP3    H116841   1.297   1.067   5.999
 5634TIP3    H216842   1.380   1.167   6.071
 5635TIP3   OH216843   1.640   1.011   6.116
 5635TIP3    H116844   1.544   1.026   6.099
 5635TIP3    H216845   1.680   1.082   6.064
 5636TIP3   OH216846   1.847   1.204   6.028
 5636TIP3    H116847   1.829   1.286   5.978
 5636TIP3    H216848   1.870   1.141   5.956
 5637TIP3   OH216849   1.177   0.816   5.109
 5637TIP3    H116850   1.269   0.832   5.082
 5637TIP3    H216851   1.157   0.736   5.056
 5638TIP3   OH216852   1.895   0.936   5.215
 5638TIP3    H116853   1.887   0.838   5.206
 5638TIP3    H216854   1.847   0.965   5.135
 5639TIP3   OH216855   2.120   1.082   6.401
 5639TIP3    H116856   2.042   1.051   6.352
 5639TIP3    H216857   2.100   1.177   6.409
 5640TIP3   OH216858   3.394   0.450   5.174
 5640TIP3    H116859   3.361   0.540   5.157
 5640TIP3    H216860   3.323   0.397   5.134
 5641TIP3   OH216861   3.375   0.456   5.555
 5641TIP3    H116862   3.415   0.432   5.640
 5641TIP3    H216863   3.338   0.371   5.526
 5642TIP3   OH216864   2.684   0.354   5.921
 5642TIP3    H116865   2.717   0.282   5.978
 5642TIP3    H216866   2.767   0.392   5.889
 5643TIP3   OH216867   3.631   0.761   5.233
 5643TIP3    H116868   3.612   0.690   5.295
 5643TIP3    H216869   3.658   0.834   5.292
 5644TIP3   OH216870   2.658   0.762   5.650
 5644TIP3    H116871   2.647   0.664   5.649
 5644TIP3    H216872   2.754   0.766   5.636
 5645TIP3   OH216873   2.350  -0.041   5.442
 5645TIP3    H116874   2.303   0.044   5.448
 5645TIP3    H216875   2.288  -0.089   5.383
 5646TIP3   OH216876   2.405   0.264   5.606
 5646TIP3    H116877   2.461   0.184   5.616
 5646TIP3    H216878   2.439   0.305   5.524
 5647TIP3   OH216879   3.284   1.219   5.255
 5647TIP3    H116880   3.325   1.147   5.202
 5647TIP3    H216881   3.272   1.174   5.340
 5648TIP3   OH216882   3.184   0.684   5.601
 5648TIP3    H116883   3.233   0.606   5.567
 5648TIP3    H216884   3.257   0.747   5.610
 5649TIP3   OH216885   3.601   0.176   5.645
 5649TIP3    H116886   3.625   0.086   5.670
 5649TIP3    H216887   3.575   0.166   5.551
 5650TIP3   OH216888   2.902  -0.189   5.588
 5650TIP3    H116889   2.891  -0.107   5.535
 5650TIP3    H216890   2.847  -0.251   5.539
 5651TIP3   OH216891   2.544   0.035   5.694
 5651TIP3    H116892   2.634   0.038   5.734
 5651TIP3    H216893   2.562  -0.023   5.618
 5652TIP3   OH216894   3.006   0.240   5.504
 5652TIP3    H116895   3.102   0.219   5.511
 5652TIP3    H216896   2.971   0.154   5.472
 5653TIP3   OH216897   4.235   0.189   5.799
 5653TIP3    H116898   4.163   0.244   5.760
 5653TIP3    H216899   4.295   0.256   5.834
 5654TIP3   OH216900   3.289   0.681   5.036
 5654TIP3    H116901   3.234   0.638   4.969
 5654TIP3    H216902   3.235   0.758   5.060
 5655TIP3   OH216903   3.039   0.596   5.826
 5655TIP3    H116904   2.980   0.664   5.865
 5655TIP3    H216905   3.085   0.646   5.756
 5656TIP3   OH216906   2.797   0.007   5.773
 5656TIP3    H116907   2.873   0.042   5.822
 5656TIP3    H216908   2.835  -0.075   5.737
 5657TIP3   OH216909   2.866   0.788   5.930
 5657TIP3    H116910   2.844   0.874   5.889
 5657TIP3    H216911   2.786   0.774   5.985
 5658TIP3   OH216912   3.710   0.994   5.394
 5658TIP3    H116913   3.639   0.971   5.460
 5658TIP3    H216914   3.677   1.080   5.362
 5659TIP3   OH216915   3.398   1.047   5.070
 5659TIP3    H116916   3.448   0.963   5.056
 5659TIP3    H216917   3.462   1.110   5.029
 5660TIP3   OH216918   3.546   0.832   4.982
 5660TIP3    H116919   3.493   0.755   4.957
 5660TIP3    H216920   3.586   0.800   5.066
 5661TIP3   OH216921   3.928   0.912   5.743
 5661TIP3    H116922   3.912   0.833   5.687
 5661TIP3    H216923   3.905   0.985   5.681
 5662TIP3   OH216924   3.220   0.333   5.005
 5662TIP3    H116925   3.137   0.362   4.966
 5662TIP3    H216926   3.267   0.291   4.931
 5663TIP3   OH216927   3.174   0.090   4.716
 5663TIP3    H116928   3.241   0.141   4.766
 5663TIP3    H216929   3.226   0.015   4.685
 5664TIP3   OH216930   4.123   0.553   5.590
 5664TIP3    H116931   4.038   0.602   5.593
 5664TIP3    H216932   4.151   0.574   5.498
 5665TIP3   OH216933   3.565   0.390   4.970
 5665TIP3    H116934   3.510   0.411   5.049
 5665TIP3    H216935   3.649   0.364   5.013
 5666TIP3   OH216936   3.798   0.427   5.887
 5666TIP3    H116937   3.790   0.511   5.936
 5666TIP3    H216938   3.711   0.427   5.841
 5667TIP3   OH216939   2.800   0.388   5.388
 5667TIP3    H116940   2.758   0.330   5.322
 5667TIP3    H216941   2.874   0.333   5.421
 5668TIP3   OH216942   2.925   0.798   5.539
 5668TIP3    H116943   2.907   0.752   5.455
 5668TIP3    H216944   3.014   0.762   5.561
 5669TIP3   OH216945   2.930   0.352   5.753
 5669TIP3    H116946   2.961   0.325   5.664
 5669TIP3    H216947   2.977   0.437   5.766
 5670TIP3   OH216948   3.066   0.910   6.086
 5670TIP3    H116949   3.002   0.974   6.123
 5670TIP3    H216950   3.008   0.856   6.029
 5671TIP3   OH216951   3.394   0.251   4.802
 5671TIP3    H116952   3.455   0.306   4.856
 5671TIP3    H216953   3.428   0.269   4.712
 5672TIP3   OH216954   2.822   0.477   6.171
 5672TIP3    H116955   2.824   0.562   6.218
 5672TIP3    H216956   2.727   0.455   6.174
 5673TIP3   OH216957   3.148   0.923   5.072
 5673TIP3    H116958   3.230   0.973   5.087
 5673TIP3    H216959   3.088   0.990   5.037
 5674TIP3   OH216960   2.861   1.086   6.156
 5674TIP3    H116961   2.830   1.080   6.064
 5674TIP3    H216962   2.781   1.062   6.208
 5675TIP3   OH216963   2.669   0.225   5.184
 5675TIP3    H116964   2.599   0.277   5.139
 5675TIP3    H216965   2.617   0.151   5.217
 5676TIP3   OH216966   3.721   0.852   4.395
 5676TIP3    H116967   3.731   0.949   4.381
 5676TIP3    H216968   3.813   0.822   4.382
 5677TIP3   OH216969   2.444   0.613   6.100
 5677TIP3    H116970   2.386   0.587   6.026
 5677TIP3    H216971   2.484   0.527   6.126
 5678TIP3   OH216972   2.299   0.795   5.762
 5678TIP3    H116973   2.383   0.792   5.714
 5678TIP3    H216974   2.282   0.889   5.777
 5679TIP3   OH216975   4.160   1.257   5.788
 5679TIP3    H116976   4.161   1.160   5.800
 5679TIP3    H216977   4.076   1.279   5.835
 5680TIP3   OH216978   3.222   1.054   5.911
 5680TIP3    H116979   3.254   1.135   5.956
 5680TIP3    H216980   3.186   1.001   5.985
 5681TIP3   OH216981   3.030   1.173   4.875
 5681TIP3    H116982   2.981   1.151   4.794
 5681TIP3    H216983   2.994   1.260   4.899
 5682TIP3   OH216984   2.477   1.036   5.262
 5682TIP3    H116985   2.520   1.017   5.348
 5682TIP3    H216986   2.419   0.956   5.254
 5683TIP3   OH216987   3.231   1.072   4.517
 5683TIP3    H116988   3.290   1.002   4.481
 5683TIP3    H216989   3.265   1.080   4.608
 5684TIP3   OH216990   3.282   1.120   4.787
 5684TIP3    H116991   3.194   1.128   4.829
 5684TIP3    H216992   3.332   1.075   4.857
 5685TIP3   OH216993   4.051   0.374   6.067
 5685TIP3    H116994   3.974   0.410   6.020
 5685TIP3    H216995   4.039   0.279   6.052
 5686TIP3   OH216996   2.643   0.804   6.095
 5686TIP3    H116997   2.698   0.781   6.173
 5686TIP3    H216998   2.574   0.734   6.097
 5687TIP3   OH216999   3.833   0.171   6.009
 5687TIP3    H117000   3.794   0.198   6.092
 5687TIP3    H217001   3.810   0.243   5.948
 5688TIP3   OH217002   3.481   0.285   4.541
 5688TIP3    H117003   3.448   0.264   4.452
 5688TIP3    H217004   3.560   0.338   4.520
 5689TIP3   OH217005   3.001   0.138   5.911
 5689TIP3    H117006   2.937   0.158   5.982
 5689TIP3    H217007   2.987   0.215   5.852
 5690TIP3   OH217008   2.865   0.017   5.414
 5690TIP3    H117009   2.769   0.001   5.420
 5690TIP3    H217010   2.885  -0.015   5.323
 5691TIP3   OH217011   3.540   0.412   6.211
 5691TIP3    H117012   3.514   0.330   6.259
 5691TIP3    H217013   3.635   0.417   6.234
 5692TIP3   OH217014   3.528   0.147   5.376
 5692TIP3    H117015   3.469   0.207   5.329
 5692TIP3    H217016   3.500   0.063   5.332
 5693TIP3   OH217017   2.798   0.168   6.102
 5693TIP3    H117018   2.829   0.228   6.171
 5693TIP3    H217019   2.785   0.085   6.150
 5694TIP3   OH217020   2.434  -0.227   5.232
 5694TIP3    H117021   2.443  -0.231   5.136
 5694TIP3    H217022   2.340  -0.200   5.240
 5695TIP3   OH217023   3.523   0.382   5.798
 5695TIP3    H117024   3.555   0.310   5.739
 5695TIP3    H217025   3.493   0.329   5.875
 5696TIP3   OH217026   2.612  -0.103   5.458
 5696TIP3    H117027   2.518  -0.075   5.445
 5696TIP3    H217028   2.610  -0.185   5.408
 5697TIP3   OH217029   2.911  -0.086   5.166
 5697TIP3    H117030   2.999  -0.066   5.131
 5697TIP3    H217031   2.855  -0.091   5.086
 5698TIP3   OH217032   2.738  -0.103   4.940
 5698TIP3    H117033   2.659  -0.111   4.884
 5698TIP3    H217034   2.797  -0.054   4.879
 5699TIP3   OH217035   3.854   1.607   5.889
 5699TIP3    H117036   3.850   1.625   5.793
 5699TIP3    H217037   3.935   1.653   5.915
 5700TIP3   OH217038   2.807   0.722   6.309
 5700TIP3    H117039   2.891   0.747   6.354
 5700TIP3    H217040   2.747   0.717   6.386
 5701TIP3   OH217041   3.273   0.175   5.565
 5701TIP3    H117042   3.324   0.113   5.510
 5701TIP3    H217043   3.282   0.135   5.655
 5702TIP3   OH217044   3.271   0.086   5.836
 5702TIP3    H117045   3.180   0.092   5.870
 5702TIP3    H217046   3.321   0.138   5.902
 5703TIP3   OH217047   2.976   0.467   4.942
 5703TIP3    H117048   2.909   0.395   4.937
 5703TIP3    H217049   2.965   0.495   5.037
 5704TIP3   OH217050   3.889   0.694   5.582
 5704TIP3    H117051   3.908   0.744   5.500
 5704TIP3    H217052   3.804   0.649   5.558
 5705TIP3   OH217053   3.408  -0.177   4.753
 5705TIP3    H117054   3.362  -0.216   4.831
 5705TIP3    H217055   3.458  -0.105   4.799
 5706TIP3   OH217056   3.351   0.764   5.977
 5706TIP3    H117057   3.416   0.782   6.046
 5706TIP3    H217058   3.360   0.840   5.918
 5707TIP3   OH217059   3.546   0.018   4.866
 5707TIP3    H117060   3.631   0.035   4.912
 5707TIP3    H217061   3.497   0.100   4.887
 5708TIP3   OH217062   2.686   0.488   5.627
 5708TIP3    H117063   2.712   0.459   5.537
 5708TIP3    H217064   2.727   0.418   5.681
 5709TIP3   OH217065   3.129   0.606   4.764
 5709TIP3    H117066   3.084   0.693   4.775
 5709TIP3    H217067   3.077   0.551   4.826
 5710TIP3   OH217068   2.557   0.407   6.244
 5710TIP3    H117069   2.585   0.388   6.335
 5710TIP3    H217070   2.494   0.335   6.226
 5711TIP3   OH217071   3.287   0.511   6.266
 5711TIP3    H117072   3.227   0.464   6.205
 5711TIP3    H217073   3.374   0.488   6.228
 5712TIP3   OH217074   3.967   0.109   4.735
 5712TIP3    H117075   3.899   0.058   4.686
 5712TIP3    H217076   3.947   0.199   4.702
 5713TIP3   OH217077   4.178   0.970   5.830
 5713TIP3    H117078   4.080   0.962   5.821
 5713TIP3    H217079   4.204   0.937   5.741
 5714TIP3   OH217080   3.656   0.927   4.661
 5714TIP3    H117081   3.632   0.859   4.726
 5714TIP3    H217082   3.669   0.875   4.580
 5715TIP3   OH217083   3.668   0.557   5.495
 5715TIP3    H117084   3.574   0.545   5.516
 5715TIP3    H217085   3.690   0.473   5.448
 5716TIP3   OH217086   2.779   0.787   5.257
 5716TIP3    H117087   2.770   0.863   5.198
 5716TIP3    H217088   2.689   0.751   5.258
 5717TIP3   OH217089   2.340   0.091   4.955
 5717TIP3    H117090   2.386   0.175   4.977
 5717TIP3    H217091   2.265   0.095   5.019
 5718TIP3   OH217092   2.917   0.552   5.192
 5718TIP3    H117093   2.884   0.640   5.218
 5718TIP3    H217094   2.886   0.497   5.266
 5719TIP3   OH217095   3.047   1.128   5.717
 5719TIP3    H117096   3.101   1.192   5.666
 5719TIP3    H217097   3.116   1.089   5.775
 5720TIP3   OH217098   2.700   1.025   5.099
 5720TIP3    H117099   2.616   1.031   5.150
 5720TIP3    H217100   2.730   1.118   5.103
 5721TIP3   OH217101   3.412   0.657   4.563
 5721TIP3    H117102   3.469   0.631   4.639
 5721TIP3    H217103   3.326   0.627   4.596
 5722TIP3   OH217104   3.689   1.289   5.727
 5722TIP3    H117105   3.606   1.238   5.722
 5722TIP3    H217106   3.670   1.358   5.660
 5723TIP3   OH217107   3.754   1.130   4.380
 5723TIP3    H117108   3.797   1.207   4.339
 5723TIP3    H217109   3.672   1.173   4.412
 5724TIP3   OH217110   3.575   0.585   4.771
 5724TIP3    H117111   3.560   0.523   4.846
 5724TIP3    H217112   3.673   0.582   4.766
 5725TIP3   OH217113   2.508   1.015   5.896
 5725TIP3    H117114   2.543   0.928   5.873
 5725TIP3    H217115   2.525   1.012   5.992
 5726TIP3   OH217116   2.777   0.635   4.560
 5726TIP3    H117117   2.794   0.542   4.535
 5726TIP3    H217118   2.759   0.625   4.656
 5727TIP3   OH217119   2.726   0.640   4.831
 5727TIP3    H117120   2.797   0.604   4.887
 5727TIP3    H217121   2.734   0.736   4.845
 5728TIP3   OH217122   2.456   0.334   5.039
 5728TIP3    H117123   2.417   0.370   5.122
 5728TIP3    H217124   2.454   0.414   4.984
 5729TIP3   OH217125   2.991   0.838   4.780
 5729TIP3    H117126   2.905   0.861   4.819
 5729TIP3    H217127   3.005   0.914   4.722
 5730TIP3   OH217128   3.458   0.221   6.007
 5730TIP3    H117129   3.453   0.283   6.083
 5730TIP3    H217130   3.512   0.151   6.045
 5731TIP3   OH217131   2.737   0.914   4.850
 5731TIP3    H117132   2.702   0.984   4.790
 5731TIP3    H217133   2.718   0.954   4.938
 5732TIP3   OH217134   3.750   0.316   5.372
 5732TIP3    H117135   3.676   0.253   5.380
 5732TIP3    H217136   3.821   0.270   5.421
 5733TIP3   OH217137   2.454   0.544   4.845
 5733TIP3    H117138   2.526   0.608   4.857
 5733TIP3    H217139   2.496   0.484   4.780
 5734TIP3   OH217140   2.394  -0.181   4.950
 5734TIP3    H117141   2.385  -0.083   4.954
 5734TIP3    H217142   2.304  -0.210   4.965
 5735TIP3   OH217143   3.703   1.279   5.325
 5735TIP3    H117144   3.664   1.326   5.248
 5735TIP3    H217145   3.798   1.291   5.304
 5736TIP3   OH217146   2.326   0.808   5.251
 5736TIP3    H117147   2.302   0.720   5.288
 5736TIP3    H217148   2.304   0.795   5.157
 5737TIP3   OH217149   2.479   1.298   6.301
 5737TIP3    H117150   2.566   1.300   6.348
 5737TIP3    H217151   2.462   1.202   6.303
 5738TIP3   OH217152   2.960   1.264   6.347
 5738TIP3    H117153   3.055   1.243   6.353
 5738TIP3    H217154   2.934   1.205   6.273
 5739TIP3   OH217155   2.941   0.837   4.473
 5739TIP3    H117156   2.883   0.767   4.512
 5739TIP3    H217157   3.018   0.783   4.449
 5740TIP3   OH217158   3.582   1.197   6.100
 5740TIP3    H117159   3.578   1.108   6.141
 5740TIP3    H217160   3.675   1.221   6.109
 5741TIP3   OH217161   3.379   0.878   4.388
 5741TIP3    H117162   3.416   0.812   4.449
 5741TIP3    H217163   3.439   0.872   4.311
 5742TIP3   OH217164   2.610   0.706   6.503
 5742TIP3    H117165   2.627   0.610   6.509
 5742TIP3    H217166   2.523   0.707   6.456
 5743TIP3   OH217167   2.588   0.355   4.694
 5743TIP3    H117168   2.638   0.324   4.772
 5743TIP3    H217169   2.660   0.359   4.627
 5744TIP3   OH217170   3.218   0.787   6.280
 5744TIP3    H117171   3.184   0.809   6.190
 5744TIP3    H217172   3.249   0.695   6.267
 5745TIP3   OH217173   3.094   0.554   4.498
 5745TIP3    H117174   3.099   0.567   4.595
 5745TIP3    H217175   3.096   0.456   4.494
 5746TIP3   OH217176   3.704   0.798   5.889
 5746TIP3    H117177   3.770   0.850   5.840
 5746TIP3    H217178   3.626   0.811   5.833
 5747TIP3   OH217179   2.733   0.441   6.483
 5747TIP3    H117180   2.814   0.393   6.460
 5747TIP3    H217181   2.755   0.472   6.573
 5748TIP3   OH217182   2.792   0.261   4.917
 5748TIP3    H117183   2.763   0.228   5.004
 5748TIP3    H217184   2.828   0.181   4.875
 5749TIP3   OH217185   3.062   0.350   6.141
 5749TIP3    H117186   2.980   0.405   6.135
 5749TIP3    H217187   3.110   0.376   6.058
 5750TIP3   OH217188   2.894   0.049   4.764
 5750TIP3    H117189   2.868   0.056   4.671
 5750TIP3    H217190   2.992   0.057   4.756
 5751TIP3   OH217191   3.589   0.727   6.285
 5751TIP3    H117192   3.651   0.691   6.220
 5751TIP3    H217193   3.575   0.652   6.344
 5752TIP3   OH217194   3.716   0.383   4.418
 5752TIP3    H117195   3.696   0.340   4.333
 5752TIP3    H217196   3.683   0.474   4.398
 5753TIP3   OH217197   3.153   0.133   6.266
 5753TIP3    H117198   3.106   0.073   6.205
 5753TIP3    H217199   3.127   0.220   6.226
 5754TIP3   OH217200   3.228   0.436   5.946
 5754TIP3    H117201   3.312   0.452   5.901
 5754TIP3    H217202   3.170   0.505   5.905
 5755TIP3   OH217203   3.791   0.405   6.311
 5755TIP3    H117204   3.826   0.348   6.384
 5755TIP3    H217205   3.869   0.456   6.285
 5756TIP3   OH217206   3.843   0.656   6.072
 5756TIP3    H117207   3.783   0.711   6.016
 5756TIP3    H217208   3.929   0.678   6.030
 5757TIP3   OH217209   3.033   0.256   6.496
 5757TIP3    H117210   2.991   0.176   6.530
 5757TIP3    H217211   3.094   0.221   6.429
 5758TIP3   OH217212   3.433   0.185   6.303
 5758TIP3    H117213   3.454   0.158   6.394
 5758TIP3    H217214   3.336   0.172   6.302
 5759TIP3   OH217215   2.706   1.125   4.665
 5759TIP3    H117216   2.800   1.110   4.645
 5759TIP3    H217217   2.677   1.167   4.582
 5760TIP3   OH217218   2.176   0.512   4.830
 5760TIP3    H117219   2.267   0.530   4.860
 5760TIP3    H217220   2.178   0.414   4.819
 5761TIP3   OH217221   2.096   1.113   5.287
 5761TIP3    H117222   2.031   1.047   5.254
 5761TIP3    H217223   2.140   1.060   5.358
 5762TIP3   OH217224   2.217   0.989   5.495
 5762TIP3    H117225   2.225   0.893   5.498
 5762TIP3    H217226   2.282   1.019   5.560
 5763TIP3   OH217227   3.958   1.371   5.278
 5763TIP3    H117228   3.989   1.390   5.368
 5763TIP3    H217229   4.033   1.397   5.223
 5764TIP3   OH217230   3.994   1.379   5.561
 5764TIP3    H117231   3.941   1.296   5.557
 5764TIP3    H217232   4.066   1.348   5.618
 5765TIP3   OH217233   4.039   1.057   6.137
 5765TIP3    H117234   3.965   1.066   6.200
 5765TIP3    H217235   4.080   1.145   6.141
 5766TIP3   OH217236   3.854   0.570   4.753
 5766TIP3    H117237   3.924   0.633   4.726
 5766TIP3    H217238   3.895   0.531   4.834
 5767TIP3   OH217239   3.979   0.439   4.956
 5767TIP3    H117240   3.913   0.397   5.015
 5767TIP3    H217241   4.042   0.479   5.019
 5768TIP3   OH217242   4.041   0.833   5.394
 5768TIP3    H117243   4.089   0.764   5.344
 5768TIP3    H217244   4.017   0.896   5.325
 5769TIP3   OH217245   3.864   1.132   5.580
 5769TIP3    H117246   3.789   1.167   5.632
 5769TIP3    H217247   3.818   1.081   5.510
 5770TIP3   OH217248   3.912   0.345   4.603
 5770TIP3    H117249   3.842   0.356   4.535
 5770TIP3    H217250   3.889   0.420   4.662
 5771TIP3   OH217251   3.788  -0.001   4.544
 5771TIP3    H117252   3.770   0.084   4.501
 5771TIP3    H217253   3.717  -0.056   4.508
 5772TIP3   OH217254   3.794   0.304   5.102
 5772TIP3    H117255   3.790   0.209   5.082
 5772TIP3    H217256   3.783   0.307   5.200
 5773TIP3   OH217257   2.419   0.367   5.860
 5773TIP3    H117258   2.413   0.335   5.767
 5773TIP3    H217259   2.517   0.371   5.871
 5774TIP3   OH217260   4.085   0.721   5.962
 5774TIP3    H117261   4.157   0.655   5.951
 5774TIP3    H217262   4.104   0.786   5.892
 5775TIP3   OH217263   4.266   0.522   5.981
 5775TIP3    H117264   4.192   0.467   6.016
 5775TIP3    H217265   4.340   0.460   5.998
 5776TIP3   OH217266   3.798   0.055   4.973
 5776TIP3    H117267   3.798  -0.021   5.036
 5776TIP3    H217268   3.873   0.035   4.914
 5777TIP3   OH217269   3.955   0.187   5.504
 5777TIP3    H117270   4.040   0.213   5.462
 5777TIP3    H217271   3.968   0.225   5.593
 5778TIP3   OH217272   4.017   0.338   5.729
 5778TIP3    H117273   3.937   0.372   5.773
 5778TIP3    H217274   4.049   0.418   5.681
 5779TIP3   OH217275   2.637   0.050   6.520
 5779TIP3    H117276   2.732   0.039   6.512
 5779TIP3    H217277   2.610  -0.034   6.560
 5780TIP3   OH217278   2.394   0.022   5.926
 5780TIP3    H117279   2.441   0.018   5.840
 5780TIP3    H217280   2.432   0.103   5.963
 5781TIP3   OH217281   3.542   1.235   4.934
 5781TIP3    H117282   3.594   1.216   4.853
 5781TIP3    H217283   3.604   1.287   4.986
 5782TIP3   OH217284   2.642   1.038   6.322
 5782TIP3    H117285   2.553   1.000   6.308
 5782TIP3    H217286   2.662   1.010   6.412
 5783TIP3   OH217287   2.826   1.060   5.871
 5783TIP3    H117288   2.771   1.078   5.794
 5783TIP3    H217289   2.914   1.085   5.837
 5784TIP3   OH217290   3.266   1.316   6.017
 5784TIP3    H117291   3.316   1.311   6.101
 5784TIP3    H217292   3.331   1.362   5.959
 5785TIP3   OH217293   3.436   1.472   5.870
 5785TIP3    H117294   3.485   1.414   5.809
 5785TIP3    H217295   3.506   1.512   5.925
 5786TIP3   OH217296   3.149   1.324   5.549
 5786TIP3    H117297   3.090   1.360   5.481
 5786TIP3    H217298   3.186   1.404   5.591
 5787TIP3   OH217299   3.432   1.325   5.622
 5787TIP3    H117300   3.375   1.249   5.600
 5787TIP3    H217301   3.460   1.357   5.536
 5788TIP3   OH217302   3.666   1.474   5.514
 5788TIP3    H117303   3.637   1.550   5.459
 5788TIP3    H217304   3.678   1.403   5.448
 5789TIP3   OH217305   2.424   1.120   5.650
 5789TIP3    H117306   2.452   1.088   5.738
 5789TIP3    H217307   2.491   1.074   5.593
 5790TIP3   OH217308   2.607   0.987   5.501
 5790TIP3    H117309   2.623   0.898   5.541
 5790TIP3    H217310   2.700   1.018   5.490
 5791TIP3   OH217311   2.878   1.077   5.503
 5791TIP3    H117312   2.902   0.984   5.486
 5791TIP3    H217313   2.939   1.095   5.578
 5792TIP3   OH217314   2.213   0.877   4.991
 5792TIP3    H117315   2.124   0.840   4.976
 5792TIP3    H217316   2.190   0.968   5.016
 5793TIP3   OH217317   2.970   1.074   4.607
 5793TIP3    H117318   3.060   1.094   4.574
 5793TIP3    H217319   2.949   0.998   4.550
 5794TIP3   OH217320   3.691   1.193   4.704
 5794TIP3    H117321   3.684   1.095   4.694
 5794TIP3    H217322   3.646   1.222   4.622
 5795TIP3   OH217323   2.278   0.920   4.674
 5795TIP3    H117324   2.266   0.918   4.770
 5795TIP3    H217325   2.363   0.873   4.663
 5796TIP3   OH217326   3.913   1.335   5.891
 5796TIP3    H117327   3.837   1.300   5.841
 5796TIP3    H217328   3.889   1.430   5.895
 5797TIP3   OH217329   5.224   0.688   5.028
 5797TIP3    H117330   5.200   0.659   5.117
 5797TIP3    H217331   5.139   0.691   4.980
 5798TIP3   OH217332   4.480   0.608   5.405
 5798TIP3    H117333   4.512   0.537   5.463
 5798TIP3    H217334   4.563   0.654   5.385
 5799TIP3   OH217335   5.429   1.008   4.712
 5799TIP3    H117336   5.378   0.950   4.771
 5799TIP3    H217337   5.453   1.080   4.773
 5800TIP3   OH217338   4.454   1.014   5.129
 5800TIP3    H117339   4.446   0.917   5.131
 5800TIP3    H217340   4.551   1.023   5.116
 5801TIP3   OH217341   4.150   0.224   4.921
 5801TIP3    H117342   4.100   0.306   4.938
 5801TIP3    H217343   4.085   0.174   4.869
 5802TIP3   OH217344   4.214   0.514   5.081
 5802TIP3    H117345   4.254   0.431   5.116
 5802TIP3    H217346   4.283   0.546   5.021
 5803TIP3   OH217347   5.074   1.473   4.739
 5803TIP3    H117348   5.121   1.406   4.684
 5803TIP3    H217349   5.072   1.427   4.824
 5804TIP3   OH217350   4.973   0.939   5.095
 5804TIP3    H117351   4.986   0.914   5.000
 5804TIP3    H217352   5.065   0.968   5.113
 5805TIP3   OH217353   5.390   0.430   5.131
 5805TIP3    H117354   5.440   0.348   5.141
 5805TIP3    H217355   5.360   0.424   5.038
 5806TIP3   OH217356   4.702   0.061   5.069
 5806TIP3    H117357   4.689   0.147   5.024
 5806TIP3    H217358   4.638   0.005   5.024
 5807TIP3   OH217359   5.401   0.196   4.706
 5807TIP3    H117360   5.478   0.171   4.765
 5807TIP3    H217361   5.451   0.220   4.627
 5808TIP3   OH217362   4.340   0.297   5.181
 5808TIP3    H117363   4.430   0.300   5.221
 5808TIP3    H217364   4.359   0.238   5.106
 5809TIP3   OH217365   4.804   0.495   4.990
 5809TIP3    H117366   4.899   0.471   5.000
 5809TIP3    H217367   4.767   0.409   4.961
 5810TIP3   OH217368   6.044   0.451   5.283
 5810TIP3    H117369   5.968   0.503   5.249
 5810TIP3    H217370   6.092   0.517   5.335
 5811TIP3   OH217371   4.836   0.853   5.315
 5811TIP3    H117372   4.776   0.923   5.347
 5811TIP3    H217373   4.878   0.895   5.237
 5812TIP3   OH217374   4.594   0.264   5.256
 5812TIP3    H117375   4.667   0.302   5.308
 5812TIP3    H217376   4.630   0.178   5.232
 5813TIP3   OH217377   4.663   1.051   5.413
 5813TIP3    H117378   4.636   1.135   5.372
 5813TIP3    H217379   4.584   1.033   5.468
 5814TIP3   OH217380   4.058   0.740   4.647
 5814TIP3    H117381   4.016   0.770   4.564
 5814TIP3    H217382   4.091   0.823   4.685
 5815TIP3   OH217383   5.500   1.259   4.888
 5815TIP3    H117384   5.411   1.246   4.929
 5815TIP3    H217385   5.486   1.343   4.842
 5816TIP3   OH217386   5.225   1.309   4.583
 5816TIP3    H117387   5.256   1.222   4.552
 5816TIP3    H217388   5.273   1.369   4.522
 5817TIP3   OH217389   5.343   1.084   4.464
 5817TIP3    H117390   5.290   1.008   4.438
 5817TIP3    H217391   5.381   1.054   4.549
 5818TIP3   OH217392   5.724   1.167   5.230
 5818TIP3    H117393   5.709   1.089   5.172
 5818TIP3    H217394   5.705   1.241   5.168
 5819TIP3   OH217395   4.999   0.532   4.461
 5819TIP3    H117396   4.931   0.601   4.473
 5819TIP3    H217397   5.056   0.573   4.395
 5820TIP3   OH217398   4.971   0.346   4.195
 5820TIP3    H117399   5.019   0.398   4.262
 5820TIP3    H217400   5.026   0.267   4.190
 5821TIP3   OH217401   5.920   0.812   5.078
 5821TIP3    H117402   5.833   0.857   5.083
 5821TIP3    H217403   5.944   0.830   4.985
 5822TIP3   OH217404   5.352   0.654   4.471
 5822TIP3    H117405   5.303   0.681   4.550
 5822TIP3    H217406   5.435   0.621   4.511
 5823TIP3   OH217407   5.594   0.685   5.374
 5823TIP3    H117408   5.585   0.769   5.421
 5823TIP3    H217409   5.506   0.679   5.331
 5824TIP3   OH217410   4.589   0.636   4.884
 5824TIP3    H117411   4.557   0.580   4.810
 5824TIP3    H217412   4.670   0.587   4.913
 5825TIP3   OH217413   4.722   1.054   5.026
 5825TIP3    H117414   4.706   1.019   4.937
 5825TIP3    H217415   4.811   1.018   5.045
 5826TIP3   OH217416   4.728   0.610   5.237
 5826TIP3    H117417   4.759   0.584   5.148
 5826TIP3    H217418   4.774   0.696   5.251
 5827TIP3   OH217419   5.261   1.254   5.010
 5827TIP3    H117420   5.245   1.327   5.071
 5827TIP3    H217421   5.241   1.175   5.064
 5828TIP3   OH217422   4.868   1.170   5.556
 5828TIP3    H117423   4.807   1.231   5.601
 5828TIP3    H217424   4.805   1.116   5.505
 5829TIP3   OH217425   5.219   0.501   4.283
 5829TIP3    H117426   5.266   0.568   4.337
 5829TIP3    H217427   5.240   0.528   4.191
 5830TIP3   OH217428   4.616   0.733   5.656
 5830TIP3    H117429   4.619   0.818   5.703
 5830TIP3    H217430   4.521   0.710   5.664
 5831TIP3   OH217431   4.953   1.224   4.504
 5831TIP3    H117432   4.998   1.190   4.584
 5831TIP3    H217433   4.876   1.269   4.539
 5832TIP3   OH217434   4.661   1.339   5.642
 5832TIP3    H117435   4.627   1.336   5.550
 5832TIP3    H217436   4.580   1.316   5.694
 5833TIP3   OH217437   4.464   0.480   4.673
 5833TIP3    H117438   4.395   0.527   4.621
 5833TIP3    H217439   4.418   0.399   4.696
 5834TIP3   OH217440   5.515   1.108   3.878
 5834TIP3    H117441   5.523   1.205   3.868
 5834TIP3    H217442   5.609   1.080   3.868
 5835TIP3   OH217443   4.242   0.870   5.588
 5835TIP3    H117444   4.173   0.850   5.521
 5835TIP3    H217445   4.278   0.781   5.608
 5836TIP3   OH217446   4.097   1.069   5.207
 5836TIP3    H117447   4.191   1.048   5.207
 5836TIP3    H217448   4.091   1.136   5.277
 5837TIP3   OH217449   5.959   1.514   5.277
 5837TIP3    H117450   5.958   1.417   5.290
 5837TIP3    H217451   5.876   1.538   5.323
 5838TIP3   OH217452   5.065   1.298   5.412
 5838TIP3    H117453   5.063   1.390   5.444
 5838TIP3    H217454   4.993   1.258   5.467
 5839TIP3   OH217455   4.811   1.438   4.356
 5839TIP3    H117456   4.772   1.422   4.268
 5839TIP3    H217457   4.785   1.529   4.377
 5840TIP3   OH217458   4.264   1.276   4.751
 5840TIP3    H117459   4.314   1.267   4.835
 5840TIP3    H217460   4.215   1.191   4.750
 5841TIP3   OH217461   5.027   1.330   4.004
 5841TIP3    H117462   5.086   1.259   3.971
 5841TIP3    H217463   5.057   1.340   4.097
 5842TIP3   OH217464   5.070   1.374   4.277
 5842TIP3    H117465   4.982   1.379   4.322
 5842TIP3    H217466   5.116   1.324   4.346
 5843TIP3   OH217467   5.848   0.632   5.555
 5843TIP3    H117468   5.774   0.666   5.503
 5843TIP3    H217469   5.834   0.536   5.542
 5844TIP3   OH217470   4.444   1.055   5.579
 5844TIP3    H117471   4.496   1.033   5.659
 5844TIP3    H217472   4.371   0.989   5.583
 5845TIP3   OH217473   5.638   0.430   5.497
 5845TIP3    H117474   5.589   0.451   5.577
 5845TIP3    H217475   5.610   0.501   5.436
 5846TIP3   OH217476   5.277   0.539   4.019
 5846TIP3    H117477   5.247   0.519   3.929
 5846TIP3    H217478   5.351   0.600   4.002
 5847TIP3   OH217479   4.794   0.396   5.397
 5847TIP3    H117480   4.731   0.416   5.469
 5847TIP3    H217481   4.779   0.473   5.337
 5848TIP3   OH217482   4.662   0.273   4.902
 5848TIP3    H117483   4.566   0.258   4.912
 5848TIP3    H217484   4.677   0.242   4.810
 5849TIP3   OH217485   5.149   0.372   4.625
 5849TIP3    H117486   5.093   0.436   4.575
 5849TIP3    H217487   5.209   0.339   4.556
 5850TIP3   OH217488   5.334   0.670   5.698
 5850TIP3    H117489   5.310   0.588   5.747
 5850TIP3    H217490   5.430   0.676   5.720
 5851TIP3   OH217491   5.303   0.394   4.869
 5851TIP3    H117492   5.237   0.418   4.802
 5851TIP3    H217493   5.342   0.316   4.824
 5852TIP3   OH217494   4.595   0.425   5.588
 5852TIP3    H117495   4.618   0.486   5.660
 5852TIP3    H217496   4.577   0.342   5.635
 5853TIP3   OH217497   4.232   0.027   4.718
 5853TIP3    H117498   4.243   0.027   4.621
 5853TIP3    H217499   4.139   0.055   4.725
 5854TIP3   OH217500   5.329   0.637   5.295
 5854TIP3    H117501   5.353   0.569   5.227
 5854TIP3    H217502   5.295   0.578   5.366
 5855TIP3   OH217503   4.409   0.155   4.947
 5855TIP3    H117504   4.316   0.185   4.931
 5855TIP3    H217505   4.406   0.071   4.899
 5856TIP3   OH217506   4.699   0.166   4.656
 5856TIP3    H117507   4.794   0.161   4.631
 5856TIP3    H217508   4.652   0.164   4.570
 5857TIP3   OH217509   4.534   0.154   4.425
 5857TIP3    H117510   4.456   0.144   4.367
 5857TIP3    H217511   4.592   0.205   4.364
 5858TIP3   OH217512   5.651   1.863   5.377
 5858TIP3    H117513   5.649   1.886   5.282
 5858TIP3    H217514   5.730   1.911   5.408
 5859TIP3   OH217515   4.606   0.976   5.798
 5859TIP3    H117516   4.687   1.003   5.846
 5859TIP3    H217517   4.543   0.972   5.873
 5860TIP3   OH217518   5.059   0.407   5.051
 5860TIP3    H117519   5.148   0.403   5.014
 5860TIP3    H217520   5.074   0.380   5.145
 5861TIP3   OH217521   5.066   0.347   5.323
 5861TIP3    H117522   4.975   0.350   5.357
 5861TIP3    H217523   5.117   0.395   5.392
 5862TIP3   OH217524   4.788   0.712   4.432
 5862TIP3    H117525   4.714   0.649   4.421
 5862TIP3    H217526   4.766   0.749   4.520
 5863TIP3   OH217527   5.684   0.950   5.067
 5863TIP3    H117528   5.703   0.999   4.985
 5863TIP3    H217529   5.600   0.904   5.044
 5864TIP3   OH217530   5.205   0.097   4.250
 5864TIP3    H117531   5.154   0.045   4.315
 5864TIP3    H217532   5.249   0.161   4.311
 5865TIP3   OH217533   5.192   1.036   5.434
 5865TIP3    H117534   5.205   1.010   5.526
 5865TIP3    H217535   5.144   1.120   5.442
 5866TIP3   OH217536   5.320   0.280   4.409
 5866TIP3    H117537   5.416   0.284   4.431
 5866TIP3    H217538   5.303   0.366   4.366
 5867TIP3   OH217539   4.474   0.736   5.114
 5867TIP3    H117540   4.513   0.708   5.028
 5867TIP3    H217541   4.521   0.676   5.175
 5868TIP3   OH217542   4.929   0.859   4.242
 5868TIP3    H117543   4.886   0.946   4.258
 5868TIP3    H217544   4.889   0.807   4.315
 5869TIP3   OH217545   4.356   0.657   5.728
 5869TIP3    H117546   4.374   0.639   5.822
 5869TIP3    H217547   4.285   0.593   5.708
 5870TIP3   OH217548   5.083   0.773   5.749
 5870TIP3    H117549   5.022   0.720   5.694
 5870TIP3    H217550   5.170   0.743   5.716
 5871TIP3   OH217551   5.346   1.305   5.325
 5871TIP3    H117552   5.251   1.289   5.339
 5871TIP3    H217553   5.370   1.350   5.409
 5872TIP3   OH217554   5.748   0.363   4.237
 5872TIP3    H117555   5.688   0.313   4.178
 5872TIP3    H217556   5.735   0.453   4.201
 5873TIP3   OH217557   5.974   1.225   5.318
 5873TIP3    H117558   5.876   1.218   5.310
 5873TIP3    H217559   5.999   1.193   5.228
 5874TIP3   OH217560   5.455   1.184   4.147
 5874TIP3    H117561   5.426   1.121   4.215
 5874TIP3    H217562   5.465   1.129   4.067
 5875TIP3   OH217563   5.460   0.812   4.989
 5875TIP3    H117564   5.368   0.781   5.006
 5875TIP3    H217565   5.491   0.735   4.939
 5876TIP3   OH217566   4.578   1.059   4.756
 5876TIP3    H117567   4.573   1.129   4.688
 5876TIP3    H217568   4.493   1.016   4.747
 5877TIP3   OH217569   4.140   0.344   4.447
 5877TIP3    H117570   4.187   0.428   4.467
 5877TIP3    H217571   4.063   0.351   4.508
 5878TIP3   OH217572   4.684   0.801   4.663
 5878TIP3    H117573   4.709   0.889   4.696
 5878TIP3    H217574   4.680   0.751   4.747
 5879TIP3   OH217575   4.846   1.384   5.208
 5879TIP3    H117576   4.890   1.455   5.156
 5879TIP3    H217577   4.922   1.343   5.253
 5880TIP3   OH217578   4.493   1.283   4.586
 5880TIP3    H117579   4.410   1.288   4.637
 5880TIP3    H217580   4.524   1.376   4.590
 5881TIP3   OH217581   5.237   1.020   5.164
 5881TIP3    H117582   5.231   1.014   5.262
 5881TIP3    H217583   5.306   0.954   5.145
 5882TIP3   OH217584   5.207   0.908   4.049
 5882TIP3    H117585   5.262   0.882   4.127
 5882TIP3    H217586   5.119   0.888   4.083
 5883TIP3   OH217587   5.485   1.552   5.219
 5883TIP3    H117588   5.408   1.491   5.217
 5883TIP3    H217589   5.464   1.613   5.145
 5884TIP3   OH217590   5.549   1.385   3.868
 5884TIP3    H117591   5.588   1.460   3.821
 5884TIP3    H217592   5.468   1.428   3.903
 5885TIP3   OH217593   5.372   0.833   4.257
 5885TIP3    H117594   5.360   0.778   4.337
 5885TIP3    H217595   5.470   0.837   4.253
 5886TIP3   OH217596   4.283   1.246   5.367
 5886TIP3    H117597   4.336   1.168   5.390
 5886TIP3    H217598   4.318   1.310   5.430
 5887TIP3   OH217599   4.573   0.892   4.049
 5887TIP3    H117600   4.590   0.799   4.024
 5887TIP3    H217601   4.558   0.883   4.145
 5888TIP3   OH217602   4.520   0.895   4.321
 5888TIP3    H117603   4.592   0.866   4.379
 5888TIP3    H217604   4.526   0.993   4.330
 5889TIP3   OH217605   4.254   0.588   4.525
 5889TIP3    H117606   4.189   0.634   4.582
 5889TIP3    H217607   4.273   0.658   4.459
 5890TIP3   OH217608   4.780   1.088   4.257
 5890TIP3    H117609   4.699   1.115   4.303
 5890TIP3    H217610   4.812   1.174   4.227
 5891TIP3   OH217611   4.985   0.152   4.643
 5891TIP3    H117612   5.035   0.236   4.643
 5891TIP3    H217613   5.014   0.114   4.728
 5892TIP3   OH217614   5.250   0.476   5.497
 5892TIP3    H117615   5.250   0.536   5.573
 5892TIP3    H217616   5.306   0.404   5.529
 5893TIP3   OH217617   4.526   1.169   4.337
 5893TIP3    H117618   4.498   1.240   4.276
 5893TIP3    H217619   4.512   1.212   4.424
 5894TIP3   OH217620   5.527   0.576   4.851
 5894TIP3    H117621   5.457   0.513   4.875
 5894TIP3    H217622   5.605   0.540   4.901
 5895TIP3   OH217623   4.249   0.799   4.328
 5895TIP3    H117624   4.320   0.865   4.341
 5895TIP3    H217625   4.294   0.742   4.262
 5896TIP3   OH217626   4.192   0.074   4.438
 5896TIP3    H117627   4.185   0.172   4.441
 5896TIP3    H217628   4.101   0.046   4.449
 5897TIP3   OH217629   5.504   1.531   4.810
 5897TIP3    H117630   5.460   1.575   4.734
 5897TIP3    H217631   5.598   1.548   4.787
 5898TIP3   OH217632   4.121   1.016   4.716
 5898TIP3    H117633   4.051   1.043   4.776
 5898TIP3    H217634   4.090   1.055   4.631
 5899TIP3   OH217635   4.273   1.556   5.795
 5899TIP3    H117636   4.362   1.550   5.835
 5899TIP3    H217637   4.251   1.461   5.788
 5900TIP3   OH217638   4.754   1.520   5.831
 5900TIP3    H117639   4.848   1.499   5.841
 5900TIP3    H217640   4.730   1.459   5.759
 5901TIP3   OH217641   4.736   1.095   3.955
 5901TIP3    H117642   4.678   1.029   4.002
 5901TIP3    H217643   4.814   1.039   3.940
 5902TIP3   OH217644   5.393   1.428   5.569
 5902TIP3    H117645   5.385   1.357   5.637
 5902TIP3    H217646   5.472   1.476   5.599
 5903TIP3   OH217647   5.175   1.134   3.874
 5903TIP3    H117648   5.216   1.071   3.935
 5903TIP3    H217649   5.235   1.133   3.797
 5904TIP3   OH217650   4.405   0.961   5.990
 5904TIP3    H117651   4.421   0.865   5.994
 5904TIP3    H217652   4.319   0.964   5.943
 5905TIP3   OH217653   4.387   0.611   4.186
 5905TIP3    H117654   4.442   0.580   4.260
 5905TIP3    H217655   4.455   0.617   4.115
 5906TIP3   OH217656   5.012   1.046   5.763
 5906TIP3    H117657   4.972   1.063   5.676
 5906TIP3    H217658   5.042   0.953   5.756
 5907TIP3   OH217659   4.889   0.810   3.980
 5907TIP3    H117660   4.894   0.825   4.077
 5907TIP3    H217661   4.887   0.712   3.979
 5908TIP3   OH217662   5.509   1.056   5.374
 5908TIP3    H117663   5.580   1.102   5.326
 5908TIP3    H217664   5.432   1.112   5.352
 5909TIP3   OH217665   4.529   0.695   5.972
 5909TIP3    H117666   4.610   0.649   5.947
 5909TIP3    H217667   4.552   0.729   6.061
 5910TIP3   OH217668   4.581   0.518   4.399
 5910TIP3    H117669   4.564   0.487   4.490
 5910TIP3    H217670   4.623   0.440   4.357
 5911TIP3   OH217671   4.859   0.610   5.630
 5911TIP3    H117672   4.775   0.661   5.624
 5911TIP3    H217673   4.906   0.636   5.547
 5912TIP3   OH217674   4.690   0.307   4.250
 5912TIP3    H117675   4.663   0.314   4.156
 5912TIP3    H217676   4.787   0.316   4.241
 5913TIP3   OH217677   5.382   0.986   5.768
 5913TIP3    H117678   5.451   0.951   5.710
 5913TIP3    H217679   5.370   0.912   5.831
 5914TIP3   OH217680   5.517   0.639   3.904
 5914TIP3    H117681   5.492   0.598   3.819
 5914TIP3    H217682   5.483   0.731   3.887
 5915TIP3   OH217683   4.949   0.390   5.753
 5915TIP3    H117684   4.901   0.330   5.693
 5915TIP3    H217685   4.923   0.477   5.713
 5916TIP3   OH217686   5.025   0.699   5.437
 5916TIP3    H117687   5.105   0.702   5.383
 5916TIP3    H217688   4.965   0.761   5.389
 5917TIP3   OH217689   5.586   0.663   5.799
 5917TIP3    H117690   5.622   0.605   5.870
 5917TIP3    H217691   5.665   0.711   5.770
 5918TIP3   OH217692   5.638   0.913   5.560
 5918TIP3    H117693   5.579   0.965   5.501
 5918TIP3    H217694   5.725   0.934   5.518
 5919TIP3   OH217695   4.827   0.512   5.983
 5919TIP3    H117696   4.786   0.430   6.014
 5919TIP3    H217697   4.890   0.479   5.916
 5920TIP3   OH217698   5.228   0.443   5.790
 5920TIP3    H117699   5.250   0.415   5.881
 5920TIP3    H217700   5.132   0.427   5.789
 5921TIP3   OH217701   4.499   1.376   4.150
 5921TIP3    H117702   4.595   1.364   4.132
 5921TIP3    H217703   4.474   1.424   4.069
 5922TIP3   OH217704   3.979   0.755   4.362
 5922TIP3    H117705   4.075   0.775   4.350
 5922TIP3    H217706   3.974   0.665   4.323
 5923TIP3   OH217707   3.893   1.366   4.781
 5923TIP3    H117708   3.828   1.302   4.745
 5923TIP3    H217709   3.939   1.309   4.847
 5924TIP3   OH217710   4.027   1.217   4.969
 5924TIP3    H117711   4.021   1.143   5.031
 5924TIP3    H217712   4.081   1.278   5.022
 5925TIP3   OH217713   5.758   1.619   4.765
 5925TIP3    H117714   5.783   1.647   4.855
 5925TIP3    H217715   5.824   1.663   4.710
 5926TIP3   OH217716   5.787   1.636   5.047
 5926TIP3    H117717   5.740   1.550   5.044
 5926TIP3    H217718   5.860   1.612   5.106
 5927TIP3   OH217719   5.834   1.313   5.624
 5927TIP3    H117720   5.760   1.322   5.687
 5927TIP3    H217721   5.875   1.402   5.627
 5928TIP3   OH217722   5.653   0.824   4.239
 5928TIP3    H117723   5.719   0.890   4.214
 5928TIP3    H217724   5.693   0.787   4.321
 5929TIP3   OH217725   5.772   0.693   4.446
 5929TIP3    H117726   5.707   0.652   4.507
 5929TIP3    H217727   5.836   0.735   4.507
 5930TIP3   OH217728   5.837   1.090   4.880
 5930TIP3    H117729   5.885   1.020   4.832
 5930TIP3    H217730   5.818   1.156   4.811
 5931TIP3   OH217731   5.662   1.389   5.071
 5931TIP3    H117732   5.590   1.427   5.124
 5931TIP3    H217733   5.613   1.341   5.001
 5932TIP3   OH217734   5.709   0.597   4.092
 5932TIP3    H117735   5.640   0.610   4.023
 5932TIP3    H217736   5.688   0.674   4.150
 5933TIP3   OH217737   5.585   0.261   4.032
 5933TIP3    H117738   5.556   0.344   3.992
 5933TIP3    H217739   5.521   0.198   3.995
 5934TIP3   OH217740   5.585   0.551   4.589
 5934TIP3    H117741   5.596   0.454   4.592
 5934TIP3    H217742   5.571   0.569   4.685
 5935TIP3   OH217743   4.216   0.623   5.338
 5935TIP3    H117744   4.215   0.595   5.244
 5935TIP3    H217745   4.313   0.626   5.355
 5936TIP3   OH217746   5.881   0.977   5.449
 5936TIP3    H117747   5.952   0.910   5.437
 5936TIP3    H217748   5.902   1.042   5.381
 5937TIP3   OH217749   6.063   0.778   5.468
 5937TIP3    H117750   5.988   0.724   5.501
 5937TIP3    H217751   6.137   0.717   5.487
 5938TIP3   OH217752   5.587   0.269   4.483
 5938TIP3    H117753   5.631   0.196   4.531
 5938TIP3    H217754   5.654   0.292   4.416
 5939TIP3   OH217755   5.747   0.499   4.984
 5939TIP3    H117756   5.838   0.498   4.947
 5939TIP3    H217757   5.765   0.482   5.077
 5940TIP3   OH217758   5.824   0.599   5.236
 5940TIP3    H117759   5.737   0.629   5.269
 5940TIP3    H217760   5.848   0.670   5.173
 5941TIP3   OH217761   4.431   0.308   6.018
 5941TIP3    H117762   4.521   0.284   5.993
 5941TIP3    H217763   4.397   0.223   6.052
 5942TIP3   OH217764   4.198   0.278   5.418
 5942TIP3    H117765   4.242   0.278   5.330
 5942TIP3    H217766   4.226   0.363   5.453
 5943TIP3   OH217767   5.339   1.490   4.416
 5943TIP3    H117768   5.395   1.476   4.336
 5943TIP3    H217769   5.395   1.549   4.470
 5944TIP3   OH217770   4.439   1.297   5.810
 5944TIP3    H117771   4.350   1.262   5.791
 5944TIP3    H217772   4.454   1.265   5.900
 5945TIP3   OH217773   4.619   1.324   5.357
 5945TIP3    H117774   4.574   1.400   5.315
 5945TIP3    H217775   4.706   1.334   5.314
 5946TIP3   OH217776   5.063   1.566   5.495
 5946TIP3    H117777   5.107   1.565   5.583
 5946TIP3    H217778   5.129   1.616   5.443
 5947TIP3   OH217779   5.241   1.719   5.353
 5947TIP3    H117780   5.309   1.665   5.309
 5947TIP3    H217781   5.297   1.773   5.413
 5948TIP3   OH217782   4.295   1.582   5.375
 5948TIP3    H117783   4.206   1.618   5.355
 5948TIP3    H217784   4.303   1.605   5.468
 5949TIP3   OH217785   4.534   1.559   5.238
 5949TIP3    H117786   4.446   1.571   5.281
 5949TIP3    H217787   4.515   1.587   5.147
 5950TIP3   OH217788   4.957   1.584   5.037
 5950TIP3    H117789   4.890   1.604   4.969
 5950TIP3    H217790   4.970   1.672   5.079
 5951TIP3   OH217791   5.227   1.530   5.093
 5951TIP3    H117792   5.133   1.541   5.068
 5951TIP3    H217793   5.270   1.600   5.043
 5952TIP3   OH217794   5.437   1.717   5.002
 5952TIP3    H117795   5.422   1.800   4.952
 5952TIP3    H217796   5.462   1.654   4.931
 5953TIP3   OH217797   4.208   1.371   5.127
 5953TIP3    H117798   4.236   1.343   5.217
 5953TIP3    H217799   4.279   1.327   5.075
 5954TIP3   OH217800   4.402   1.244   4.984
 5954TIP3    H117801   4.417   1.157   5.030
 5954TIP3    H217802   4.494   1.276   4.976
 5955TIP3   OH217803   4.671   1.337   4.984
 5955TIP3    H117804   4.699   1.245   4.969
 5955TIP3    H217805   4.717   1.354   5.068
 5956TIP3   OH217806   3.997   1.141   4.512
 5956TIP3    H117807   3.912   1.107   4.479
 5956TIP3    H217808   3.983   1.236   4.502
 5957TIP3   OH217809   4.765   1.334   4.093
 5957TIP3    H117810   4.856   1.352   4.061
 5957TIP3    H217811   4.745   1.254   4.039
 5958TIP3   OH217812   5.492   1.450   4.188
 5958TIP3    H117813   5.482   1.352   4.179
 5958TIP3    H217814   5.442   1.481   4.110
 5959TIP3   OH217815   4.074   1.172   4.155
 5959TIP3    H117816   4.076   1.182   4.251
 5959TIP3    H217817   4.160   1.127   4.138
 5960TIP3   OH217818   5.713   1.594   5.378
 5960TIP3    H117819   5.634   1.562   5.329
 5960TIP3    H217820   5.692   1.689   5.383
 5961TIP3   OH217821   6.980   0.965   4.144
 5961TIP3    H117822   6.952   1.057   4.125
 5961TIP3    H217823   6.902   0.917   4.110
 5962TIP3   OH217824   6.980   0.966   4.525
 5962TIP3    H117825   7.010   0.941   4.615
 5962TIP3    H217826   6.937   0.885   4.495
 5963TIP3   OH217827   6.277   0.862   4.887
 5963TIP3    H117828   6.306   0.791   4.947
 5963TIP3    H217829   6.356   0.917   4.884
 5964TIP3   OH217830   7.224   1.268   4.207
 5964TIP3    H117831   7.206   1.200   4.273
 5964TIP3    H217832   7.251   1.344   4.263
 5965TIP3   OH217833   6.249   1.272   4.613
 5965TIP3    H117834   6.240   1.174   4.615
 5965TIP3    H217835   6.346   1.280   4.612
 5966TIP3   OH217836   5.951   0.484   4.405
 5966TIP3    H117837   5.899   0.564   4.424
 5966TIP3    H217838   5.882   0.427   4.366
 5967TIP3   OH217839   6.008   0.771   4.565
 5967TIP3    H117840   6.048   0.688   4.603
 5967TIP3    H217841   6.078   0.800   4.505
 5968TIP3   OH217842   6.872   1.731   4.223
 5968TIP3    H117843   6.918   1.659   4.175
 5968TIP3    H217844   6.863   1.693   4.311
 5969TIP3   OH217845   6.777   1.193   4.573
 5969TIP3    H117846   6.815   1.115   4.529
 5969TIP3    H217847   6.861   1.238   4.598
 5970TIP3   OH217848   7.199   0.695   4.619
 5970TIP3    H117849   7.211   0.603   4.648
 5970TIP3    H217850   7.158   0.685   4.531
 5971TIP3   OH217851   6.516   0.309   4.533
 5971TIP3    H117852   6.490   0.402   4.513
 5971TIP3    H217853   6.432   0.264   4.523
 5972TIP3   OH217854   7.185   0.472   4.243
 5972TIP3    H117855   7.243   0.422   4.303
 5972TIP3    H217856   7.239   0.470   4.162
 5973TIP3   OH217857   6.140   0.557   4.665
 5973TIP3    H117858   6.231   0.561   4.703
 5973TIP3    H217859   6.157   0.494   4.593
 5974TIP3   OH217860   6.600   0.756   4.471
 5974TIP3    H117861   6.693   0.729   4.489
 5974TIP3    H217862   6.559   0.670   4.447
 5975TIP3   OH217863   7.828   0.703   4.754
 5975TIP3    H117864   7.752   0.762   4.734
 5975TIP3    H217865   7.886   0.760   4.808
 5976TIP3   OH217866   6.874   1.189   4.012
 5976TIP3    H117867   6.827   1.168   3.929
 5976TIP3    H217868   6.828   1.271   4.038
 5977TIP3   OH217869   6.632   1.112   4.800
 5977TIP3    H117870   6.569   1.176   4.839
 5977TIP3    H217871   6.672   1.163   4.727
 5978TIP3   OH217872   6.396   0.522   4.733
 5978TIP3    H117873   6.464   0.566   4.788
 5978TIP3    H217874   6.417   0.429   4.753
 5979TIP3   OH217875   6.459   1.306   4.898
 5979TIP3    H117876   6.433   1.393   4.862
 5979TIP3    H217877   6.380   1.287   4.953
 5980TIP3   OH217878   5.854   0.997   4.134
 5980TIP3    H117879   5.811   1.028   4.052
 5980TIP3    H217880   5.886   1.081   4.173
 5981TIP3   OH217881   7.293   1.512   4.373
 5981TIP3    H117882   7.204   1.502   4.414
 5981TIP3    H217883   7.283   1.599   4.328
 5982TIP3   OH217884   6.995   1.557   4.048
 5982TIP3    H117885   7.045   1.474   4.028
 5982TIP3    H217886   7.056   1.622   4.007
 5983TIP3   OH217887   7.139   1.342   3.955
 5983TIP3    H117888   7.093   1.264   3.921
 5983TIP3    H217889   7.176   1.307   4.040
 5984TIP3   OH217890   7.521   1.424   4.717
 5984TIP3    H117891   7.505   1.346   4.660
 5984TIP3    H217892   7.500   1.498   4.657
 5985TIP3   OH217893   6.810   0.822   3.973
 5985TIP3    H117894   6.728   0.872   3.952
 5985TIP3    H217895   6.853   0.816   3.885
 5986TIP3   OH217896   6.766   0.600   3.695
 5986TIP3    H117897   6.838   0.651   3.737
 5986TIP3    H217898   6.819   0.536   3.643
 5987TIP3   OH217899   7.707   1.056   4.557
 5987TIP3    H117900   7.626   1.111   4.565
 5987TIP3    H217901   7.739   1.085   4.469
 5988TIP3   OH217902   7.157   0.902   3.944
 5988TIP3    H117903   7.102   0.924   4.023
 5988TIP3    H217904   7.241   0.878   3.989
 5989TIP3   OH217905   7.389   0.942   4.861
 5989TIP3    H117906   7.384   1.024   4.914
 5989TIP3    H217907   7.302   0.944   4.817
 5990TIP3   OH217908   6.391   0.898   4.362
 5990TIP3    H117909   6.351   0.839   4.295
 5990TIP3    H217910   6.467   0.845   4.394
 5991TIP3   OH217911   6.522   1.313   4.510
 5991TIP3    H117912   6.499   1.268   4.428
 5991TIP3    H217913   6.611   1.276   4.529
 5992TIP3   OH217914   6.531   0.865   4.723
 5992TIP3    H117915   6.559   0.842   4.632
 5992TIP3    H217916   6.572   0.953   4.737
 5993TIP3   OH217917   7.054   1.506   4.495
 5993TIP3    H117918   7.039   1.586   4.548
 5993TIP3    H217919   7.037   1.434   4.558
 5994TIP3   OH217920   6.664   1.426   5.041
 5994TIP3    H117921   6.604   1.487   5.088
 5994TIP3    H217922   6.599   1.372   4.991
 5995TIP3   OH217923   6.997   0.757   3.772
 5995TIP3    H117924   7.055   0.818   3.822
 5995TIP3    H217925   7.024   0.779   3.679
 5996TIP3   OH217926   6.410   0.991   5.137
 5996TIP3    H117927   6.415   1.075   5.188
 5996TIP3    H217928   6.317   0.966   5.154
 5997TIP3   OH217929   6.743   1.436   4.046
 5997TIP3    H117930   6.822   1.490   4.063
 5997TIP3    H217931   6.680   1.500   4.009
 5998TIP3   OH217932   6.458   1.593   5.129
 5998TIP3    H117933   6.422   1.593   5.039
 5998TIP3    H217934   6.379   1.571   5.183
 5999TIP3   OH217935   6.258   0.740   4.163
 5999TIP3    H117936   6.189   0.784   4.110
 5999TIP3    H217937   6.216   0.656   4.185
 6000TIP3   OH217938   7.306   1.368   3.369
 6000TIP3    H117939   7.318   1.465   3.355
 6000TIP3    H217940   7.398   1.336   3.358
 6001TIP3   OH217941   6.038   1.125   5.075
 6001TIP3    H117942   5.968   1.105   5.009
 6001TIP3    H217943   6.073   1.035   5.096
 6002TIP3   OH217944   5.891   1.324   4.697
 6002TIP3    H117945   5.987   1.312   4.700
 6002TIP3    H217946   5.878   1.396   4.761
 6003TIP3   OH217947   7.762   1.773   4.766
 6003TIP3    H117948   7.760   1.676   4.779
 6003TIP3    H217949   7.677   1.797   4.810
 6004TIP3   OH217950   6.861   1.555   4.898
 6004TIP3    H117951   6.859   1.647   4.931
 6004TIP3    H217952   6.789   1.515   4.953
 6005TIP3   OH217953   6.624   1.684   3.850
 6005TIP3    H117954   6.576   1.667   3.767
 6005TIP3    H217955   6.590   1.772   3.876
 6006TIP3   OH217956   6.061   1.533   4.236
 6006TIP3    H117957   6.109   1.524   4.321
 6006TIP3    H217958   6.004   1.453   4.239
 6007TIP3   OH217959   6.823   1.585   3.490
 6007TIP3    H117960   6.882   1.515   3.454
 6007TIP3    H217961   6.857   1.595   3.581
 6008TIP3   OH217962   6.874   1.633   3.760
 6008TIP3    H117963   6.786   1.643   3.801
 6008TIP3    H217964   6.925   1.593   3.833
 6009TIP3   OH217965   7.644   0.887   5.038
 6009TIP3    H117966   7.563   0.918   4.994
 6009TIP3    H217967   7.630   0.791   5.033
 6010TIP3   OH217968   6.241   1.308   5.063
 6010TIP3    H117969   6.291   1.291   5.145
 6010TIP3    H217970   6.168   1.244   5.069
 6011TIP3   OH217971   7.431   0.686   4.982
 6011TIP3    H117972   7.386   0.704   5.066
 6011TIP3    H217973   7.401   0.760   4.926
 6012TIP3   OH217974   7.077   0.804   3.518
 6012TIP3    H117975   7.039   0.779   3.432
 6012TIP3    H217976   7.157   0.852   3.490
 6013TIP3   OH217977   6.591   0.652   4.885
 6013TIP3    H117978   6.529   0.671   4.958
 6013TIP3    H217979   6.575   0.730   4.826
 6014TIP3   OH217980   6.456   0.537   4.387
 6014TIP3    H117981   6.362   0.512   4.400
 6014TIP3    H217982   6.472   0.502   4.296
 6015TIP3   OH217983   6.942   0.624   4.108
 6015TIP3    H117984   6.894   0.696   4.062
 6015TIP3    H217985   7.007   0.596   4.041
 6016TIP3   OH217986   7.131   0.927   5.185
 6016TIP3    H117987   7.107   0.845   5.233
 6016TIP3    H217988   7.227   0.932   5.207
 6017TIP3   OH217989   7.085   0.688   4.368
 6017TIP3    H117990   7.029   0.730   4.300
 6017TIP3    H217991   7.112   0.607   4.318
 6018TIP3   OH217992   6.391   0.680   5.074
 6018TIP3    H117993   6.405   0.739   5.149
 6018TIP3    H217994   6.365   0.597   5.117
 6019TIP3   OH217995   6.017   0.279   4.204
 6019TIP3    H117996   6.031   0.284   4.108
 6019TIP3    H217997   5.925   0.310   4.213
 6020TIP3   OH217998   7.112   0.899   4.770
 6020TIP3    H117999   7.150   0.827   4.714
 6020TIP3    H218000   7.088   0.846   4.849
 6021TIP3   OH218001   6.208   0.409   4.433
 6021TIP3    H118002   6.117   0.442   4.416
 6021TIP3    H218003   6.202   0.322   4.393
 6022TIP3   OH218004   6.499   0.429   4.139
 6022TIP3    H118005   6.591   0.415   4.109
 6022TIP3    H218006   6.447   0.421   4.057
 6023TIP3   OH218007   6.329   0.413   3.912
 6023TIP3    H118008   6.252   0.403   3.853
 6023TIP3    H218009   6.389   0.461   3.852
 6024TIP3   OH218010   7.447   2.119   4.864
 6024TIP3    H118011   7.444   2.143   4.769
 6024TIP3    H218012   7.524   2.170   4.895
 6025TIP3   OH218013   6.403   1.232   5.285
 6025TIP3    H118014   6.483   1.260   5.333
 6025TIP3    H218015   6.338   1.229   5.358
 6026TIP3   OH218016   6.854   0.684   4.542
 6026TIP3    H118017   6.938   0.654   4.504
 6026TIP3    H218018   6.860   0.651   4.635
 6027TIP3   OH218019   6.866   0.615   4.803
 6027TIP3    H118020   6.775   0.604   4.838
 6027TIP3    H218021   6.913   0.657   4.877
 6028TIP3   OH218022   6.579   0.971   3.923
 6028TIP3    H118023   6.507   0.906   3.912
 6028TIP3    H218024   6.561   1.004   4.014
 6029TIP3   OH218025   7.479   1.207   4.554
 6029TIP3    H118026   7.501   1.257   4.472
 6029TIP3    H218027   7.394   1.164   4.530
 6030TIP3   OH218028   7.011   0.350   3.744
 6030TIP3    H118029   6.954   0.301   3.807
 6030TIP3    H218030   7.050   0.417   3.805
 6031TIP3   OH218031   6.985   1.293   4.919
 6031TIP3    H118032   7.001   1.264   5.009
 6031TIP3    H218033   6.940   1.379   4.931
 6032TIP3   OH218034   7.116   0.544   3.904
 6032TIP3    H118035   7.214   0.554   3.912
 6032TIP3    H218036   7.092   0.621   3.850
 6033TIP3   OH218037   6.275   0.994   4.599
 6033TIP3    H118038   6.314   0.962   4.515
 6033TIP3    H218039   6.311   0.931   4.664
 6034TIP3   OH218040   6.725   1.120   3.745
 6034TIP3    H118041   6.677   1.206   3.750
 6034TIP3    H218042   6.671   1.065   3.806
 6035TIP3   OH218043   6.155   0.909   5.213
 6035TIP3    H118044   6.168   0.893   5.309
 6035TIP3    H218045   6.080   0.850   5.192
 6036TIP3   OH218046   6.878   1.031   5.236
 6036TIP3    H118047   6.817   0.975   5.185
 6036TIP3    H218048   6.965   1.000   5.202
 6037TIP3   OH218049   7.140   1.553   4.814
 6037TIP3    H118050   7.044   1.546   4.829
 6037TIP3    H218051   7.168   1.602   4.895
 6038TIP3   OH218052   7.549   0.617   3.713
 6038TIP3    H118053   7.487   0.570   3.654
 6038TIP3    H218054   7.537   0.708   3.679
 6039TIP3   OH218055   7.772   1.483   4.803
 6039TIP3    H118056   7.674   1.474   4.795
 6039TIP3    H218057   7.800   1.452   4.714
 6040TIP3   OH218058   7.252   1.439   3.636
 6040TIP3    H118059   7.222   1.371   3.698
 6040TIP3    H218060   7.260   1.391   3.552
 6041TIP3   OH218061   7.246   1.071   4.470
 6041TIP3    H118062   7.153   1.045   4.485
 6041TIP3    H218063   7.280   0.991   4.425
 6042TIP3   OH218064   6.374   1.296   4.222
 6042TIP3    H118065   6.371   1.378   4.169
 6042TIP3    H218066   6.280   1.281   4.239
 6043TIP3   OH218067   5.932   0.602   3.928
 6043TIP3    H118068   5.981   0.685   3.949
 6043TIP3    H218069   5.858   0.608   3.993
 6044TIP3   OH218070   6.511   1.062   4.167
 6044TIP3    H118071   6.475   1.151   4.186
 6044TIP3    H218072   6.477   1.010   4.242
 6045TIP3   OH218073   6.643   1.641   4.694
 6045TIP3    H118074   6.686   1.713   4.644
 6045TIP3    H218075   6.719   1.604   4.742
 6046TIP3   OH218076   6.292   1.536   4.076
 6046TIP3    H118077   6.207   1.544   4.123
 6046TIP3    H218078   6.324   1.629   4.079
 6047TIP3   OH218079   7.031   1.273   4.652
 6047TIP3    H118080   7.020   1.274   4.750
 6047TIP3    H218081   7.110   1.219   4.642
 6048TIP3   OH218082   7.006   1.169   3.535
 6048TIP3    H118083   7.059   1.142   3.614
 6048TIP3    H218084   6.918   1.141   3.564
 6049TIP3   OH218085   7.281   1.806   4.703
 6049TIP3    H118086   7.201   1.749   4.698
 6049TIP3    H218087   7.262   1.870   4.630
 6050TIP3   OH218088   7.345   1.644   3.354
 6050TIP3    H118089   7.377   1.719   3.302
 6050TIP3    H218090   7.264   1.684   3.391
 6051TIP3   OH218091   7.166   1.100   3.749
 6051TIP3    H118092   7.155   1.035   3.822
 6051TIP3    H218093   7.264   1.098   3.738
 6052TIP3   OH218094   6.082   1.501   4.852
 6052TIP3    H118095   6.134   1.427   4.886
 6052TIP3    H218096   6.107   1.571   4.914
 6053TIP3   OH218097   6.370   1.148   3.535
 6053TIP3    H118098   6.386   1.056   3.508
 6053TIP3    H218099   6.352   1.137   3.630
 6054TIP3   OH218100   6.316   1.153   3.807
 6054TIP3    H118101   6.388   1.125   3.866
 6054TIP3    H218102   6.320   1.251   3.815
 6055TIP3   OH218103   6.050   0.844   4.011
 6055TIP3    H118104   5.985   0.891   4.068
 6055TIP3    H218105   6.066   0.914   3.944
 6056TIP3   OH218106   6.583   1.349   3.755
 6056TIP3    H118107   6.496   1.375   3.792
 6056TIP3    H218108   6.599   1.425   3.696
 6057TIP3   OH218109   6.788   0.401   4.133
 6057TIP3    H118110   6.839   0.486   4.130
 6057TIP3    H218111   6.788   0.382   4.228
 6058TIP3   OH218112   7.057   0.737   4.981
 6058TIP3    H118113   7.048   0.797   5.057
 6058TIP3    H218114   7.100   0.661   5.024
 6059TIP3   OH218115   6.327   1.425   3.824
 6059TIP3    H118116   6.296   1.495   3.762
 6059TIP3    H218117   6.311   1.468   3.911
 6060TIP3   OH218118   7.333   0.830   4.346
 6060TIP3    H118119   7.253   0.779   4.368
 6060TIP3    H218120   7.403   0.781   4.396
 6061TIP3   OH218121   6.044   1.054   3.815
 6061TIP3    H118122   6.111   1.124   3.827
 6061TIP3    H218123   6.091   0.999   3.749
 6062TIP3   OH218124   5.985   0.333   3.923
 6062TIP3    H118125   5.979   0.431   3.924
 6062TIP3    H218126   5.895   0.306   3.944
 6063TIP3   OH218127   7.300   1.783   4.295
 6063TIP3    H118128   7.256   1.829   4.220
 6063TIP3    H218129   7.394   1.804   4.275
 6064TIP3   OH218130   5.914   1.267   4.201
 6064TIP3    H118131   5.849   1.298   4.266
 6064TIP3    H218132   5.882   1.310   4.119
 6065TIP3   OH218133   6.072   1.812   5.274
 6065TIP3    H118134   6.158   1.811   5.321
 6065TIP3    H218135   6.051   1.718   5.274
 6066TIP3   OH218136   6.554   1.775   5.319
 6066TIP3    H118137   6.648   1.754   5.326
 6066TIP3    H218138   6.526   1.715   5.247
 6067TIP3   OH218139   6.534   1.351   3.446
 6067TIP3    H118140   6.478   1.280   3.485
 6067TIP3    H218141   6.610   1.298   3.416
 6068TIP3   OH218142   7.194   1.681   5.052
 6068TIP3    H118143   7.184   1.613   5.121
 6068TIP3    H218144   7.270   1.733   5.085
 6069TIP3   OH218145   6.971   1.391   3.359
 6069TIP3    H118146   7.013   1.326   3.419
 6069TIP3    H218147   7.028   1.389   3.281
 6070TIP3   OH218148   6.202   1.218   5.475
 6070TIP3    H118149   6.218   1.121   5.480
 6070TIP3    H218150   6.115   1.221   5.430
 6071TIP3   OH218151   6.180   0.867   3.669
 6071TIP3    H118152   6.236   0.836   3.743
 6071TIP3    H218153   6.247   0.872   3.598
 6072TIP3   OH218154   6.810   1.304   5.249
 6072TIP3    H118155   6.767   1.319   5.163
 6072TIP3    H218156   6.839   1.210   5.242
 6073TIP3   OH218157   6.690   1.068   3.476
 6073TIP3    H118158   6.693   1.080   3.573
 6073TIP3    H218159   6.693   0.970   3.471
 6074TIP3   OH218160   7.303   1.311   4.855
 6074TIP3    H118161   7.376   1.359   4.812
 6074TIP3    H218162   7.229   1.374   4.842
 6075TIP3   OH218163   6.325   0.952   5.459
 6075TIP3    H118164   6.405   0.901   5.438
 6075TIP3    H218165   6.348   0.987   5.547
 6076TIP3   OH218166   6.384   0.774   3.890
 6076TIP3    H118167   6.362   0.736   3.977
 6076TIP3    H218168   6.423   0.698   3.843
 6077TIP3   OH218169   6.656   0.869   5.119
 6077TIP3    H118170   6.570   0.917   5.113
 6077TIP3    H218171   6.700   0.893   5.035
 6078TIP3   OH218172   6.486   0.564   3.738
 6078TIP3    H118173   6.461   0.569   3.643
 6078TIP3    H218174   6.584   0.568   3.730
 6079TIP3   OH218175   7.178   1.242   5.255
 6079TIP3    H118176   7.250   1.207   5.201
 6079TIP3    H218177   7.165   1.171   5.320
 6080TIP3   OH218178   7.310   0.895   3.394
 6080TIP3    H118179   7.290   0.851   3.309
 6080TIP3    H218180   7.277   0.985   3.373
 6081TIP3   OH218181   6.744   0.646   5.240
 6081TIP3    H118182   6.693   0.587   5.182
 6081TIP3    H218183   6.717   0.733   5.201
 6082TIP3   OH218184   6.821   0.954   4.921
 6082TIP3    H118185   6.899   0.957   4.864
 6082TIP3    H218186   6.761   1.017   4.876
 6083TIP3   OH218187   7.385   0.915   5.281
 6083TIP3    H118188   7.416   0.858   5.355
 6083TIP3    H218189   7.463   0.970   5.264
 6084TIP3   OH218190   7.435   1.168   5.042
 6084TIP3    H118191   7.375   1.221   4.983
 6084TIP3    H218192   7.522   1.191   5.001
 6085TIP3   OH218193   6.625   0.769   5.470
 6085TIP3    H118194   6.581   0.691   5.505
 6085TIP3    H218195   6.685   0.731   5.403
 6086TIP3   OH218196   7.024   0.699   5.274
 6086TIP3    H118197   7.049   0.670   5.364
 6086TIP3    H218198   6.928   0.684   5.276
 6087TIP3   OH218199   6.296   1.628   3.636
 6087TIP3    H118200   6.392   1.621   3.618
 6087TIP3    H218201   6.268   1.679   3.557
 6088TIP3   OH218202   5.775   1.012   3.849
 6088TIP3    H118203   5.870   1.034   3.838
 6088TIP3    H218204   5.771   0.922   3.810
 6089TIP3   OH218205   5.693   1.622   4.267
 6089TIP3    H118206   5.626   1.561   4.230
 6089TIP3    H218207   5.736   1.564   4.333
 6090TIP3   OH218208   5.827   1.471   4.453
 6090TIP3    H118209   5.816   1.399   4.518
 6090TIP3    H218210   5.878   1.534   4.508
 6091TIP3   OH218211   7.552   1.874   4.253
 6091TIP3    H118212   7.580   1.907   4.340
 6091TIP3    H218213   7.620   1.910   4.194
 6092TIP3   OH218214   7.581   1.894   4.535
 6092TIP3    H118215   7.536   1.807   4.531
 6092TIP3    H218216   7.658   1.870   4.589
 6093TIP3   OH218217   7.629   1.569   5.109
 6093TIP3    H118218   7.556   1.578   5.173
 6093TIP3    H218219   7.668   1.659   5.112
 6094TIP3   OH218220   7.446   1.085   3.724
 6094TIP3    H118221   7.514   1.150   3.698
 6094TIP3    H218222   7.486   1.048   3.806
 6095TIP3   OH218223   7.566   0.965   3.935
 6095TIP3    H118224   7.497   0.916   3.987
 6095TIP3    H218225   7.620   1.002   4.007
 6096TIP3   OH218226   7.628   1.343   4.365
 6096TIP3    H118227   7.677   1.281   4.309
 6096TIP3    H218228   7.618   1.421   4.306
 6097TIP3   OH218229   7.458   1.644   4.558
 6097TIP3    H118230   7.387   1.686   4.610
 6097TIP3    H218231   7.407   1.597   4.488
 6098TIP3   OH218232   7.505   0.857   3.579
 6098TIP3    H118233   7.436   0.864   3.509
 6098TIP3    H218234   7.480   0.935   3.633
 6099TIP3   OH218235   7.373   0.518   3.523
 6099TIP3    H118236   7.356   0.593   3.465
 6099TIP3    H218237   7.325   0.447   3.476
 6100TIP3   OH218238   7.387   0.819   4.075
 6100TIP3    H118239   7.389   0.724   4.053
 6100TIP3    H218240   7.374   0.819   4.173
 6101TIP3   OH218241   6.012   0.882   4.822
 6101TIP3    H118242   6.010   0.853   4.729
 6101TIP3    H218243   6.109   0.882   4.840
 6102TIP3   OH218244   7.679   1.234   4.933
 6102TIP3    H118245   7.751   1.167   4.925
 6102TIP3    H218246   7.705   1.301   4.868
 6103TIP3   OH218247   7.858   1.034   4.958
 6103TIP3    H118248   7.783   0.980   4.991
 6103TIP3    H218249   7.931   0.970   4.972
 6104TIP3   OH218250   7.388   0.568   3.944
 6104TIP3    H118251   7.414   0.488   3.995
 6104TIP3    H218252   7.453   0.568   3.871
 6105TIP3   OH218253   7.543   0.706   4.472
 6105TIP3    H118254   7.627   0.733   4.428
 6105TIP3    H218255   7.560   0.738   4.563
 6106TIP3   OH218256   7.605   0.849   4.704
 6106TIP3    H118257   7.527   0.883   4.751
 6106TIP3    H218258   7.637   0.928   4.655
 6107TIP3   OH218259   6.229   0.565   5.509
 6107TIP3    H118260   6.316   0.538   5.479
 6107TIP3    H218261   6.192   0.480   5.541
 6108TIP3   OH218262   6.006   0.536   4.907
 6108TIP3    H118263   6.048   0.534   4.818
 6108TIP3    H218264   6.035   0.621   4.940
 6109TIP3   OH218265   7.138   1.740   3.909
 6109TIP3    H118266   7.190   1.729   3.827
 6109TIP3    H218267   7.189   1.807   3.957
 6110TIP3   OH218268   6.238   1.546   5.295
 6110TIP3    H118269   6.146   1.518   5.278
 6110TIP3    H218270   6.247   1.524   5.389
 6111TIP3   OH218271   6.417   1.577   4.843
 6111TIP3    H118272   6.368   1.652   4.804
 6111TIP3    H218273   6.503   1.591   4.798
 6112TIP3   OH218274   6.861   1.821   4.980
 6112TIP3    H118275   6.902   1.821   5.069
 6112TIP3    H218276   6.926   1.872   4.929
 6113TIP3   OH218277   7.040   1.974   4.840
 6113TIP3    H118278   7.110   1.922   4.799
 6113TIP3    H218279   7.091   2.031   4.901
 6114TIP3   OH218280   6.093   1.836   4.865
 6114TIP3    H118281   6.003   1.869   4.843
 6114TIP3    H218282   6.102   1.870   4.954
 6115TIP3   OH218283   6.330   1.813   4.725
 6115TIP3    H118284   6.243   1.825   4.769
 6115TIP3    H218285   6.309   1.845   4.635
 6116TIP3   OH218286   6.756   1.841   4.521
 6116TIP3    H118287   6.684   1.860   4.457
 6116TIP3    H218288   6.767   1.928   4.564
 6117TIP3   OH218289   7.024   1.780   4.573
 6117TIP3    H118290   6.929   1.797   4.554
 6117TIP3    H218291   7.067   1.856   4.532
 6118TIP3   OH218292   7.232   1.972   4.489
 6118TIP3    H118293   7.217   2.056   4.440
 6118TIP3    H218294   7.257   1.911   4.416
 6119TIP3   OH218295   6.006   1.629   4.611
 6119TIP3    H118296   6.030   1.600   4.702
 6119TIP3    H218297   6.076   1.583   4.560
 6120TIP3   OH218298   6.199   1.498   4.468
 6120TIP3    H118299   6.213   1.415   4.518
 6120TIP3    H218300   6.290   1.534   4.465
 6121TIP3   OH218301   6.466   1.592   4.472
 6121TIP3    H118302   6.496   1.500   4.462
 6121TIP3    H218303   6.510   1.615   4.556
 6122TIP3   OH218304   5.793   1.399   4.000
 6122TIP3    H118305   5.707   1.367   3.967
 6122TIP3    H218306   5.782   1.494   3.986
 6123TIP3   OH218307   6.564   1.587   3.584
 6123TIP3    H118308   6.652   1.609   3.548
 6123TIP3    H218309   6.542   1.512   3.524
 6124TIP3   OH218310   7.285   1.707   3.677
 6124TIP3    H118311   7.277   1.609   3.667
 6124TIP3    H218312   7.237   1.737   3.598
 6125TIP3   OH218313   5.867   1.424   3.640
 6125TIP3    H118314   5.867   1.446   3.734
 6125TIP3    H218315   5.956   1.383   3.628
 6126TIP3   OH218316   7.512   1.850   4.862
 6126TIP3    H118317   7.433   1.818   4.815
 6126TIP3    H218318   7.490   1.945   4.869
 6127TIP3   OH218319   8.029   1.510   4.143
 6127TIP3    H118320   7.992   1.438   4.090
 6127TIP3    H218321   8.121   1.514   4.109
 6128TIP3   OH218322   7.754   0.763   3.916
 6128TIP3    H118323   7.678   0.823   3.903
 6128TIP3    H218324   7.728   0.687   3.863
 6129TIP3   OH218325   7.833   1.018   4.061
 6129TIP3    H118326   7.837   0.921   4.050
 6129TIP3    H218327   7.861   1.046   3.973
 6130TIP3   OH218328   7.653   1.250   3.619
 6130TIP3    H118329   7.603   1.279   3.541
 6130TIP3    H218330   7.677   1.337   3.659
 6131TIP3   OH218331   8.217   1.885   4.587
 6131TIP3    H118332   8.178   1.877   4.499
 6131TIP3    H218333   8.139   1.879   4.645
 6132TIP3   OH218334   7.840   1.388   4.557
 6132TIP3    H118335   7.766   1.360   4.499
 6132TIP3    H218336   7.872   1.302   4.595
 6133TIP3   OH218337   7.692   1.576   4.195
 6133TIP3    H118338   7.789   1.580   4.195
 6133TIP3    H218339   7.670   1.653   4.250
 6134TIP3   OH218340   7.828   1.782   3.716
 6134TIP3    H118341   7.910   1.791   3.767
 6134TIP3    H218342   7.783   1.713   3.767
 6135TIP3   OH218343   8.047   1.568   4.537
 6135TIP3    H118344   8.096   1.536   4.616
 6135TIP3    H218345   7.969   1.508   4.541
 6136TIP3   OH218346   7.816   0.545   3.689
 6136TIP3    H118347   7.826   0.549   3.592
 6136TIP3    H218348   7.720   0.559   3.697
 6137TIP3   OH218349   8.183   1.468   4.751
 6137TIP3    H118350   8.258   1.527   4.774
 6137TIP3    H218351   8.137   1.462   4.836
 6138TIP3   OH218352   7.931   1.178   4.703
 6138TIP3    H118353   7.976   1.169   4.789
 6138TIP3    H218354   7.874   1.100   4.700
 6139TIP3   OH218355   7.730   0.851   3.418
 6139TIP3    H118356   7.778   0.934   3.438
 6139TIP3    H218357   7.653   0.859   3.480
 6140TIP3   OH218358   7.875   1.757   4.341
 6140TIP3    H118359   7.933   1.688   4.379
 6140TIP3    H218360   7.904   1.836   4.388
 6141TIP3   OH218361   7.838   1.098   3.484
 6141TIP3    H118362   7.774   1.138   3.546
 6141TIP3    H218363   7.836   1.162   3.411
 6142TIP3   OH218364   7.831   1.292   3.286
 6142TIP3    H118365   7.899   1.355   3.317
 6142TIP3    H218366   7.860   1.279   3.192
 6143TIP3   OH218367   7.794   0.585   3.409
 6143TIP3    H118368   7.777   0.682   3.414
 6143TIP3    H218369   7.705   0.548   3.400
 6144TIP3   OH218370   7.694   1.507   3.691
 6144TIP3    H118371   7.632   1.552   3.750
 6144TIP3    H218372   7.687   1.564   3.611
 6145TIP3   OH218373   7.866   2.064   4.761
 6145TIP3    H118374   7.952   2.057   4.806
 6145TIP3    H218375   7.836   1.972   4.761
 6146TIP3   OH218376   7.996   1.473   4.967
 6146TIP3    H118377   8.013   1.377   4.968
 6146TIP3    H218378   7.911   1.476   4.918
 6147TIP3   OH218379   8.109   1.212   4.944
 6147TIP3    H118380   8.172   1.140   4.931
 6147TIP3    H218381   8.137   1.245   5.033
 6148TIP3   OH218382   7.561   1.264   3.338
 6148TIP3    H118383   7.656   1.280   3.322
 6148TIP3    H218384   7.551   1.173   3.301
 6149TIP3   OH218385   7.488   1.879   3.754
 6149TIP3    H118386   7.420   1.817   3.717
 6149TIP3    H218387   7.534   1.820   3.817
 6150TIP3   OH218388   7.626   1.724   3.937
 6150TIP3    H118389   7.612   1.656   4.005
 6150TIP3    H218390   7.676   1.790   3.988
 6151TIP3   OH218391   7.818   1.136   4.309
 6151TIP3    H118392   7.814   1.094   4.220
 6151TIP3    H218393   7.912   1.160   4.314
 6152TIP3   OH218394   8.024   0.820   4.989
 6152TIP3    H118395   8.118   0.802   4.993
 6152TIP3    H218396   7.987   0.737   5.025
 6153TIP3   OH218397   7.786   0.793   4.371
 6153TIP3    H118398   7.862   0.767   4.318
 6153TIP3    H218399   7.817   0.871   4.418
 6154TIP3   OH218400   8.042   1.797   4.790
 6154TIP3    H118401   7.953   1.768   4.762
 6154TIP3    H218402   8.039   1.774   4.884
 6155TIP3   OH218403   7.880   2.079   4.359
 6155TIP3    H118404   7.795   2.119   4.331
 6155TIP3    H218405   7.897   2.130   4.439
 6156TIP3   OH218406   8.137   2.065   4.224
 6156TIP3    H118407   8.047   2.071   4.259
 6156TIP3    H218408   8.125   2.101   4.133
 6157TIP3   OH218409   7.792   1.887   4.100
 6157TIP3    H118410   7.824   1.865   4.190
 6157TIP3    H218411   7.864   1.845   4.048
 6158TIP3   OH218412   7.978   1.753   3.958
 6158TIP3    H118413   7.989   1.661   3.988
 6158TIP3    H218414   8.070   1.772   3.928
 6159TIP3   OH218415   7.597   1.652   3.476
 6159TIP3    H118416   7.507   1.626   3.449
 6159TIP3    H218417   7.586   1.749   3.476
 6160TIP3   OH218418   7.666   1.691   3.141
 6160TIP3    H118419   7.629   1.725   3.224
 6160TIP3    H218420   7.734   1.629   3.173
 6161TIP3   OH218421   1.231   2.013   5.319
 6161TIP3    H118422   1.199   2.103   5.299
 6161TIP3    H218423   1.155   1.960   5.289
 6162TIP3   OH218424   1.227   2.012   5.702
 6162TIP3    H118425   1.259   1.982   5.789
 6162TIP3    H218426   1.186   1.930   5.669
 6163TIP3   OH218427   0.532   1.911   6.068
 6163TIP3    H118428   0.569   1.840   6.123
 6163TIP3    H218429   0.613   1.958   6.043
 6164TIP3   OH218430   1.473   2.315   5.384
 6164TIP3    H118431   1.454   2.244   5.447
 6164TIP3    H218432   1.501   2.387   5.442
 6165TIP3   OH218433   0.497   2.319   5.787
 6165TIP3    H118434   0.489   2.221   5.788
 6165TIP3    H218435   0.593   2.327   5.802
 6166TIP3   OH218436   0.276   1.827   5.761
 6166TIP3    H118437   0.326   1.753   5.801
 6166TIP3    H218438   0.297   1.818   5.668
 6167TIP3   OH218439   1.115   2.773   5.397
 6167TIP3    H118440   1.163   2.700   5.352
 6167TIP3    H218441   1.113   2.741   5.488
 6168TIP3   OH218442   1.024   2.240   5.751
 6168TIP3    H118443   1.060   2.161   5.707
 6168TIP3    H218444   1.110   2.282   5.774
 6169TIP3   OH218445   2.051   1.551   5.752
 6169TIP3    H118446   2.071   1.638   5.792
 6169TIP3    H218447   2.063   1.571   5.657
 6170TIP3   OH218448   1.441   1.736   5.784
 6170TIP3    H118449   1.485   1.650   5.798
 6170TIP3    H218450   1.403   1.724   5.695
 6171TIP3   OH218451   1.470   1.492   5.368
 6171TIP3    H118452   1.539   1.474   5.435
 6171TIP3    H218453   1.526   1.524   5.294
 6172TIP3   OH218454   0.415   1.622   5.875
 6172TIP3    H118455   0.489   1.586   5.926
 6172TIP3    H218456   0.400   1.551   5.811
 6173TIP3   OH218457   0.851   1.802   5.654
 6173TIP3    H118458   0.943   1.772   5.662
 6173TIP3    H218459   0.808   1.720   5.618
 6174TIP3   OH218460   2.115   1.769   5.917
 6174TIP3    H118461   2.028   1.810   5.900
 6174TIP3    H218462   2.129   1.795   6.009
 6175TIP3   OH218463   0.811   1.393   6.193
 6175TIP3    H118464   0.758   1.436   6.122
 6175TIP3    H218465   0.741   1.379   6.259
 6176TIP3   OH218466   1.121   2.234   5.190
 6176TIP3    H118467   1.076   2.206   5.109
 6176TIP3    H218468   1.071   2.315   5.214
 6177TIP3   OH218469   0.885   2.156   5.982
 6177TIP3    H118470   0.820   2.220   6.019
 6177TIP3    H218471   0.925   2.207   5.909
 6178TIP3   OH218472   1.678   1.494   5.540
 6178TIP3    H118473   1.686   1.426   5.609
 6178TIP3    H218474   1.731   1.567   5.576
 6179TIP3   OH218475   0.648   1.508   5.995
 6179TIP3    H118476   0.726   1.563   5.974
 6179TIP3    H218477   0.638   1.456   5.912
 6180TIP3   OH218478   0.705   2.351   6.073
 6180TIP3    H118479   0.680   2.440   6.041
 6180TIP3    H218480   0.627   2.332   6.129
 6181TIP3   OH218481   0.115   2.037   5.307
 6181TIP3    H118482   0.060   2.062   5.230
 6181TIP3    H218483   0.134   2.123   5.349
 6182TIP3   OH218484   1.541   2.557   5.549
 6182TIP3    H118485   1.452   2.547   5.590
 6182TIP3    H218486   1.532   2.643   5.506
 6183TIP3   OH218487   1.834   1.459   5.915
 6183TIP3    H118488   1.746   1.485   5.883
 6183TIP3    H218489   1.892   1.487   5.842
 6184TIP3   OH218490   1.152   1.131   5.907
 6184TIP3    H118491   1.124   1.038   5.888
 6184TIP3    H218492   1.067   1.165   5.942
 6185TIP3   OH218493   1.239   2.599   5.221
 6185TIP3    H118494   1.290   2.517   5.202
 6185TIP3    H218495   1.302   2.665   5.183
 6186TIP3   OH218496   1.386   2.387   5.132
 6186TIP3    H118497   1.349   2.307   5.094
 6186TIP3    H218498   1.423   2.353   5.217
 6187TIP3   OH218499   1.767   2.469   5.894
 6187TIP3    H118500   1.753   2.391   5.836
 6187TIP3    H218501   1.749   2.543   5.833
 6188TIP3   OH218502   1.059   1.866   5.151
 6188TIP3    H118503   0.977   1.911   5.127
 6188TIP3    H218504   1.104   1.856   5.065
 6189TIP3   OH218505   1.017   1.650   4.866
 6189TIP3    H118506   1.087   1.698   4.913
 6189TIP3    H218507   1.070   1.583   4.819
 6190TIP3   OH218508   1.959   2.106   5.738
 6190TIP3    H118509   1.875   2.157   5.748
 6190TIP3    H218510   1.984   2.130   5.647
 6191TIP3   OH218511   1.408   1.947   5.122
 6191TIP3    H118512   1.352   1.969   5.200
 6191TIP3    H218513   1.490   1.919   5.167
 6192TIP3   OH218514   1.641   1.987   6.036
 6192TIP3    H118515   1.638   2.068   6.089
 6192TIP3    H218516   1.555   1.992   5.990
 6193TIP3   OH218517   0.642   1.946   5.536
 6193TIP3    H118518   0.597   1.886   5.473
 6193TIP3    H218519   0.714   1.888   5.570
 6194TIP3   OH218520   0.779   2.360   5.672
 6194TIP3    H118521   0.753   2.282   5.621
 6194TIP3    H218522   0.868   2.333   5.702
 6195TIP3   OH218523   0.777   1.914   5.899
 6195TIP3    H118524   0.804   1.888   5.808
 6195TIP3    H218525   0.821   2.000   5.911
 6196TIP3   OH218526   1.300   2.551   5.670
 6196TIP3    H118527   1.288   2.631   5.724
 6196TIP3    H218528   1.285   2.478   5.734
 6197TIP3   OH218529   0.913   2.470   6.217
 6197TIP3    H118530   0.853   2.532   6.264
 6197TIP3    H218531   0.848   2.416   6.168
 6198TIP3   OH218532   1.245   1.805   4.949
 6198TIP3    H118533   1.305   1.864   5.001
 6198TIP3    H218534   1.273   1.827   4.857
 6199TIP3   OH218535   0.689   2.035   6.314
 6199TIP3    H118536   0.681   2.122   6.359
 6199TIP3    H218537   0.597   2.004   6.316
 6200TIP3   OH218538   0.986   2.490   5.221
 6200TIP3    H118539   1.073   2.529   5.240
 6200TIP3    H218540   0.934   2.566   5.193
 6201TIP3   OH218541   0.707   2.637   6.306
 6201TIP3    H118542   0.669   2.639   6.216
 6201TIP3    H218543   0.628   2.620   6.361
 6202TIP3   OH218544   1.759   1.045   4.997
 6202TIP3    H118545   1.678   1.062   5.050
 6202TIP3    H218546   1.770   1.129   4.950
 6203TIP3   OH218547   0.507   1.790   5.346
 6203TIP3    H118548   0.432   1.819   5.289
 6203TIP3    H218549   0.486   1.697   5.363
 6204TIP3   OH218550   1.561   2.411   4.547
 6204TIP3    H118551   1.570   2.508   4.532
 6204TIP3    H218552   1.654   2.381   4.535
 6205TIP3   OH218553   0.307   2.158   6.242
 6205TIP3    H118554   0.243   2.135   6.173
 6205TIP3    H218555   0.324   2.071   6.280
 6206TIP3   OH218556   0.143   2.388   5.864
 6206TIP3    H118557   0.222   2.333   5.860
 6206TIP3    H218558   0.163   2.443   5.941
 6207TIP3   OH218559   2.005   2.813   5.941
 6207TIP3    H118560   2.004   2.717   5.959
 6207TIP3    H218561   1.922   2.840   5.987
 6208TIP3   OH218562   1.108   2.600   6.074
 6208TIP3    H118563   1.108   2.692   6.108
 6208TIP3    H218564   1.038   2.559   6.129
 6209TIP3   OH218565   0.829   2.717   5.033
 6209TIP3    H118566   0.821   2.710   4.936
 6209TIP3    H218567   0.833   2.814   5.046
 6210TIP3   OH218568   0.328   2.581   5.392
 6210TIP3    H118569   0.368   2.572   5.482
 6210TIP3    H218570   0.275   2.499   5.388
 6211TIP3   OH218571   1.073   2.629   4.667
 6211TIP3    H118572   1.132   2.560   4.629
 6211TIP3    H218573   1.110   2.639   4.757
 6212TIP3   OH218574   1.113   2.681   4.944
 6212TIP3    H118575   1.031   2.671   4.994
 6212TIP3    H218576   1.179   2.646   5.006
 6213TIP3   OH218577   1.896   1.944   6.214
 6213TIP3    H118578   1.812   1.954   6.167
 6213TIP3    H218579   1.910   1.847   6.206
 6214TIP3   OH218580   0.489   2.359   6.245
 6214TIP3    H118581   0.544   2.334   6.322
 6214TIP3    H218582   0.420   2.288   6.247
 6215TIP3   OH218583   0.911   1.187   6.028
 6215TIP3    H118584   0.873   1.201   5.938
 6215TIP3    H218585   0.867   1.257   6.078
 6216TIP3   OH218586   1.670   1.728   6.141
 6216TIP3    H118587   1.609   1.707   6.215
 6216TIP3    H218588   1.636   1.813   6.107
 6217TIP3   OH218589   1.324   1.853   4.695
 6217TIP3    H118590   1.288   1.825   4.609
 6217TIP3    H218591   1.407   1.896   4.667
 6218TIP3   OH218592   1.038   1.225   4.993
 6218TIP3    H118593   1.010   1.217   5.087
 6218TIP3    H218594   0.995   1.145   4.956
 6219TIP3   OH218595   0.850   1.698   6.046
 6219TIP3    H118596   0.788   1.709   6.121
 6219TIP3    H218597   0.825   1.775   5.991
 6220TIP3   OH218598   0.712   1.600   5.541
 6220TIP3    H118599   0.626   1.557   5.561
 6220TIP3    H218600   0.737   1.543   5.466
 6221TIP3   OH218601   1.200   1.669   5.289
 6221TIP3    H118602   1.145   1.737   5.244
 6221TIP3    H218603   1.251   1.631   5.215
 6222TIP3   OH218604   1.368   1.944   6.373
 6222TIP3    H118605   1.349   1.871   6.436
 6222TIP3    H218606   1.462   1.961   6.394
 6223TIP3   OH218607   1.358   1.695   5.522
 6223TIP3    H118608   1.292   1.719   5.453
 6223TIP3    H218609   1.391   1.612   5.481
 6224TIP3   OH218610   0.656   1.729   6.242
 6224TIP3    H118611   0.641   1.783   6.321
 6224TIP3    H218612   0.586   1.662   6.248
 6225TIP3   OH218613   0.698   1.195   4.963
 6225TIP3    H118614   0.685   1.187   5.060
 6225TIP3    H218615   0.617   1.244   4.938
 6226TIP3   OH218616   1.360   1.934   5.949
 6226TIP3    H118617   1.395   1.864   5.889
 6226TIP3    H218618   1.338   1.879   6.027
 6227TIP3   OH218619   1.072   1.431   5.604
 6227TIP3    H118620   0.982   1.394   5.620
 6227TIP3    H218621   1.108   1.404   5.690
 6228TIP3   OH218622   0.479   1.455   5.538
 6228TIP3    H118623   0.395   1.465   5.585
 6228TIP3    H218624   0.523   1.392   5.598
 6229TIP3   OH218625   0.741   1.453   5.310
 6229TIP3    H118626   0.834   1.465   5.286
 6229TIP3    H218627   0.691   1.477   5.230
 6230TIP3   OH218628   1.523   1.471   5.826
 6230TIP3    H118629   1.470   1.463   5.905
 6230TIP3    H218630   1.475   1.409   5.768
 6231TIP3   OH218631   0.569   1.500   5.095
 6231TIP3    H118632   0.500   1.446   5.052
 6231TIP3    H218633   0.624   1.521   5.017
 6232TIP3   OH218634   1.695   3.164   6.041
 6232TIP3    H118635   1.695   3.189   5.947
 6232TIP3    H218636   1.775   3.210   6.073
 6233TIP3   OH218637   0.653   2.278   6.459
 6233TIP3    H118638   0.734   2.304   6.508
 6233TIP3    H218639   0.588   2.275   6.533
 6234TIP3   OH218640   1.121   1.735   5.719
 6234TIP3    H118641   1.170   1.678   5.658
 6234TIP3    H218642   1.120   1.681   5.799
 6235TIP3   OH218643   1.110   1.599   6.055
 6235TIP3    H118644   1.017   1.627   6.036
 6235TIP3    H218645   1.154   1.684   6.071
 6236TIP3   OH218646   0.822   2.019   5.097
 6236TIP3    H118647   0.756   1.946   5.091
 6236TIP3    H218648   0.809   2.049   5.191
 6237TIP3   OH218649   1.727   2.251   5.730
 6237TIP3    H118650   1.748   2.301   5.649
 6237TIP3    H218651   1.642   2.207   5.706
 6238TIP3   OH218652   1.285   1.332   4.956
 6238TIP3    H118653   1.190   1.307   4.971
 6238TIP3    H218654   1.290   1.423   4.990
 6239TIP3   OH218655   1.231   2.336   6.097
 6239TIP3    H118656   1.254   2.311   6.187
 6239TIP3    H218657   1.189   2.423   6.107
 6240TIP3   OH218658   1.355   1.576   5.070
 6240TIP3    H118659   1.451   1.579   5.085
 6240TIP3    H218660   1.338   1.656   5.016
 6241TIP3   OH218661   0.533   2.050   5.774
 6241TIP3    H118662   0.562   2.010   5.690
 6241TIP3    H218663   0.543   1.976   5.836
 6242TIP3   OH218664   0.969   2.169   4.925
 6242TIP3    H118665   0.915   2.250   4.936
 6242TIP3    H218666   0.918   2.107   4.982
 6243TIP3   OH218667   0.447   1.919   6.393
 6243TIP3    H118668   0.477   1.946   6.482
 6243TIP3    H218669   0.350   1.919   6.407
 6244TIP3   OH218670   1.126   2.075   6.409
 6244TIP3    H118671   1.063   2.013   6.368
 6244TIP3    H218672   1.212   2.039   6.378
 6245TIP3   OH218673   1.388   2.596   5.991
 6245TIP3    H118674   1.292   2.592   6.007
 6245TIP3    H218675   1.417   2.645   6.071
 6246TIP3   OH218676   1.801   1.665   4.901
 6246TIP3    H118677   1.738   1.620   4.840
 6246TIP3    H218678   1.796   1.755   4.861
 6247TIP3   OH218679   2.017   2.522   5.983
 6247TIP3    H118680   1.919   2.517   5.975
 6247TIP3    H218681   2.043   2.494   5.893
 6248TIP3   OH218682   1.498   2.484   4.811
 6248TIP3    H118683   1.473   2.412   4.872
 6248TIP3    H218684   1.511   2.437   4.727
 6249TIP3   OH218685   1.494   2.113   5.647
 6249TIP3    H118686   1.401   2.088   5.661
 6249TIP3    H218687   1.527   2.032   5.603
 6250TIP3   OH218688   0.607   2.337   5.376
 6250TIP3    H118689   0.640   2.415   5.421
 6250TIP3    H218690   0.521   2.322   5.418
 6251TIP3   OH218691   0.164   1.652   5.122
 6251TIP3    H118692   0.230   1.725   5.123
 6251TIP3    H218693   0.113   1.676   5.201
 6252TIP3   OH218694   0.766   2.107   5.345
 6252TIP3    H118695   0.714   2.189   5.355
 6252TIP3    H218696   0.730   2.051   5.417
 6253TIP3   OH218697   0.892   2.685   5.870
 6253TIP3    H118698   0.935   2.758   5.822
 6253TIP3    H218699   0.966   2.648   5.920
 6254TIP3   OH218700   1.279   2.319   5.829
 6254TIP3    H118701   1.269   2.319   5.927
 6254TIP3    H218702   1.358   2.264   5.818
 6255TIP3   OH218703   1.255   2.214   4.712
 6255TIP3    H118704   1.308   2.188   4.791
 6255TIP3    H218705   1.168   2.180   4.737
 6256TIP3   OH218706   1.529   2.850   5.879
 6256TIP3    H118707   1.449   2.793   5.874
 6256TIP3    H218708   1.511   2.915   5.807
 6257TIP3   OH218709   1.595   2.686   4.532
 6257TIP3    H118710   1.632   2.758   4.479
 6257TIP3    H218711   1.514   2.731   4.565
 6258TIP3   OH218712   1.415   2.148   4.929
 6258TIP3    H118713   1.403   2.081   4.999
 6258TIP3    H218714   1.512   2.143   4.916
 6259TIP3   OH218715   0.326   2.543   6.033
 6259TIP3    H118716   0.386   2.475   6.068
 6259TIP3    H218717   0.352   2.620   6.085
 6260TIP3   OH218718   0.619   2.192   4.712
 6260TIP3    H118719   0.633   2.102   4.679
 6260TIP3    H218720   0.596   2.175   4.806
 6261TIP3   OH218721   0.573   2.199   4.991
 6261TIP3    H118722   0.627   2.135   5.041
 6261TIP3    H218723   0.628   2.278   4.996
 6262TIP3   OH218724   0.303   1.886   5.180
 6262TIP3    H118725   0.239   1.929   5.240
 6262TIP3    H218726   0.319   1.959   5.117
 6263TIP3   OH218727   1.333   1.281   5.243
 6263TIP3    H118728   1.319   1.302   5.149
 6263TIP3    H218729   1.370   1.364   5.279
 6264TIP3   OH218730   0.808   2.395   4.932
 6264TIP3    H118731   0.765   2.478   4.958
 6264TIP3    H218732   0.856   2.425   4.854
 6265TIP3   OH218733   1.022   1.463   5.343
 6265TIP3    H118734   1.088   1.534   5.330
 6265TIP3    H218735   1.024   1.457   5.441
 6266TIP3   OH218736   1.315   1.769   6.167
 6266TIP3    H118737   1.295   1.840   6.232
 6266TIP3    H218738   1.389   1.726   6.213
 6267TIP3   OH218739   1.178   1.206   5.466
 6267TIP3    H118740   1.156   1.295   5.500
 6267TIP3    H218741   1.234   1.228   5.388
 6268TIP3   OH218742   0.693   1.194   5.240
 6268TIP3    H118743   0.701   1.284   5.276
 6268TIP3    H218744   0.787   1.166   5.244
 6269TIP3   OH218745   1.932   1.675   6.133
 6269TIP3    H118746   1.833   1.679   6.143
 6269TIP3    H218747   1.937   1.629   6.048
 6270TIP3   OH218748   1.581   1.871   5.522
 6270TIP3    H118749   1.503   1.812   5.532
 6270TIP3    H218750   1.650   1.822   5.571
 6271TIP3   OH218751   0.298   2.100   4.988
 6271TIP3    H118752   0.369   2.165   4.998
 6271TIP3    H218753   0.339   2.041   4.922
 6272TIP3   OH218754   0.280   1.406   5.035
 6272TIP3    H118755   0.273   1.482   5.095
 6272TIP3    H218756   0.249   1.333   5.090
 6273TIP3   OH218757   1.548   2.827   5.471
 6273TIP3    H118758   1.506   2.874   5.396
 6273TIP3    H218759   1.643   2.846   5.451
 6274TIP3   OH218760   0.172   2.335   5.381
 6274TIP3    H118761   0.105   2.356   5.447
 6274TIP3    H218762   0.129   2.367   5.298
 6275TIP3   OH218763   0.345   2.871   6.425
 6275TIP3    H118764   0.422   2.876   6.486
 6275TIP3    H218765   0.308   2.786   6.450
 6276TIP3   OH218766   0.803   2.821   6.496
 6276TIP3    H118767   0.897   2.801   6.504
 6276TIP3    H218768   0.777   2.761   6.423
 6277TIP3   OH218769   0.789   2.395   4.630
 6277TIP3    H118770   0.731   2.321   4.662
 6277TIP3    H218771   0.860   2.345   4.585
 6278TIP3   OH218772   1.443   2.725   6.228
 6278TIP3    H118773   1.433   2.656   6.298
 6278TIP3    H218774   1.519   2.777   6.260
 6279TIP3   OH218775   1.220   2.436   4.536
 6279TIP3    H118776   1.262   2.371   4.595
 6279TIP3    H218777   1.276   2.434   4.457
 6280TIP3   OH218778   0.447   2.255   6.647
 6280TIP3    H118779   0.478   2.161   6.648
 6280TIP3    H218780   0.352   2.243   6.640
 6281TIP3   OH218781   0.430   1.912   4.846
 6281TIP3    H118782   0.481   1.872   4.917
 6281TIP3    H218783   0.498   1.915   4.775
 6282TIP3   OH218784   1.059   2.348   6.426
 6282TIP3    H118785   1.017   2.365   6.339
 6282TIP3    H218786   1.089   2.256   6.418
 6283TIP3   OH218787   0.940   2.112   4.654
 6283TIP3    H118788   0.942   2.121   4.751
 6283TIP3    H218789   0.942   2.014   4.646
 6284TIP3   OH218790   1.551   2.356   6.031
 6284TIP3    H118791   1.626   2.402   5.990
 6284TIP3    H218792   1.479   2.420   6.019
 6285TIP3   OH218793   0.556   2.001   6.638
 6285TIP3    H118794   0.616   1.925   6.630
 6285TIP3    H218795   0.574   2.024   6.731
 6286TIP3   OH218796   0.638   1.818   5.069
 6286TIP3    H118797   0.608   1.776   5.152
 6286TIP3    H218798   0.673   1.740   5.019
 6287TIP3   OH218799   0.924   1.886   6.308
 6287TIP3    H118800   0.839   1.936   6.306
 6287TIP3    H218801   0.960   1.909   6.219
 6288TIP3   OH218802   0.737   1.615   4.907
 6288TIP3    H118803   0.711   1.611   4.813
 6288TIP3    H218804   0.835   1.615   4.900
 6289TIP3   OH218805   1.422   2.283   6.430
 6289TIP3    H118806   1.504   2.260   6.386
 6289TIP3    H218807   1.418   2.218   6.502
 6290TIP3   OH218808   1.560   1.942   4.571
 6290TIP3    H118809   1.537   1.895   4.488
 6290TIP3    H218810   1.525   2.031   4.548
 6291TIP3   OH218811   1.036   1.642   6.380
 6291TIP3    H118812   0.951   1.596   6.379
 6291TIP3    H218813   1.006   1.732   6.352
 6292TIP3   OH218814   1.070   1.987   6.095
 6292TIP3    H118815   1.147   2.007   6.039
 6292TIP3    H218816   1.005   2.053   6.062
 6293TIP3   OH218817   1.639   1.955   6.482
 6293TIP3    H118818   1.692   1.876   6.500
 6293TIP3    H218819   1.705   2.016   6.448
 6294TIP3   OH218820   1.681   2.210   6.218
 6294TIP3    H118821   1.623   2.264   6.159
 6294TIP3    H218822   1.769   2.232   6.178
 6295TIP3   OH218823   0.938   1.767   6.642
 6295TIP3    H118824   0.846   1.770   6.676
 6295TIP3    H218825   0.927   1.745   6.549
 6296TIP3   OH218826   1.288   1.723   6.514
 6296TIP3    H118827   1.279   1.710   6.610
 6296TIP3    H218828   1.197   1.703   6.486
 6297TIP3   OH218829   1.516   1.665   6.359
 6297TIP3    H118830   1.451   1.676   6.432
 6297TIP3    H218831   1.595   1.636   6.409
 6298TIP3   OH218832   1.746   1.613   6.512
 6298TIP3    H118833   1.764   1.518   6.531
 6298TIP3    H218834   1.746   1.652   6.602
 6299TIP3   OH218835   1.269   1.251   6.482
 6299TIP3    H118836   1.343   1.191   6.507
 6299TIP3    H218837   1.203   1.187   6.453
 6300TIP3   OH218838   1.326   1.445   6.693
 6300TIP3    H118839   1.294   1.380   6.628
 6300TIP3    H218840   1.247   1.503   6.706
 6301TIP3   OH218841   0.553   2.687   4.850
 6301TIP3    H118842   0.641   2.672   4.810
 6301TIP3    H218843   0.507   2.716   4.769
 6302TIP3   OH218844   0.032   2.046   5.029
 6302TIP3    H118845   0.126   2.071   5.017
 6302TIP3    H218846   0.028   1.959   4.986
 6303TIP3   OH218847  -0.062   2.664   5.441
 6303TIP3    H118848  -0.127   2.603   5.403
 6303TIP3    H218849  -0.022   2.609   5.512
 6304TIP3   OH218850   0.068   2.523   5.636
 6304TIP3    H118851   0.075   2.452   5.703
 6304TIP3    H218852   0.122   2.590   5.683
 6305TIP3   OH218853   1.803   2.914   5.431
 6305TIP3    H118854   1.827   2.947   5.519
 6305TIP3    H218855   1.864   2.964   5.374
 6306TIP3   OH218856   1.831   2.938   5.711
 6306TIP3    H118857   1.788   2.850   5.709
 6306TIP3    H218858   1.904   2.918   5.771
 6307TIP3   OH218859   1.877   2.615   6.284
 6307TIP3    H118860   1.805   2.624   6.349
 6307TIP3    H218861   1.919   2.703   6.289
 6308TIP3   OH218862   1.694   2.128   4.905
 6308TIP3    H118863   1.762   2.192   4.876
 6308TIP3    H218864   1.737   2.090   4.984
 6309TIP3   OH218865   1.821   1.998   5.112
 6309TIP3    H118866   1.752   1.951   5.164
 6309TIP3    H218867   1.874   2.039   5.182
 6310TIP3   OH218868   1.875   2.389   5.542
 6310TIP3    H118869   1.925   2.324   5.489
 6310TIP3    H218870   1.866   2.464   5.481
 6311TIP3   OH218871   1.706   2.688   5.734
 6311TIP3    H118872   1.636   2.731   5.788
 6311TIP3    H218873   1.654   2.641   5.666
 6312TIP3   OH218874   1.760   1.905   4.754
 6312TIP3    H118875   1.688   1.905   4.687
 6312TIP3    H218876   1.730   1.980   4.809
 6313TIP3   OH218877   1.632   1.576   4.706
 6313TIP3    H118878   1.583   1.609   4.630
 6313TIP3    H218879   1.610   1.481   4.703
 6314TIP3   OH218880   1.637   1.851   5.253
 6314TIP3    H118881   1.641   1.754   5.245
 6314TIP3    H218882   1.621   1.863   5.350
 6315TIP3   OH218883   0.262   1.928   6.023
 6315TIP3    H118884   0.255   1.908   5.927
 6315TIP3    H218885   0.359   1.931   6.033
 6316TIP3   OH218886   1.924   2.278   6.111
 6316TIP3    H118887   1.997   2.212   6.102
 6316TIP3    H218888   1.954   2.349   6.051
 6317TIP3   OH218889   2.109   2.082   6.124
 6317TIP3    H118890   2.034   2.033   6.165
 6317TIP3    H218891   2.181   2.018   6.139
 6318TIP3   OH218892   1.573   1.311   4.692
 6318TIP3    H118893   1.646   1.278   4.749
 6318TIP3    H218894   1.499   1.253   4.716
 6319TIP3   OH218895   1.633   1.568   5.148
 6319TIP3    H118896   1.671   1.479   5.166
 6319TIP3    H218897   1.693   1.597   5.077
 6320TIP3   OH218898   1.793   1.740   5.647
 6320TIP3    H118899   1.878   1.766   5.605
 6320TIP3    H218900   1.806   1.778   5.736
 6321TIP3   OH218901   1.863   1.886   5.877
 6321TIP3    H118902   1.785   1.917   5.926
 6321TIP3    H218903   1.894   1.968   5.833
 6322TIP3   OH218904   2.311   1.475   6.432
 6322TIP3    H118905   2.373   1.411   6.392
 6322TIP3    H218906   2.285   1.530   6.355
 6323TIP3   OH218907   1.739   1.318   5.188
 6323TIP3    H118908   1.786   1.299   5.272
 6323TIP3    H218909   1.677   1.241   5.185
 6324TIP3   OH218910   2.183   1.613   6.235
 6324TIP3    H118911   2.099   1.656   6.261
 6324TIP3    H218912   2.147   1.542   6.179
 6325TIP3   OH218913   1.819   1.255   4.817
 6325TIP3    H118914   1.859   1.178   4.771
 6325TIP3    H218915   1.892   1.320   4.813
 6326TIP3   OH218916   1.382   2.785   5.085
 6326TIP3    H118917   1.437   2.773   5.004
 6326TIP3    H218918   1.435   2.850   5.135
 6327TIP3   OH218919   0.487   2.589   6.478
 6327TIP3    H118920   0.425   2.519   6.455
 6327TIP3    H218921   0.498   2.578   6.573
 6328TIP3   OH218922   0.664   2.620   6.017
 6328TIP3    H118923   0.617   2.698   5.980
 6328TIP3    H218924   0.751   2.636   5.974
 6329TIP3   OH218925   1.109   2.866   6.156
 6329TIP3    H118926   1.150   2.865   6.245
 6329TIP3    H218927   1.176   2.917   6.105
 6330TIP3   OH218928   1.290   3.018   6.016
 6330TIP3    H118929   1.362   2.966   5.978
 6330TIP3    H218930   1.339   3.076   6.078
 6331TIP3   OH218931   2.087   1.378   6.110
 6331TIP3    H118932   1.994   1.371   6.081
 6331TIP3    H218933   2.114   1.284   6.107
 6332TIP3   OH218934   0.341   2.878   6.044
 6332TIP3    H118935   0.250   2.907   6.023
 6332TIP3    H218936   0.352   2.917   6.132
 6333TIP3   OH218937   0.577   2.856   5.900
 6333TIP3    H118938   0.491   2.869   5.947
 6333TIP3    H218939   0.556   2.891   5.812
 6334TIP3   OH218940   1.004   2.887   5.697
 6334TIP3    H118941   0.934   2.909   5.633
 6334TIP3    H218942   1.016   2.972   5.743
 6335TIP3   OH218943   1.272   2.824   5.748
 6335TIP3    H118944   1.178   2.843   5.730
 6335TIP3    H218945   1.316   2.902   5.711
 6336TIP3   OH218946   1.478   3.016   5.665
 6336TIP3    H118947   1.465   3.101   5.618
 6336TIP3    H218948   1.505   2.956   5.592
 6337TIP3   OH218949   0.257   2.672   5.781
 6337TIP3    H118950   0.270   2.647   5.874
 6337TIP3    H218951   0.328   2.619   5.738
 6338TIP3   OH218952   0.451   2.538   5.635
 6338TIP3    H118953   0.460   2.457   5.691
 6338TIP3    H218954   0.541   2.577   5.645
 6339TIP3   OH218955   0.717   2.632   5.648
 6339TIP3    H118956   0.749   2.539   5.647
 6339TIP3    H218957   0.759   2.662   5.730
 6340TIP3   OH218958   1.308   1.302   5.756
 6340TIP3    H118959   1.247   1.240   5.803
 6340TIP3    H218960   1.340   1.246   5.684
 6341TIP3   OH218961   1.815   1.187   5.648
 6341TIP3    H118962   1.848   1.228   5.565
 6341TIP3    H218963   1.718   1.184   5.632
 6342TIP3   OH218964   1.907   1.278   5.406
 6342TIP3    H118965   1.978   1.224   5.364
 6342TIP3    H218966   1.940   1.369   5.387
 6343TIP3   OH218967   0.997   1.026   5.594
 6343TIP3    H118968   1.067   1.092   5.579
 6343TIP3    H218969   0.935   1.078   5.650
 6344TIP3   OH218970   1.540   1.179   5.610
 6344TIP3    H118971   1.521   1.139   5.525
 6344TIP3    H218972   1.519   1.105   5.671
 6345TIP3   OH218973   1.556   1.105   5.179
 6345TIP3    H118974   1.468   1.144   5.195
 6345TIP3    H218975   1.546   1.019   5.226
 6346TIP3   OH218976   0.037   2.445   5.176
 6346TIP3    H118977  -0.036   2.395   5.137
 6346TIP3    H218978   0.022   2.534   5.138
 6347TIP3   OH218979   0.970   1.205   5.260
 6347TIP3    H118980   1.005   1.151   5.333
 6347TIP3    H218981   0.993   1.295   5.291
 6348TIP3   OH218982   0.814   2.636   4.762
 6348TIP3    H118983   0.903   2.656   4.724
 6348TIP3    H218984   0.791   2.560   4.704
 6349TIP3   OH218985   1.531   2.751   4.855
 6349TIP3    H118986   1.523   2.653   4.843
 6349TIP3    H218987   1.487   2.782   4.774
 6350TIP3   OH218988   0.119   2.470   4.816
 6350TIP3    H118989   0.111   2.499   4.908
 6350TIP3    H218990   0.207   2.426   4.814
 6351TIP3   OH218991   1.823   1.347   6.551
 6351TIP3    H118992   1.842   1.314   6.642
 6351TIP3    H218993   1.912   1.341   6.509
 6352TIP3   OH218994   1.759   2.896   6.038
 6352TIP3    H118995   1.679   2.864   5.992
 6352TIP3    H218996   1.739   2.991   6.046
 6353TIP3   OH218997   3.016   2.281   4.824
 6353TIP3    H118998   2.985   2.364   4.781
 6353TIP3    H218999   2.953   2.218   4.784
 6354TIP3   OH219000   3.246   2.570   4.886
 6354TIP3    H119001   3.294   2.499   4.927
 6354TIP3    H219002   3.292   2.650   4.919
 6355TIP3   OH219003   2.291   2.583   5.277
 6355TIP3    H119004   2.270   2.489   5.277
 6355TIP3    H219005   2.388   2.582   5.264
 6356TIP3   OH219006   2.002   1.783   5.064
 6356TIP3    H119007   1.944   1.860   5.076
 6356TIP3    H219008   1.938   1.718   5.031
 6357TIP3   OH219009   2.075   2.070   5.237
 6357TIP3    H119010   2.117   1.987   5.270
 6357TIP3    H219011   2.105   2.071   5.145
 6358TIP3   OH219012   2.905   3.028   4.880
 6358TIP3    H119013   2.957   2.958   4.838
 6358TIP3    H219014   2.912   3.009   4.974
 6359TIP3   OH219015   3.832   1.816   5.230
 6359TIP3    H119016   3.866   1.895   5.276
 6359TIP3    H219017   3.865   1.830   5.140
 6360TIP3   OH219018   3.236   2.004   5.262
 6360TIP3    H119019   3.277   1.920   5.292
 6360TIP3    H219020   3.202   1.976   5.174
 6361TIP3   OH219021   2.570   1.656   5.234
 6361TIP3    H119022   2.552   1.725   5.168
 6361TIP3    H219023   2.527   1.579   5.191
 6362TIP3   OH219024   3.267   1.746   4.854
 6362TIP3    H119025   3.335   1.728   4.922
 6362TIP3    H219026   3.324   1.778   4.782
 6363TIP3   OH219027   2.210   1.856   5.342
 6363TIP3    H119028   2.290   1.827   5.390
 6363TIP3    H219029   2.218   1.800   5.262
 6364TIP3   OH219030   2.636   2.054   5.170
 6364TIP3    H119031   2.731   2.032   5.170
 6364TIP3    H219032   2.600   1.975   5.125
 6365TIP3   OH219033   3.910   2.022   5.402
 6365TIP3    H119034   3.824   2.065   5.384
 6365TIP3    H219035   3.922   2.043   5.495
 6366TIP3   OH219036   2.557   1.631   5.679
 6366TIP3    H119037   2.502   1.661   5.605
 6366TIP3    H219038   2.506   1.667   5.755
 6367TIP3   OH219039   2.910   2.488   4.680
 6367TIP3    H119040   2.873   2.473   4.591
 6367TIP3    H219041   2.868   2.574   4.703
 6368TIP3   OH219042   2.615   2.393   5.440
 6368TIP3    H119043   2.561   2.460   5.490
 6368TIP3    H219044   2.698   2.446   5.437
 6369TIP3   OH219045   3.472   1.752   5.028
 6369TIP3    H119046   3.473   1.693   5.105
 6369TIP3    H219047   3.532   1.823   5.057
 6370TIP3   OH219048   2.443   1.750   5.455
 6370TIP3    H119049   2.501   1.826   5.471
 6370TIP3    H219050   2.489   1.707   5.380
 6371TIP3   OH219051   2.497   2.606   5.561
 6371TIP3    H119052   2.474   2.696   5.528
 6371TIP3    H219053   2.421   2.592   5.621
 6372TIP3   OH219054   1.897   2.297   4.797
 6372TIP3    H119055   1.855   2.323   4.713
 6372TIP3    H219056   1.928   2.383   4.833
 6373TIP3   OH219057   3.324   2.807   5.035
 6373TIP3    H119058   3.236   2.806   5.078
 6373TIP3    H219059   3.325   2.896   4.993
 6374TIP3   OH219060   3.625   1.725   5.399
 6374TIP3    H119061   3.538   1.749   5.363
 6374TIP3    H219062   3.687   1.752   5.327
 6375TIP3   OH219063   2.920   1.357   5.372
 6375TIP3    H119064   2.917   1.263   5.399
 6375TIP3    H219065   2.843   1.391   5.424
 6376TIP3   OH219066   3.042   2.855   4.717
 6376TIP3    H119067   3.090   2.774   4.688
 6376TIP3    H219068   3.101   2.923   4.675
 6377TIP3   OH219069   3.180   2.639   4.620
 6377TIP3    H119070   3.155   2.561   4.570
 6377TIP3    H219071   3.206   2.602   4.706
 6378TIP3   OH219072   3.560   2.727   5.384
 6378TIP3    H119073   3.558   2.650   5.323
 6378TIP3    H219074   3.547   2.802   5.323
 6379TIP3   OH219075   2.862   2.126   4.642
 6379TIP3    H119076   2.779   2.174   4.622
 6379TIP3    H219077   2.902   2.120   4.554
 6380TIP3   OH219078   2.812   1.907   4.352
 6380TIP3    H119079   2.881   1.955   4.401
 6380TIP3    H219080   2.866   1.838   4.309
 6381TIP3   OH219081   3.759   2.359   5.225
 6381TIP3    H119082   3.678   2.414   5.231
 6381TIP3    H219083   3.791   2.384   5.136
 6382TIP3   OH219084   3.198   2.203   4.616
 6382TIP3    H119085   3.148   2.227   4.697
 6382TIP3    H219086   3.283   2.173   4.655
 6383TIP3   OH219087   3.437   2.243   5.523
 6383TIP3    H119088   3.438   2.323   5.580
 6383TIP3    H219089   3.347   2.248   5.486
 6384TIP3   OH219090   2.443   2.202   5.018
 6384TIP3    H119091   2.392   2.143   4.959
 6384TIP3    H219092   2.507   2.141   5.059
 6385TIP3   OH219093   2.545   2.583   5.173
 6385TIP3    H119094   2.522   2.569   5.079
 6385TIP3    H219095   2.637   2.610   5.170
 6386TIP3   OH219096   3.098   2.792   5.198
 6386TIP3    H119097   3.072   2.887   5.191
 6386TIP3    H219098   3.126   2.790   5.291
 6387TIP3   OH219099   2.708   2.729   5.702
 6387TIP3    H119100   2.652   2.791   5.753
 6387TIP3    H219101   2.640   2.675   5.658
 6388TIP3   OH219102   3.044   2.060   4.435
 6388TIP3    H119103   3.100   2.121   4.489
 6388TIP3    H219104   3.070   2.085   4.343
 6389TIP3   OH219105   2.432   2.305   5.762
 6389TIP3    H119106   2.457   2.375   5.825
 6389TIP3    H219107   2.351   2.271   5.803
 6390TIP3   OH219108   2.787   2.741   4.719
 6390TIP3    H119109   2.866   2.797   4.727
 6390TIP3    H219110   2.725   2.800   4.673
 6391TIP3   OH219111   2.503   2.893   5.793
 6391TIP3    H119112   2.465   2.894   5.704
 6391TIP3    H219113   2.425   2.872   5.849
 6392TIP3   OH219114   3.558   1.302   4.483
 6392TIP3    H119115   3.476   1.318   4.535
 6392TIP3    H219116   3.568   1.387   4.436
 6393TIP3   OH219117   2.298   2.044   4.835
 6393TIP3    H119118   2.230   2.085   4.778
 6393TIP3    H219119   2.264   1.954   4.843
 6394TIP3   OH219120   3.358   2.667   4.032
 6394TIP3    H119121   3.366   2.764   4.018
 6394TIP3    H219122   3.451   2.639   4.021
 6395TIP3   OH219123   2.082   2.425   5.738
 6395TIP3    H119124   2.010   2.402   5.676
 6395TIP3    H219125   2.115   2.338   5.768
 6396TIP3   OH219126   1.938   2.622   5.371
 6396TIP3    H119127   2.034   2.632   5.372
 6396TIP3    H219128   1.911   2.698   5.425
 6397TIP3   OH219129   3.800   3.070   5.427
 6397TIP3    H119130   3.800   2.974   5.444
 6397TIP3    H219131   3.717   3.096   5.474
 6398TIP3   OH219132   2.904   2.858   5.557
 6398TIP3    H119133   2.903   2.949   5.594
 6398TIP3    H219134   2.837   2.814   5.614
 6399TIP3   OH219135   2.668   2.985   4.516
 6399TIP3    H119136   2.623   2.970   4.431
 6399TIP3    H219137   2.636   3.073   4.542
 6400TIP3   OH219138   2.104   2.834   4.896
 6400TIP3    H119139   2.152   2.826   4.981
 6400TIP3    H219140   2.045   2.757   4.901
 6401TIP3   OH219141   2.867   2.885   4.153
 6401TIP3    H119142   2.928   2.816   4.117
 6401TIP3    H219143   2.903   2.898   4.243
 6402TIP3   OH219144   2.918   2.934   4.421
 6402TIP3    H119145   2.831   2.945   4.465
 6402TIP3    H219146   2.974   2.904   4.495
 6403TIP3   OH219147   3.689   2.198   5.703
 6403TIP3    H119148   3.607   2.209   5.652
 6403TIP3    H219149   3.707   2.103   5.690
 6404TIP3   OH219150   2.285   2.610   5.728
 6404TIP3    H119151   2.336   2.594   5.810
 6404TIP3    H219152   2.213   2.544   5.736
 6405TIP3   OH219153   2.693   1.433   5.509
 6405TIP3    H119154   2.604   1.397   5.491
 6405TIP3    H219155   2.671   1.507   5.569
 6406TIP3   OH219156   3.222   1.549   5.704
 6406TIP3    H119157   3.297   1.516   5.759
 6406TIP3    H219158   3.145   1.522   5.758
 6407TIP3   OH219159   3.459   1.977   5.626
 6407TIP3    H119160   3.409   1.971   5.711
 6407TIP3    H219161   3.433   2.065   5.592
 6408TIP3   OH219162   3.112   2.103   4.174
 6408TIP3    H119163   3.092   2.079   4.083
 6408TIP3    H219164   3.196   2.152   4.162
 6409TIP3   OH219165   2.833   1.483   4.484
 6409TIP3    H119166   2.799   1.478   4.576
 6409TIP3    H219167   2.795   1.400   4.449
 6410TIP3   OH219168   2.615   2.000   5.527
 6410TIP3    H119169   2.552   1.974   5.601
 6410TIP3    H219170   2.686   2.038   5.582
 6411TIP3   OH219171   2.499   1.840   5.046
 6411TIP3    H119172   2.408   1.808   5.063
 6411TIP3    H219173   2.515   1.799   4.958
 6412TIP3   OH219174   2.996   1.924   4.775
 6412TIP3    H119175   2.942   1.992   4.729
 6412TIP3    H219176   3.049   1.887   4.701
 6413TIP3   OH219177   3.165   2.199   5.860
 6413TIP3    H119178   3.144   2.124   5.921
 6413TIP3    H219179   3.259   2.213   5.883
 6414TIP3   OH219180   3.151   1.950   5.006
 6414TIP3    H119181   3.086   1.967   4.935
 6414TIP3    H219182   3.188   1.866   4.970
 6415TIP3   OH219183   2.458   1.963   5.743
 6415TIP3    H119184   2.481   2.035   5.804
 6415TIP3    H219185   2.438   1.891   5.806
 6416TIP3   OH219186   2.485   1.455   4.448
 6416TIP3    H119187   2.482   1.449   4.545
 6416TIP3    H219188   2.403   1.504   4.430
 6417TIP3   OH219189   2.029   1.504   5.317
 6417TIP3    H119190   2.108   1.527   5.369
 6417TIP3    H219191   2.063   1.461   5.237
 6418TIP3   OH219192   2.004   1.480   4.837
 6418TIP3    H119193   2.050   1.516   4.760
 6418TIP3    H219194   1.941   1.552   4.856
 6419TIP3   OH219195   3.169   2.206   5.422
 6419TIP3    H119196   3.185   2.128   5.364
 6419TIP3    H219197   3.138   2.160   5.502
 6420TIP3   OH219198   2.830   1.668   5.106
 6420TIP3    H119199   2.750   1.656   5.162
 6420TIP3    H219200   2.902   1.646   5.169
 6421TIP3   OH219201   2.264   1.711   5.114
 6421TIP3    H119202   2.170   1.717   5.086
 6421TIP3    H219203   2.288   1.619   5.093
 6422TIP3   OH219204   2.531   1.712   4.805
 6422TIP3    H119205   2.625   1.721   4.783
 6422TIP3    H219206   2.485   1.730   4.720
 6423TIP3   OH219207   3.317   1.741   5.309
 6423TIP3    H119208   3.285   1.746   5.401
 6423TIP3    H219209   3.259   1.672   5.273
 6424TIP3   OH219210   2.374   1.745   4.582
 6424TIP3    H119211   2.298   1.701   4.540
 6424TIP3    H219212   2.424   1.776   4.504
 6425TIP3   OH219213   3.491   3.420   5.527
 6425TIP3    H119214   3.489   3.440   5.432
 6425TIP3    H219215   3.572   3.466   5.555
 6426TIP3   OH219216   2.450   2.534   5.946
 6426TIP3    H119217   2.530   2.560   5.996
 6426TIP3    H219218   2.385   2.530   6.019
 6427TIP3   OH219219   2.902   1.989   5.210
 6427TIP3    H119220   2.974   1.951   5.157
 6427TIP3    H219221   2.915   1.943   5.296
 6428TIP3   OH219222   2.435   1.471   5.083
 6428TIP3    H119223   2.395   1.395   5.132
 6428TIP3    H219224   2.490   1.424   5.019
 6429TIP3   OH219225   2.897   1.889   5.485
 6429TIP3    H119226   2.809   1.917   5.513
 6429TIP3    H219227   2.957   1.939   5.542
 6430TIP3   OH219228   2.626   2.272   4.591
 6430TIP3    H119229   2.554   2.206   4.580
 6430TIP3    H219230   2.607   2.306   4.681
 6431TIP3   OH219231   3.531   2.512   5.214
 6431TIP3    H119232   3.562   2.562   5.135
 6431TIP3    H219233   3.440   2.491   5.192
 6432TIP3   OH219234   3.076   1.595   4.431
 6432TIP3    H119235   2.985   1.567   4.456
 6432TIP3    H219236   3.087   1.681   4.477
 6433TIP3   OH219237   2.985   2.568   5.590
 6433TIP3    H119238   3.044   2.556   5.666
 6433TIP3    H219239   2.979   2.664   5.584
 6434TIP3   OH219240   3.152   1.831   4.556
 6434TIP3    H119241   3.249   1.833   4.574
 6434TIP3    H219242   3.139   1.912   4.505
 6435TIP3   OH219243   2.770   2.421   4.410
 6435TIP3    H119244   2.722   2.507   4.413
 6435TIP3    H219245   2.715   2.368   4.471
 6436TIP3   OH219246   2.196   2.214   5.878
 6436TIP3    H119247   2.221   2.204   5.972
 6436TIP3    H219248   2.128   2.145   5.869
 6437TIP3   OH219249   2.918   2.325   5.881
 6437TIP3    H119250   2.866   2.243   5.889
 6437TIP3    H219251   3.008   2.290   5.865
 6438TIP3   OH219252   3.171   2.837   5.473
 6438TIP3    H119253   3.077   2.850   5.499
 6438TIP3    H219254   3.214   2.888   5.546
 6439TIP3   OH219255   3.592   1.924   4.395
 6439TIP3    H119256   3.527   1.880   4.336
 6439TIP3    H219257   3.592   2.012   4.351
 6440TIP3   OH219258   3.812   2.779   5.472
 6440TIP3    H119259   3.714   2.775   5.465
 6440TIP3    H219260   3.837   2.750   5.381
 6441TIP3   OH219261   3.288   2.740   4.294
 6441TIP3    H119262   3.274   2.668   4.356
 6441TIP3    H219263   3.309   2.695   4.210
 6442TIP3   OH219264   3.248   2.334   5.147
 6442TIP3    H119265   3.274   2.273   5.220
 6442TIP3    H219266   3.298   2.291   5.075
 6443TIP3   OH219267   2.423   2.603   4.898
 6443TIP3    H119268   2.421   2.682   4.839
 6443TIP3    H219269   2.329   2.581   4.900
 6444TIP3   OH219270   1.981   1.903   4.591
 6444TIP3    H119271   2.026   1.986   4.613
 6444TIP3    H219272   1.904   1.906   4.653
 6445TIP3   OH219273   2.562   2.368   4.835
 6445TIP3    H119274   2.523   2.455   4.855
 6445TIP3    H219275   2.523   2.312   4.905
 6446TIP3   OH219276   2.690   2.936   5.351
 6446TIP3    H119277   2.728   3.014   5.305
 6446TIP3    H219278   2.764   2.912   5.409
 6447TIP3   OH219279   2.342   2.835   4.744
 6447TIP3    H119280   2.255   2.847   4.786
 6447TIP3    H219281   2.376   2.928   4.745
 6448TIP3   OH219282   3.052   2.460   4.201
 6448TIP3    H119283   3.103   2.439   4.282
 6448TIP3    H219284   2.961   2.444   4.232
 6449TIP3   OH219285   3.322   3.106   5.363
 6449TIP3    H119286   3.240   3.056   5.353
 6449TIP3    H219287   3.311   3.174   5.292
 6450TIP3   OH219288   3.389   2.942   4.019
 6450TIP3    H119289   3.431   3.016   3.971
 6450TIP3    H219290   3.309   2.989   4.051
 6451TIP3   OH219291   2.401   1.709   5.892
 6451TIP3    H119292   2.306   1.729   5.901
 6451TIP3    H219293   2.430   1.706   5.985
 6452TIP3   OH219294   3.212   2.402   4.421
 6452TIP3    H119295   3.204   2.335   4.491
 6452TIP3    H219296   3.309   2.399   4.405
 6453TIP3   OH219297   2.130   2.801   5.516
 6453TIP3    H119298   2.181   2.733   5.562
 6453TIP3    H219299   2.146   2.878   5.573
 6454TIP3   OH219300   2.419   2.447   4.198
 6454TIP3    H119301   2.430   2.353   4.173
 6454TIP3    H219302   2.397   2.439   4.293
 6455TIP3   OH219303   2.363   2.454   4.469
 6455TIP3    H119304   2.435   2.429   4.527
 6455TIP3    H219305   2.364   2.552   4.476
 6456TIP3   OH219306   2.096   2.148   4.674
 6456TIP3    H119307   2.030   2.192   4.731
 6456TIP3    H219308   2.109   2.217   4.606
 6457TIP3   OH219309   3.242   1.788   5.571
 6457TIP3    H119310   3.327   1.818   5.607
 6457TIP3    H219311   3.229   1.704   5.621
 6458TIP3   OH219312   3.125   1.538   4.732
 6458TIP3    H119313   3.118   1.563   4.639
 6458TIP3    H219314   3.167   1.617   4.772
 6459TIP3   OH219315   2.629   2.652   4.420
 6459TIP3    H119316   2.541   2.677   4.455
 6459TIP3    H219317   2.646   2.728   4.363
 6460TIP3   OH219318   2.815   1.718   4.835
 6460TIP3    H119319   2.881   1.789   4.821
 6460TIP3    H219320   2.819   1.706   4.933
 6461TIP3   OH219321   3.089   2.046   5.634
 6461TIP3    H119322   3.109   2.087   5.720
 6461TIP3    H219323   3.138   1.962   5.641
 6462TIP3   OH219324   2.959   1.441   4.935
 6462TIP3    H119325   2.969   1.511   5.002
 6462TIP3    H219326   3.019   1.475   4.864
 6463TIP3   OH219327   2.372   2.725   4.488
 6463TIP3    H119328   2.343   2.794   4.424
 6463TIP3    H219329   2.357   2.771   4.574
 6464TIP3   OH219330   2.473   1.441   4.723
 6464TIP3    H119331   2.470   1.528   4.766
 6464TIP3    H219332   2.568   1.420   4.733
 6465TIP3   OH219333   3.727   1.934   5.620
 6465TIP3    H119334   3.629   1.933   5.629
 6465TIP3    H219335   3.736   1.879   5.541
 6466TIP3   OH219336   3.375   2.134   5.011
 6466TIP3    H119337   3.305   2.067   5.020
 6466TIP3    H219338   3.451   2.088   5.056
 6467TIP3   OH219339   2.088   2.355   4.480
 6467TIP3    H119340   2.152   2.428   4.488
 6467TIP3    H219341   2.135   2.301   4.412
 6468TIP3   OH219342   2.036   1.633   4.609
 6468TIP3    H119343   2.029   1.731   4.608
 6468TIP3    H219344   1.950   1.606   4.575
 6469TIP3   OH219345   3.346   3.074   4.957
 6469TIP3    H119346   3.303   3.123   4.884
 6469TIP3    H219347   3.440   3.098   4.938
 6470TIP3   OH219348   2.419   1.353   5.489
 6470TIP3    H119349   2.392   1.321   5.400
 6470TIP3    H219350   2.414   1.270   5.541
 6471TIP3   OH219351   1.959   2.566   4.866
 6471TIP3    H119352   1.891   2.599   4.927
 6471TIP3    H219353   1.931   2.609   4.782
 6472TIP3   OH219354   2.118   3.115   5.938
 6472TIP3    H119355   2.204   3.117   5.987
 6472TIP3    H219356   2.099   3.020   5.939
 6473TIP3   OH219357   2.597   3.078   5.982
 6473TIP3    H119358   2.691   3.060   5.993
 6473TIP3    H219359   2.574   3.016   5.910
 6474TIP3   OH219360   2.579   2.653   4.108
 6474TIP3    H119361   2.524   2.581   4.147
 6474TIP3    H219362   2.655   2.602   4.076
 6475TIP3   OH219363   3.246   2.972   5.704
 6475TIP3    H119364   3.231   2.909   5.779
 6475TIP3    H219365   3.316   3.030   5.740
 6476TIP3   OH219366   3.015   2.691   4.021
 6476TIP3    H119367   3.069   2.637   4.081
 6476TIP3    H219368   3.070   2.694   3.941
 6477TIP3   OH219369   2.249   2.519   6.138
 6477TIP3    H119370   2.264   2.423   6.147
 6477TIP3    H219371   2.160   2.521   6.095
 6478TIP3   OH219372   2.225   2.170   4.332
 6478TIP3    H119373   2.278   2.137   4.406
 6478TIP3    H219374   2.294   2.175   4.262
 6479TIP3   OH219375   2.857   2.606   5.912
 6479TIP3    H119376   2.817   2.625   5.824
 6479TIP3    H219377   2.887   2.513   5.901
 6480TIP3   OH219378   2.738   2.366   4.140
 6480TIP3    H119379   2.738   2.381   4.236
 6480TIP3    H219380   2.728   2.269   4.135
 6481TIP3   OH219381   3.345   2.610   5.514
 6481TIP3    H119382   3.423   2.655   5.477
 6481TIP3    H219383   3.277   2.680   5.503
 6482TIP3   OH219384   2.367   2.251   6.117
 6482TIP3    H119385   2.440   2.190   6.097
 6482TIP3    H219386   2.394   2.286   6.204
 6483TIP3   OH219387   2.435   2.073   4.557
 6483TIP3    H119388   2.404   2.030   4.638
 6483TIP3    H219389   2.470   1.997   4.506
 6484TIP3   OH219390   2.533   1.869   4.394
 6484TIP3    H119391   2.508   1.874   4.300
 6484TIP3    H219392   2.631   1.872   4.388
 6485TIP3   OH219393   3.219   2.539   5.912
 6485TIP3    H119394   3.306   2.516   5.876
 6485TIP3    H219395   3.211   2.475   5.985
 6486TIP3   OH219396   3.351   2.195   4.059
 6486TIP3    H119397   3.339   2.156   3.970
 6486TIP3    H219398   3.321   2.287   4.040
 6487TIP3   OH219399   2.834   1.679   5.678
 6487TIP3    H119400   2.857   1.741   5.607
 6487TIP3    H219401   2.737   1.688   5.687
 6488TIP3   OH219402   2.842   2.237   5.531
 6488TIP3    H119403   2.935   2.211   5.542
 6488TIP3    H219404   2.840   2.315   5.590
 6489TIP3   OH219405   3.436   2.215   5.970
 6489TIP3    H119406   3.479   2.128   5.979
 6489TIP3    H219407   3.508   2.269   5.936
 6490TIP3   OH219408   3.478   2.466   5.701
 6490TIP3    H119409   3.420   2.521   5.644
 6490TIP3    H219410   3.566   2.488   5.664
 6491TIP3   OH219411   2.964   1.472   5.788
 6491TIP3    H119412   2.919   1.554   5.757
 6491TIP3    H219413   2.926   1.406   5.729
 6492TIP3   OH219414   3.085   1.981   5.996
 6492TIP3    H119415   3.078   1.960   6.091
 6492TIP3    H219416   2.989   1.976   5.974
 6493TIP3   OH219417   3.327   1.935   5.856
 6493TIP3    H119418   3.249   1.929   5.915
 6493TIP3    H219419   3.397   1.896   5.911
 6494TIP3   OH219420   3.564   1.874   6.003
 6494TIP3    H119421   3.572   1.777   6.017
 6494TIP3    H219422   3.553   1.907   6.095
 6495TIP3   OH219423   2.531   1.792   6.189
 6495TIP3    H119424   2.608   1.821   6.138
 6495TIP3    H219425   2.569   1.788   6.280
 6496TIP3   OH219426   3.048   1.485   6.049
 6496TIP3    H119427   3.119   1.417   6.045
 6496TIP3    H219428   3.013   1.476   5.958
 6497TIP3   OH219429   3.129   1.700   6.199
 6497TIP3    H119430   3.102   1.628   6.137
 6497TIP3    H219431   3.051   1.759   6.196
 6498TIP3   OH219432   2.339   2.922   4.298
 6498TIP3    H119433   2.436   2.923   4.283
 6498TIP3    H219434   2.311   2.977   4.222
 6499TIP3   OH219435   1.820   2.311   4.517
 6499TIP3    H119436   1.915   2.332   4.502
 6499TIP3    H219437   1.814   2.222   4.475
 6500TIP3   OH219438   1.736   2.923   4.930
 6500TIP3    H119439   1.669   2.861   4.893
 6500TIP3    H219440   1.780   2.864   4.995
 6501TIP3   OH219441   1.872   2.772   5.116
 6501TIP3    H119442   1.858   2.702   5.181
 6501TIP3    H219443   1.923   2.836   5.170
 6502TIP3   OH219444   3.597   3.172   4.919
 6502TIP3    H119445   3.627   3.212   5.003
 6502TIP3    H219446   3.656   3.214   4.855
 6503TIP3   OH219447   3.626   3.199   5.203
 6503TIP3    H119448   3.586   3.109   5.194
 6503TIP3    H219449   3.704   3.176   5.255
 6504TIP3   OH219450   3.670   2.873   5.769
 6504TIP3    H119451   3.600   2.881   5.837
 6504TIP3    H219452   3.715   2.960   5.775
 6505TIP3   OH219453   3.489   2.385   4.391
 6505TIP3    H119454   3.556   2.449   4.360
 6505TIP3    H219455   3.535   2.348   4.470
 6506TIP3   OH219456   3.615   2.254   4.596
 6506TIP3    H119457   3.554   2.210   4.658
 6506TIP3    H219458   3.687   2.287   4.655
 6507TIP3   OH219459   3.661   2.640   5.016
 6507TIP3    H119460   3.725   2.577   4.975
 6507TIP3    H219461   3.673   2.720   4.960
 6508TIP3   OH219462   3.503   2.943   5.222
 6508TIP3    H119463   3.434   2.992   5.272
 6508TIP3    H219464   3.451   2.902   5.150
 6509TIP3   OH219465   3.554   2.159   4.242
 6509TIP3    H119466   3.483   2.164   4.175
 6509TIP3    H219467   3.530   2.235   4.298
 6510TIP3   OH219468   3.414   1.836   4.209
 6510TIP3    H119469   3.411   1.874   4.121
 6510TIP3    H219470   3.397   1.741   4.192
 6511TIP3   OH219471   3.427   2.108   4.742
 6511TIP3    H119472   3.441   2.012   4.733
 6511TIP3    H219473   3.419   2.118   4.840
 6512TIP3   OH219474   2.059   2.182   5.485
 6512TIP3    H119475   2.053   2.146   5.394
 6512TIP3    H219476   2.155   2.186   5.498
 6513TIP3   OH219477   3.721   2.534   5.594
 6513TIP3    H119478   3.792   2.466   5.588
 6513TIP3    H219479   3.754   2.604   5.537
 6514TIP3   OH219480   3.903   2.337   5.614
 6514TIP3    H119481   3.830   2.286   5.655
 6514TIP3    H219482   3.978   2.275   5.629
 6515TIP3   OH219483   3.374   1.567   4.169
 6515TIP3    H119484   3.449   1.541   4.226
 6515TIP3    H219485   3.301   1.511   4.203
 6516TIP3   OH219486   3.428   1.824   4.634
 6516TIP3    H119487   3.467   1.735   4.651
 6516TIP3    H219488   3.489   1.856   4.565
 6517TIP3   OH219489   3.587   2.005   5.128
 6517TIP3    H119490   3.675   2.026   5.089
 6517TIP3    H219491   3.605   2.033   5.220
 6518TIP3   OH219492   3.658   2.141   5.362
 6518TIP3    H119493   3.583   2.177   5.414
 6518TIP3    H219494   3.694   2.222   5.319
 6519TIP3   OH219495   2.271   1.864   6.157
 6519TIP3    H119496   2.368   1.853   6.166
 6519TIP3    H219497   2.241   1.782   6.202
 6520TIP3   OH219498   4.114   1.740   5.922
 6520TIP3    H119499   4.171   1.671   5.881
 6520TIP3    H219500   4.083   1.788   5.842
 6521TIP3   OH219501   3.533   1.575   4.674
 6521TIP3    H119502   3.585   1.559   4.756
 6521TIP3    H219503   3.475   1.496   4.674
 6522TIP3   OH219504   2.236   1.559   5.497
 6522TIP3    H119505   2.295   1.481   5.501
 6522TIP3    H219506   2.301   1.631   5.489
 6523TIP3   OH219507   2.037   1.832   5.566
 6523TIP3    H119508   2.087   1.826   5.482
 6523TIP3    H219509   2.072   1.912   5.605
 6524TIP3   OH219510   3.979   1.871   5.724
 6524TIP3    H119511   3.891   1.911   5.737
 6524TIP3    H219512   3.954   1.797   5.665
 6525TIP3   OH219513   3.614   1.514   4.299
 6525TIP3    H119514   3.659   1.437   4.258
 6525TIP3    H219515   3.686   1.580   4.303
 6526TIP3   OH219516   2.023   1.351   5.075
 6526TIP3    H119517   1.930   1.333   5.095
 6526TIP3    H219518   2.017   1.401   4.991
 6527TIP3   OH219519   3.182   3.035   4.574
 6527TIP3    H119520   3.234   3.029   4.491
 6527TIP3    H219521   3.227   3.109   4.620
 6528TIP3   OH219522   2.272   1.420   5.897
 6528TIP3    H119523   2.206   1.407   5.969
 6528TIP3    H219524   2.211   1.451   5.826
 6529TIP3   OH219525   2.283   2.846   5.958
 6529TIP3    H119526   2.190   2.819   5.944
 6529TIP3    H219527   2.295   2.827   6.052
 6530TIP3   OH219528   2.463   2.874   5.502
 6530TIP3    H119529   2.413   2.949   5.466
 6530TIP3    H219530   2.549   2.891   5.459
 6531TIP3   OH219531   2.905   3.121   5.642
 6531TIP3    H119532   2.945   3.121   5.732
 6531TIP3    H219533   2.972   3.173   5.592
 6532TIP3   OH219534   3.088   3.270   5.504
 6532TIP3    H119535   3.165   3.227   5.465
 6532TIP3    H219536   3.134   3.331   5.566
 6533TIP3   OH219537   3.882   1.632   5.604
 6533TIP3    H119538   3.790   1.612   5.574
 6533TIP3    H219539   3.919   1.541   5.595
 6534TIP3   OH219540   2.137   3.132   5.532
 6534TIP3    H119541   2.047   3.166   5.509
 6534TIP3    H219542   2.151   3.177   5.616
 6535TIP3   OH219543   2.373   3.108   5.388
 6535TIP3    H119544   2.287   3.123   5.432
 6535TIP3    H219545   2.355   3.144   5.298
 6536TIP3   OH219546   2.800   3.139   5.185
 6536TIP3    H119547   2.732   3.161   5.119
 6536TIP3    H219548   2.813   3.227   5.228
 6537TIP3   OH219549   3.068   3.066   5.215
 6537TIP3    H119550   2.974   3.096   5.212
 6537TIP3    H219551   3.115   3.147   5.188
 6538TIP3   OH219552   3.270   3.266   5.150
 6538TIP3    H119553   3.256   3.354   5.107
 6538TIP3    H219554   3.300   3.213   5.074
 6539TIP3   OH219555   2.048   2.930   5.274
 6539TIP3    H119556   2.075   2.904   5.365
 6539TIP3    H219557   2.119   2.887   5.223
 6540TIP3   OH219558   2.240   2.805   5.130
 6540TIP3    H119559   2.257   2.724   5.184
 6540TIP3    H219560   2.329   2.846   5.128
 6541TIP3   OH219561   2.500   2.903   5.137
 6541TIP3    H119562   2.544   2.823   5.109
 6541TIP3    H219563   2.548   2.924   5.220
 6542TIP3   OH219564   3.074   1.546   5.209
 6542TIP3    H119565   3.036   1.478   5.268
 6542TIP3    H219566   3.155   1.501   5.176
 6543TIP3   OH219567   3.605   1.438   5.126
 6543TIP3    H119568   3.641   1.484   5.047
 6543TIP3    H219569   3.509   1.449   5.115
 6544TIP3   OH219570   3.701   1.534   4.888
 6544TIP3    H119571   3.774   1.479   4.853
 6544TIP3    H219572   3.738   1.624   4.874
 6545TIP3   OH219573   2.329   1.266   5.239
 6545TIP3    H119574   2.239   1.227   5.242
 6545TIP3    H219575   2.382   1.183   5.236
 6546TIP3   OH219576   2.100   1.136   4.879
 6546TIP3    H119577   2.145   1.191   4.812
 6546TIP3    H219578   2.090   1.197   4.954
 6547TIP3   OH219579   2.774   1.300   5.119
 6547TIP3    H119580   2.836   1.343   5.059
 6547TIP3    H219581   2.807   1.326   5.206
 6548TIP3   OH219582   3.320   1.437   5.102
 6548TIP3    H119583   3.328   1.391   5.017
 6548TIP3    H219584   3.310   1.360   5.164
 6549TIP3   OH219585   3.353   1.360   4.665
 6549TIP3    H119586   3.264   1.397   4.680
 6549TIP3    H219587   3.345   1.274   4.712
 6550TIP3   OH219588   1.837   2.702   4.667
 6550TIP3    H119589   1.752   2.669   4.633
 6550TIP3    H219590   1.828   2.796   4.645
 6551TIP3   OH219591   2.239   1.295   4.644
 6551TIP3    H119592   2.285   1.224   4.595
 6551TIP3    H219593   2.314   1.343   4.683
 6552TIP3   OH219594   2.749   1.468   4.746
 6552TIP3    H119595   2.804   1.415   4.807
 6552TIP3    H219596   2.775   1.558   4.776
 6553TIP3   OH219597   2.609   2.887   4.251
 6553TIP3    H119598   2.697   2.912   4.214
 6553TIP3    H219599   2.587   2.814   4.189
 6554TIP3   OH219600   3.325   3.006   4.340
 6554TIP3    H119601   3.313   2.909   4.326
 6554TIP3    H219602   3.281   3.042   4.260
 6555TIP3   OH219603   2.550   1.473   6.085
 6555TIP3    H119604   2.517   1.440   6.171
 6555TIP3    H219605   2.635   1.513   6.118
 6556TIP3   OH219606   2.783   1.538   6.243
 6556TIP3    H119607   2.872   1.517   6.208
 6556TIP3    H219608   2.773   1.470   6.312
 6557TIP3   OH219609   1.911   2.723   4.303
 6557TIP3    H119610   1.914   2.753   4.395
 6557TIP3    H219611   2.000   2.682   4.292
 6558TIP3   OH219612   3.618   1.604   6.037
 6558TIP3    H119613   3.633   1.567   6.126
 6558TIP3    H219614   3.706   1.591   5.995
 6559TIP3   OH219615   3.553   3.151   5.528
 6559TIP3    H119616   3.474   3.120   5.479
 6559TIP3    H219617   3.534   3.247   5.534
 6560TIP3   OH219618   4.821   2.524   4.293
 6560TIP3    H119619   4.793   2.615   4.274
 6560TIP3    H219620   4.743   2.475   4.262
 6561TIP3   OH219621   4.818   2.524   4.677
 6561TIP3    H119622   4.853   2.498   4.765
 6561TIP3    H219623   4.779   2.440   4.646
 6562TIP3   OH219624   4.115   2.420   5.046
 6562TIP3    H119625   4.147   2.350   5.106
 6562TIP3    H219626   4.196   2.470   5.030
 6563TIP3   OH219627   5.062   2.827   4.358
 6563TIP3    H119628   5.050   2.759   4.425
 6563TIP3    H219629   5.093   2.902   4.411
 6564TIP3   OH219630   4.089   2.827   4.766
 6564TIP3    H119631   4.083   2.729   4.767
 6564TIP3    H219632   4.186   2.838   4.757
 6565TIP3   OH219633   3.797   2.030   4.549
 6565TIP3    H119634   3.752   2.115   4.564
 6565TIP3    H219635   3.725   1.977   4.510
 6566TIP3   OH219636   3.853   2.317   4.722
 6566TIP3    H119637   3.903   2.240   4.758
 6566TIP3    H219638   3.918   2.356   4.662
 6567TIP3   OH219639   4.710   3.288   4.373
 6567TIP3    H119640   4.757   3.218   4.323
 6567TIP3    H219641   4.708   3.252   4.462
 6568TIP3   OH219642   4.618   2.749   4.725
 6568TIP3    H119643   4.659   2.673   4.681
 6568TIP3    H219644   4.701   2.796   4.749
 6569TIP3   OH219645   5.632   2.071   4.721
 6569TIP3    H119646   5.662   2.153   4.765
 6569TIP3    H219647   5.654   2.090   4.628
 6570TIP3   OH219648   5.030   2.252   4.755
 6570TIP3    H119649   5.073   2.167   4.777
 6570TIP3    H219650   4.999   2.234   4.665
 6571TIP3   OH219651   4.367   1.910   4.721
 6571TIP3    H119652   4.350   1.983   4.658
 6571TIP3    H219653   4.320   1.837   4.677
 6572TIP3   OH219654   5.063   2.002   4.342
 6572TIP3    H119655   5.133   1.986   4.409
 6572TIP3    H219656   5.118   2.037   4.269
 6573TIP3   OH219657   4.003   2.113   4.827
 6573TIP3    H119658   4.085   2.094   4.875
 6573TIP3    H219659   4.017   2.057   4.747
 6574TIP3   OH219660   4.442   2.310   4.624
 6574TIP3    H119661   4.537   2.286   4.635
 6574TIP3    H219662   4.405   2.226   4.591
 6575TIP3   OH219663   5.706   2.278   4.890
 6575TIP3    H119664   5.621   2.324   4.872
 6575TIP3    H219665   5.720   2.304   4.983
 6576TIP3   OH219666   4.366   1.895   5.155
 6576TIP3    H119667   4.304   1.931   5.088
 6576TIP3    H219668   4.314   1.911   5.236
 6577TIP3   OH219669   4.711   2.746   4.163
 6577TIP3    H119670   4.668   2.730   4.078
 6577TIP3    H219671   4.669   2.830   4.190
 6578TIP3   OH219672   4.471   2.669   4.949
 6578TIP3    H119673   4.411   2.737   4.986
 6578TIP3    H219674   4.515   2.718   4.877
 6579TIP3   OH219675   5.271   2.006   4.515
 6579TIP3    H119676   5.262   1.955   4.597
 6579TIP3    H219677   5.324   2.082   4.544
 6580TIP3   OH219678   4.235   2.009   4.939
 6580TIP3    H119679   4.298   2.080   4.964
 6580TIP3    H219680   4.284   1.968   4.865
 6581TIP3   OH219681   4.299   2.864   5.048
 6581TIP3    H119682   4.275   2.951   5.010
 6581TIP3    H219683   4.220   2.849   5.104
 6582TIP3   OH219684   3.690   2.553   4.285
 6582TIP3    H119685   3.655   2.584   4.199
 6582TIP3    H219686   3.723   2.637   4.323
 6583TIP3   OH219687   5.132   3.069   4.522
 6583TIP3    H119688   5.043   3.061   4.562
 6583TIP3    H219689   5.126   3.156   4.478
 6584TIP3   OH219690   5.424   1.972   4.887
 6584TIP3    H119691   5.337   1.999   4.855
 6584TIP3    H219692   5.484   2.003   4.816
 6585TIP3   OH219693   4.718   1.611   4.866
 6585TIP3    H119694   4.709   1.516   4.889
 6585TIP3    H219695   4.641   1.648   4.915
 6586TIP3   OH219696   4.835   3.114   4.197
 6586TIP3    H119697   4.886   3.032   4.177
 6586TIP3    H219698   4.895   3.180   4.157
 6587TIP3   OH219699   4.979   2.898   4.105
 6587TIP3    H119700   4.935   2.819   4.071
 6587TIP3    H219701   5.016   2.866   4.190
 6588TIP3   OH219702   5.359   2.981   4.869
 6588TIP3    H119703   5.348   2.904   4.809
 6588TIP3    H219704   5.341   3.056   4.808
 6589TIP3   OH219705   4.650   2.374   4.125
 6589TIP3    H119706   4.571   2.428   4.104
 6589TIP3    H219707   4.698   2.374   4.040
 6590TIP3   OH219708   4.608   2.162   3.839
 6590TIP3    H119709   4.675   2.212   3.890
 6590TIP3    H219710   4.667   2.098   3.793
 6591TIP3   OH219711   5.554   2.619   4.713
 6591TIP3    H119712   5.471   2.671   4.718
 6591TIP3    H219713   5.584   2.644   4.623
 6592TIP3   OH219714   4.999   2.457   4.096
 6592TIP3    H119715   4.944   2.482   4.175
 6592TIP3    H219716   5.083   2.433   4.140
 6593TIP3   OH219717   5.233   2.497   5.010
 6593TIP3    H119718   5.231   2.580   5.062
 6593TIP3    H219719   5.147   2.503   4.964
 6594TIP3   OH219720   4.231   2.456   4.515
 6594TIP3    H119721   4.191   2.398   4.447
 6594TIP3    H219722   4.308   2.403   4.545
 6595TIP3   OH219723   4.358   2.862   4.665
 6595TIP3    H119724   4.341   2.828   4.576
 6595TIP3    H219725   4.449   2.830   4.682
 6596TIP3   OH219726   4.360   2.429   4.868
 6596TIP3    H119727   4.398   2.403   4.781
 6596TIP3    H219728   4.408   2.513   4.887
 6597TIP3   OH219729   4.892   3.065   4.645
 6597TIP3    H119730   4.879   3.146   4.697
 6597TIP3    H219731   4.877   2.993   4.710
 6598TIP3   OH219732   4.506   2.984   5.192
 6598TIP3    H119733   4.445   3.046   5.239
 6598TIP3    H219734   4.441   2.930   5.142
 6599TIP3   OH219735   4.838   2.317   3.923
 6599TIP3    H119736   4.897   2.377   3.974
 6599TIP3    H219737   4.865   2.340   3.830
 6600TIP3   OH219738   4.261   2.540   5.296
 6600TIP3    H119739   4.265   2.628   5.339
 6600TIP3    H219740   4.166   2.520   5.304
 6601TIP3   OH219741   4.581   2.996   4.197
 6601TIP3    H119742   4.663   3.048   4.212
 6601TIP3    H219743   4.522   3.062   4.159
 6602TIP3   OH219744   4.299   3.152   5.278
 6602TIP3    H119745   4.265   3.153   5.187
 6602TIP3    H219746   4.218   3.130   5.331
 6603TIP3   OH219747   5.353   1.556   3.971
 6603TIP3    H119748   5.272   1.575   4.023
 6603TIP3    H219749   5.366   1.640   3.924
 6604TIP3   OH219750   4.098   2.300   4.318
 6604TIP3    H119751   4.030   2.342   4.261
 6604TIP3    H219752   4.062   2.211   4.330
 6605TIP3   OH219753   5.154   2.924   3.517
 6605TIP3    H119754   5.163   3.021   3.506
 6605TIP3    H219755   5.247   2.895   3.506
 6606TIP3   OH219756   3.876   2.682   5.228
 6606TIP3    H119757   3.821   2.655   5.152
 6606TIP3    H219758   3.918   2.597   5.255
 6607TIP3   OH219759   3.733   2.870   4.868
 6607TIP3    H119760   3.828   2.867   4.848
 6607TIP3    H219761   3.726   2.955   4.915
 6608TIP3   OH219762   5.597   3.327   4.916
 6608TIP3    H119763   5.595   3.231   4.930
 6608TIP3    H219764   5.514   3.353   4.961
 6609TIP3   OH219765   4.703   3.113   5.049
 6609TIP3    H119766   4.701   3.205   5.082
 6609TIP3    H219767   4.632   3.072   5.104
 6610TIP3   OH219768   4.463   3.242   4.003
 6610TIP3    H119769   4.417   3.232   3.917
 6610TIP3    H219770   4.437   3.333   4.029
 6611TIP3   OH219771   3.901   3.087   4.385
 6611TIP3    H119772   3.953   3.081   4.468
 6611TIP3    H219773   3.839   3.014   4.397
 6612TIP3   OH219774   4.664   3.149   3.633
 6612TIP3    H119775   4.723   3.077   3.600
 6612TIP3    H219776   4.695   3.158   3.726
 6613TIP3   OH219777   4.710   3.190   3.905
 6613TIP3    H119778   4.623   3.202   3.949
 6613TIP3    H219779   4.764   3.157   3.979
 6614TIP3   OH219780   5.486   2.457   5.189
 6614TIP3    H119781   5.404   2.468   5.139
 6614TIP3    H219782   5.503   2.361   5.179
 6615TIP3   OH219783   4.081   2.866   5.215
 6615TIP3    H119784   4.133   2.849   5.296
 6615TIP3    H219785   4.008   2.802   5.224
 6616TIP3   OH219786   4.481   1.689   4.998
 6616TIP3    H119787   4.392   1.658   4.971
 6616TIP3    H219788   4.456   1.769   5.047
 6617TIP3   OH219789   5.017   1.805   5.193
 6617TIP3    H119790   5.087   1.775   5.255
 6617TIP3    H219791   4.934   1.783   5.241
 6618TIP3   OH219792   5.254   2.233   5.111
 6618TIP3    H119793   5.204   2.230   5.196
 6618TIP3    H219794   5.231   2.321   5.076
 6619TIP3   OH219795   4.913   2.361   3.666
 6619TIP3    H119796   4.882   2.336   3.577
 6619TIP3    H219797   4.995   2.409   3.644
 6620TIP3   OH219798   4.627   1.739   3.970
 6620TIP3    H119799   4.595   1.735   4.062
 6620TIP3    H219800   4.590   1.655   3.936
 6621TIP3   OH219801   4.412   2.206   5.016
 6621TIP3    H119802   4.365   2.228   5.099
 6621TIP3    H219803   4.397   2.287   4.963
 6622TIP3   OH219804   4.297   2.091   4.531
 6622TIP3    H119805   4.205   2.064   4.549
 6622TIP3    H219806   4.311   2.050   4.443
 6623TIP3   OH219807   4.788   2.176   4.259
 6623TIP3    H119808   4.737   2.247   4.216
 6623TIP3    H219809   4.844   2.144   4.185
 6624TIP3   OH219810   4.963   2.454   5.344
 6624TIP3    H119811   4.942   2.381   5.406
 6624TIP3    H219812   5.057   2.469   5.366
 6625TIP3   OH219813   4.945   2.204   4.498
 6625TIP3    H119814   4.884   2.233   4.426
 6625TIP3    H219815   4.979   2.123   4.455
 6626TIP3   OH219816   4.230   2.234   5.227
 6626TIP3    H119817   4.269   2.295   5.291
 6626TIP3    H219818   4.223   2.151   5.278
 6627TIP3   OH219819   4.281   1.711   3.934
 6627TIP3    H119820   4.276   1.708   4.032
 6627TIP3    H219821   4.202   1.764   3.913
 6628TIP3   OH219822   3.827   1.758   4.804
 6628TIP3    H119823   3.902   1.788   4.860
 6628TIP3    H219824   3.871   1.721   4.726
 6629TIP3   OH219825   3.795   1.733   4.326
 6629TIP3    H119826   3.845   1.769   4.249
 6629TIP3    H219827   3.739   1.811   4.346
 6630TIP3   OH219828   4.953   2.450   4.920
 6630TIP3    H119829   4.987   2.379   4.861
 6630TIP3    H219830   4.925   2.396   4.997
 6631TIP3   OH219831   4.626   1.918   4.593
 6631TIP3    H119832   4.546   1.912   4.649
 6631TIP3    H219833   4.697   1.907   4.658
 6632TIP3   OH219834   4.060   1.968   4.601
 6632TIP3    H119835   3.966   1.972   4.573
 6632TIP3    H219836   4.086   1.876   4.578
 6633TIP3   OH219837   4.326   1.964   4.290
 6633TIP3    H119838   4.422   1.977   4.271
 6633TIP3    H219839   4.283   1.986   4.204
 6634TIP3   OH219840   5.117   1.990   4.795
 6634TIP3    H119841   5.083   2.001   4.886
 6634TIP3    H219842   5.053   1.927   4.759
 6635TIP3   OH219843   4.169   2.000   4.065
 6635TIP3    H119844   4.099   1.954   4.015
 6635TIP3    H219845   4.223   2.037   3.992
 6636TIP3   OH219846   5.288   3.677   5.013
 6636TIP3    H119847   5.285   3.702   4.919
 6636TIP3    H219848   5.367   3.726   5.044
 6637TIP3   OH219849   4.244   2.788   5.434
 6637TIP3    H119850   4.325   2.817   5.481
 6637TIP3    H219851   4.181   2.787   5.509
 6638TIP3   OH219852   4.707   2.242   4.690
 6638TIP3    H119853   4.780   2.202   4.640
 6638TIP3    H219854   4.715   2.198   4.776
 6639TIP3   OH219855   4.228   1.729   4.569
 6639TIP3    H119856   4.195   1.650   4.618
 6639TIP3    H219857   4.287   1.688   4.504
 6640TIP3   OH219858   4.685   2.139   4.978
 6640TIP3    H119859   4.596   2.175   4.994
 6640TIP3    H219860   4.743   2.199   5.029
 6641TIP3   OH219861   4.421   2.528   4.073
 6641TIP3    H119862   4.348   2.464   4.062
 6641TIP3    H219863   4.402   2.562   4.164
 6642TIP3   OH219864   5.321   2.764   4.703
 6642TIP3    H119865   5.346   2.815   4.622
 6642TIP3    H219866   5.237   2.723   4.677
 6643TIP3   OH219867   4.877   1.843   3.931
 6643TIP3    H119868   4.782   1.823   3.945
 6643TIP3    H219869   4.887   1.935   3.962
 6644TIP3   OH219870   4.815   2.844   5.073
 6644TIP3    H119871   4.851   2.828   5.161
 6644TIP3    H219872   4.784   2.936   5.078
 6645TIP3   OH219873   4.948   2.088   4.040
 6645TIP3    H119874   5.044   2.093   4.058
 6645TIP3    H219875   4.931   2.169   3.990
 6646TIP3   OH219876   4.109   2.545   4.749
 6646TIP3    H119877   4.149   2.522   4.663
 6646TIP3    H219878   4.163   2.491   4.810
 6647TIP3   OH219879   4.565   2.678   3.892
 6647TIP3    H119880   4.517   2.764   3.897
 6647TIP3    H219881   4.512   2.624   3.955
 6648TIP3   OH219882   3.993   2.474   5.366
 6648TIP3    H119883   4.018   2.461   5.459
 6648TIP3    H219884   3.930   2.402   5.352
 6649TIP3   OH219885   4.722   2.585   5.384
 6649TIP3    H119886   4.664   2.526   5.332
 6649TIP3    H219887   4.810   2.551   5.357
 6650TIP3   OH219888   4.980   3.102   4.971
 6650TIP3    H119889   4.884   3.106   4.982
 6650TIP3    H219890   5.009   3.157   5.047
 6651TIP3   OH219891   5.390   2.179   3.876
 6651TIP3    H119892   5.328   2.135   3.814
 6651TIP3    H219893   5.387   2.269   3.837
 6652TIP3   OH219894   5.609   3.036   4.957
 6652TIP3    H119895   5.511   3.031   4.949
 6652TIP3    H219896   5.635   3.006   4.867
 6653TIP3   OH219897   5.088   2.998   3.783
 6653TIP3    H119898   5.066   2.930   3.848
 6653TIP3    H219899   5.104   2.947   3.701
 6654TIP3   OH219900   5.087   2.627   4.621
 6654TIP3    H119901   4.993   2.602   4.634
 6654TIP3    H219902   5.121   2.547   4.577
 6655TIP3   OH219903   4.216   2.855   4.375
 6655TIP3    H119904   4.218   2.937   4.321
 6655TIP3    H219905   4.121   2.841   4.384
 6656TIP3   OH219906   3.775   2.160   4.073
 6656TIP3    H119907   3.825   2.242   4.095
 6656TIP3    H219908   3.703   2.164   4.139
 6657TIP3   OH219909   4.349   2.619   4.317
 6657TIP3    H119910   4.317   2.709   4.336
 6657TIP3    H219911   4.316   2.569   4.394
 6658TIP3   OH219912   4.484   3.198   4.843
 6658TIP3    H119913   4.524   3.272   4.793
 6658TIP3    H219914   4.561   3.163   4.891
 6659TIP3   OH219915   4.136   3.091   4.227
 6659TIP3    H119916   4.050   3.103   4.271
 6659TIP3    H219917   4.171   3.183   4.231
 6660TIP3   OH219918   4.870   2.831   4.804
 6660TIP3    H119919   4.861   2.828   4.902
 6660TIP3    H219920   4.952   2.781   4.791
 6661TIP3   OH219921   4.847   2.725   3.686
 6661TIP3    H119922   4.902   2.700   3.764
 6661TIP3    H219923   4.759   2.700   3.718
 6662TIP3   OH219924   5.120   3.365   4.852
 6662TIP3    H119925   5.039   3.311   4.843
 6662TIP3    H219926   5.106   3.431   4.780
 6663TIP3   OH219927   5.187   3.201   3.506
 6663TIP3    H119928   5.230   3.278   3.464
 6663TIP3    H219929   5.104   3.245   3.534
 6664TIP3   OH219930   4.205   1.978   5.371
 6664TIP3    H119931   4.108   1.977   5.382
 6664TIP3    H219932   4.233   1.915   5.440
 6665TIP3   OH219933   5.008   2.655   3.899
 6665TIP3    H119934   4.998   2.591   3.973
 6665TIP3    H219935   5.105   2.655   3.889
 6666TIP3   OH219936   3.921   3.060   5.004
 6666TIP3    H119937   3.977   2.987   5.035
 6666TIP3    H219938   3.954   3.133   5.059
 6667TIP3   OH219939   4.213   2.704   3.685
 6667TIP3    H119940   4.228   2.611   3.661
 6667TIP3    H219941   4.193   2.696   3.780
 6668TIP3   OH219942   4.157   2.710   3.958
 6668TIP3    H119943   4.231   2.686   4.015
 6668TIP3    H219944   4.159   2.809   3.964
 6669TIP3   OH219945   3.890   2.402   4.161
 6669TIP3    H119946   3.826   2.449   4.218
 6669TIP3    H219947   3.907   2.471   4.094
 6670TIP3   OH219948   5.042   2.041   5.054
 6670TIP3    H119949   5.124   2.078   5.092
 6670TIP3    H219950   5.030   1.960   5.108
 6671TIP3   OH219951   4.924   1.793   4.219
 6671TIP3    H119952   4.913   1.817   4.125
 6671TIP3    H219953   4.964   1.874   4.257
 6672TIP3   OH219954   4.422   2.907   3.904
 6672TIP3    H119955   4.335   2.931   3.942
 6672TIP3    H219956   4.441   2.989   3.856
 6673TIP3   OH219957   4.608   1.974   4.321
 6673TIP3    H119958   4.674   2.044   4.304
 6673TIP3    H219959   4.616   1.963   4.419
 6674TIP3   OH219960   4.882   2.289   5.128
 6674TIP3    H119961   4.906   2.341   5.207
 6674TIP3    H219962   4.936   2.209   5.139
 6675TIP3   OH219963   4.753   1.701   4.420
 6675TIP3    H119964   4.757   1.773   4.486
 6675TIP3    H219965   4.817   1.735   4.352
 6676TIP3   OH219966   4.165   2.983   3.971
 6676TIP3    H119967   4.138   3.053   3.907
 6676TIP3    H219968   4.152   3.028   4.057
 6677TIP3   OH219969   4.268   1.698   4.210
 6677TIP3    H119970   4.267   1.787   4.250
 6677TIP3    H219971   4.363   1.676   4.220
 6678TIP3   OH219972   5.521   2.191   5.108
 6678TIP3    H119973   5.423   2.189   5.116
 6678TIP3    H219974   5.531   2.144   5.024
 6679TIP3   OH219975   5.172   2.385   4.497
 6679TIP3    H119976   5.097   2.325   4.510
 6679TIP3    H219977   5.244   2.338   4.545
 6680TIP3   OH219978   3.884   2.612   3.966
 6680TIP3    H119979   3.949   2.684   3.976
 6680TIP3    H219980   3.932   2.558   3.900
 6681TIP3   OH219981   3.830   1.891   4.106
 6681TIP3    H119982   3.833   1.988   4.096
 6681TIP3    H219983   3.755   1.868   4.050
 6682TIP3   OH219984   5.142   3.338   4.447
 6682TIP3    H119985   5.100   3.386   4.372
 6682TIP3    H219986   5.236   3.358   4.426
 6683TIP3   OH219987   4.213   1.610   4.974
 6683TIP3    H119988   4.186   1.573   4.887
 6683TIP3    H219989   4.207   1.532   5.032
 6684TIP3   OH219990   3.751   2.817   4.354
 6684TIP3    H119991   3.683   2.857   4.409
 6684TIP3    H219992   3.734   2.862   4.268
 6685TIP3   OH219993   3.913   3.371   5.430
 6685TIP3    H119994   4.000   3.370   5.475
 6685TIP3    H219995   3.894   3.276   5.425
 6686TIP3   OH219996   4.391   3.333   5.471
 6686TIP3    H119997   4.486   3.316   5.479
 6686TIP3    H219998   4.368   3.273   5.397
 6687TIP3   OH219999   4.373   2.907   3.591
 6687TIP3    H120000   4.316   2.839   3.634
 6687TIP3    H220001   4.450   2.853   3.569
 6688TIP3   OH220002   5.031   3.241   5.205
 6688TIP3    H120003   5.024   3.170   5.274
 6688TIP3    H220004   5.110   3.291   5.234
 6689TIP3   OH220005   4.811   2.948   3.509
 6689TIP3    H120006   4.853   2.886   3.572
 6689TIP3    H220007   4.873   2.946   3.433
 6690TIP3   OH220008   4.043   2.776   5.626
 6690TIP3    H120009   4.060   2.680   5.634
 6690TIP3    H220010   3.956   2.777   5.581
 6691TIP3   OH220011   4.020   2.424   3.821
 6691TIP3    H120012   4.077   2.394   3.894
 6691TIP3    H220013   4.087   2.429   3.749
 6692TIP3   OH220014   4.649   2.860   5.401
 6692TIP3    H120015   4.612   2.879   5.312
 6692TIP3    H220016   4.682   2.768   5.391
 6693TIP3   OH220017   4.530   2.625   3.624
 6693TIP3    H120018   4.534   2.638   3.721
 6693TIP3    H220019   4.531   2.527   3.620
 6694TIP3   OH220020   5.142   2.871   5.005
 6694TIP3    H120021   5.219   2.912   4.962
 6694TIP3    H220022   5.074   2.940   4.990
 6695TIP3   OH220023   4.162   2.509   5.607
 6695TIP3    H120024   4.239   2.459   5.582
 6695TIP3    H220025   4.189   2.541   5.696
 6696TIP3   OH220026   4.224   2.331   4.039
 6696TIP3    H120027   4.203   2.290   4.124
 6696TIP3    H220028   4.264   2.256   3.990
 6697TIP3   OH220029   4.494   2.391   5.266
 6697TIP3    H120030   4.420   2.455   5.269
 6697TIP3    H220031   4.548   2.426   5.192
 6698TIP3   OH220032   4.330   2.124   3.882
 6698TIP3    H120033   4.305   2.129   3.787
 6698TIP3    H220034   4.427   2.127   3.875
 6699TIP3   OH220035   5.014   2.795   5.403
 6699TIP3    H120036   5.095   2.772   5.356
 6699TIP3    H220037   5.012   2.730   5.475
 6700TIP3   OH220038   5.150   2.454   3.545
 6700TIP3    H120039   5.129   2.409   3.461
 6700TIP3    H220040   5.117   2.544   3.524
 6701TIP3   OH220041   4.619   2.183   5.397
 6701TIP3    H120042   4.622   2.103   5.340
 6701TIP3    H220043   4.576   2.248   5.337
 6702TIP3   OH220044   4.623   1.972   5.205
 6702TIP3    H120045   4.653   2.010   5.120
 6702TIP3    H220046   4.530   1.947   5.184
 6703TIP3   OH220047   4.648   2.503   5.078
 6703TIP3    H120048   4.734   2.512   5.034
 6703TIP3    H220049   4.594   2.571   5.031
 6704TIP3   OH220050   5.231   2.471   5.456
 6704TIP3    H120051   5.279   2.388   5.468
 6704TIP3    H220052   5.300   2.530   5.424
 6705TIP3   OH220053   5.273   2.724   5.191
 6705TIP3    H120054   5.215   2.779   5.133
 6705TIP3    H220055   5.361   2.745   5.152
 6706TIP3   OH220056   4.496   2.294   5.628
 6706TIP3    H120057   4.430   2.223   5.640
 6706TIP3    H220058   4.533   2.270   5.540
 6707TIP3   OH220059   4.756   1.733   5.270
 6707TIP3    H120060   4.705   1.814   5.248
 6707TIP3    H220061   4.688   1.663   5.259
 6708TIP3   OH220062   4.882   2.237   5.486
 6708TIP3    H120063   4.872   2.222   5.582
 6708TIP3    H220064   4.791   2.211   5.457
 6709TIP3   OH220065   5.121   2.187   5.341
 6709TIP3    H120066   5.047   2.187   5.404
 6709TIP3    H220067   5.196   2.156   5.396
 6710TIP3   OH220068   5.348   2.127   5.490
 6710TIP3    H120069   5.362   2.031   5.508
 6710TIP3    H220070   5.345   2.164   5.581
 6711TIP3   OH220071   4.337   2.074   5.681
 6711TIP3    H120072   4.343   1.983   5.646
 6711TIP3    H220073   4.376   2.062   5.770
 6712TIP3   OH220074   4.849   1.743   5.529
 6712TIP3    H120075   4.916   1.672   5.524
 6712TIP3    H220076   4.811   1.736   5.439
 6713TIP3   OH220077   4.916   1.957   5.687
 6713TIP3    H120078   4.896   1.885   5.623
 6713TIP3    H220079   4.837   2.015   5.678
 6714TIP3   OH220080   4.133   3.184   3.778
 6714TIP3    H120081   4.229   3.197   3.774
 6714TIP3    H220082   4.109   3.235   3.698
 6715TIP3   OH220083   3.616   2.568   4.003
 6715TIP3    H120084   3.711   2.591   3.989
 6715TIP3    H220085   3.613   2.479   3.962
 6716TIP3   OH220086   3.529   3.176   4.417
 6716TIP3    H120087   3.463   3.114   4.379
 6716TIP3    H220088   3.575   3.118   4.482
 6717TIP3   OH220089   3.670   3.027   4.601
 6717TIP3    H120090   3.658   2.957   4.667
 6717TIP3    H220091   3.721   3.092   4.652
 6718TIP3   OH220092   5.395   3.430   4.404
 6718TIP3    H120093   5.421   3.466   4.491
 6718TIP3    H220094   5.456   3.475   4.344
 6719TIP3   OH220095   5.421   3.451   4.687
 6719TIP3    H120096   5.380   3.363   4.682
 6719TIP3    H220097   5.499   3.431   4.740
 6720TIP3   OH220098   5.469   3.128   5.258
 6720TIP3    H120099   5.397   3.137   5.324
 6720TIP3    H220100   5.511   3.216   5.263
 6721TIP3   OH220101   5.287   2.641   3.878
 6721TIP3    H120102   5.354   2.706   3.849
 6721TIP3    H220103   5.330   2.603   3.957
 6722TIP3   OH220104   5.414   2.508   4.082
 6722TIP3    H120105   5.348   2.467   4.142
 6722TIP3    H220106   5.479   2.546   4.144
 6723TIP3   OH220107   5.469   2.901   4.514
 6723TIP3    H120108   5.522   2.836   4.464
 6723TIP3    H220109   5.464   2.976   4.451
 6724TIP3   OH220110   5.299   3.200   4.709
 6724TIP3    H120111   5.227   3.244   4.759
 6724TIP3    H220112   5.249   3.154   4.638
 6725TIP3   OH220113   5.352   2.416   3.728
 6725TIP3    H120114   5.280   2.420   3.661
 6725TIP3    H220115   5.325   2.492   3.784
 6726TIP3   OH220116   5.224   2.088   3.681
 6726TIP3    H120117   5.178   2.127   3.606
 6726TIP3    H220118   5.199   1.993   3.672
 6727TIP3   OH220119   5.227   2.366   4.228
 6727TIP3    H120120   5.236   2.269   4.223
 6727TIP3    H220121   5.213   2.380   4.325
 6728TIP3   OH220122   3.853   2.444   4.975
 6728TIP3    H120123   3.853   2.410   4.883
 6728TIP3    H220124   3.950   2.443   4.994
 6729TIP3   OH220125   5.517   2.790   5.085
 6729TIP3    H120126   5.589   2.724   5.075
 6729TIP3    H220127   5.544   2.860   5.023
 6730TIP3   OH220128   5.702   2.594   5.098
 6730TIP3    H120129   5.627   2.544   5.139
 6730TIP3    H220130   5.775   2.530   5.114
 6731TIP3   OH220131   5.167   1.822   3.664
 6731TIP3    H120132   5.242   1.793   3.721
 6731TIP3    H220133   5.094   1.764   3.692
 6732TIP3   OH220134   5.224   2.080   4.122
 6732TIP3    H120135   5.264   1.991   4.137
 6732TIP3    H220136   5.283   2.113   4.053
 6733TIP3   OH220137   5.385   2.255   4.618
 6733TIP3    H120138   5.471   2.280   4.577
 6733TIP3    H220139   5.399   2.291   4.707
 6734TIP3   OH220140   5.455   2.399   4.849
 6734TIP3    H120141   5.377   2.433   4.898
 6734TIP3    H220142   5.488   2.480   4.804
 6735TIP3   OH220143   4.070   2.126   5.654
 6735TIP3    H120144   4.168   2.119   5.653
 6735TIP3    H220145   4.048   2.037   5.688
 6736TIP3   OH220146   5.907   1.991   5.405
 6736TIP3    H120147   5.966   1.925   5.363
 6736TIP3    H220148   5.878   2.044   5.328
 6737TIP3   OH220149   5.332   1.830   4.160
 6737TIP3    H120150   5.381   1.815   4.244
 6737TIP3    H220151   5.272   1.753   4.160
 6738TIP3   OH220152   4.030   1.819   4.983
 6738TIP3    H120153   4.090   1.742   4.991
 6738TIP3    H220154   4.095   1.891   4.974
 6739TIP3   OH220155   3.833   2.094   5.049
 6739TIP3    H120156   3.885   2.085   4.966
 6739TIP3    H220157   3.872   2.172   5.089
 6740TIP3   OH220158   5.777   2.129   5.210
 6740TIP3    H120159   5.692   2.171   5.233
 6740TIP3    H220160   5.745   2.057   5.152
 6741TIP3   OH220161   5.412   1.767   3.792
 6741TIP3    H120162   5.454   1.694   3.742
 6741TIP3    H220163   5.481   1.836   3.790
 6742TIP3   OH220164   3.820   1.594   4.555
 6742TIP3    H120165   3.727   1.590   4.583
 6742TIP3    H220166   3.816   1.653   4.476
 6743TIP3   OH220167   4.979   3.295   4.058
 6743TIP3    H120168   5.033   3.287   3.977
 6743TIP3    H220169   5.026   3.364   4.107
 6744TIP3   OH220170   4.040   1.685   5.373
 6744TIP3    H120171   3.986   1.667   5.452
 6744TIP3    H220172   3.971   1.711   5.309
 6745TIP3   OH220173   4.078   3.107   5.445
 6745TIP3    H120174   3.986   3.076   5.429
 6745TIP3    H220175   4.091   3.083   5.538
 6746TIP3   OH220176   4.257   3.135   4.992
 6746TIP3    H120177   4.212   3.212   4.952
 6746TIP3    H220178   4.344   3.147   4.949
 6747TIP3   OH220179   4.701   3.379   5.132
 6747TIP3    H120180   4.744   3.380   5.220
 6747TIP3    H220181   4.767   3.430   5.079
 6748TIP3   OH220182   4.880   3.530   4.991
 6748TIP3    H120183   4.951   3.482   4.947
 6748TIP3    H220184   4.933   3.588   5.051
 6749TIP3   OH220185   5.676   1.891   5.089
 6749TIP3    H120186   5.585   1.881   5.057
 6749TIP3    H220187   5.709   1.798   5.080
 6750TIP3   OH220188   3.930   3.390   5.016
 6750TIP3    H120189   3.841   3.424   4.994
 6750TIP3    H220190   3.943   3.430   5.103
 6751TIP3   OH220191   4.169   3.368   4.875
 6751TIP3    H120192   4.082   3.382   4.917
 6751TIP3    H220193   4.153   3.404   4.785
 6752TIP3   OH220194   4.595   3.397   4.674
 6752TIP3    H120195   4.530   3.418   4.604
 6752TIP3    H220196   4.609   3.486   4.713
 6753TIP3   OH220197   4.864   3.336   4.725
 6753TIP3    H120198   4.771   3.356   4.705
 6753TIP3    H220199   4.909   3.411   4.681
 6754TIP3   OH220200   5.069   3.527   4.639
 6754TIP3    H120201   5.057   3.613   4.592
 6754TIP3    H220202   5.097   3.469   4.565
 6755TIP3   OH220203   3.842   3.183   4.760
 6755TIP3    H120204   3.871   3.160   4.851
 6755TIP3    H220205   3.916   3.142   4.710
 6756TIP3   OH220206   4.038   3.056   4.619
 6756TIP3    H120207   4.056   2.973   4.668
 6756TIP3    H220208   4.128   3.095   4.614
 6757TIP3   OH220209   4.302   3.149   4.625
 6757TIP3    H120210   4.337   3.059   4.611
 6757TIP3    H220211   4.351   3.174   4.706
 6758TIP3   OH220212   4.875   1.804   4.702
 6758TIP3    H120213   4.836   1.734   4.758
 6758TIP3    H220214   4.953   1.758   4.664
 6759TIP3   OH220215   5.403   1.688   4.612
 6759TIP3    H120216   5.437   1.740   4.536
 6759TIP3    H220217   5.307   1.704   4.605
 6760TIP3   OH220218   5.499   1.789   4.376
 6760TIP3    H120219   5.573   1.737   4.338
 6760TIP3    H220220   5.532   1.880   4.362
 6761TIP3   OH220221   4.129   1.515   4.724
 6761TIP3    H120222   4.037   1.480   4.729
 6761TIP3    H220223   4.179   1.430   4.722
 6762TIP3   OH220224   3.901   1.389   4.368
 6762TIP3    H120225   3.944   1.443   4.300
 6762TIP3    H220226   3.887   1.453   4.440
 6763TIP3   OH220227   4.568   1.554   4.607
 6763TIP3    H120228   4.630   1.596   4.545
 6763TIP3    H220229   4.603   1.585   4.693
 6764TIP3   OH220230   5.119   1.693   4.590
 6764TIP3    H120231   5.121   1.649   4.503
 6764TIP3    H220232   5.106   1.615   4.649
 6765TIP3   OH220233   5.149   1.615   4.153
 6765TIP3    H120234   5.062   1.658   4.168
 6765TIP3    H220235   5.136   1.532   4.203
 6766TIP3   OH220236   3.632   2.958   4.156
 6766TIP3    H120237   3.546   2.929   4.120
 6766TIP3    H220238   3.625   3.053   4.137
 6767TIP3   OH220239   4.034   1.548   4.134
 6767TIP3    H120240   4.082   1.482   4.079
 6767TIP3    H220241   4.109   1.600   4.170
 6768TIP3   OH220242   4.544   1.722   4.234
 6768TIP3    H120243   4.603   1.674   4.294
 6768TIP3    H220244   4.568   1.814   4.261
 6769TIP3   OH220245   4.409   3.138   3.742
 6769TIP3    H120246   4.495   3.160   3.702
 6769TIP3    H220247   4.380   3.067   3.681
 6770TIP3   OH220248   5.123   3.265   3.825
 6770TIP3    H120249   5.114   3.167   3.814
 6770TIP3    H220250   5.080   3.297   3.744
 6771TIP3   OH220251   4.335   1.800   5.621
 6771TIP3    H120252   4.302   1.725   5.673
 6771TIP3    H220253   4.430   1.798   5.646
 6772TIP3   OH220254   4.586   1.797   5.737
 6772TIP3    H120255   4.670   1.773   5.695
 6772TIP3    H220256   4.577   1.726   5.804
 6773TIP3   OH220257   3.704   2.978   3.791
 6773TIP3    H120258   3.712   3.012   3.881
 6773TIP3    H220259   3.793   2.938   3.776
 6774TIP3   OH220260   5.412   1.857   5.523
 6774TIP3    H120261   5.430   1.824   5.614
 6774TIP3    H220262   5.501   1.850   5.482
 6775TIP3   OH220263   5.349   3.408   5.015
 6775TIP3    H120264   5.271   3.378   4.965
 6775TIP3    H220265   5.331   3.504   5.019
 6776TIP3   OH220266   6.617   2.781   3.779
 6776TIP3    H120267   6.589   2.873   3.760
 6776TIP3    H220268   6.539   2.732   3.749
 6777TIP3   OH220269   6.618   2.779   4.162
 6777TIP3    H120270   6.649   2.754   4.251
 6777TIP3    H220271   6.574   2.698   4.132
 6778TIP3   OH220272   5.915   2.675   4.527
 6778TIP3    H120273   5.945   2.606   4.590
 6778TIP3    H220274   5.992   2.733   4.525
 6779TIP3   OH220275   6.861   3.082   3.844
 6779TIP3    H120276   6.843   3.015   3.911
 6779TIP3    H220277   6.887   3.159   3.897
 6780TIP3   OH220278   5.886   3.085   4.251
 6780TIP3    H120279   5.878   2.987   4.254
 6780TIP3    H220280   5.983   3.095   4.245
 6781TIP3   OH220281   5.595   2.288   4.035
 6781TIP3    H120282   5.547   2.371   4.053
 6781TIP3    H220283   5.522   2.234   3.997
 6782TIP3   OH220284   5.651   2.575   4.209
 6782TIP3    H120285   5.700   2.498   4.245
 6782TIP3    H220286   5.713   2.610   4.144
 6783TIP3   OH220287   6.504   3.544   3.856
 6783TIP3    H120288   6.554   3.471   3.812
 6783TIP3    H220289   6.495   3.511   3.946
 6784TIP3   OH220290   6.414   3.006   4.211
 6784TIP3    H120291   6.454   2.930   4.165
 6784TIP3    H220292   6.497   3.052   4.236
 6785TIP3   OH220293   7.427   2.327   4.207
 6785TIP3    H120294   7.457   2.410   4.250
 6785TIP3    H220295   7.452   2.343   4.115
 6786TIP3   OH220296   6.828   2.508   4.242
 6786TIP3    H120297   6.869   2.422   4.263
 6786TIP3    H220298   6.796   2.491   4.151
 6787TIP3   OH220299   6.166   2.167   4.207
 6787TIP3    H120300   6.145   2.240   4.145
 6787TIP3    H220301   6.117   2.094   4.164
 6788TIP3   OH220302   6.860   2.258   3.829
 6788TIP3    H120303   6.931   2.242   3.895
 6788TIP3    H220304   6.913   2.294   3.756
 6789TIP3   OH220305   5.799   2.369   4.314
 6789TIP3    H120306   5.881   2.350   4.363
 6789TIP3    H220307   5.813   2.313   4.235
 6790TIP3   OH220308   6.239   2.567   4.107
 6790TIP3    H120309   6.333   2.541   4.121
 6790TIP3    H220310   6.200   2.482   4.076
 6791TIP3   OH220311   7.502   2.535   4.377
 6791TIP3    H120312   7.418   2.581   4.357
 6791TIP3    H220313   7.512   2.559   4.471
 6792TIP3   OH220314   6.162   2.150   4.642
 6792TIP3    H120315   6.101   2.188   4.575
 6792TIP3    H220316   6.110   2.167   4.724
 6793TIP3   OH220317   6.510   3.004   3.648
 6793TIP3    H120318   6.463   2.985   3.566
 6793TIP3    H220319   6.466   3.087   3.676
 6794TIP3   OH220320   6.268   2.926   4.437
 6794TIP3    H120321   6.206   2.993   4.474
 6794TIP3    H220322   6.309   2.976   4.363
 6795TIP3   OH220323   7.069   2.261   4.003
 6795TIP3    H120324   7.054   2.216   4.087
 6795TIP3    H220325   7.121   2.339   4.031
 6796TIP3   OH220326   6.032   2.266   4.426
 6796TIP3    H120327   6.094   2.338   4.450
 6796TIP3    H220328   6.082   2.225   4.351
 6797TIP3   OH220329   6.096   3.121   4.535
 6797TIP3    H120330   6.071   3.208   4.497
 6797TIP3    H220331   6.017   3.105   4.590
 6798TIP3   OH220332   5.490   2.810   3.771
 6798TIP3    H120333   5.449   2.841   3.688
 6798TIP3    H220334   5.521   2.895   3.809
 6799TIP3   OH220335   6.931   3.326   4.010
 6799TIP3    H120336   6.842   3.317   4.051
 6799TIP3    H220337   6.922   3.412   3.965
 6800TIP3   OH220338   7.221   2.227   4.375
 6800TIP3    H120339   7.133   2.254   4.343
 6800TIP3    H220340   7.280   2.259   4.303
 6801TIP3   OH220341   6.516   1.868   4.357
 6801TIP3    H120342   6.502   1.774   4.375
 6801TIP3    H220343   6.439   1.907   4.404
 6802TIP3   OH220344   6.635   3.369   3.687
 6802TIP3    H120345   6.685   3.287   3.664
 6802TIP3    H220346   6.695   3.436   3.646
 6803TIP3   OH220347   6.778   3.154   3.591
 6803TIP3    H120348   6.727   3.077   3.560
 6803TIP3    H220349   6.814   3.121   3.676
 6804TIP3   OH220350   7.157   3.238   4.355
 6804TIP3    H120351   7.143   3.161   4.296
 6804TIP3    H220352   7.136   3.313   4.295
 6805TIP3   OH220353   6.446   2.631   3.612
 6805TIP3    H120354   6.367   2.684   3.592
 6805TIP3    H220355   6.492   2.631   3.527
 6806TIP3   OH220356   6.405   2.418   3.326
 6806TIP3    H120357   6.471   2.469   3.376
 6806TIP3    H220358   6.464   2.355   3.279
 6807TIP3   OH220359   7.352   2.878   4.201
 6807TIP3    H120360   7.267   2.928   4.206
 6807TIP3    H220361   7.380   2.901   4.110
 6808TIP3   OH220362   6.795   2.714   3.583
 6808TIP3    H120363   6.740   2.739   3.661
 6808TIP3    H220364   6.879   2.690   3.628
 6809TIP3   OH220365   7.029   2.754   4.496
 6809TIP3    H120366   7.025   2.838   4.546
 6809TIP3    H220367   6.942   2.757   4.451
 6810TIP3   OH220368   6.027   2.712   4.001
 6810TIP3    H120369   5.987   2.654   3.933
 6810TIP3    H220370   6.104   2.658   4.030
 6811TIP3   OH220371   6.156   3.121   4.150
 6811TIP3    H120372   6.137   3.084   4.063
 6811TIP3    H220373   6.247   3.087   4.167
 6812TIP3   OH220374   6.165   2.683   4.355
 6812TIP3    H120375   6.197   2.662   4.265
 6812TIP3    H220376   6.207   2.770   4.374
 6813TIP3   OH220377   6.692   3.321   4.133
 6813TIP3    H120378   6.674   3.402   4.183
 6813TIP3    H220379   6.673   3.250   4.197
 6814TIP3   OH220380   6.301   3.239   4.680
 6814TIP3    H120381   6.241   3.302   4.725
 6814TIP3    H220382   6.236   3.187   4.629
 6815TIP3   OH220383   6.635   2.573   3.410
 6815TIP3    H120384   6.693   2.633   3.461
 6815TIP3    H220385   6.662   2.595   3.317
 6816TIP3   OH220386   6.056   2.796   4.780
 6816TIP3    H120387   6.061   2.883   4.824
 6816TIP3    H220388   5.961   2.776   4.793
 6817TIP3   OH220389   6.379   3.251   3.683
 6817TIP3    H120390   6.458   3.306   3.701
 6817TIP3    H220391   6.317   3.316   3.647
 6818TIP3   OH220392   6.096   3.408   4.766
 6818TIP3    H120393   6.060   3.410   4.675
 6818TIP3    H220394   6.016   3.386   4.819
 6819TIP3   OH220395   7.150   1.813   3.459
 6819TIP3    H120396   7.069   1.833   3.509
 6819TIP3    H220397   7.164   1.896   3.410
 6820TIP3   OH220398   5.895   2.555   3.802
 6820TIP3    H120399   5.827   2.599   3.748
 6820TIP3    H220400   5.853   2.470   3.819
 6821TIP3   OH220401   6.949   3.180   3.004
 6821TIP3    H120402   6.957   3.277   2.993
 6821TIP3    H220403   7.042   3.152   2.993
 6822TIP3   OH220404   5.674   2.939   4.713
 6822TIP3    H120405   5.608   2.917   4.644
 6822TIP3    H220406   5.711   2.851   4.736
 6823TIP3   OH220407   5.528   3.132   4.346
 6823TIP3    H120408   5.625   3.128   4.337
 6823TIP3    H220409   5.517   3.212   4.400
 6824TIP3   OH220410   7.394   3.585   4.402
 6824TIP3    H120411   7.391   3.488   4.415
 6824TIP3    H220412   7.310   3.610   4.447
 6825TIP3   OH220413   6.500   3.367   4.538
 6825TIP3    H120414   6.498   3.460   4.569
 6825TIP3    H220415   6.427   3.328   4.590
 6826TIP3   OH220416   6.261   3.499   3.488
 6826TIP3    H120417   6.213   3.487   3.405
 6826TIP3    H220418   6.231   3.587   3.518
 6827TIP3   OH220419   5.698   3.345   3.872
 6827TIP3    H120420   5.748   3.339   3.956
 6827TIP3    H220421   5.637   3.270   3.883
 6828TIP3   OH220422   6.460   3.399   3.126
 6828TIP3    H120423   6.520   3.330   3.092
 6828TIP3    H220424   6.493   3.412   3.218
 6829TIP3   OH220425   6.511   3.446   3.395
 6829TIP3    H120426   6.423   3.458   3.437
 6829TIP3    H220427   6.563   3.412   3.470
 6830TIP3   OH220428   7.284   2.715   4.674
 6830TIP3    H120429   7.200   2.727   4.627
 6830TIP3    H220430   7.298   2.619   4.665
 6831TIP3   OH220431   5.879   3.121   4.700
 6831TIP3    H120432   5.928   3.105   4.783
 6831TIP3    H220433   5.804   3.058   4.708
 6832TIP3   OH220434   6.278   1.946   4.485
 6832TIP3    H120435   6.189   1.915   4.458
 6832TIP3    H220436   6.253   2.027   4.533
 6833TIP3   OH220437   6.812   2.060   4.680
 6833TIP3    H120438   6.881   2.032   4.744
 6833TIP3    H220439   6.729   2.041   4.727
 6834TIP3   OH220440   7.053   2.491   4.600
 6834TIP3    H120441   7.001   2.487   4.684
 6834TIP3    H220442   7.026   2.578   4.563
 6835TIP3   OH220443   6.710   2.617   3.153
 6835TIP3    H120444   6.678   2.593   3.065
 6835TIP3    H220445   6.791   2.667   3.131
 6836TIP3   OH220446   6.423   1.994   3.457
 6836TIP3    H120447   6.390   1.991   3.549
 6836TIP3    H220448   6.384   1.911   3.422
 6837TIP3   OH220449   6.211   2.461   4.504
 6837TIP3    H120450   6.160   2.482   4.585
 6837TIP3    H220451   6.195   2.542   4.451
 6838TIP3   OH220452   6.094   2.347   4.018
 6838TIP3    H120453   6.001   2.321   4.036
 6838TIP3    H220454   6.106   2.306   3.929
 6839TIP3   OH220455   6.585   2.432   3.746
 6839TIP3    H120456   6.533   2.504   3.704
 6839TIP3    H220457   6.639   2.401   3.671
 6840TIP3   OH220458   6.759   2.710   4.831
 6840TIP3    H120459   6.737   2.638   4.894
 6840TIP3    H220460   6.853   2.724   4.854
 6841TIP3   OH220461   6.742   2.461   3.985
 6841TIP3    H120462   6.680   2.490   3.914
 6841TIP3    H220463   6.775   2.380   3.941
 6842TIP3   OH220464   6.030   2.489   4.712
 6842TIP3    H120465   6.055   2.553   4.780
 6842TIP3    H220466   6.018   2.407   4.765
 6843TIP3   OH220467   6.078   1.967   3.422
 6843TIP3    H120468   6.071   1.965   3.519
 6843TIP3    H220469   6.000   2.022   3.399
 6844TIP3   OH220470   5.623   2.012   4.291
 6844TIP3    H120471   5.697   2.044   4.347
 6844TIP3    H220472   5.668   1.979   4.212
 6845TIP3   OH220473   5.593   1.992   3.811
 6845TIP3    H120474   5.640   2.030   3.734
 6845TIP3    H220475   5.533   2.066   3.832
 6846TIP3   OH220476   6.753   2.707   4.407
 6846TIP3    H120477   6.786   2.635   4.348
 6846TIP3    H220478   6.722   2.654   4.483
 6847TIP3   OH220479   6.422   2.169   4.079
 6847TIP3    H120480   6.340   2.168   4.131
 6847TIP3    H220481   6.490   2.166   4.148
 6848TIP3   OH220482   5.856   2.226   4.086
 6848TIP3    H120483   5.762   2.233   4.059
 6848TIP3    H220484   5.878   2.133   4.064
 6849TIP3   OH220485   6.124   2.220   3.776
 6849TIP3    H120486   6.218   2.236   3.755
 6849TIP3    H220487   6.077   2.243   3.693
 6850TIP3   OH220488   6.913   2.245   4.280
 6850TIP3    H120489   6.881   2.257   4.372
 6850TIP3    H220490   6.846   2.184   4.246
 6851TIP3   OH220491   5.968   2.254   3.554
 6851TIP3    H120492   5.895   2.211   3.506
 6851TIP3    H220493   6.019   2.291   3.479
 6852TIP3   OH220494   7.084   3.933   4.500
 6852TIP3    H120495   7.079   3.957   4.406
 6852TIP3    H220496   7.160   3.986   4.530
 6853TIP3   OH220497   6.041   3.043   4.921
 6853TIP3    H120498   6.120   3.074   4.969
 6853TIP3    H220499   5.976   3.042   4.994
 6854TIP3   OH220500   6.503   2.498   4.177
 6854TIP3    H120501   6.577   2.458   4.129
 6854TIP3    H220502   6.510   2.455   4.265
 6855TIP3   OH220503   6.026   1.985   4.057
 6855TIP3    H120504   5.990   1.907   4.105
 6855TIP3    H220505   6.077   1.943   3.986
 6856TIP3   OH220506   6.481   2.396   4.464
 6856TIP3    H120507   6.391   2.431   4.480
 6856TIP3    H220508   6.537   2.457   4.516
 6857TIP3   OH220509   6.218   2.784   3.561
 6857TIP3    H120510   6.145   2.720   3.550
 6857TIP3    H220511   6.199   2.819   3.652
 6858TIP3   OH220512   7.117   3.020   4.190
 6858TIP3    H120513   7.140   3.071   4.110
 6858TIP3    H220514   7.032   2.978   4.165
 6859TIP3   OH220515   6.675   2.097   3.422
 6859TIP3    H120516   6.578   2.079   3.433
 6859TIP3    H220517   6.684   2.191   3.449
 6860TIP3   OH220518   6.618   3.104   4.558
 6860TIP3    H120519   6.639   3.083   4.650
 6860TIP3    H220520   6.578   3.193   4.565
 6861TIP3   OH220521   6.745   2.344   3.527
 6861TIP3    H120522   6.841   2.351   3.544
 6861TIP3    H220523   6.726   2.426   3.476
 6862TIP3   OH220524   5.909   2.805   4.237
 6862TIP3    H120525   5.948   2.778   4.152
 6862TIP3    H220526   5.952   2.745   4.300
 6863TIP3   OH220527   6.361   2.934   3.380
 6863TIP3    H120528   6.313   3.020   3.385
 6863TIP3    H220529   6.308   2.880   3.443
 6864TIP3   OH220530   5.792   2.726   4.850
 6864TIP3    H120531   5.811   2.714   4.945
 6864TIP3    H220532   5.722   2.660   4.835
 6865TIP3   OH220533   6.517   2.842   4.869
 6865TIP3    H120534   6.456   2.782   4.823
 6865TIP3    H220535   6.603   2.807   4.841
 6866TIP3   OH220536   6.778   3.361   4.456
 6866TIP3    H120537   6.681   3.360   4.467
 6866TIP3    H220538   6.805   3.415   4.533
 6867TIP3   OH220539   7.187   2.435   3.363
 6867TIP3    H120540   7.124   2.391   3.300
 6867TIP3    H220541   7.183   2.525   3.323
 6868TIP3   OH220542   7.407   3.294   4.443
 6868TIP3    H120543   7.309   3.288   4.435
 6868TIP3    H220544   7.432   3.263   4.353
 6869TIP3   OH220545   6.890   3.254   3.271
 6869TIP3    H120546   6.860   3.188   3.336
 6869TIP3    H220547   6.899   3.203   3.189
 6870TIP3   OH220548   6.884   2.883   4.109
 6870TIP3    H120549   6.790   2.859   4.122
 6870TIP3    H220550   6.916   2.803   4.063
 6871TIP3   OH220551   6.012   3.110   3.859
 6871TIP3    H120552   6.011   3.193   3.807
 6871TIP3    H220553   5.917   3.098   3.876
 6872TIP3   OH220554   5.574   2.415   3.565
 6872TIP3    H120555   5.620   2.499   3.587
 6872TIP3    H220556   5.498   2.420   3.627
 6873TIP3   OH220557   6.148   2.875   3.805
 6873TIP3    H120558   6.113   2.965   3.822
 6873TIP3    H220559   6.112   2.826   3.880
 6874TIP3   OH220560   6.280   3.455   4.330
 6874TIP3    H120561   6.319   3.529   4.279
 6874TIP3    H220562   6.358   3.422   4.377
 6875TIP3   OH220563   5.932   3.350   3.714
 6875TIP3    H120564   5.846   3.360   3.760
 6875TIP3    H220565   5.966   3.442   3.717
 6876TIP3   OH220566   6.667   3.087   4.290
 6876TIP3    H120567   6.657   3.087   4.388
 6876TIP3    H220568   6.748   3.035   4.279
 6877TIP3   OH220569   6.644   2.980   3.172
 6877TIP3    H120570   6.697   2.955   3.251
 6877TIP3    H220571   6.555   2.957   3.203
 6878TIP3   OH220572   6.917   3.621   4.338
 6878TIP3    H120573   6.836   3.567   4.331
 6878TIP3    H220574   6.902   3.687   4.266
 6879TIP3   OH220575   6.982   3.456   2.993
 6879TIP3    H120576   7.018   3.530   2.941
 6879TIP3    H220577   6.902   3.500   3.028
 6880TIP3   OH220578   6.002   2.232   4.857
 6880TIP3    H120579   5.905   2.236   4.871
 6880TIP3    H220580   6.030   2.174   4.930
 6881TIP3   OH220581   6.804   2.910   3.385
 6881TIP3    H120582   6.794   2.848   3.460
 6881TIP3    H220583   6.901   2.911   3.376
 6882TIP3   OH220584   5.718   3.316   4.490
 6882TIP3    H120585   5.773   3.245   4.528
 6882TIP3    H220586   5.745   3.392   4.542
 6883TIP3   OH220587   6.009   2.961   3.171
 6883TIP3    H120588   6.023   2.868   3.147
 6883TIP3    H220589   5.990   2.953   3.267
 6884TIP3   OH220590   5.954   2.967   3.443
 6884TIP3    H120591   6.025   2.942   3.504
 6884TIP3    H220592   5.956   3.065   3.451
 6885TIP3   OH220593   5.688   2.660   3.648
 6885TIP3    H120594   5.622   2.705   3.706
 6885TIP3    H220595   5.702   2.729   3.581
 6886TIP3   OH220596   6.842   2.295   4.539
 6886TIP3    H120597   6.920   2.334   4.582
 6886TIP3    H220598   6.826   2.215   4.594
 6887TIP3   OH220599   6.721   2.047   3.706
 6887TIP3    H120600   6.707   2.071   3.612
 6887TIP3    H220601   6.759   2.129   3.743
 6888TIP3   OH220602   6.219   3.164   3.390
 6888TIP3    H120603   6.133   3.188   3.429
 6888TIP3    H220604   6.238   3.245   3.340
 6889TIP3   OH220605   6.407   2.228   3.808
 6889TIP3    H120606   6.472   2.301   3.791
 6889TIP3    H220607   6.412   2.220   3.905
 6890TIP3   OH220608   6.678   2.546   4.614
 6890TIP3    H120609   6.698   2.600   4.693
 6890TIP3    H220610   6.731   2.466   4.629
 6891TIP3   OH220611   6.552   1.953   3.909
 6891TIP3    H120612   6.545   2.030   3.969
 6891TIP3    H220613   6.613   1.989   3.841
 6892TIP3   OH220614   5.963   3.238   3.462
 6892TIP3    H120615   5.934   3.309   3.399
 6892TIP3    H220616   5.948   3.282   3.548
 6893TIP3   OH220617   6.064   1.954   3.698
 6893TIP3    H120618   6.062   2.044   3.736
 6893TIP3    H220619   6.160   1.935   3.707
 6894TIP3   OH220620   7.319   2.447   4.595
 6894TIP3    H120621   7.221   2.447   4.605
 6894TIP3    H220622   7.327   2.402   4.509
 6895TIP3   OH220623   6.969   2.641   3.983
 6895TIP3    H120624   6.892   2.582   3.996
 6895TIP3    H220625   7.040   2.594   4.032
 6896TIP3   OH220626   5.681   2.868   3.453
 6896TIP3    H120627   5.745   2.940   3.464
 6896TIP3    H220628   5.728   2.815   3.386
 6897TIP3   OH220629   5.626   2.146   3.586
 6897TIP3    H120630   5.627   2.243   3.583
 6897TIP3    H220631   5.539   2.126   3.548
 6898TIP3   OH220632   6.938   3.596   3.933
 6898TIP3    H120633   6.895   3.643   3.858
 6898TIP3    H220634   7.032   3.614   3.911
 6899TIP3   OH220635   6.014   1.866   4.459
 6899TIP3    H120636   5.983   1.831   4.373
 6899TIP3    H220637   6.004   1.788   4.518
 6900TIP3   OH220638   5.548   3.075   3.839
 6900TIP3    H120639   5.483   3.112   3.901
 6900TIP3    H220640   5.523   3.121   3.756
 6901TIP3   OH220641   5.709   3.627   4.915
 6901TIP3    H120642   5.796   3.626   4.960
 6901TIP3    H220643   5.689   3.532   4.911
 6902TIP3   OH220644   6.190   3.588   4.958
 6902TIP3    H120645   6.285   3.569   4.962
 6902TIP3    H220646   6.163   3.530   4.885
 6903TIP3   OH220647   6.170   3.165   3.080
 6903TIP3    H120648   6.113   3.096   3.122
 6903TIP3    H220649   6.247   3.111   3.058
 6904TIP3   OH220650   6.830   3.497   4.690
 6904TIP3    H120651   6.821   3.427   4.759
 6904TIP3    H220652   6.906   3.548   4.722
 6905TIP3   OH220653   6.608   3.204   2.996
 6905TIP3    H120654   6.651   3.141   3.057
 6905TIP3    H220655   6.668   3.204   2.920
 6906TIP3   OH220656   5.840   3.032   5.112
 6906TIP3    H120657   5.855   2.936   5.119
 6906TIP3    H220658   5.752   3.035   5.068
 6907TIP3   OH220659   5.817   2.681   3.306
 6907TIP3    H120660   5.872   2.651   3.380
 6907TIP3    H220661   5.885   2.687   3.236
 6908TIP3   OH220662   6.448   3.119   4.886
 6908TIP3    H120663   6.404   3.137   4.800
 6908TIP3    H220664   6.477   3.025   4.877
 6909TIP3   OH220665   6.328   2.882   3.112
 6909TIP3    H120666   6.330   2.895   3.209
 6909TIP3    H220667   6.327   2.784   3.107
 6910TIP3   OH220668   6.940   3.126   4.493
 6910TIP3    H120669   7.014   3.172   4.449
 6910TIP3    H220670   6.868   3.190   4.480
 6911TIP3   OH220671   5.959   2.767   5.095
 6911TIP3    H120672   6.034   2.710   5.074
 6911TIP3    H220673   5.985   2.800   5.183
 6912TIP3   OH220674   6.023   2.587   3.527
 6912TIP3    H120675   5.996   2.548   3.612
 6912TIP3    H220676   6.060   2.510   3.479
 6913TIP3   OH220677   6.295   2.651   4.757
 6913TIP3    H120678   6.216   2.710   4.757
 6913TIP3    H220679   6.344   2.686   4.679
 6914TIP3   OH220680   6.125   2.380   3.368
 6914TIP3    H120681   6.100   2.386   3.274
 6914TIP3    H220682   6.223   2.384   3.361
 6915TIP3   OH220683   6.811   3.053   4.891
 6915TIP3    H120684   6.889   3.024   4.842
 6915TIP3    H220685   6.806   2.986   4.962
 6916TIP3   OH220686   6.947   2.711   3.031
 6916TIP3    H120687   6.925   2.665   2.948
 6916TIP3    H220688   6.914   2.801   3.010
 6917TIP3   OH220689   6.419   2.440   4.881
 6917TIP3    H120690   6.417   2.360   4.824
 6917TIP3    H220691   6.374   2.506   4.824
 6918TIP3   OH220692   6.420   2.226   4.689
 6918TIP3    H120693   6.447   2.267   4.605
 6918TIP3    H220694   6.326   2.203   4.671
 6919TIP3   OH220695   6.446   2.761   4.562
 6919TIP3    H120696   6.530   2.773   4.516
 6919TIP3    H220697   6.389   2.827   4.518
 6920TIP3   OH220698   7.028   2.727   4.943
 6920TIP3    H120699   7.076   2.644   4.956
 6920TIP3    H220700   7.096   2.785   4.908
 6921TIP3   OH220701   7.070   2.981   4.681
 6921TIP3    H120702   7.011   3.035   4.622
 6921TIP3    H220703   7.157   3.002   4.640
 6922TIP3   OH220704   6.296   2.549   5.113
 6922TIP3    H120705   6.227   2.482   5.129
 6922TIP3    H220706   6.329   2.523   5.025
 6923TIP3   OH220707   6.552   1.988   4.756
 6923TIP3    H120708   6.502   2.070   4.735
 6923TIP3    H220709   6.483   1.920   4.746
 6924TIP3   OH220710   6.678   2.492   4.973
 6924TIP3    H120711   6.664   2.479   5.069
 6924TIP3    H220712   6.589   2.469   4.941
 6925TIP3   OH220713   6.916   2.441   4.828
 6925TIP3    H120714   6.841   2.444   4.890
 6925TIP3    H220715   6.990   2.411   4.885
 6926TIP3   OH220716   7.149   2.384   4.977
 6926TIP3    H120717   7.160   2.288   4.995
 6926TIP3    H220718   7.143   2.422   5.068
 6927TIP3   OH220719   6.135   2.330   5.166
 6927TIP3    H120720   6.139   2.238   5.133
 6927TIP3    H220721   6.171   2.319   5.256
 6928TIP3   OH220722   6.647   1.999   5.014
 6928TIP3    H120723   6.713   1.927   5.009
 6928TIP3    H220724   6.606   1.993   4.925
 6929TIP3   OH220725   6.713   2.215   5.173
 6929TIP3    H120726   6.691   2.143   5.109
 6929TIP3    H220727   6.634   2.272   5.167
 6930TIP3   OH220728   5.931   3.436   3.270
 6930TIP3    H120729   6.028   3.435   3.255
 6930TIP3    H220730   5.904   3.493   3.195
 6931TIP3   OH220731   5.412   2.825   3.487
 6931TIP3    H120732   5.507   2.847   3.475
 6931TIP3    H220733   5.408   2.736   3.447
 6932TIP3   OH220734   5.327   3.435   3.904
 6932TIP3    H120735   5.260   3.375   3.867
 6932TIP3    H220736   5.371   3.376   3.970
 6933TIP3   OH220737   5.466   3.283   4.088
 6933TIP3    H120738   5.452   3.214   4.155
 6933TIP3    H220739   5.517   3.348   4.140
 6934TIP3   OH220740   7.195   3.680   3.891
 6934TIP3    H120741   7.216   3.718   3.979
 6934TIP3    H220742   7.247   3.736   3.832
 6935TIP3   OH220743   7.220   3.707   4.172
 6935TIP3    H120744   7.174   3.621   4.167
 6935TIP3    H220745   7.293   3.683   4.231
 6936TIP3   OH220746   7.267   3.384   4.746
 6936TIP3    H120747   7.193   3.393   4.810
 6936TIP3    H220748   7.307   3.473   4.750
 6937TIP3   OH220749   7.084   2.897   3.365
 6937TIP3    H120750   7.150   2.962   3.336
 6937TIP3    H220751   7.127   2.859   3.445
 6938TIP3   OH220752   7.211   2.765   3.570
 6938TIP3    H120753   7.143   2.723   3.628
 6938TIP3    H220754   7.273   2.804   3.635
 6939TIP3   OH220755   7.267   3.159   4.004
 6939TIP3    H120756   7.317   3.092   3.952
 6939TIP3    H220757   7.259   3.232   3.939
 6940TIP3   OH220758   7.095   3.458   4.196
 6940TIP3    H120759   7.023   3.501   4.246
 6940TIP3    H220760   7.046   3.412   4.125
 6941TIP3   OH220761   7.148   2.673   3.215
 6941TIP3    H120762   7.077   2.675   3.147
 6941TIP3    H220763   7.120   2.748   3.270
 6942TIP3   OH220764   7.020   2.346   3.168
 6942TIP3    H120765   6.974   2.383   3.092
 6942TIP3    H220766   6.995   2.251   3.160
 6943TIP3   OH220767   7.024   2.623   3.715
 6943TIP3    H120768   7.031   2.526   3.709
 6943TIP3    H220769   7.010   2.636   3.811
 6944TIP3   OH220770   5.650   2.694   4.462
 6944TIP3    H120771   5.648   2.664   4.369
 6944TIP3    H220772   5.747   2.696   4.479
 6945TIP3   OH220773   7.314   3.047   4.573
 6945TIP3    H120774   7.386   2.981   4.562
 6945TIP3    H220775   7.337   3.115   4.508
 6946TIP3   OH220776   7.500   2.851   4.585
 6946TIP3    H120777   7.424   2.803   4.624
 6946TIP3    H220778   7.571   2.786   4.602
 6947TIP3   OH220779   6.962   2.080   3.154
 6947TIP3    H120780   7.036   2.049   3.210
 6947TIP3    H220781   6.888   2.021   3.178
 6948TIP3   OH220782   7.020   2.338   3.609
 6948TIP3    H120783   7.060   2.249   3.625
 6948TIP3    H220784   7.079   2.370   3.539
 6949TIP3   OH220785   7.181   2.510   4.105
 6949TIP3    H120786   7.267   2.536   4.064
 6949TIP3    H220787   7.195   2.548   4.194
 6950TIP3   OH220788   7.251   2.656   4.336
 6950TIP3    H120789   7.173   2.689   4.385
 6950TIP3    H220790   7.284   2.738   4.292
 6951TIP3   OH220791   5.868   2.382   5.136
 6951TIP3    H120792   5.966   2.376   5.139
 6951TIP3    H220793   5.844   2.296   5.176
 6952TIP3   OH220794   7.706   2.250   4.891
 6952TIP3    H120795   7.762   2.182   4.847
 6952TIP3    H220796   7.674   2.302   4.815
 6953TIP3   OH220797   7.129   2.088   3.647
 6953TIP3    H120798   7.178   2.073   3.731
 6953TIP3    H220799   7.068   2.012   3.646
 6954TIP3   OH220800   5.829   2.074   4.465
 6954TIP3    H120801   5.890   1.999   4.476
 6954TIP3    H220802   5.891   2.148   4.460
 6955TIP3   OH220803   5.631   2.347   4.539
 6955TIP3    H120804   5.681   2.344   4.455
 6955TIP3    H220805   5.659   2.432   4.575
 6956TIP3   OH220806   7.573   2.386   4.697
 6956TIP3    H120807   7.487   2.428   4.718
 6956TIP3    H220808   7.542   2.314   4.639
 6957TIP3   OH220809   7.209   2.022   3.280
 6957TIP3    H120810   7.249   1.951   3.226
 6957TIP3    H220811   7.277   2.092   3.276
 6958TIP3   OH220812   5.616   1.848   4.039
 6958TIP3    H120813   5.523   1.846   4.069
 6958TIP3    H220814   5.611   1.909   3.962
 6959TIP3   OH220815   6.779   3.549   3.548
 6959TIP3    H120816   6.830   3.543   3.465
 6959TIP3    H220817   6.820   3.625   3.592
 6960TIP3   OH220818   5.836   1.932   4.855
 6960TIP3    H120819   5.785   1.925   4.937
 6960TIP3    H220820   5.769   1.969   4.795
 6961TIP3   OH220821   5.876   3.358   4.933
 6961TIP3    H120822   5.783   3.333   4.915
 6961TIP3    H220823   5.884   3.340   5.027
 6962TIP3   OH220824   6.054   3.392   4.479
 6962TIP3    H120825   6.006   3.468   4.440
 6962TIP3    H220826   6.140   3.406   4.434
 6963TIP3   OH220827   6.497   3.633   4.618
 6963TIP3    H120828   6.539   3.636   4.707
 6963TIP3    H220829   6.562   3.685   4.566
 6964TIP3   OH220830   6.677   3.786   4.480
 6964TIP3    H120831   6.747   3.738   4.434
 6964TIP3    H220832   6.729   3.844   4.539
 6965TIP3   OH220833   7.471   2.148   4.577
 6965TIP3    H120834   7.380   2.140   4.543
 6965TIP3    H220835   7.503   2.056   4.566
 6966TIP3   OH220836   5.728   3.641   4.508
 6966TIP3    H120837   5.641   3.678   4.479
 6966TIP3    H220838   5.740   3.691   4.590
 6967TIP3   OH220839   5.965   3.625   4.360
 6967TIP3    H120840   5.879   3.640   4.404
 6967TIP3    H220841   5.948   3.663   4.271
 6968TIP3   OH220842   6.392   3.654   4.159
 6968TIP3    H120843   6.323   3.672   4.092
 6968TIP3    H220844   6.403   3.743   4.198
 6969TIP3   OH220845   6.660   3.594   4.211
 6969TIP3    H120846   6.565   3.611   4.193
 6969TIP3    H220847   6.701   3.671   4.167
 6970TIP3   OH220848   6.872   3.788   4.126
 6970TIP3    H120849   6.854   3.872   4.079
 6970TIP3    H220850   6.894   3.727   4.051
 6971TIP3   OH220851   5.639   3.440   4.246
 6971TIP3    H120852   5.666   3.416   4.337
 6971TIP3    H220853   5.713   3.398   4.196
 6972TIP3   OH220854   5.835   3.313   4.105
 6972TIP3    H120855   5.852   3.230   4.156
 6972TIP3    H220856   5.925   3.351   4.101
 6973TIP3   OH220857   6.099   3.404   4.110
 6973TIP3    H120858   6.133   3.313   4.102
 6973TIP3    H220859   6.143   3.432   4.192
 6974TIP3   OH220860   6.676   2.063   4.195
 6974TIP3    H120861   6.633   1.994   4.248
 6974TIP3    H220862   6.750   2.015   4.153
 6975TIP3   OH220863   7.199   1.943   4.099
 6975TIP3    H120864   7.236   1.996   4.025
 6975TIP3    H220865   7.104   1.963   4.094
 6976TIP3   OH220866   7.295   2.045   3.863
 6976TIP3    H120867   7.369   1.994   3.825
 6976TIP3    H220868   7.328   2.136   3.849
 6977TIP3   OH220869   5.926   1.772   4.210
 6977TIP3    H120870   5.833   1.739   4.215
 6977TIP3    H220871   5.974   1.687   4.208
 6978TIP3   OH220872   5.708   1.643   3.858
 6978TIP3    H120873   5.740   1.702   3.787
 6978TIP3    H220874   5.683   1.708   3.927
 6979TIP3   OH220875   6.369   1.805   4.092
 6979TIP3    H120876   6.428   1.854   4.033
 6979TIP3    H220877   6.391   1.843   4.178
 6980TIP3   OH220878   6.916   1.952   4.076
 6980TIP3    H120879   6.914   1.913   3.988
 6980TIP3    H220880   6.903   1.872   4.133
 6981TIP3   OH220881   6.946   1.875   3.639
 6981TIP3    H120882   6.859   1.918   3.653
 6981TIP3    H220883   6.931   1.790   3.685
 6982TIP3   OH220884   5.431   3.214   3.640
 6982TIP3    H120885   5.345   3.183   3.605
 6982TIP3    H220886   5.420   3.310   3.628
 6983TIP3   OH220887   5.830   1.803   3.621
 6983TIP3    H120888   5.879   1.740   3.565
 6983TIP3    H220889   5.903   1.857   3.658
 6984TIP3   OH220890   6.342   1.978   3.721
 6984TIP3    H120891   6.401   1.931   3.782
 6984TIP3    H220892   6.363   2.070   3.747
 6985TIP3   OH220893   6.201   3.400   3.222
 6985TIP3    H120894   6.289   3.425   3.186
 6985TIP3    H220895   6.179   3.326   3.162
 6986TIP3   OH220896   6.923   3.522   3.313
 6986TIP3    H120897   6.913   3.425   3.302
 6986TIP3    H220898   6.874   3.554   3.235
 6987TIP3   OH220899   6.133   2.055   5.103
 6987TIP3    H120900   6.097   1.984   5.159
 6987TIP3    H220901   6.227   2.054   5.132
 6988TIP3   OH220902   6.383   2.051   5.222
 6988TIP3    H120903   6.468   2.023   5.184
 6988TIP3    H220904   6.369   1.981   5.290
 6989TIP3   OH220905   5.503   3.237   3.277
 6989TIP3    H120906   5.506   3.264   3.370
 6989TIP3    H220907   5.592   3.197   3.264
 6990TIP3   OH220908   7.208   2.112   5.010
 6990TIP3    H120909   7.226   2.081   5.101
 6990TIP3    H220910   7.297   2.106   4.969
 6991TIP3   OH220911   7.146   3.664   4.501
 6991TIP3    H120912   7.068   3.632   4.452
 6991TIP3    H220913   7.126   3.760   4.506
 6992TIP3   OH220914   7.711   2.930   4.011
 6992TIP3    H120915   7.738   2.861   4.075
 6992TIP3    H220916   7.787   2.990   4.015
 6993TIP3   OH220917   7.682   3.344   3.740
 6993TIP3    H120918   7.673   3.246   3.742
 6993TIP3    H220919   7.778   3.353   3.731
 6994TIP3   OH220920   7.389   2.546   3.522
 6994TIP3    H120921   7.339   2.628   3.539
 6994TIP3    H220922   7.318   2.490   3.484
 6995TIP3   OH220923   7.450   2.833   3.698
 6995TIP3    H120924   7.497   2.754   3.733
 6995TIP3    H220925   7.505   2.857   3.622
 6996TIP3   OH220926   8.299   3.740   3.338
 6996TIP3    H120927   8.396   3.735   3.326
 6996TIP3    H220928   8.293   3.783   3.423
 6997TIP3   OH220929   8.220   3.246   3.700
 6997TIP3    H120930   8.221   3.215   3.608
 6997TIP3    H220931   8.298   3.304   3.704
 6998TIP3   OH220932   7.936   2.425   3.706
 6998TIP3    H120933   7.949   2.491   3.636
 6998TIP3    H220934   7.902   2.350   3.654
 6999TIP3   OH220935   7.596   2.626   3.800
 6999TIP3    H120936   7.676   2.605   3.851
 6999TIP3    H220937   7.611   2.570   3.721
 7000TIP3   OH220938   8.021   2.827   3.591
 7000TIP3    H120939   8.112   2.793   3.605
 7000TIP3    H220940   7.977   2.744   3.561
 7001TIP3   OH220941   7.961   2.415   4.138
 7001TIP3    H120942   7.902   2.446   4.067
 7001TIP3    H220943   7.905   2.432   4.216
 7002TIP3   OH220944   8.068   3.182   3.933
 7002TIP3    H120945   8.001   3.246   3.968
 7002TIP3    H220946   8.107   3.233   3.860
 7003TIP3   OH220947   7.823   2.526   3.925
 7003TIP3    H120948   7.890   2.595   3.945
 7003TIP3    H220949   7.866   2.483   3.846
 7004TIP3   OH220950   7.895   3.376   4.022
 7004TIP3    H120951   7.868   3.462   3.984
 7004TIP3    H220952   7.815   3.358   4.077
 7005TIP3   OH220953   7.287   3.067   3.257
 7005TIP3    H120954   7.243   3.096   3.175
 7005TIP3    H220955   7.317   3.153   3.295
 7006TIP3   OH220956   7.813   2.971   3.484
 7006TIP3    H120957   7.774   2.912   3.416
 7006TIP3    H220958   7.890   2.918   3.515
 7007TIP3   OH220959   7.945   3.382   3.633
 7007TIP3    H120960   7.919   3.346   3.547
 7007TIP3    H220961   8.031   3.340   3.650
 7008TIP3   OH220962   7.964   2.939   3.842
 7008TIP3    H120963   7.988   2.916   3.749
 7008TIP3    H220964   8.001   3.028   3.854
 7009TIP3   OH220965   8.094   3.490   4.177
 7009TIP3    H120966   8.033   3.556   4.217
 7009TIP3    H220967   8.030   3.440   4.122
 7010TIP3   OH220968   7.847   3.060   4.264
 7010TIP3    H120969   7.849   3.145   4.312
 7010TIP3    H220970   7.753   3.034   4.280
 7011TIP3   OH220971   8.187   3.538   3.191
 7011TIP3    H120972   8.212   3.619   3.241
 7011TIP3    H220973   8.121   3.573   3.129
 7012TIP3   OH220974   7.892   3.664   4.253
 7012TIP3    H120975   7.856   3.665   4.163
 7012TIP3    H220976   7.812   3.642   4.307
 7013TIP3   OH220977   7.690   2.811   3.288
 7013TIP3    H120978   7.622   2.855   3.233
 7013TIP3    H220979   7.647   2.727   3.309
 7014TIP3   OH220980   7.471   3.196   4.199
 7014TIP3    H120981   7.403   3.176   4.132
 7014TIP3    H220982   7.506   3.107   4.221
 7015TIP3   OH220983   7.323   3.388   3.833
 7015TIP3    H120984   7.420   3.390   3.826
 7015TIP3    H220985   7.306   3.470   3.883
 7016TIP3   OH220986   8.284   3.609   4.017
 7016TIP3    H120987   8.290   3.701   4.049
 7016TIP3    H220988   8.214   3.574   4.077
 7017TIP3   OH220989   8.054   3.750   2.976
 7017TIP3    H120990   8.012   3.741   2.889
 7017TIP3    H220991   8.027   3.840   3.004
 7018TIP3   OH220992   7.494   3.604   3.358
 7018TIP3    H120993   7.541   3.595   3.444
 7018TIP3    H220994   7.433   3.528   3.363
 7019TIP3   OH220995   8.312   3.708   2.885
 7019TIP3    H120996   8.225   3.729   2.924
 7019TIP3    H220997   8.334   3.625   2.932
 7020TIP3   OH220998   7.677   3.377   4.186
 7020TIP3    H120999   7.724   3.362   4.270
 7020TIP3    H221000   7.601   3.315   4.193
 7021TIP3   OH221001   8.062   2.193   3.992
 7021TIP3    H121002   7.974   2.170   3.956
 7021TIP3    H221003   8.045   2.282   4.026
 7022TIP3   OH221004   8.003   2.722   3.996
 7022TIP3    H121005   7.947   2.740   4.074
 7022TIP3    H221006   7.985   2.801   3.941
 7023TIP3   OH221007   7.890   2.604   3.500
 7023TIP3    H121008   7.801   2.573   3.524
 7023TIP3    H221009   7.902   2.561   3.413
 7024TIP3   OH221010   7.818   2.745   4.200
 7024TIP3    H121011   7.851   2.803   4.271
 7024TIP3    H221012   7.808   2.660   4.248
 7025TIP3   OH221013   7.858   2.182   2.898
 7025TIP3    H121014   7.852   2.204   2.992
 7025TIP3    H221015   7.803   2.251   2.858
 7026TIP3   OH221016   7.419   2.268   3.778
 7026TIP3    H121017   7.492   2.301   3.834
 7026TIP3    H221018   7.464   2.234   3.700
 7027TIP3   OH221019   7.390   2.250   3.299
 7027TIP3    H121020   7.434   2.289   3.221
 7027TIP3    H221021   7.328   2.322   3.320
 7028TIP3   OH221022   7.652   2.485   3.569
 7028TIP3    H121023   7.557   2.490   3.544
 7028TIP3    H221024   7.675   2.391   3.555
 7029TIP3   OH221025   7.930   2.482   3.254
 7029TIP3    H121026   8.013   2.497   3.207
 7029TIP3    H221027   7.865   2.497   3.182
 7030TIP3   OH221028   7.767   2.505   3.043
 7030TIP3    H121029   7.694   2.463   2.994
 7030TIP3    H221030   7.819   2.542   2.968
 7031TIP3   OH221031   7.838   3.301   4.409
 7031TIP3    H121032   7.916   3.332   4.459
 7031TIP3    H221033   7.771   3.298   4.480
 7032TIP3   OH221034   7.815   2.241   3.539
 7032TIP3    H121035   7.783   2.167   3.596
 7032TIP3    H221036   7.864   2.193   3.472
 7033TIP3   OH221037   8.271   2.649   3.998
 7033TIP3    H121038   8.179   2.674   3.977
 7033TIP3    H221039   8.314   2.736   4.011
 7034TIP3   OH221040   7.989   3.065   3.048
 7034TIP3    H121041   7.937   2.981   3.043
 7034TIP3    H221042   7.993   3.080   3.145
 7035TIP3   OH221043   8.382   3.339   4.088
 7035TIP3    H121044   8.377   3.344   4.184
 7035TIP3    H221045   8.360   3.430   4.063
 7036TIP3   OH221046   7.712   3.070   3.726
 7036TIP3    H121047   7.742   3.035   3.639
 7036TIP3    H221048   7.738   2.999   3.787
 7037TIP3   OH221049   8.123   3.187   2.842
 7037TIP3    H121050   8.095   3.278   2.869
 7037TIP3    H221051   8.094   3.137   2.922
 7038TIP3   OH221052   7.589   2.982   4.336
 7038TIP3    H121053   7.603   2.967   4.431
 7038TIP3    H221054   7.518   2.918   4.316
 7039TIP3   OH221055   8.316   3.084   4.357
 7039TIP3    H121056   8.238   3.044   4.315
 7039TIP3    H221057   8.386   3.028   4.318
 7040TIP3   OH221058   7.808   3.368   3.351
 7040TIP3    H121059   7.807   3.448   3.295
 7040TIP3    H221060   7.714   3.350   3.359
 7041TIP3   OH221061   7.371   2.672   3.052
 7041TIP3    H121062   7.415   2.756   3.074
 7041TIP3    H221063   7.294   2.676   3.113
 7042TIP3   OH221064   7.960   3.136   3.314
 7042TIP3    H121065   7.916   3.223   3.317
 7042TIP3    H221066   7.906   3.084   3.376
 7043TIP3   OH221067   8.075   3.708   3.817
 7043TIP3    H121068   8.110   3.785   3.767
 7043TIP3    H221069   8.153   3.680   3.868
 7044TIP3   OH221070   7.728   3.605   3.202
 7044TIP3    H121071   7.641   3.615   3.247
 7044TIP3    H221072   7.760   3.699   3.204
 7045TIP3   OH221073   7.794   2.493   4.348
 7045TIP3    H121074   7.697   2.494   4.358
 7045TIP3    H221075   7.821   2.430   4.416
 7046TIP3   OH221076   7.518   3.573   3.974
 7046TIP3    H121077   7.568   3.499   4.011
 7046TIP3    H221078   7.539   3.643   4.037
 7047TIP3   OH221079   7.800   3.220   2.659
 7047TIP3    H121080   7.808   3.127   2.634
 7047TIP3    H221081   7.785   3.212   2.756
 7048TIP3   OH221082   7.754   3.221   2.929
 7048TIP3    H121083   7.833   3.190   2.977
 7048TIP3    H221084   7.757   3.319   2.944
 7049TIP3   OH221085   7.485   2.917   3.135
 7049TIP3    H121086   7.418   2.962   3.192
 7049TIP3    H221087   7.498   2.987   3.068
 7050TIP3   OH221088   8.014   3.433   2.883
 7050TIP3    H121089   7.925   3.453   2.916
 7050TIP3    H221090   8.038   3.518   2.843
 7051TIP3   OH221091   7.755   3.496   2.949
 7051TIP3    H121092   7.725   3.566   2.886
 7051TIP3    H221093   7.741   3.540   3.035
 7052TIP3   OH221094   7.870   2.216   3.182
 7052TIP3    H121095   7.850   2.298   3.230
 7052TIP3    H221096   7.953   2.241   3.138
 7053TIP3   OH221097   7.479   3.123   2.940
 7053TIP3    H121098   7.543   3.195   2.953
 7053TIP3    H221099   7.526   3.072   2.871
 7054TIP3   OH221100   7.424   2.403   3.074
 7054TIP3    H121101   7.420   2.501   3.071
 7054TIP3    H221102   7.342   2.378   3.030
 7055TIP3   OH221103   7.796   2.125   3.947
 7055TIP3    H121104   7.779   2.086   3.859
 7055TIP3    H221105   7.793   2.046   4.005
 7056TIP3   OH221106   7.346   3.336   3.325
 7056TIP3    H121107   7.280   3.369   3.388
 7056TIP3    H221108   7.316   3.379   3.242
 7057TIP3   OH221109   7.505   3.883   4.399
 7057TIP3    H121110   7.591   3.882   4.446
 7057TIP3    H221111   7.482   3.789   4.398
 7058TIP3   OH221112   7.986   3.846   4.443
 7058TIP3    H121113   8.080   3.825   4.451
 7058TIP3    H221114   7.959   3.786   4.370
 7059TIP3   OH221115   7.976   3.408   2.571
 7059TIP3    H121116   7.902   3.356   2.609
 7059TIP3    H221117   8.047   3.345   2.589
 7060TIP3   OH221118   7.636   3.289   4.599
 7060TIP3    H121119   7.651   3.193   4.606
 7060TIP3    H221120   7.548   3.292   4.555
 7061TIP3   OH221121   7.619   2.939   2.790
 7061TIP3    H121122   7.670   2.908   2.867
 7061TIP3    H221123   7.690   2.944   2.723
 7062TIP3   OH221124   8.261   3.371   4.362
 7062TIP3    H121125   8.199   3.393   4.289
 7062TIP3    H221126   8.268   3.273   4.357
 7063TIP3   OH221127   8.108   3.123   2.585
 7063TIP3    H121128   8.128   3.153   2.678
 7063TIP3    H221129   8.038   3.059   2.606
 7064TIP3   OH221130   7.757   3.026   4.581
 7064TIP3    H121131   7.826   2.962   4.563
 7064TIP3    H221132   7.783   3.058   4.670
 7065TIP3   OH221133   7.819   2.840   3.012
 7065TIP3    H121134   7.791   2.800   3.096
 7065TIP3    H221135   7.861   2.765   2.966
 7066TIP3   OH221136   8.065   2.901   4.268
 7066TIP3    H121137   7.988   2.963   4.262
 7066TIP3    H221138   8.119   2.935   4.193
 7067TIP3   OH221139   7.926   2.631   2.855
 7067TIP3    H121140   7.888   2.637   2.765
 7067TIP3    H221141   8.020   2.613   2.831
 7068TIP3   OH221142   8.224   2.701   4.364
 7068TIP3    H121143   8.221   2.615   4.318
 7068TIP3    H221144   8.159   2.755   4.313
 7069TIP3   OH221145   8.226   2.471   4.195
 7069TIP3    H121146   8.233   2.522   4.111
 7069TIP3    H221147   8.136   2.432   4.183
 7070TIP3   OH221148   8.218   3.013   4.083
 7070TIP3    H121149   8.280   2.994   4.011
 7070TIP3    H221150   8.163   3.083   4.041
 7071TIP3   OH221151   8.098   2.807   4.598
 7071TIP3    H121152   8.028   2.740   4.612
 7071TIP3    H221153   8.129   2.783   4.508
 7072TIP3   OH221154   7.932   2.589   4.652
 7072TIP3    H121155   7.934   2.498   4.616
 7072TIP3    H221156   7.965   2.575   4.742
 7073TIP3   OH221157   7.727   3.695   2.758
 7073TIP3    H121158   7.823   3.696   2.744
 7073TIP3    H221159   7.699   3.749   2.681
 7074TIP3   OH221160   7.209   3.082   2.975
 7074TIP3    H121161   7.304   3.103   2.962
 7074TIP3    H221162   7.203   2.992   2.935
 7075TIP3   OH221163   7.129   3.692   3.387
 7075TIP3    H121164   7.059   3.633   3.351
 7075TIP3    H221165   7.169   3.633   3.454
 7076TIP3   OH221166   7.262   3.541   3.575
 7076TIP3    H121167   7.244   3.471   3.640
 7076TIP3    H221168   7.311   3.605   3.631
 7077TIP3   OH221169   7.446   2.950   3.950
 7077TIP3    H121170   7.443   2.919   3.857
 7077TIP3    H221171   7.543   2.951   3.965
 7078TIP3   OH221172   7.665   2.640   4.628
 7078TIP3    H121173   7.762   2.631   4.626
 7078TIP3    H221174   7.640   2.553   4.665
 7079TIP3   OH221175   7.620   2.335   3.955
 7079TIP3    H121176   7.679   2.257   3.962
 7079TIP3    H221177   7.686   2.407   3.952
 7080TIP3   OH221178   7.427   2.604   4.026
 7080TIP3    H121179   7.477   2.597   3.942
 7080TIP3    H221180   7.457   2.690   4.059
 7081TIP3   OH221181   7.411   2.104   3.525
 7081TIP3    H121182   7.318   2.102   3.555
 7081TIP3    H221183   7.407   2.165   3.449
 7082TIP3   OH221184   7.631   2.194   4.345
 7082TIP3    H121185   7.578   2.185   4.426
 7082TIP3    H221186   7.564   2.228   4.282
 7083TIP3   OH221187   7.673   3.614   4.419
 7083TIP3    H121188   7.580   3.590   4.401
 7083TIP3    H221189   7.679   3.596   4.514
 7084TIP3   OH221190   7.852   3.647   3.968
 7084TIP3    H121191   7.799   3.720   3.929
 7084TIP3    H221192   7.936   3.663   3.920
 7085TIP3   OH221193   8.282   3.875   4.107
 7085TIP3    H121194   8.329   3.884   4.193
 7085TIP3    H221195   8.331   3.937   4.049
 7086TIP3   OH221196   8.420   4.040   3.929
 7086TIP3    H121197   8.472   4.034   3.845
 7086TIP3    H221198   8.466   4.114   3.974
 7087TIP3   OH221199   7.527   3.906   3.991
 7087TIP3    H121200   7.437   3.937   3.965
 7087TIP3    H221201   7.533   3.942   4.080
 7088TIP3   OH221202   7.762   3.882   3.849
 7088TIP3    H121203   7.675   3.895   3.893
 7088TIP3    H221204   7.742   3.914   3.759
 7089TIP3   OH221205   8.161   3.918   3.649
 7089TIP3    H121206   8.088   3.930   3.584
 7089TIP3    H221207   8.172   4.010   3.682
 7090TIP3   OH221208   8.412   3.818   3.637
 7090TIP3    H121209   8.320   3.852   3.643
 7090TIP3    H221210   8.464   3.897   3.662
 7091TIP3   OH221211   7.439   3.700   3.734
 7091TIP3    H121212   7.463   3.672   3.825
 7091TIP3    H221213   7.509   3.654   3.683
 7092TIP3   OH221214   7.630   3.569   3.592
 7092TIP3    H121215   7.646   3.486   3.643
 7092TIP3    H221216   7.721   3.607   3.587
 7093TIP3   OH221217   7.896   3.666   3.595
 7093TIP3    H121218   7.926   3.574   3.581
 7093TIP3    H221219   7.941   3.686   3.679
 7094TIP3   OH221220   7.724   2.031   3.692
 7094TIP3    H121221   7.633   1.995   3.699
 7094TIP3    H221222   7.774   1.946   3.687
 7095TIP3   OH221223   7.510   1.900   3.338
 7095TIP3    H121224   7.537   1.963   3.268
 7095TIP3    H221225   7.482   1.961   3.409
 7096TIP3   OH221226   7.227   3.471   3.125
 7096TIP3    H121227   7.140   3.439   3.093
 7096TIP3    H221228   7.216   3.566   3.108
 7097TIP3   OH221229   7.623   2.059   3.114
 7097TIP3    H121230   7.667   2.002   3.048
 7097TIP3    H221231   7.698   2.113   3.146
 7098TIP3   OH221232   7.999   3.658   2.709
 7098TIP3    H121233   8.077   3.689   2.659
 7098TIP3    H221234   7.976   3.581   2.654
 7099TIP3   OH221235   7.923   2.313   4.586
 7099TIP3    H121236   7.888   2.242   4.642
 7099TIP3    H221237   8.017   2.314   4.614
 7100TIP3   OH221238   8.163   2.311   4.716
 7100TIP3    H121239   8.241   2.272   4.670
 7100TIP3    H221240   8.148   2.242   4.784
 7101TIP3   OH221241   7.299   3.494   2.764
 7101TIP3    H121242   7.297   3.522   2.857
 7101TIP3    H221243   7.388   3.455   2.755
 7102TIP3   OH221244   0.866   3.825   4.957
 7102TIP3    H121245   0.836   3.916   4.936
 7102TIP3    H221246   0.789   3.775   4.925
 7103TIP3   OH221247   0.868   3.825   5.339
 7103TIP3    H121248   0.897   3.797   5.427
 7103TIP3    H221249   0.821   3.746   5.307
 7104TIP3   OH221250   0.201   3.702   5.666
 7104TIP3    H121251   0.170   3.649   5.741
 7104TIP3    H221252   0.226   3.784   5.709
 7105TIP3   OH221253   1.111   4.125   5.021
 7105TIP3    H121254   1.091   4.058   5.088
 7105TIP3    H221255   1.137   4.201   5.076
 7106TIP3   OH221256   0.142   4.112   5.367
 7106TIP3    H121257   0.124   4.018   5.388
 7106TIP3    H221258   0.228   4.123   5.409
 7107TIP3   OH221259  -0.087   3.610   5.340
 7107TIP3    H121260  -0.054   3.572   5.423
 7107TIP3    H221261  -0.029   3.685   5.328
 7108TIP3   OH221262   0.759   4.589   5.040
 7108TIP3    H121263   0.802   4.521   4.984
 7108TIP3    H221264   0.754   4.544   5.125
 7109TIP3   OH221265   0.664   4.052   5.388
 7109TIP3    H121266   0.700   3.973   5.342
 7109TIP3    H221267   0.749   4.095   5.412
 7110TIP3   OH221268   1.676   3.371   5.386
 7110TIP3    H121269   1.706   3.454   5.429
 7110TIP3    H221270   1.699   3.389   5.293
 7111TIP3   OH221271   1.076   3.553   5.419
 7111TIP3    H121272   1.118   3.467   5.440
 7111TIP3    H221273   1.045   3.536   5.328
 7112TIP3   OH221274   0.420   3.213   5.383
 7112TIP3    H121275   0.396   3.286   5.323
 7112TIP3    H221276   0.370   3.139   5.341
 7113TIP3   OH221277   1.109   3.302   5.006
 7113TIP3    H121278   1.180   3.287   5.072
 7113TIP3    H221279   1.160   3.338   4.932
 7114TIP3   OH221280   0.052   3.416   5.497
 7114TIP3    H121281   0.133   3.404   5.550
 7114TIP3    H221282   0.077   3.372   5.414
 7115TIP3   OH221283   0.492   3.611   5.266
 7115TIP3    H121284   0.582   3.586   5.294
 7115TIP3    H221285   0.451   3.524   5.245
 7116TIP3   OH221286   1.750   3.580   5.554
 7116TIP3    H121287   1.665   3.626   5.537
 7116TIP3    H221288   1.765   3.604   5.647
 7117TIP3   OH221289   0.411   3.192   5.822
 7117TIP3    H121290   0.354   3.236   5.756
 7117TIP3    H221291   0.359   3.209   5.903
 7118TIP3   OH221292   0.756   4.046   4.827
 7118TIP3    H121293   0.713   4.028   4.742
 7118TIP3    H221294   0.711   4.129   4.853
 7119TIP3   OH221295   0.516   3.977   5.619
 7119TIP3    H121296   0.453   4.040   5.659
 7119TIP3    H221297   0.552   4.027   5.543
 7120TIP3   OH221298   1.317   3.305   5.181
 7120TIP3    H121299   1.301   3.264   5.267
 7120TIP3    H221300   1.369   3.383   5.206
 7121TIP3   OH221301   0.288   3.309   5.604
 7121TIP3    H121302   0.344   3.385   5.631
 7121TIP3    H221303   0.341   3.273   5.530
 7122TIP3   OH221304   0.330   4.156   5.734
 7122TIP3    H121305   0.273   4.208   5.674
 7122TIP3    H221306   0.262   4.113   5.788
 7123TIP3   OH221307   1.179   4.371   5.188
 7123TIP3    H121308   1.089   4.362   5.227
 7123TIP3    H221309   1.169   4.457   5.141
 7124TIP3   OH221310   1.469   3.270   5.550
 7124TIP3    H121311   1.382   3.300   5.520
 7124TIP3    H221312   1.529   3.303   5.480
 7125TIP3   OH221313   0.762   2.911   5.528
 7125TIP3    H121314   0.752   2.818   5.556
 7125TIP3    H221315   0.687   2.953   5.577
 7126TIP3   OH221316   0.879   4.417   4.862
 7126TIP3    H121317   0.928   4.334   4.842
 7126TIP3    H221318   0.941   4.482   4.821
 7127TIP3   OH221319   1.022   4.202   4.771
 7127TIP3    H121320   0.984   4.123   4.729
 7127TIP3    H221321   1.059   4.165   4.854
 7128TIP3   OH221322   1.404   4.283   5.531
 7128TIP3    H121323   1.391   4.205   5.473
 7128TIP3    H221324   1.386   4.357   5.470
 7129TIP3   OH221325   0.696   3.676   4.790
 7129TIP3    H121326   0.616   3.729   4.769
 7129TIP3    H221327   0.741   3.674   4.703
 7130TIP3   OH221328   0.655   3.460   4.505
 7130TIP3    H121329   0.722   3.514   4.552
 7130TIP3    H221330   0.713   3.398   4.457
 7131TIP3   OH221331   1.600   3.922   5.376
 7131TIP3    H121332   1.515   3.972   5.382
 7131TIP3    H221333   1.628   3.947   5.286
 7132TIP3   OH221334   1.044   3.759   4.760
 7132TIP3    H121335   0.988   3.784   4.837
 7132TIP3    H221336   1.127   3.735   4.804
 7133TIP3   OH221337   1.278   3.798   5.673
 7133TIP3    H121338   1.275   3.881   5.725
 7133TIP3    H221339   1.191   3.802   5.629
 7134TIP3   OH221340   0.277   3.752   5.175
 7134TIP3    H121341   0.236   3.694   5.107
 7134TIP3    H221342   0.357   3.701   5.200
 7135TIP3   OH221343   0.424   4.185   5.320
 7135TIP3    H121344   0.386   4.134   5.248
 7135TIP3    H221345   0.509   4.139   5.335
 7136TIP3   OH221346   0.472   3.718   5.526
 7136TIP3    H121347   0.462   3.715   5.430
 7136TIP3    H221348   0.469   3.813   5.547
 7137TIP3   OH221349   0.937   4.367   5.308
 7137TIP3    H121350   0.925   4.446   5.364
 7137TIP3    H221351   0.922   4.293   5.370
 7138TIP3   OH221352   0.544   4.298   5.849
 7138TIP3    H121353   0.488   4.348   5.911
 7138TIP3    H221354   0.477   4.239   5.807
 7139TIP3   OH221355   0.884   3.617   4.586
 7139TIP3    H121356   0.942   3.678   4.637
 7139TIP3    H221357   0.910   3.639   4.493
 7140TIP3   OH221358   0.292   3.843   5.956
 7140TIP3    H121359   0.300   3.925   6.010
 7140TIP3    H221360   0.196   3.839   5.945
 7141TIP3   OH221361   0.627   4.296   4.863
 7141TIP3    H121362   0.708   4.350   4.875
 7141TIP3    H221363   0.567   4.358   4.819
 7142TIP3   OH221364   0.322   4.481   5.941
 7142TIP3    H121365   0.306   4.469   5.846
 7142TIP3    H221366   0.255   4.422   5.981
 7143TIP3   OH221367   1.400   2.857   4.635
 7143TIP3    H121368   1.319   2.880   4.684
 7143TIP3    H221369   1.415   2.940   4.584
 7144TIP3   OH221370   0.153   3.591   4.978
 7144TIP3    H121371   0.088   3.635   4.919
 7144TIP3    H221372   0.103   3.512   5.004
 7145TIP3   OH221373   1.199   4.225   4.184
 7145TIP3    H121374   1.207   4.321   4.169
 7145TIP3    H221375   1.292   4.195   4.172
 7146TIP3   OH221376   1.642   4.628   5.578
 7146TIP3    H121377   1.640   4.532   5.594
 7146TIP3    H221378   1.559   4.655   5.624
 7147TIP3   OH221379   0.748   4.412   5.708
 7147TIP3    H121380   0.771   4.487   5.764
 7147TIP3    H221381   0.672   4.373   5.756
 7148TIP3   OH221382   0.509   4.542   4.665
 7148TIP3    H121383   0.463   4.527   4.580
 7148TIP3    H221384   0.480   4.631   4.690
 7149TIP3   OH221385   0.710   4.445   4.302
 7149TIP3    H121386   0.769   4.375   4.267
 7149TIP3    H221387   0.745   4.455   4.394
 7150TIP3   OH221388   0.760   4.492   4.573
 7150TIP3    H121389   0.671   4.502   4.614
 7150TIP3    H221390   0.809   4.452   4.646
 7151TIP3   OH221391   1.532   3.760   5.851
 7151TIP3    H121392   1.448   3.769   5.804
 7151TIP3    H221393   1.548   3.663   5.844
 7152TIP3   OH221394   0.528   2.990   5.660
 7152TIP3    H121395   0.437   2.959   5.637
 7152TIP3    H221396   0.503   3.071   5.709
 7153TIP3   OH221397   1.062   3.103   5.857
 7153TIP3    H121398   1.130   3.077   5.922
 7153TIP3    H221399   0.978   3.085   5.905
 7154TIP3   OH221400   1.299   3.535   5.775
 7154TIP3    H121401   1.249   3.530   5.860
 7154TIP3    H221402   1.274   3.622   5.740
 7155TIP3   OH221403   0.961   3.662   4.331
 7155TIP3    H121404   0.925   3.639   4.244
 7155TIP3    H221405   1.042   3.710   4.306
 7156TIP3   OH221406   0.673   3.036   4.636
 7156TIP3    H121407   0.636   3.033   4.726
 7156TIP3    H221408   0.633   2.955   4.599
 7157TIP3   OH221409   0.461   3.502   5.686
 7157TIP3    H121410   0.403   3.527   5.761
 7157TIP3    H221411   0.455   3.584   5.630
 7158TIP3   OH221412   0.341   3.388   5.194
 7158TIP3    H121413   0.246   3.370   5.208
 7158TIP3    H221414   0.353   3.349   5.104
 7159TIP3   OH221415   0.833   3.476   4.922
 7159TIP3    H121416   0.781   3.548   4.880
 7159TIP3    H221417   0.888   3.445   4.847
 7160TIP3   OH221418   1.008   3.756   6.008
 7160TIP3    H121419   0.986   3.683   6.070
 7160TIP3    H221420   1.102   3.769   6.030
 7161TIP3   OH221421   0.991   3.505   5.161
 7161TIP3    H121422   0.929   3.535   5.092
 7161TIP3    H221423   1.023   3.424   5.116
 7162TIP3   OH221424   0.288   3.523   5.899
 7162TIP3    H121425   0.289   3.597   5.960
 7162TIP3    H221426   0.276   3.446   5.958
 7163TIP3   OH221427   0.331   3.012   4.601
 7163TIP3    H121428   0.315   3.012   4.697
 7163TIP3    H221429   0.251   3.057   4.568
 7164TIP3   OH221430  -0.110   3.092   5.458
 7164TIP3    H121431  -0.032   3.087   5.516
 7164TIP3    H221432  -0.100   3.015   5.399
 7165TIP3   OH221433  -0.133   3.086   5.020
 7165TIP3    H121434  -0.106   3.099   4.926
 7165TIP3    H221435  -0.146   3.177   5.046
 7166TIP3   OH221436   1.002   3.752   5.583
 7166TIP3    H121437   1.035   3.680   5.525
 7166TIP3    H221438   0.972   3.700   5.660
 7167TIP3   OH221439   0.670   3.205   5.255
 7167TIP3    H121440   0.588   3.211   5.308
 7167TIP3    H221441   0.738   3.212   5.323
 7168TIP3   OH221442   0.100   3.262   5.260
 7168TIP3    H121443   0.007   3.236   5.269
 7168TIP3    H221444   0.144   3.176   5.249
 7169TIP3   OH221445   0.372   3.262   4.950
 7169TIP3    H121446   0.465   3.284   4.930
 7169TIP3    H221447   0.324   3.289   4.868
 7170TIP3   OH221448   1.163   3.290   5.455
 7170TIP3    H121449   1.133   3.302   5.548
 7170TIP3    H221450   1.093   3.230   5.422
 7171TIP3   OH221451   0.217   3.299   4.729
 7171TIP3    H121452   0.150   3.255   4.673
 7171TIP3    H221453   0.271   3.340   4.659
 7172TIP3   OH221454   1.331   4.979   5.678
 7172TIP3    H121455   1.330   5.003   5.583
 7172TIP3    H221456   1.411   5.027   5.709
 7173TIP3   OH221457   0.291   4.079   6.114
 7173TIP3    H121458   0.365   4.112   6.168
 7173TIP3    H221459   0.216   4.123   6.157
 7174TIP3   OH221460   0.751   3.540   5.352
 7174TIP3    H121461   0.829   3.504   5.308
 7174TIP3    H221462   0.757   3.501   5.442
 7175TIP3   OH221463   0.273   3.032   5.235
 7175TIP3    H121464   0.232   2.954   5.278
 7175TIP3    H221465   0.293   3.000   5.146
 7176TIP3   OH221466   0.729   3.440   5.641
 7176TIP3    H121467   0.639   3.475   5.655
 7176TIP3    H221468   0.785   3.502   5.693
 7177TIP3   OH221469   0.467   3.829   4.738
 7177TIP3    H121470   0.394   3.764   4.726
 7177TIP3    H221471   0.448   3.862   4.829
 7178TIP3   OH221472   1.365   4.065   5.367
 7178TIP3    H121473   1.387   4.115   5.286
 7178TIP3    H221474   1.280   4.022   5.343
 7179TIP3   OH221475   0.926   3.138   4.605
 7179TIP3    H121476   0.828   3.122   4.610
 7179TIP3    H221477   0.934   3.234   4.625
 7180TIP3   OH221478   0.873   4.149   5.734
 7180TIP3    H121479   0.891   4.116   5.823
 7180TIP3    H221480   0.825   4.232   5.749
 7181TIP3   OH221481   0.994   3.390   4.705
 7181TIP3    H121482   1.090   3.397   4.719
 7181TIP3    H221483   0.974   3.470   4.652
 7182TIP3   OH221484   0.171   3.845   5.420
 7182TIP3    H121485   0.210   3.797   5.344
 7182TIP3    H221486   0.176   3.780   5.494
 7183TIP3   OH221487   0.611   3.980   4.560
 7183TIP3    H121488   0.563   4.066   4.564
 7183TIP3    H221489   0.557   3.925   4.621
 7184TIP3   OH221490   0.765   3.888   6.048
 7184TIP3    H121491   0.701   3.829   6.004
 7184TIP3    H221492   0.850   3.850   6.017
 7185TIP3   OH221493   1.031   4.411   5.630
 7185TIP3    H121494   0.935   4.400   5.639
 7185TIP3    H221495   1.053   4.462   5.710
 7186TIP3   OH221496   1.435   3.481   4.541
 7186TIP3    H121497   1.373   3.437   4.478
 7186TIP3    H221498   1.433   3.570   4.499
 7187TIP3   OH221499   1.654   4.337   5.620
 7187TIP3    H121500   1.556   4.332   5.612
 7187TIP3    H221501   1.680   4.307   5.530
 7188TIP3   OH221502   1.138   4.298   4.449
 7188TIP3    H121503   1.109   4.227   4.508
 7188TIP3    H221504   1.150   4.253   4.363
 7189TIP3   OH221505   1.132   3.928   5.285
 7189TIP3    H121506   1.038   3.903   5.299
 7189TIP3    H221507   1.165   3.848   5.240
 7190TIP3   OH221508   0.263   4.155   5.034
 7190TIP3    H121509   0.255   4.236   4.980
 7190TIP3    H221510   0.177   4.149   5.076
 7191TIP3   OH221511  -0.173   3.465   4.755
 7191TIP3    H121512  -0.116   3.544   4.769
 7191TIP3    H221513  -0.260   3.503   4.771
 7192TIP3   OH221514   0.398   3.919   4.982
 7192TIP3    H121515   0.363   4.009   4.999
 7192TIP3    H221516   0.362   3.869   5.057
 7193TIP3   OH221517   0.536   4.502   5.509
 7193TIP3    H121518   0.578   4.572   5.453
 7193TIP3    H221519   0.614   4.459   5.546
 7194TIP3   OH221520   0.177   4.397   4.895
 7194TIP3    H121521   0.096   4.419   4.943
 7194TIP3    H221522   0.219   4.486   4.892
 7195TIP3   OH221523   0.918   4.134   5.466
 7195TIP3    H121524   0.909   4.131   5.564
 7195TIP3    H221525   0.995   4.078   5.453
 7196TIP3   OH221526   0.892   4.026   4.350
 7196TIP3    H121527   0.944   4.001   4.429
 7196TIP3    H221528   0.803   4.000   4.377
 7197TIP3   OH221529   1.168   4.665   5.515
 7197TIP3    H121530   1.087   4.610   5.509
 7197TIP3    H221531   1.150   4.732   5.446
 7198TIP3   OH221532   1.231   4.500   4.170
 7198TIP3    H121533   1.266   4.570   4.112
 7198TIP3    H221534   1.151   4.546   4.203
 7199TIP3   OH221535   0.258   3.266   6.049
 7199TIP3    H121536   0.164   3.256   6.072
 7199TIP3    H221537   0.300   3.211   6.118
 7200TIP3   OH221538   1.052   3.961   4.567
 7200TIP3    H121539   1.042   3.894   4.637
 7200TIP3    H221540   1.149   3.957   4.553
 7201TIP3   OH221541   0.257   4.005   4.345
 7201TIP3    H121542   0.271   3.912   4.320
 7201TIP3    H221543   0.239   3.996   4.441
 7202TIP3   OH221544   0.209   4.013   4.620
 7202TIP3    H121545   0.281   3.986   4.679
 7202TIP3    H221546   0.214   4.111   4.626
 7203TIP3   OH221547  -0.046   3.698   4.827
 7203TIP3    H121548  -0.099   3.746   4.892
 7203TIP3    H221549  -0.033   3.769   4.760
 7204TIP3   OH221550   1.092   3.337   5.714
 7204TIP3    H121551   1.167   3.380   5.758
 7204TIP3    H221552   1.076   3.259   5.770
 7205TIP3   OH221553   0.968   3.090   4.884
 7205TIP3    H121554   0.954   3.112   4.790
 7205TIP3    H221555   1.007   3.173   4.919
 7206TIP3   OH221556   0.469   4.210   4.570
 7206TIP3    H121557   0.383   4.237   4.607
 7206TIP3    H221558   0.485   4.284   4.509
 7207TIP3   OH221559   0.655   3.273   4.984
 7207TIP3    H121560   0.719   3.345   4.966
 7207TIP3    H221561   0.662   3.265   5.081
 7208TIP3   OH221562   0.928   3.592   5.790
 7208TIP3    H121563   0.945   3.647   5.869
 7208TIP3    H221564   0.980   3.512   5.809
 7209TIP3   OH221565   0.802   2.995   5.085
 7209TIP3    H121566   0.795   3.071   5.147
 7209TIP3    H221567   0.864   3.033   5.018
 7210TIP3   OH221568   0.213   4.285   4.640
 7210TIP3    H121569   0.184   4.353   4.575
 7210TIP3    H221570   0.196   4.330   4.725
 7211TIP3   OH221571   0.315   2.997   4.884
 7211TIP3    H121572   0.311   3.091   4.910
 7211TIP3    H221573   0.412   2.984   4.884
 7212TIP3   OH221574   1.566   3.492   5.771
 7212TIP3    H121575   1.468   3.491   5.780
 7212TIP3    H221576   1.575   3.447   5.686
 7213TIP3   OH221577   1.218   3.686   5.160
 7213TIP3    H121578   1.141   3.627   5.173
 7213TIP3    H221579   1.288   3.638   5.209
 7214TIP3   OH221580  -0.061   3.920   4.668
 7214TIP3    H121581   0.015   3.980   4.654
 7214TIP3    H221582  -0.054   3.868   4.585
 7215TIP3   OH221583  -0.143   3.189   4.769
 7215TIP3    H121584  -0.140   3.287   4.764
 7215TIP3    H221585  -0.179   3.166   4.682
 7216TIP3   OH221586   1.186   4.642   5.110
 7216TIP3    H121587   1.143   4.690   5.035
 7216TIP3    H221588   1.280   4.660   5.088
 7217TIP3   OH221589   0.267   2.905   5.633
 7217TIP3    H121590   0.231   2.869   5.549
 7217TIP3    H221591   0.255   2.829   5.695
 7218TIP3   OH221592   0.420   4.210   4.260
 7218TIP3    H121593   0.364   4.138   4.297
 7218TIP3    H221594   0.496   4.158   4.228
 7219TIP3   OH221595   1.064   4.550   5.875
 7219TIP3    H121596   1.062   4.476   5.941
 7219TIP3    H221597   1.149   4.593   5.896
 7220TIP3   OH221598   0.856   4.250   4.173
 7220TIP3    H121599   0.901   4.186   4.231
 7220TIP3    H221600   0.912   4.249   4.092
 7221TIP3   OH221601   0.064   3.730   4.487
 7221TIP3    H121602   0.124   3.701   4.558
 7221TIP3    H221603   0.128   3.733   4.413
 7222TIP3   OH221604   0.695   4.161   6.060
 7222TIP3    H121605   0.652   4.168   5.973
 7222TIP3    H221606   0.729   4.069   6.060
 7223TIP3   OH221607   0.577   3.927   4.291
 7223TIP3    H121608   0.579   3.938   4.388
 7223TIP3    H221609   0.577   3.829   4.284
 7224TIP3   OH221610   1.189   4.170   5.669
 7224TIP3    H121611   1.264   4.216   5.626
 7224TIP3    H221612   1.118   4.234   5.654
 7225TIP3   OH221613   0.207   3.802   6.285
 7225TIP3    H121614   0.273   3.752   6.236
 7225TIP3    H221615   0.259   3.843   6.357
 7226TIP3   OH221616   0.274   3.632   4.705
 7226TIP3    H121617   0.250   3.588   4.789
 7226TIP3    H221618   0.310   3.557   4.652
 7227TIP3   OH221619   0.547   3.705   5.941
 7227TIP3    H121620   0.462   3.753   5.936
 7227TIP3    H221621   0.592   3.734   5.858
 7228TIP3   OH221622   0.375   3.426   4.547
 7228TIP3    H121623   0.348   3.430   4.453
 7228TIP3    H221624   0.473   3.429   4.538
 7229TIP3   OH221625   1.061   4.099   6.067
 7229TIP3    H121626   1.141   4.071   6.021
 7229TIP3    H221627   1.055   4.032   6.138
 7230TIP3   OH221628   1.196   3.755   4.210
 7230TIP3    H121629   1.175   3.710   4.125
 7230TIP3    H221630   1.163   3.845   4.188
 7231TIP3   OH221631   0.671   3.488   6.058
 7231TIP3    H121632   0.664   3.407   6.005
 7231TIP3    H221633   0.622   3.553   6.002
 7232TIP3   OH221634   0.669   3.268   5.865
 7232TIP3    H121635   0.694   3.314   5.782
 7232TIP3    H221636   0.575   3.248   5.849
 7233TIP3   OH221637   0.699   3.812   5.742
 7233TIP3    H121638   0.777   3.815   5.685
 7233TIP3    H221639   0.636   3.870   5.694
 7234TIP3   OH221640   1.275   3.772   6.119
 7234TIP3    H121641   1.324   3.690   6.137
 7234TIP3    H221642   1.345   3.830   6.087
 7235TIP3   OH221643   1.319   4.025   5.856
 7235TIP3    H121644   1.261   4.078   5.797
 7235TIP3    H221645   1.406   4.045   5.816
 7236TIP3   OH221646   0.545   3.610   6.288
 7236TIP3    H121647   0.489   3.531   6.300
 7236TIP3    H221648   0.581   3.594   6.199
 7237TIP3   OH221649   0.800   3.032   5.932
 7237TIP3    H121650   0.751   3.114   5.911
 7237TIP3    H221651   0.729   2.964   5.923
 7238TIP3   OH221652   0.928   3.538   6.150
 7238TIP3    H121653   0.914   3.523   6.246
 7238TIP3    H221654   0.838   3.515   6.117
 7239TIP3   OH221655   1.164   3.484   6.003
 7239TIP3    H121656   1.090   3.488   6.067
 7239TIP3    H221657   1.238   3.455   6.060
 7240TIP3   OH221658   1.393   3.427   6.153
 7240TIP3    H121659   1.406   3.332   6.172
 7240TIP3    H221660   1.389   3.466   6.243
 7241TIP3   OH221661   0.417   3.378   6.337
 7241TIP3    H121662   0.398   3.288   6.305
 7241TIP3    H221663   0.437   3.359   6.431
 7242TIP3   OH221664   0.896   3.044   6.190
 7242TIP3    H121665   0.962   2.972   6.185
 7242TIP3    H221666   0.855   3.037   6.101
 7243TIP3   OH221667   0.962   3.258   6.350
 7243TIP3    H121668   0.940   3.187   6.286
 7243TIP3    H221669   0.884   3.317   6.344
 7244TIP3   OH221670   0.184   4.480   4.448
 7244TIP3    H121671   0.279   4.482   4.428
 7244TIP3    H221672   0.150   4.536   4.377
 7245TIP3   OH221673   1.441   4.727   5.068
 7245TIP3    H121674   1.466   4.764   5.155
 7245TIP3    H221675   1.499   4.775   5.008
 7246TIP3   OH221676   1.468   4.753   5.350
 7246TIP3    H121677   1.424   4.665   5.345
 7246TIP3    H221678   1.542   4.730   5.408
 7247TIP3   OH221679   1.513   4.429   5.921
 7247TIP3    H121680   1.441   4.438   5.987
 7247TIP3    H221681   1.556   4.517   5.925
 7248TIP3   OH221682   1.331   3.942   4.542
 7248TIP3    H121683   1.397   4.007   4.510
 7248TIP3    H221684   1.377   3.905   4.620
 7249TIP3   OH221685   1.461   3.812   4.749
 7249TIP3    H121686   1.390   3.766   4.801
 7249TIP3    H221687   1.511   3.857   4.819
 7250TIP3   OH221688   1.516   4.201   5.179
 7250TIP3    H121689   1.567   4.138   5.125
 7250TIP3    H221690   1.507   4.277   5.118
 7251TIP3   OH221691   1.344   4.502   5.372
 7251TIP3    H121692   1.273   4.545   5.423
 7251TIP3    H221693   1.293   4.456   5.301
 7252TIP3   OH221694   1.396   3.717   4.393
 7252TIP3    H121695   1.326   3.719   4.324
 7252TIP3    H221696   1.367   3.794   4.446
 7253TIP3   OH221697   1.268   3.390   4.347
 7253TIP3    H121698   1.226   3.430   4.270
 7253TIP3    H221699   1.243   3.296   4.337
 7254TIP3   OH221700   1.274   3.668   4.891
 7254TIP3    H121701   1.280   3.571   4.883
 7254TIP3    H221702   1.258   3.680   4.988
 7255TIP3   OH221703   1.562   4.092   5.748
 7255TIP3    H121704   1.634   4.025   5.739
 7255TIP3    H221705   1.591   4.161   5.687
 7256TIP3   OH221706   1.748   3.896   5.760
 7256TIP3    H121707   1.673   3.846   5.800
 7256TIP3    H221708   1.820   3.832   5.776
 7257TIP3   OH221709   1.211   3.124   4.331
 7257TIP3    H121710   1.285   3.093   4.387
 7257TIP3    H221711   1.137   3.065   4.353
 7258TIP3   OH221712   1.270   3.384   4.786
 7258TIP3    H121713   1.310   3.295   4.801
 7258TIP3    H221714   1.328   3.416   4.714
 7259TIP3   OH221715   1.429   3.554   5.282
 7259TIP3    H121716   1.515   3.580   5.241
 7259TIP3    H221717   1.443   3.592   5.371
 7260TIP3   OH221718   1.499   3.700   5.512
 7260TIP3    H121719   1.422   3.733   5.562
 7260TIP3    H221720   1.531   3.782   5.469
 7261TIP3   OH221721   0.137   3.343   6.419
 7261TIP3    H121722   0.189   3.387   6.349
 7261TIP3    H221723   0.048   3.371   6.392
 7262TIP3   OH221724   1.946   3.289   6.067
 7262TIP3    H121725   2.009   3.226   6.027
 7262TIP3    H221726   1.922   3.346   5.991
 7263TIP3   OH221727   1.378   3.134   4.824
 7263TIP3    H121728   1.427   3.118   4.907
 7263TIP3    H221729   1.318   3.056   4.823
 7264TIP3   OH221730   0.092   3.116   5.646
 7264TIP3    H121731   0.156   3.042   5.653
 7264TIP3    H221732   0.153   3.192   5.632
 7265TIP3   OH221733   1.822   3.433   5.871
 7265TIP3    H121734   1.738   3.473   5.898
 7265TIP3    H221735   1.789   3.359   5.816
 7266TIP3   OH221736   1.459   3.066   4.459
 7266TIP3    H121737   1.498   2.996   4.403
 7266TIP3    H221738   1.525   3.137   4.453
 7267TIP3   OH221739  -0.113   2.919   5.235
 7267TIP3    H121740  -0.206   2.901   5.249
 7267TIP3    H221741  -0.114   2.974   5.154
 7268TIP3   OH221742   1.025   4.598   4.725
 7268TIP3    H121743   1.073   4.585   4.641
 7268TIP3    H221744   1.078   4.669   4.766
 7269TIP3   OH221745   0.080   2.981   6.043
 7269TIP3    H121746   0.041   2.977   6.131
 7269TIP3    H221747   0.015   3.034   5.995
 7270TIP3   OH221748   0.305   4.471   5.660
 7270TIP3    H121749   0.282   4.541   5.596
 7270TIP3    H221750   0.395   4.451   5.628
 7271TIP3   OH221751   0.910   4.837   5.659
 7271TIP3    H121752   0.972   4.777   5.616
 7271TIP3    H221753   0.969   4.888   5.718
 7272TIP3   OH221754   1.721   3.194   5.753
 7272TIP3    H121755   1.630   3.186   5.721
 7272TIP3    H221756   1.753   3.101   5.743
 7273TIP3   OH221757   0.219   4.692   5.509
 7273TIP3    H121758   0.195   4.780   5.543
 7273TIP3    H221759   0.168   4.687   5.426
 7274TIP3   OH221760   0.641   4.699   5.340
 7274TIP3    H121761   0.587   4.718   5.261
 7274TIP3    H221762   0.655   4.788   5.378
 7275TIP3   OH221763   0.910   4.640   5.393
 7275TIP3    H121764   0.816   4.657   5.369
 7275TIP3    H221765   0.955   4.711   5.344
 7276TIP3   OH221766   1.115   4.830   5.302
 7276TIP3    H121767   1.101   4.915   5.254
 7276TIP3    H221768   1.142   4.770   5.229
 7277TIP3   OH221769   0.088   4.361   5.274
 7277TIP3    H121770   0.094   4.271   5.314
 7277TIP3    H221771   0.181   4.388   5.276
 7278TIP3   OH221772   0.362   4.459   5.285
 7278TIP3    H121773   0.387   4.366   5.267
 7278TIP3    H221774   0.409   4.471   5.370
 7279TIP3   OH221775   0.926   3.108   5.369
 7279TIP3    H121776   0.883   3.038   5.422
 7279TIP3    H221777   1.003   3.061   5.331
 7280TIP3   OH221778   1.447   2.985   5.275
 7280TIP3    H121779   1.485   3.040   5.202
 7280TIP3    H221780   1.353   3.011   5.272
 7281TIP3   OH221781   1.543   3.089   5.040
 7281TIP3    H121782   1.617   3.038   5.001
 7281TIP3    H221783   1.576   3.181   5.026
 7282TIP3   OH221784   0.174   2.814   5.383
 7282TIP3    H121785   0.079   2.787   5.384
 7282TIP3    H221786   0.218   2.726   5.382
 7283TIP3   OH221787  -0.010   2.680   5.046
 7283TIP3    H121788   0.003   2.737   4.968
 7283TIP3    H221789  -0.072   2.732   5.099
 7284TIP3   OH221790   0.617   2.843   5.250
 7284TIP3    H121791   0.681   2.901   5.207
 7284TIP3    H221792   0.626   2.873   5.341
 7285TIP3   OH221793   1.162   2.996   5.254
 7285TIP3    H121794   1.169   2.960   5.165
 7285TIP3    H221795   1.149   2.915   5.309
 7286TIP3   OH221796   1.194   2.919   4.815
 7286TIP3    H121797   1.109   2.965   4.826
 7286TIP3    H221798   1.177   2.836   4.863
 7287TIP3   OH221799   0.079   2.840   4.814
 7287TIP3    H121800   0.121   2.782   4.748
 7287TIP3    H221801   0.154   2.895   4.843
 7288TIP3   OH221802   0.591   3.021   4.904
 7288TIP3    H121803   0.664   2.985   4.956
 7288TIP3    H221804   0.605   3.116   4.925
 7289TIP3   OH221805   0.452   4.446   4.398
 7289TIP3    H121806   0.540   4.468   4.361
 7289TIP3    H221807   0.429   4.371   4.338
 7290TIP3   OH221808   1.168   4.565   4.492
 7290TIP3    H121809   1.161   4.468   4.480
 7290TIP3    H221810   1.123   4.597   4.411
 7291TIP3   OH221811   0.381   3.102   6.273
 7291TIP3    H121812   0.344   3.029   6.328
 7291TIP3    H221813   0.473   3.101   6.306
 7292TIP3   OH221814   0.629   3.097   6.402
 7292TIP3    H121815   0.714   3.071   6.363
 7292TIP3    H221816   0.614   3.025   6.467
 7293TIP3   OH221817   1.457   3.157   6.186
 7293TIP3    H121818   1.475   3.126   6.278
 7293TIP3    H221819   1.546   3.152   6.147
 7294TIP3   OH221820   1.395   4.711   5.677
 7294TIP3    H121821   1.317   4.679   5.627
 7294TIP3    H221822   1.375   4.806   5.683
 7295TIP3   OH221823   1.991   3.984   5.173
 7295TIP3    H121824   2.004   3.905   5.229
 7295TIP3    H221825   2.029   4.052   5.231
 7296TIP3   OH221826   1.921   4.396   4.921
 7296TIP3    H121827   1.910   4.303   4.941
 7296TIP3    H221828   2.018   4.402   4.904
 7297TIP3   OH221829   1.634   3.591   4.703
 7297TIP3    H121830   1.582   3.673   4.714
 7297TIP3    H221831   1.568   3.535   4.659
 7298TIP3   OH221832   1.717   3.887   4.871
 7298TIP3    H121833   1.756   3.803   4.905
 7298TIP3    H221834   1.733   3.878   4.776
 7299TIP3   OH221835   2.561   4.850   4.530
 7299TIP3    H121836   2.592   4.777   4.471
 7299TIP3    H221837   2.546   4.801   4.612
 7300TIP3   OH221838   3.473   3.624   4.868
 7300TIP3    H121839   3.486   3.710   4.914
 7300TIP3    H221840   3.511   3.642   4.780
 7301TIP3   OH221841   2.854   3.805   4.925
 7301TIP3    H121842   2.905   3.723   4.933
 7301TIP3    H221843   2.793   3.787   4.854
 7302TIP3   OH221844   2.203   3.475   4.872
 7302TIP3    H121845   2.184   3.547   4.808
 7302TIP3    H221846   2.160   3.400   4.825
 7303TIP3   OH221847   2.905   3.546   4.485
 7303TIP3    H121848   2.970   3.543   4.559
 7303TIP3    H221849   2.957   3.595   4.419
 7304TIP3   OH221850   1.847   3.672   4.976
 7304TIP3    H121851   1.925   3.642   5.027
 7304TIP3    H221852   1.856   3.613   4.898
 7305TIP3   OH221853   3.508   3.830   5.050
 7305TIP3    H121854   3.410   3.843   5.049
 7305TIP3    H221855   3.534   3.877   5.130
 7306TIP3   OH221856   2.204   3.453   5.306
 7306TIP3    H121857   2.141   3.485   5.238
 7306TIP3    H221858   2.153   3.469   5.387
 7307TIP3   OH221859   2.302   4.227   5.090
 7307TIP3    H121860   2.232   4.279   5.135
 7307TIP3    H221861   2.367   4.296   5.073
 7308TIP3   OH221862   3.106   3.556   4.671
 7308TIP3    H121863   3.083   3.527   4.761
 7308TIP3    H221864   3.191   3.600   4.681
 7309TIP3   OH221865   2.074   3.568   5.091
 7309TIP3    H121866   2.135   3.642   5.110
 7309TIP3    H221867   2.122   3.525   5.016
 7310TIP3   OH221868   2.137   4.420   5.198
 7310TIP3    H121869   2.114   4.509   5.162
 7310TIP3    H221870   2.059   4.407   5.257
 7311TIP3   OH221871   1.532   4.112   4.435
 7311TIP3    H121872   1.494   4.136   4.348
 7311TIP3    H221873   1.563   4.198   4.468
 7312TIP3   OH221874   2.980   4.636   4.691
 7312TIP3    H121875   2.887   4.612   4.713
 7312TIP3    H221876   2.966   4.715   4.634
 7313TIP3   OH221877   3.270   3.518   5.039
 7313TIP3    H121878   3.195   3.580   5.034
 7313TIP3    H221879   3.331   3.560   4.975
 7314TIP3   OH221880   2.564   3.170   5.023
 7314TIP3    H121881   2.541   3.077   5.037
 7314TIP3    H221882   2.487   3.213   5.067
 7315TIP3   OH221883   2.666   4.672   4.341
 7315TIP3    H121884   2.713   4.588   4.323
 7315TIP3    H221885   2.732   4.737   4.307
 7316TIP3   OH221886   2.799   4.444   4.260
 7316TIP3    H121887   2.800   4.381   4.186
 7316TIP3    H221888   2.863   4.406   4.321
 7317TIP3   OH221889   3.204   4.534   5.010
 7317TIP3    H121890   3.182   4.464   4.948
 7317TIP3    H221891   3.184   4.614   4.956
 7318TIP3   OH221892   2.439   3.725   3.980
 7318TIP3    H121893   2.466   3.752   4.071
 7318TIP3    H221894   2.514   3.669   3.953
 7319TIP3   OH221895   2.833   4.039   4.258
 7319TIP3    H121896   2.800   4.071   4.343
 7319TIP3    H221897   2.909   3.985   4.286
 7320TIP3   OH221898   2.172   4.415   4.817
 7320TIP3    H121899   2.145   4.416   4.722
 7320TIP3    H221900   2.267   4.430   4.815
 7321TIP3   OH221901   2.722   4.624   4.796
 7321TIP3    H121902   2.725   4.697   4.859
 7321TIP3    H221903   2.727   4.545   4.854
 7322TIP3   OH221904   2.344   4.543   5.339
 7322TIP3    H121905   2.285   4.604   5.389
 7322TIP3    H221906   2.278   4.489   5.293
 7323TIP3   OH221907   2.709   3.859   4.074
 7323TIP3    H121908   2.732   3.938   4.126
 7323TIP3    H221909   2.716   3.891   3.981
 7324TIP3   OH221910   2.087   4.107   5.425
 7324TIP3    H121911   2.099   4.190   5.477
 7324TIP3    H221912   2.000   4.079   5.460
 7325TIP3   OH221913   2.394   4.605   4.377
 7325TIP3    H121914   2.490   4.618   4.360
 7325TIP3    H221915   2.354   4.646   4.299
 7326TIP3   OH221916   2.140   4.709   5.430
 7326TIP3    H121917   2.103   4.710   5.340
 7326TIP3    H221918   2.060   4.687   5.485
 7327TIP3   OH221919   3.194   3.115   4.121
 7327TIP3    H121920   3.114   3.138   4.172
 7327TIP3    H221921   3.210   3.198   4.072
 7328TIP3   OH221922   1.911   3.860   4.505
 7328TIP3    H121923   1.866   3.905   4.431
 7328TIP3    H221924   1.908   3.769   4.475
 7329TIP3   OH221925   2.996   4.482   3.672
 7329TIP3    H121926   3.004   4.578   3.654
 7329TIP3    H221927   3.088   4.452   3.659
 7330TIP3   OH221928   1.719   4.239   5.376
 7330TIP3    H121929   1.650   4.218   5.310
 7330TIP3    H221930   1.753   4.151   5.402
 7331TIP3   OH221931   1.575   4.433   5.013
 7331TIP3    H121932   1.670   4.443   5.004
 7331TIP3    H221933   1.551   4.513   5.062
 7332TIP3   OH221934   3.432   4.877   5.069
 7332TIP3    H121935   3.443   4.780   5.072
 7332TIP3    H221936   3.369   4.888   5.141
 7333TIP3   OH221937   2.544   4.670   5.203
 7333TIP3    H121938   2.538   4.763   5.233
 7333TIP3    H221939   2.471   4.629   5.255
 7334TIP3   OH221940   2.307   4.798   4.152
 7334TIP3    H121941   2.259   4.778   4.069
 7334TIP3    H221942   2.273   4.886   4.176
 7335TIP3   OH221943   1.741   4.649   4.534
 7335TIP3    H121944   1.788   4.640   4.620
 7335TIP3    H221945   1.685   4.570   4.536
 7336TIP3   OH221946   2.505   4.701   3.790
 7336TIP3    H121947   2.564   4.631   3.754
 7336TIP3    H221948   2.540   4.711   3.881
 7337TIP3   OH221949   2.557   4.748   4.059
 7337TIP3    H121950   2.468   4.760   4.100
 7337TIP3    H221951   2.606   4.708   4.133
 7338TIP3   OH221952   3.311   4.005   5.319
 7338TIP3    H121953   3.243   4.037   5.258
 7338TIP3    H221954   3.294   3.910   5.313
 7339TIP3   OH221955   1.923   4.422   5.364
 7339TIP3    H121956   1.972   4.408   5.448
 7339TIP3    H221957   1.849   4.359   5.373
 7340TIP3   OH221958   2.323   3.244   5.150
 7340TIP3    H121959   2.233   3.216   5.125
 7340TIP3    H221960   2.303   3.329   5.193
 7341TIP3   OH221961   2.858   3.357   5.343
 7341TIP3    H121962   2.925   3.336   5.411
 7341TIP3    H221963   2.774   3.341   5.390
 7342TIP3   OH221964   2.752   3.928   3.813
 7342TIP3    H121965   2.719   3.897   3.726
 7342TIP3    H221966   2.837   3.968   3.787
 7343TIP3   OH221967   2.463   3.294   4.119
 7343TIP3    H121968   2.434   3.296   4.212
 7343TIP3    H221969   2.425   3.209   4.090
 7344TIP3   OH221970   2.233   3.793   5.151
 7344TIP3    H121971   2.196   3.777   5.240
 7344TIP3    H221972   2.273   3.880   5.164
 7345TIP3   OH221973   2.123   3.671   4.697
 7345TIP3    H121974   2.040   3.620   4.689
 7345TIP3    H221975   2.166   3.652   4.611
 7346TIP3   OH221976   2.802   4.016   5.500
 7346TIP3    H121977   2.783   3.940   5.559
 7346TIP3    H221978   2.898   4.024   5.510
 7347TIP3   OH221979   2.071   3.786   5.376
 7347TIP3    H121980   2.107   3.847   5.442
 7347TIP3    H221981   2.057   3.705   5.429
 7348TIP3   OH221982   2.118   3.264   4.086
 7348TIP3    H121983   2.114   3.268   4.184
 7348TIP3    H221984   2.046   3.325   4.062
 7349TIP3   OH221985   1.667   3.313   4.957
 7349TIP3    H121986   1.743   3.344   5.010
 7349TIP3    H221987   1.708   3.281   4.875
 7350TIP3   OH221988   1.638   3.293   4.478
 7350TIP3    H121989   1.683   3.330   4.398
 7350TIP3    H221990   1.576   3.367   4.496
 7351TIP3   OH221991   2.749   4.029   5.086
 7351TIP3    H121992   2.803   4.002   5.009
 7351TIP3    H221993   2.787   3.968   5.151
 7352TIP3   OH221994   2.466   3.423   4.761
 7352TIP3    H121995   2.384   3.451   4.805
 7352TIP3    H221996   2.533   3.477   4.805
 7353TIP3   OH221997   1.895   3.519   4.754
 7353TIP3    H121998   1.802   3.527   4.723
 7353TIP3    H221999   1.921   3.429   4.728
 7354TIP3   OH222000   2.186   3.523   4.433
 7354TIP3    H122001   2.254   3.590   4.410
 7354TIP3    H222002   2.124   3.539   4.359
 7355TIP3   OH222003   2.950   3.542   4.938
 7355TIP3    H122004   2.928   3.559   5.032
 7355TIP3    H222005   2.878   3.482   4.913
 7356TIP3   OH222006   2.011   3.548   4.221
 7356TIP3    H122007   1.943   3.511   4.162
 7356TIP3    H222008   2.067   3.595   4.156
 7357TIP3   OH222009   2.087   4.345   5.584
 7357TIP3    H122010   2.167   4.374   5.633
 7357TIP3    H222011   2.022   4.342   5.657
 7358TIP3   OH222012   2.071   3.290   4.719
 7358TIP3    H122013   2.040   3.208   4.762
 7358TIP3    H222014   2.119   3.256   4.642
 7359TIP3   OH222015   2.516   3.677   5.161
 7359TIP3    H122016   2.450   3.741   5.133
 7359TIP3    H222017   2.593   3.735   5.182
 7360TIP3   OH222018   2.232   4.108   4.223
 7360TIP3    H122019   2.180   4.029   4.197
 7360TIP3    H222020   2.286   4.069   4.293
 7361TIP3   OH222021   2.715   3.393   4.068
 7361TIP3    H122022   2.620   3.383   4.091
 7361TIP3    H222023   2.737   3.483   4.103
 7362TIP3   OH222024   2.644   4.402   5.222
 7362TIP3    H122025   2.690   4.377   5.303
 7362TIP3    H222026   2.618   4.494   5.238
 7363TIP3   OH222027   2.803   3.623   4.171
 7363TIP3    H122028   2.892   3.646   4.202
 7363TIP3    H222029   2.766   3.711   4.145
 7364TIP3   OH222030   2.402   4.235   4.034
 7364TIP3    H122031   2.363   4.324   4.049
 7364TIP3    H222032   2.354   4.183   4.102
 7365TIP3   OH222033   1.837   4.027   5.514
 7365TIP3    H122034   1.856   4.014   5.609
 7365TIP3    H222035   1.767   3.960   5.500
 7366TIP3   OH222036   2.562   4.145   5.531
 7366TIP3    H122037   2.509   4.082   5.481
 7366TIP3    H222038   2.653   4.112   5.509
 7367TIP3   OH222039   2.818   4.704   5.107
 7367TIP3    H122040   2.729   4.667   5.123
 7367TIP3    H222041   2.848   4.724   5.196
 7368TIP3   OH222042   3.225   3.731   4.024
 7368TIP3    H122043   3.163   3.688   3.961
 7368TIP3    H222044   3.224   3.821   3.985
 7369TIP3   OH222045   3.444   4.606   5.123
 7369TIP3    H122046   3.348   4.591   5.108
 7369TIP3    H222047   3.481   4.572   5.038
 7370TIP3   OH222048   2.933   4.552   3.935
 7370TIP3    H122049   2.906   4.475   3.985
 7370TIP3    H222050   2.948   4.515   3.846
 7371TIP3   OH222051   2.058   4.425   4.563
 7371TIP3    H122052   2.074   4.487   4.490
 7371TIP3    H222053   1.971   4.390   4.537
 7372TIP3   OH222054   1.620   3.715   4.228
 7372TIP3    H122055   1.668   3.798   4.249
 7372TIP3    H222056   1.544   3.721   4.291
 7373TIP3   OH222057   2.326   4.751   4.990
 7373TIP3    H122058   2.365   4.826   4.940
 7373TIP3    H222059   2.403   4.720   5.040
 7374TIP3   OH222060   1.975   4.650   4.377
 7374TIP3    H122061   1.890   4.660   4.423
 7374TIP3    H222062   2.008   4.743   4.379
 7375TIP3   OH222063   2.751   4.404   4.967
 7375TIP3    H122064   2.710   4.384   5.053
 7375TIP3    H222065   2.780   4.316   4.940
 7376TIP3   OH222066   2.688   4.284   3.838
 7376TIP3    H122067   2.738   4.261   3.919
 7376TIP3    H222068   2.599   4.255   3.863
 7377TIP3   OH222069   2.963   4.927   5.005
 7377TIP3    H122070   2.887   4.864   5.004
 7377TIP3    H222071   2.941   4.985   4.928
 7378TIP3   OH222072   3.027   4.757   3.656
 7378TIP3    H122073   3.066   4.829   3.603
 7378TIP3    H222074   2.947   4.803   3.688
 7379TIP3   OH222075   2.045   3.535   5.521
 7379TIP3    H122076   1.949   3.538   5.537
 7379TIP3    H222077   2.076   3.479   5.594
 7380TIP3   OH222078   2.851   4.237   4.064
 7380TIP3    H122079   2.836   4.160   4.123
 7380TIP3    H222080   2.946   4.222   4.041
 7381TIP3   OH222081   1.766   4.618   5.153
 7381TIP3    H122082   1.817   4.546   5.194
 7381TIP3    H222083   1.788   4.692   5.211
 7382TIP3   OH222084   2.052   4.263   3.837
 7382TIP3    H122085   2.068   4.171   3.809
 7382TIP3    H222086   2.032   4.251   3.932
 7383TIP3   OH222087   2.001   4.264   4.110
 7383TIP3    H122088   2.081   4.230   4.154
 7383TIP3    H222089   2.010   4.361   4.122
 7384TIP3   OH222090   1.732   3.960   4.310
 7384TIP3    H122091   1.667   4.007   4.365
 7384TIP3    H222092   1.750   4.027   4.241
 7385TIP3   OH222093   2.890   3.596   5.205
 7385TIP3    H122094   2.949   3.643   5.266
 7385TIP3    H222095   2.871   3.514   5.255
 7386TIP3   OH222096   2.768   3.344   4.365
 7386TIP3    H122097   2.750   3.378   4.276
 7386TIP3    H222098   2.809   3.424   4.407
 7387TIP3   OH222099   2.268   4.471   4.061
 7387TIP3    H122100   2.180   4.493   4.095
 7387TIP3    H222101   2.279   4.538   3.992
 7388TIP3   OH222102   2.710   3.833   5.298
 7388TIP3    H122103   2.745   3.896   5.363
 7388TIP3    H222104   2.782   3.769   5.289
 7389TIP3   OH222105   2.592   3.258   4.568
 7389TIP3    H122106   2.571   3.332   4.629
 7389TIP3    H222107   2.658   3.299   4.508
 7390TIP3   OH222108   2.010   4.541   4.125
 7390TIP3    H122109   1.979   4.610   4.062
 7390TIP3    H222110   1.994   4.584   4.211
 7391TIP3   OH222111   2.111   3.256   4.365
 7391TIP3    H122112   2.115   3.349   4.394
 7391TIP3    H222113   2.206   3.233   4.371
 7392TIP3   OH222114   1.727   4.170   4.115
 7392TIP3    H122115   1.798   4.237   4.125
 7392TIP3    H222116   1.771   4.112   4.049
 7393TIP3   OH222117   1.665   3.444   4.252
 7393TIP3    H122118   1.673   3.542   4.248
 7393TIP3    H222119   1.584   3.429   4.202
 7394TIP3   OH222120   2.982   4.903   4.597
 7394TIP3    H122121   2.940   4.950   4.522
 7394TIP3    H222122   3.076   4.921   4.577
 7395TIP3   OH222123   2.056   3.168   5.124
 7395TIP3    H122124   2.027   3.134   5.037
 7395TIP3    H222125   2.046   3.090   5.181
 7396TIP3   OH222126   1.597   4.383   4.504
 7396TIP3    H122127   1.525   4.416   4.560
 7396TIP3    H222128   1.572   4.424   4.418
 7397TIP3   OH222129   1.754   4.929   5.576
 7397TIP3    H122130   1.840   4.929   5.623
 7397TIP3    H222131   1.733   4.834   5.575
 7398TIP3   OH222132   2.236   4.892   5.618
 7398TIP3    H122133   2.329   4.866   5.628
 7398TIP3    H222134   2.208   4.832   5.546
 7399TIP3   OH222135   2.217   4.466   3.750
 7399TIP3    H122136   2.160   4.395   3.787
 7399TIP3    H222137   2.292   4.413   3.717
 7400TIP3   OH222138   2.926   4.814   5.382
 7400TIP3    H122139   2.864   4.749   5.423
 7400TIP3    H222140   3.007   4.762   5.398
 7401TIP3   OH222141   2.653   4.507   3.661
 7401TIP3    H122142   2.696   4.442   3.719
 7401TIP3    H222143   2.709   4.505   3.581
 7402TIP3   OH222144   1.885   4.335   5.774
 7402TIP3    H122145   1.900   4.239   5.786
 7402TIP3    H222146   1.797   4.336   5.731
 7403TIP3   OH222147   1.863   3.981   3.974
 7403TIP3    H122148   1.918   3.947   4.047
 7403TIP3    H222149   1.930   3.986   3.902
 7404TIP3   OH222150   2.492   4.420   5.549
 7404TIP3    H122151   2.453   4.435   5.461
 7404TIP3    H222152   2.525   4.328   5.543
 7405TIP3   OH222153   2.371   4.180   3.770
 7405TIP3    H122154   2.373   4.194   3.867
 7405TIP3    H222155   2.370   4.081   3.767
 7406TIP3   OH222156   2.984   4.444   5.175
 7406TIP3    H122157   3.061   4.477   5.124
 7406TIP3    H222158   2.910   4.468   5.116
 7407TIP3   OH222159   2.008   4.067   5.755
 7407TIP3    H122160   2.081   4.005   5.741
 7407TIP3    H222161   2.030   4.102   5.844
 7408TIP3   OH222162   2.065   3.882   4.186
 7408TIP3    H122163   2.090   3.847   4.273
 7408TIP3    H222164   2.107   3.813   4.130
 7409TIP3   OH222165   2.332   3.946   5.406
 7409TIP3    H122166   2.264   4.016   5.412
 7409TIP3    H222167   2.395   3.983   5.340
 7410TIP3   OH222168   2.163   3.676   4.031
 7410TIP3    H122169   2.149   3.687   3.935
 7410TIP3    H222170   2.260   3.684   4.038
 7411TIP3   OH222171   2.861   4.360   5.550
 7411TIP3    H122172   2.934   4.326   5.496
 7411TIP3    H222173   2.853   4.292   5.619
 7412TIP3   OH222174   2.991   4.012   3.695
 7412TIP3    H122175   2.970   3.966   3.611
 7412TIP3    H222176   2.958   4.102   3.673
 7413TIP3   OH222177   2.461   3.740   5.547
 7413TIP3    H122178   2.466   3.658   5.494
 7413TIP3    H222179   2.422   3.803   5.483
 7414TIP3   OH222180   2.462   3.517   5.370
 7414TIP3    H122181   2.493   3.567   5.291
 7414TIP3    H222182   2.370   3.497   5.344
 7415TIP3   OH222183   2.491   4.050   5.218
 7415TIP3    H122184   2.582   4.041   5.181
 7415TIP3    H222185   2.454   4.120   5.162
 7416TIP3   OH222186   3.074   4.030   5.610
 7416TIP3    H122187   3.119   3.945   5.607
 7416TIP3    H222188   3.135   4.088   5.562
 7417TIP3   OH222189   3.115   4.288   5.362
 7417TIP3    H122190   3.053   4.322   5.294
 7417TIP3    H222191   3.199   4.296   5.312
 7418TIP3   OH222192   2.337   3.853   5.773
 7418TIP3    H122193   2.270   3.783   5.792
 7418TIP3    H222194   2.374   3.821   5.688
 7419TIP3   OH222195   2.598   3.284   5.422
 7419TIP3    H122196   2.550   3.368   5.403
 7419TIP3    H222197   2.526   3.218   5.410
 7420TIP3   OH222198   2.725   3.795   5.638
 7420TIP3    H122199   2.708   3.780   5.733
 7420TIP3    H222200   2.637   3.770   5.603
 7421TIP3   OH222201   2.957   3.731   5.480
 7421TIP3    H122202   2.885   3.740   5.546
 7421TIP3    H222203   3.035   3.711   5.535
 7422TIP3   OH222204   3.207   3.689   5.643
 7422TIP3    H122205   3.209   3.592   5.659
 7422TIP3    H222206   3.191   3.725   5.732
 7423TIP3   OH222207   2.179   3.631   5.830
 7423TIP3    H122208   2.187   3.540   5.797
 7423TIP3    H222209   2.217   3.621   5.920
 7424TIP3   OH222210   2.692   3.300   5.679
 7424TIP3    H122211   2.758   3.228   5.673
 7424TIP3    H222212   2.651   3.294   5.590
 7425TIP3   OH222213   2.757   3.516   5.836
 7425TIP3    H122214   2.735   3.444   5.773
 7425TIP3    H222215   2.679   3.574   5.830
 7426TIP3   OH222216   1.978   4.745   3.938
 7426TIP3    H122217   2.073   4.739   3.918
 7426TIP3    H222218   1.948   4.794   3.859
 7427TIP3   OH222219   1.459   4.124   4.157
 7427TIP3    H122220   1.553   4.147   4.139
 7427TIP3    H222221   1.453   4.036   4.114
 7428TIP3   OH222222   1.372   4.738   4.567
 7428TIP3    H122223   1.306   4.676   4.529
 7428TIP3    H222224   1.417   4.679   4.632
 7429TIP3   OH222225   1.508   4.588   4.753
 7429TIP3    H122226   1.494   4.516   4.816
 7429TIP3    H222227   1.560   4.650   4.808
 7430TIP3   OH222228   3.235   4.993   4.558
 7430TIP3    H122229   3.267   5.039   4.637
 7430TIP3    H222230   3.297   5.025   4.490
 7431TIP3   OH222231   3.262   5.011   4.850
 7431TIP3    H122232   3.221   4.923   4.838
 7431TIP3    H222233   3.349   4.985   4.883
 7432TIP3   OH222234   3.301   4.694   5.412
 7432TIP3    H122235   3.234   4.703   5.482
 7432TIP3    H222236   3.350   4.779   5.420
 7433TIP3   OH222237   3.122   4.199   4.028
 7433TIP3    H122238   3.193   4.261   4.001
 7433TIP3    H222239   3.161   4.155   4.106
 7434TIP3   OH222240   3.224   4.043   4.237
 7434TIP3    H122241   3.188   4.000   4.316
 7434TIP3    H222242   3.308   4.073   4.273
 7435TIP3   OH222243   3.143   4.759   4.866
 7435TIP3    H122244   3.068   4.803   4.910
 7435TIP3    H222245   3.096   4.715   4.791
 7436TIP3   OH222246   3.191   3.974   3.879
 7436TIP3    H122247   3.121   3.975   3.810
 7436TIP3    H222248   3.161   4.051   3.932
 7437TIP3   OH222249   3.067   3.645   3.823
 7437TIP3    H122250   3.012   3.682   3.753
 7437TIP3    H222251   3.042   3.550   3.817
 7438TIP3   OH222252   1.710   3.995   5.125
 7438TIP3    H122253   1.702   3.962   5.033
 7438TIP3    H222254   1.807   3.995   5.136
 7439TIP3   OH222255   3.360   4.349   5.239
 7439TIP3    H122256   3.429   4.280   5.230
 7439TIP3    H222257   3.388   4.415   5.174
 7440TIP3   OH222258   3.536   4.149   5.268
 7440TIP3    H122259   3.460   4.093   5.293
 7440TIP3    H222260   3.610   4.085   5.279
 7441TIP3   OH222261   3.010   3.377   3.810
 7441TIP3    H122262   3.084   3.352   3.870
 7441TIP3    H222263   2.936   3.325   3.843
 7442TIP3   OH222264   3.065   3.640   4.269
 7442TIP3    H122265   3.105   3.552   4.286
 7442TIP3    H222266   3.127   3.675   4.203
 7443TIP3   OH222267   1.914   3.684   5.798
 7443TIP3    H122268   2.011   3.677   5.803
 7443TIP3    H222269   1.889   3.598   5.838
 7444TIP3   OH222270   3.743   3.551   5.553
 7444TIP3    H122271   3.806   3.483   5.519
 7444TIP3    H222272   3.723   3.601   5.472
 7445TIP3   OH222273   3.177   3.390   4.309
 7445TIP3    H122274   3.223   3.375   4.394
 7445TIP3    H222275   3.112   3.317   4.310
 7446TIP3   OH222276   1.872   3.375   5.133
 7446TIP3    H122277   1.932   3.299   5.141
 7446TIP3    H222278   1.936   3.448   5.125
 7447TIP3   OH222279   1.674   3.648   5.200
 7447TIP3    H122280   1.725   3.643   5.117
 7447TIP3    H222281   1.707   3.730   5.239
 7448TIP3   OH222282   3.613   3.693   5.358
 7448TIP3    H122283   3.539   3.723   5.414
 7448TIP3    H222284   3.572   3.621   5.305
 7449TIP3   OH222285   3.252   3.324   3.943
 7449TIP3    H122286   3.299   3.254   3.894
 7449TIP3    H222287   3.318   3.397   3.945
 7450TIP3   OH222288   1.660   3.152   4.706
 7450TIP3    H122289   1.566   3.149   4.731
 7450TIP3    H222290   1.658   3.211   4.627
 7451TIP3   OH222291   2.822   4.853   4.213
 7451TIP3    H122292   2.870   4.843   4.128
 7451TIP3    H222293   2.874   4.923   4.256
 7452TIP3   OH222294   1.880   3.230   5.517
 7452TIP3    H122295   1.831   3.227   5.601
 7452TIP3    H222296   1.813   3.270   5.458
 7453TIP3   OH222297   1.920   4.660   5.596
 7453TIP3    H122298   1.827   4.634   5.580
 7453TIP3    H222299   1.931   4.640   5.690
 7454TIP3   OH222300   2.100   4.691   5.143
 7454TIP3    H122301   2.049   4.766   5.104
 7454TIP3    H222302   2.185   4.708   5.098
 7455TIP3   OH222303   2.548   4.939   5.280
 7455TIP3    H122304   2.578   4.934   5.373
 7455TIP3    H222305   2.623   4.988   5.240
 7456TIP3   OH222306   2.753   5.088   5.159
 7456TIP3    H122307   2.783   5.027   5.090
 7456TIP3    H222308   2.766   5.174   5.117
 7457TIP3   OH222309   3.511   3.454   5.245
 7457TIP3    H122310   3.426   3.453   5.197
 7457TIP3    H222311   3.543   3.362   5.230
 7458TIP3   OH222312   1.775   4.947   5.169
 7458TIP3    H122313   1.686   4.981   5.143
 7458TIP3    H222314   1.784   4.990   5.255
 7459TIP3   OH222315   2.012   4.927   5.026
 7459TIP3    H122316   1.925   4.940   5.070
 7459TIP3    H222317   1.993   4.960   4.936
 7460TIP3   OH222318   2.433   4.954   4.825
 7460TIP3    H122319   2.367   4.972   4.755
 7460TIP3    H222320   2.447   5.044   4.861
 7461TIP3   OH222321   2.703   4.914   4.890
 7461TIP3    H122322   2.611   4.918   4.857
 7461TIP3    H222323   2.750   4.968   4.824
 7462TIP3   OH222324   2.909   5.088   4.789
 7462TIP3    H122325   2.899   5.173   4.741
 7462TIP3    H222326   2.940   5.029   4.716
 7463TIP3   OH222327   1.684   4.744   4.913
 7463TIP3    H122328   1.712   4.717   5.003
 7463TIP3    H222329   1.755   4.702   4.860
 7464TIP3   OH222330   1.876   4.620   4.769
 7464TIP3    H122331   1.894   4.537   4.818
 7464TIP3    H222332   1.966   4.659   4.763
 7465TIP3   OH222333   2.139   4.722   4.773
 7465TIP3    H122334   2.179   4.640   4.740
 7465TIP3    H222335   2.188   4.735   4.857
 7466TIP3   OH222336   2.739   3.369   4.874
 7466TIP3    H122337   2.679   3.301   4.910
 7466TIP3    H222338   2.800   3.317   4.818
 7467TIP3   OH222339   3.246   3.236   4.764
 7467TIP3    H122340   3.283   3.293   4.692
 7467TIP3    H222341   3.152   3.263   4.762
 7468TIP3   OH222342   3.339   3.342   4.529
 7468TIP3    H122343   3.411   3.289   4.488
 7468TIP3    H222344   3.375   3.432   4.511
 7469TIP3   OH222345   1.970   3.074   4.876
 7469TIP3    H122346   1.877   3.042   4.877
 7469TIP3    H222347   2.018   2.989   4.870
 7470TIP3   OH222348   1.760   2.944   4.523
 7470TIP3    H122349   1.789   3.001   4.450
 7470TIP3    H222350   1.731   3.010   4.589
 7471TIP3   OH222351   2.417   3.102   4.759
 7471TIP3    H122352   2.463   3.157   4.693
 7471TIP3    H222353   2.433   3.154   4.839
 7472TIP3   OH222354   2.966   3.250   4.738
 7472TIP3    H122355   2.954   3.224   4.646
 7472TIP3    H222356   2.943   3.167   4.787
 7473TIP3   OH222357   2.990   3.178   4.301
 7473TIP3    H122358   2.906   3.226   4.316
 7473TIP3    H222359   2.970   3.093   4.346
 7474TIP3   OH222360   1.473   4.517   4.306
 7474TIP3    H122361   1.388   4.484   4.271
 7474TIP3    H222362   1.464   4.611   4.279
 7475TIP3   OH222363   1.875   3.101   4.289
 7475TIP3    H122364   1.924   3.042   4.229
 7475TIP3    H222365   1.947   3.158   4.323
 7476TIP3   OH222366   2.385   3.286   4.388
 7476TIP3    H122367   2.458   3.263   4.449
 7476TIP3    H222368   2.370   3.379   4.411
 7477TIP3   OH222369   2.246   4.703   3.885
 7477TIP3    H122370   2.334   4.726   3.848
 7477TIP3    H222371   2.223   4.629   3.825
 7478TIP3   OH222372   2.963   4.821   3.978
 7478TIP3    H122373   2.956   4.723   3.966
 7478TIP3    H222374   2.919   4.853   3.897
 7479TIP3   OH222375   2.178   3.354   5.764
 7479TIP3    H122376   2.142   3.285   5.822
 7479TIP3    H222377   2.272   3.354   5.793
 7480TIP3   OH222378   2.427   3.351   5.885
 7480TIP3    H122379   2.513   3.326   5.849
 7480TIP3    H222380   2.414   3.282   5.954
 7481TIP3   OH222381   1.549   4.537   3.940
 7481TIP3    H122382   1.552   4.567   4.032
 7481TIP3    H222383   1.638   4.497   3.928
 7482TIP3   OH222384   3.252   3.413   5.673
 7482TIP3    H122385   3.270   3.382   5.765
 7482TIP3    H222386   3.341   3.409   5.633
 7483TIP3   OH222387   3.125   5.019   5.204
 7483TIP3    H122388   3.080   4.974   5.128
 7483TIP3    H222389   3.198   5.062   5.157
 7484TIP3   OH222390   4.700   4.654   3.985
 7484TIP3    H122391   4.685   4.570   4.031
 7484TIP3    H222392   4.719   4.717   4.056
 7485TIP3   OH222393   3.729   4.641   4.409
 7485TIP3    H122394   3.730   4.546   4.422
 7485TIP3    H222395   3.825   4.660   4.407
 7486TIP3   OH222396   3.419   3.848   4.176
 7486TIP3    H122397   3.352   3.916   4.185
 7486TIP3    H222398   3.365   3.775   4.140
 7487TIP3   OH222399   4.351   5.103   4.010
 7487TIP3    H122400   4.396   5.030   3.962
 7487TIP3    H222401   4.341   5.065   4.099
 7488TIP3   OH222402   5.262   3.886   4.351
 7488TIP3    H122403   5.290   3.966   4.400
 7488TIP3    H222404   5.300   3.903   4.264
 7489TIP3   OH222405   4.673   4.068   4.406
 7489TIP3    H122406   4.701   3.975   4.396
 7489TIP3    H222407   4.625   4.086   4.324
 7490TIP3   OH222408   5.343   4.081   4.534
 7490TIP3    H122409   5.260   4.130   4.511
 7490TIP3    H222410   5.367   4.126   4.616
 7491TIP3   OH222411   3.986   3.721   4.793
 7491TIP3    H122412   3.908   3.679   4.754
 7491TIP3    H222413   3.949   3.752   4.878
 7492TIP3   OH222414   4.374   4.582   3.778
 7492TIP3    H122415   4.309   4.518   3.745
 7492TIP3    H222416   4.314   4.653   3.811
 7493TIP3   OH222417   4.903   3.817   4.152
 7493TIP3    H122418   4.870   3.766   4.227
 7493TIP3    H222419   4.992   3.841   4.178
 7494TIP3   OH222420   3.931   4.689   4.701
 7494TIP3    H122421   3.917   4.769   4.649
 7494TIP3    H222422   3.849   4.684   4.753
 7495TIP3   OH222423   3.327   4.369   3.926
 7495TIP3    H122424   3.291   4.393   3.839
 7495TIP3    H222425   3.361   4.455   3.959
 7496TIP3   OH222426   4.773   4.876   4.165
 7496TIP3    H122427   4.683   4.873   4.207
 7496TIP3    H222428   4.766   4.960   4.116
 7497TIP3   OH222429   5.062   3.779   4.524
 7497TIP3    H122430   4.975   3.810   4.496
 7497TIP3    H222431   5.121   3.817   4.456
 7498TIP3   OH222432   4.358   3.427   4.506
 7498TIP3    H122433   4.344   3.332   4.519
 7498TIP3    H222434   4.281   3.463   4.555
 7499TIP3   OH222435   4.474   4.927   3.834
 7499TIP3    H122436   4.525   4.846   3.815
 7499TIP3    H222437   4.534   4.994   3.793
 7500TIP3   OH222438   4.616   4.706   3.732
 7500TIP3    H122439   4.533   4.653   3.739
 7500TIP3    H222440   4.661   4.683   3.816
 7501TIP3   OH222441   4.998   4.800   4.507
 7501TIP3    H122442   4.997   4.726   4.444
 7501TIP3    H222443   4.979   4.876   4.448
 7502TIP3   OH222444   4.293   4.191   3.750
 7502TIP3    H122445   4.210   4.239   3.736
 7502TIP3    H222446   4.330   4.183   3.661
 7503TIP3   OH222447   4.241   3.981   3.472
 7503TIP3    H122448   4.298   4.014   3.544
 7503TIP3    H222449   4.302   3.919   3.428
 7504TIP3   OH222450   5.194   4.438   4.395
 7504TIP3    H122451   5.119   4.495   4.369
 7504TIP3    H222452   5.232   4.409   4.311
 7505TIP3   OH222453   4.890   4.316   4.656
 7505TIP3    H122454   4.877   4.398   4.705
 7505TIP3    H222455   4.800   4.307   4.615
 7506TIP3   OH222456   3.994   4.688   4.314
 7506TIP3    H122457   3.998   4.631   4.236
 7506TIP3    H222458   4.052   4.640   4.378
 7507TIP3   OH222459   4.533   4.876   4.287
 7507TIP3    H122460   4.516   4.957   4.338
 7507TIP3    H222461   4.522   4.806   4.354
 7508TIP3   OH222462   4.151   4.802   4.830
 7508TIP3    H122463   4.079   4.857   4.867
 7508TIP3    H222464   4.100   4.738   4.776
 7509TIP3   OH222465   4.497   4.120   3.561
 7509TIP3    H122466   4.537   4.199   3.600
 7509TIP3    H222467   4.513   4.138   3.465
 7510TIP3   OH222468   3.904   4.337   4.959
 7510TIP3    H122469   3.907   4.432   4.982
 7510TIP3    H222470   3.820   4.332   4.910
 7511TIP3   OH222471   4.218   4.810   3.837
 7511TIP3    H122472   4.299   4.863   3.851
 7511TIP3    H222473   4.158   4.874   3.796
 7512TIP3   OH222474   3.933   4.968   4.913
 7512TIP3    H122475   3.900   4.967   4.821
 7512TIP3    H222476   3.851   4.948   4.964
 7513TIP3   OH222477   4.988   3.371   3.604
 7513TIP3    H122478   4.913   3.393   3.663
 7513TIP3    H222479   5.008   3.460   3.568
 7514TIP3   OH222480   3.735   4.107   3.930
 7514TIP3    H122481   3.655   4.144   3.887
 7514TIP3    H222482   3.706   4.020   3.960
 7515TIP3   OH222483   4.792   4.737   3.156
 7515TIP3    H122484   4.801   4.834   3.142
 7515TIP3    H222485   4.885   4.708   3.146
 7516TIP3   OH222486   3.545   4.503   4.899
 7516TIP3    H122487   3.518   4.479   4.809
 7516TIP3    H222488   3.572   4.415   4.935
 7517TIP3   OH222489   3.377   4.710   4.473
 7517TIP3    H122490   3.472   4.692   4.479
 7517TIP3    H222491   3.365   4.775   4.544
 7518TIP3   OH222492   5.232   5.142   4.550
 7518TIP3    H122493   5.234   5.046   4.566
 7518TIP3    H222494   5.149   5.166   4.597
 7519TIP3   OH222495   4.328   4.944   4.661
 7519TIP3    H122496   4.325   5.026   4.714
 7519TIP3    H222497   4.285   4.879   4.720
 7520TIP3   OH222498   4.101   5.056   3.638
 7520TIP3    H122499   4.055   5.039   3.554
 7520TIP3    H222500   4.068   5.144   3.662
 7521TIP3   OH222501   3.538   4.905   4.025
 7521TIP3    H122502   3.588   4.896   4.109
 7521TIP3    H222503   3.483   4.825   4.029
 7522TIP3   OH222504   4.301   4.958   3.277
 7522TIP3    H122505   4.361   4.888   3.241
 7522TIP3    H222506   4.336   4.967   3.369
 7523TIP3   OH222507   4.352   5.006   3.547
 7523TIP3    H122508   4.263   5.015   3.589
 7523TIP3    H222509   4.402   4.964   3.619
 7524TIP3   OH222510   5.119   4.270   4.827
 7524TIP3    H122511   5.043   4.284   4.768
 7524TIP3    H222512   5.136   4.174   4.815
 7525TIP3   OH222513   3.718   4.707   4.867
 7525TIP3    H122514   3.784   4.685   4.936
 7525TIP3    H222515   3.653   4.635   4.879
 7526TIP3   OH222516   4.121   3.501   4.635
 7526TIP3    H122517   4.031   3.473   4.609
 7526TIP3    H222518   4.106   3.595   4.650
 7527TIP3   OH222519   4.655   3.618   4.830
 7527TIP3    H122520   4.724   3.590   4.893
 7527TIP3    H222521   4.572   3.596   4.876
 7528TIP3   OH222522   4.892   4.043   4.748
 7528TIP3    H122523   4.843   4.044   4.833
 7528TIP3    H222524   4.870   4.130   4.710
 7529TIP3   OH222525   4.547   4.173   3.301
 7529TIP3    H122526   4.518   4.150   3.210
 7529TIP3    H222527   4.629   4.223   3.282
 7530TIP3   OH222528   4.605   4.272   4.987
 7530TIP3    H122529   4.582   4.197   5.046
 7530TIP3    H222530   4.700   4.282   5.006
 7531TIP3   OH222531   3.875   4.027   4.863
 7531TIP3    H122532   3.893   4.110   4.908
 7531TIP3    H222533   3.872   3.961   4.934
 7532TIP3   OH222534   3.919   3.519   3.565
 7532TIP3    H122535   3.937   3.518   3.662
 7532TIP3    H222536   3.841   3.577   3.564
 7533TIP3   OH222537   3.468   3.562   4.446
 7533TIP3    H122538   3.535   3.606   4.500
 7533TIP3    H222539   3.511   3.553   4.360
 7534TIP3   OH222540   3.431   3.546   3.959
 7534TIP3    H122541   3.487   3.583   3.887
 7534TIP3    H222542   3.375   3.623   3.979
 7535TIP3   OH222543   4.639   4.278   4.570
 7535TIP3    H122544   4.647   4.205   4.504
 7535TIP3    H222545   4.572   4.240   4.630
 7536TIP3   OH222546   4.276   3.704   4.216
 7536TIP3    H122547   4.187   3.709   4.255
 7536TIP3    H222548   4.332   3.737   4.288
 7537TIP3   OH222549   3.973   3.748   3.918
 7537TIP3    H122550   4.065   3.784   3.925
 7537TIP3    H222551   3.932   3.808   3.855
 7538TIP3   OH222552   4.750   3.797   4.431
 7538TIP3    H122553   4.717   3.819   4.521
 7538TIP3    H222554   4.681   3.733   4.404
 7539TIP3   OH222555   3.790   3.824   3.698
 7539TIP3    H122556   3.725   3.777   3.643
 7539TIP3    H222557   3.853   3.855   3.630
 7540TIP3   OH222558   4.925   5.492   4.651
 7540TIP3    H122559   4.923   5.514   4.556
 7540TIP3    H222560   5.005   5.539   4.681
 7541TIP3   OH222561   3.879   4.603   5.071
 7541TIP3    H122562   3.963   4.633   5.112
 7541TIP3    H222563   3.820   4.605   5.148
 7542TIP3   OH222564   3.890   3.549   4.214
 7542TIP3    H122565   3.852   3.466   4.246
 7542TIP3    H222566   3.923   3.528   4.126
 7543TIP3   OH222567   4.347   3.938   4.684
 7543TIP3    H122568   4.308   4.009   4.632
 7543TIP3    H222569   4.434   3.978   4.702
 7544TIP3   OH222570   4.057   4.344   3.710
 7544TIP3    H122571   3.987   4.276   3.700
 7544TIP3    H222572   4.041   4.374   3.802
 7545TIP3   OH222573   4.969   4.595   4.320
 7545TIP3    H122574   4.929   4.643   4.246
 7545TIP3    H222575   4.893   4.549   4.359
 7546TIP3   OH222576   4.525   3.623   3.519
 7546TIP3    H122577   4.441   3.614   3.572
 7546TIP3    H222578   4.558   3.707   3.559
 7547TIP3   OH222579   4.600   3.865   3.636
 7547TIP3    H122580   4.672   3.884   3.698
 7547TIP3    H222581   4.565   3.954   3.616
 7548TIP3   OH222582   4.197   4.487   3.523
 7548TIP3    H122583   4.156   4.576   3.535
 7548TIP3    H222584   4.147   4.435   3.589
 7549TIP3   OH222585   3.614   4.274   5.015
 7549TIP3    H122586   3.660   4.274   5.101
 7549TIP3    H222587   3.583   4.182   5.011
 7550TIP3   OH222588   4.355   4.391   5.033
 7550TIP3    H122589   4.292   4.341   4.978
 7550TIP3    H222590   4.441   4.365   4.994
 7551TIP3   OH222591   4.618   4.937   4.599
 7551TIP3    H122592   4.523   4.917   4.610
 7551TIP3    H222593   4.639   4.978   4.685
 7552TIP3   OH222594   5.045   3.990   3.481
 7552TIP3    H122595   4.962   3.950   3.449
 7552TIP3    H222596   5.032   4.083   3.456
 7553TIP3   OH222597   5.248   4.857   4.595
 7553TIP3    H122598   5.151   4.848   4.591
 7553TIP3    H222599   5.272   4.823   4.506
 7554TIP3   OH222600   4.727   4.814   3.422
 7554TIP3    H122601   4.700   4.747   3.486
 7554TIP3    H222602   4.741   4.763   3.340
 7555TIP3   OH222603   3.846   4.661   4.005
 7555TIP3    H122604   3.855   4.745   3.957
 7555TIP3    H222605   3.751   4.655   4.017
 7556TIP3   OH222606   3.412   3.972   3.713
 7556TIP3    H122607   3.461   4.054   3.734
 7556TIP3    H222608   3.339   3.976   3.778
 7557TIP3   OH222609   4.000   4.433   3.957
 7557TIP3    H122610   3.951   4.515   3.980
 7557TIP3    H222611   3.981   4.374   4.031
 7558TIP3   OH222612   4.119   5.012   4.481
 7558TIP3    H122613   4.168   5.082   4.433
 7558TIP3    H222614   4.191   4.972   4.533
 7559TIP3   OH222615   3.769   4.910   3.862
 7559TIP3    H122616   3.685   4.919   3.910
 7559TIP3    H222617   3.803   5.002   3.866
 7560TIP3   OH222618   4.526   4.649   4.463
 7560TIP3    H122619   4.451   4.628   4.522
 7560TIP3    H222620   4.569   4.563   4.460
 7561TIP3   OH222621   4.483   4.539   3.323
 7561TIP3    H122622   4.537   4.507   3.398
 7561TIP3    H222623   4.394   4.516   3.355
 7562TIP3   OH222624   4.760   5.179   4.491
 7562TIP3    H122625   4.683   5.118   4.491
 7562TIP3    H222626   4.737   5.240   4.418
 7563TIP3   OH222627   4.824   5.014   3.142
 7563TIP3    H122628   4.865   5.088   3.095
 7563TIP3    H222629   4.743   5.059   3.174
 7564TIP3   OH222630   3.843   3.787   5.024
 7564TIP3    H122631   3.746   3.785   5.023
 7564TIP3    H222632   3.865   3.718   5.088
 7565TIP3   OH222633   4.647   4.450   3.529
 7565TIP3    H122634   4.636   4.458   3.625
 7565TIP3    H222635   4.745   4.457   3.522
 7566TIP3   OH222636   3.558   4.875   4.647
 7566TIP3    H122637   3.621   4.806   4.674
 7566TIP3    H222638   3.596   4.952   4.691
 7567TIP3   OH222639   3.849   4.520   3.323
 7567TIP3    H122640   3.865   4.427   3.297
 7567TIP3    H222641   3.830   4.510   3.418
 7568TIP3   OH222642   3.794   4.525   3.595
 7568TIP3    H122643   3.867   4.495   3.650
 7568TIP3    H222644   3.800   4.622   3.604
 7569TIP3   OH222645   3.519   4.216   3.794
 7569TIP3    H122646   3.459   4.265   3.854
 7569TIP3    H222647   3.543   4.285   3.730
 7570TIP3   OH222648   4.676   3.860   4.695
 7570TIP3    H122649   4.762   3.895   4.724
 7570TIP3    H222650   4.667   3.778   4.746
 7571TIP3   OH222651   4.596   3.617   3.836
 7571TIP3    H122652   4.501   3.619   3.806
 7571TIP3    H222653   4.616   3.710   3.852
 7572TIP3   OH222654   4.061   4.722   3.543
 7572TIP3    H122655   3.974   4.747   3.580
 7572TIP3    H222656   4.078   4.798   3.485
 7573TIP3   OH222657   4.233   3.828   3.971
 7573TIP3    H122658   4.323   3.850   3.945
 7573TIP3    H222659   4.246   3.786   4.058
 7574TIP3   OH222660   4.530   4.117   4.771
 7574TIP3    H122661   4.553   4.178   4.844
 7574TIP3    H222662   4.594   4.046   4.781
 7575TIP3   OH222663   4.417   3.513   4.078
 7575TIP3    H122664   4.373   3.589   4.122
 7575TIP3    H222665   4.418   3.543   3.986
 7576TIP3   OH222666   3.805   4.797   3.612
 7576TIP3    H122667   3.775   4.868   3.550
 7576TIP3    H222668   3.789   4.841   3.699
 7577TIP3   OH222669   3.922   3.500   3.840
 7577TIP3    H122670   3.923   3.592   3.877
 7577TIP3    H222671   4.018   3.483   3.842
 7578TIP3   OH222672   5.160   4.003   4.754
 7578TIP3    H122673   5.061   4.000   4.755
 7578TIP3    H222674   5.176   3.980   4.661
 7579TIP3   OH222675   3.523   4.429   3.601
 7579TIP3    H122676   3.592   4.496   3.612
 7579TIP3    H222677   3.568   4.371   3.536
 7580TIP3   OH222678   3.464   3.700   3.729
 7580TIP3    H122679   3.473   3.797   3.728
 7580TIP3    H222680   3.371   3.688   3.710
 7581TIP3   OH222681   4.780   5.152   4.082
 7581TIP3    H122682   4.735   5.199   4.008
 7581TIP3    H222683   4.873   5.177   4.062
 7582TIP3   OH222684   3.851   3.431   4.615
 7582TIP3    H122685   3.826   3.399   4.525
 7582TIP3    H222686   3.842   3.350   4.668
 7583TIP3   OH222687   3.391   4.638   3.991
 7583TIP3    H122688   3.322   4.674   4.048
 7583TIP3    H222689   3.367   4.680   3.905
 7584TIP3   OH222690   3.551   5.181   5.068
 7584TIP3    H122691   3.638   5.188   5.113
 7584TIP3    H222692   3.546   5.084   5.056
 7585TIP3   OH222693   4.028   5.146   5.108
 7585TIP3    H122694   4.124   5.129   5.113
 7585TIP3    H222695   4.004   5.088   5.033
 7586TIP3   OH222696   4.012   4.723   3.233
 7586TIP3    H122697   3.956   4.652   3.273
 7586TIP3    H222698   4.088   4.671   3.204
 7587TIP3   OH222699   4.667   5.059   4.844
 7587TIP3    H122700   4.660   4.986   4.910
 7587TIP3    H222701   4.747   5.106   4.874
 7588TIP3   OH222702   4.448   4.764   3.147
 7588TIP3    H122703   4.492   4.700   3.207
 7588TIP3    H222704   4.506   4.762   3.068
 7589TIP3   OH222705   3.682   4.587   5.268
 7589TIP3    H122706   3.697   4.491   5.266
 7589TIP3    H222707   3.592   4.594   5.230
 7590TIP3   OH222708   3.658   4.239   3.459
 7590TIP3    H122709   3.713   4.206   3.532
 7590TIP3    H222710   3.726   4.245   3.389
 7591TIP3   OH222711   4.282   4.674   5.038
 7591TIP3    H122712   4.256   4.699   4.947
 7591TIP3    H222713   4.323   4.586   5.023
 7592TIP3   OH222714   4.166   4.436   3.258
 7592TIP3    H122715   4.170   4.451   3.356
 7592TIP3    H222716   4.165   4.338   3.256
 7593TIP3   OH222717   4.786   4.682   4.642
 7593TIP3    H122718   4.856   4.740   4.607
 7593TIP3    H222719   4.706   4.729   4.613
 7594TIP3   OH222720   3.794   4.325   5.247
 7594TIP3    H122721   3.873   4.294   5.200
 7594TIP3    H222722   3.831   4.358   5.332
 7595TIP3   OH222723   3.862   4.147   3.677
 7595TIP3    H122724   3.837   4.116   3.766
 7595TIP3    H222725   3.897   4.066   3.636
 7596TIP3   OH222726   4.146   4.224   4.899
 7596TIP3    H122727   4.061   4.265   4.926
 7596TIP3    H222728   4.154   4.258   4.809
 7597TIP3   OH222729   3.964   3.936   3.517
 7597TIP3    H122730   3.941   3.946   3.423
 7597TIP3    H222731   4.061   3.943   3.514
 7598TIP3   OH222732   4.661   4.616   5.054
 7598TIP3    H122733   4.723   4.584   4.987
 7598TIP3    H222734   4.652   4.540   5.113
 7599TIP3   OH222735   4.783   4.267   3.181
 7599TIP3    H122736   4.765   4.225   3.095
 7599TIP3    H222737   4.752   4.359   3.160
 7600TIP3   OH222738   4.253   4.003   5.037
 7600TIP3    H122739   4.254   3.920   4.985
 7600TIP3    H222740   4.220   4.067   4.971
 7601TIP3   OH222741   4.251   3.769   4.868
 7601TIP3    H122742   4.293   3.821   4.796
 7601TIP3    H222743   4.160   3.756   4.833
 7602TIP3   OH222744   4.871   4.286   5.096
 7602TIP3    H122745   4.920   4.202   5.097
 7602TIP3    H222746   4.937   4.345   5.056
 7603TIP3   OH222747   4.911   4.543   4.836
 7603TIP3    H122748   4.854   4.595   4.775
 7603TIP3    H222749   4.999   4.561   4.795
 7604TIP3   OH222750   4.134   4.108   5.270
 7604TIP3    H122751   4.069   4.035   5.275
 7604TIP3    H222752   4.171   4.093   5.181
 7605TIP3   OH222753   4.396   3.540   4.910
 7605TIP3    H122754   4.344   3.621   4.894
 7605TIP3    H222755   4.328   3.471   4.895
 7606TIP3   OH222756   4.520   4.050   5.124
 7606TIP3    H122757   4.507   4.037   5.219
 7606TIP3    H222758   4.430   4.028   5.091
 7607TIP3   OH222759   4.759   4.005   4.980
 7607TIP3    H122760   4.684   4.004   5.042
 7607TIP3    H222761   4.833   3.973   5.036
 7608TIP3   OH222762   4.986   3.941   5.131
 7608TIP3    H122763   5.000   3.846   5.147
 7608TIP3    H222764   4.985   3.979   5.221
 7609TIP3   OH222765   3.975   3.888   5.321
 7609TIP3    H122766   3.980   3.801   5.276
 7609TIP3    H222767   4.019   3.867   5.406
 7610TIP3   OH222768   4.485   3.555   5.168
 7610TIP3    H122769   4.554   3.485   5.162
 7610TIP3    H222770   4.448   3.549   5.077
 7611TIP3   OH222771   4.552   3.769   5.326
 7611TIP3    H122772   4.532   3.699   5.261
 7611TIP3    H222773   4.476   3.830   5.315
 7612TIP3   OH222774   3.774   5.000   3.424
 7612TIP3    H122775   3.869   4.994   3.405
 7612TIP3    H222776   3.746   5.051   3.345
 7613TIP3   OH222777   3.255   4.382   3.643
 7613TIP3    H122778   3.349   4.405   3.627
 7613TIP3    H222779   3.250   4.293   3.600
 7614TIP3   OH222780   3.168   4.993   4.055
 7614TIP3    H122781   3.102   4.931   4.017
 7614TIP3    H222782   3.212   4.935   4.121
 7615TIP3   OH222783   3.303   4.844   4.241
 7615TIP3    H122784   3.301   4.773   4.308
 7615TIP3    H222785   3.358   4.908   4.290
 7616TIP3   OH222786   5.029   5.261   4.044
 7616TIP3    H122787   5.059   5.294   4.131
 7616TIP3    H222788   5.096   5.296   3.984
 7617TIP3   OH222789   5.063   5.267   4.325
 7617TIP3    H122790   5.016   5.180   4.319
 7617TIP3    H222791   5.137   5.240   4.382
 7618TIP3   OH222792   5.107   4.943   4.895
 7618TIP3    H122793   5.034   4.951   4.960
 7618TIP3    H222794   5.149   5.031   4.900
 7619TIP3   OH222795   4.929   4.451   3.529
 7619TIP3    H122796   4.995   4.515   3.494
 7619TIP3    H222797   4.963   4.434   3.618
 7620TIP3   OH222798   4.935   5.017   4.347
 7620TIP3    H122799   4.865   5.060   4.400
 7620TIP3    H222800   4.882   4.972   4.277
 7621TIP3   OH222801   4.985   4.235   3.362
 7621TIP3    H122802   4.913   4.241   3.295
 7621TIP3    H222803   4.959   4.308   3.422
 7622TIP3   OH222804   4.839   3.899   3.324
 7622TIP3    H122805   4.818   3.964   3.256
 7622TIP3    H222806   4.844   3.816   3.275
 7623TIP3   OH222807   5.155   4.605   4.721
 7623TIP3    H122808   5.225   4.536   4.715
 7623TIP3    H222809   5.186   4.671   4.657
 7624TIP3   OH222810   5.337   4.410   4.751
 7624TIP3    H122811   5.261   4.356   4.784
 7624TIP3    H222812   5.410   4.344   4.759
 7625TIP3   OH222813   5.102   4.207   4.506
 7625TIP3    H122814   5.018   4.238   4.545
 7625TIP3    H222815   5.136   4.290   4.466
 7626TIP3   OH222816   3.710   3.943   5.294
 7626TIP3    H122817   3.807   3.931   5.287
 7626TIP3    H222818   3.682   3.853   5.320
 7627TIP3   OH222819   5.544   3.806   5.043
 7627TIP3    H122820   5.603   3.740   5.000
 7627TIP3    H222821   5.513   3.859   4.967
 7628TIP3   OH222822   4.991   3.617   3.781
 7628TIP3    H122823   5.024   3.626   3.872
 7628TIP3    H222824   4.910   3.567   3.793
 7629TIP3   OH222825   3.667   3.640   4.633
 7629TIP3    H122826   3.730   3.566   4.625
 7629TIP3    H222827   3.713   3.712   4.587
 7630TIP3   OH222828   5.412   3.943   4.850
 7630TIP3    H122829   5.325   3.985   4.862
 7630TIP3    H222830   5.386   3.871   4.789
 7631TIP3   OH222831   5.048   3.587   3.424
 7631TIP3    H122832   5.095   3.514   3.382
 7631TIP3    H222833   5.116   3.658   3.427
 7632TIP3   OH222834   3.452   3.395   4.182
 7632TIP3    H122835   3.362   3.403   4.217
 7632TIP3    H222836   3.453   3.462   4.110
 7633TIP3   OH222837   4.615   5.113   3.697
 7633TIP3    H122838   4.666   5.101   3.615
 7633TIP3    H222839   4.669   5.178   3.745
 7634TIP3   OH222840   3.675   3.491   5.007
 7634TIP3    H122841   3.622   3.490   5.088
 7634TIP3    H222842   3.610   3.528   4.944
 7635TIP3   OH222843   3.713   4.927   5.086
 7635TIP3    H122844   3.629   4.882   5.064
 7635TIP3    H222845   3.728   4.902   5.178
 7636TIP3   OH222846   3.889   4.956   4.629
 7636TIP3    H122847   3.852   5.036   4.587
 7636TIP3    H222848   3.978   4.959   4.589
 7637TIP3   OH222849   4.336   5.204   4.775
 7637TIP3    H122850   4.382   5.198   4.861
 7637TIP3    H222851   4.404   5.247   4.719
 7638TIP3   OH222852   4.517   5.347   4.625
 7638TIP3    H122853   4.585   5.291   4.586
 7638TIP3    H222854   4.571   5.402   4.687
 7639TIP3   OH222855   5.313   3.707   4.728
 7639TIP3    H122856   5.223   3.703   4.691
 7639TIP3    H222857   5.343   3.614   4.715
 7640TIP3   OH222858   3.568   5.202   4.655
 7640TIP3    H122859   3.480   5.237   4.632
 7640TIP3    H222860   3.585   5.249   4.738
 7641TIP3   OH222861   3.806   5.189   4.512
 7641TIP3    H122862   3.718   5.199   4.554
 7641TIP3    H222863   3.788   5.219   4.421
 7642TIP3   OH222864   4.235   5.215   4.307
 7642TIP3    H122865   4.163   5.234   4.244
 7642TIP3    H222866   4.246   5.302   4.352
 7643TIP3   OH222867   4.503   5.154   4.358
 7643TIP3    H122868   4.408   5.169   4.342
 7643TIP3    H222869   4.543   5.232   4.317
 7644TIP3   OH222870   4.712   5.346   4.275
 7644TIP3    H122871   4.697   5.429   4.226
 7644TIP3    H222872   4.737   5.284   4.203
 7645TIP3   OH222873   3.482   5.000   4.398
 7645TIP3    H122874   3.508   4.975   4.489
 7645TIP3    H222875   3.554   4.955   4.348
 7646TIP3   OH222876   3.678   4.870   4.257
 7646TIP3    H122877   3.696   4.786   4.305
 7646TIP3    H222878   3.769   4.908   4.252
 7647TIP3   OH222879   3.945   4.964   4.261
 7647TIP3    H122880   3.973   4.871   4.253
 7647TIP3    H222881   3.993   4.987   4.343
 7648TIP3   OH222882   4.531   3.624   4.367
 7648TIP3    H122883   4.476   3.555   4.409
 7648TIP3    H222884   4.566   3.578   4.289
 7649TIP3   OH222885   5.045   3.497   4.250
 7649TIP3    H122886   5.080   3.551   4.176
 7649TIP3    H222887   4.949   3.513   4.243
 7650TIP3   OH222888   5.137   3.605   4.018
 7650TIP3    H122889   5.207   3.551   3.975
 7650TIP3    H222890   5.174   3.695   3.999
 7651TIP3   OH222891   3.766   3.327   4.373
 7651TIP3    H122892   3.673   3.297   4.369
 7651TIP3    H222893   3.814   3.243   4.362
 7652TIP3   OH222894   3.549   3.199   4.007
 7652TIP3    H122895   3.584   3.259   3.939
 7652TIP3    H222896   3.521   3.263   4.076
 7653TIP3   OH222897   4.214   3.354   4.248
 7653TIP3    H122898   4.259   3.404   4.178
 7653TIP3    H222899   4.239   3.404   4.327
 7654TIP3   OH222900   4.772   3.506   4.220
 7654TIP3    H122901   4.736   3.475   4.137
 7654TIP3    H222902   4.747   3.433   4.281
 7655TIP3   OH222903   4.771   3.426   3.768
 7655TIP3    H122904   4.706   3.489   3.806
 7655TIP3    H222905   4.759   3.348   3.827
 7656TIP3   OH222906   3.269   4.773   3.791
 7656TIP3    H122907   3.184   4.741   3.757
 7656TIP3    H222908   3.260   4.868   3.769
 7657TIP3   OH222909   3.676   3.364   3.773
 7657TIP3    H122910   3.727   3.303   3.716
 7657TIP3    H222911   3.747   3.419   3.810
 7658TIP3   OH222912   4.042   4.959   3.372
 7658TIP3    H122913   4.130   4.982   3.336
 7658TIP3    H222914   4.020   4.884   3.312
 7659TIP3   OH222915   4.761   5.080   3.465
 7659TIP3    H122916   4.754   4.982   3.454
 7659TIP3    H222917   4.716   5.110   3.384
 7660TIP3   OH222918   3.971   3.609   5.255
 7660TIP3    H122919   3.940   3.536   5.312
 7660TIP3    H222920   4.066   3.611   5.280
 7661TIP3   OH222921   4.221   3.613   5.375
 7661TIP3    H122922   4.306   3.592   5.331
 7661TIP3    H222923   4.214   3.539   5.439
 7662TIP3   OH222924   3.345   4.794   3.428
 7662TIP3    H122925   3.349   4.822   3.520
 7662TIP3    H222926   3.434   4.753   3.414
 7663TIP3   OH222927   5.050   3.671   5.160
 7663TIP3    H122928   5.069   3.639   5.251
 7663TIP3    H222929   5.138   3.666   5.118
 7664TIP3   OH222930   4.986   5.223   4.653
 7664TIP3    H122931   4.908   5.190   4.604
 7664TIP3    H222932   4.966   5.318   4.658
 7665TIP3   OH222933   5.539   4.520   4.202
 7665TIP3    H122934   5.562   4.437   4.249
 7665TIP3    H222935   5.604   4.518   4.130
 7666TIP3   OH222936   6.500   4.887   3.467
 7666TIP3    H122937   6.433   4.819   3.491
 7666TIP3    H222938   6.511   4.937   3.549
 7667TIP3   OH222939   5.516   4.919   3.905
 7667TIP3    H122940   5.513   4.823   3.917
 7667TIP3    H222941   5.608   4.932   3.874
 7668TIP3   OH222942   6.152   5.361   3.502
 7668TIP3    H122943   6.185   5.288   3.445
 7668TIP3    H222944   6.140   5.315   3.585
 7669TIP3   OH222945   7.071   4.139   3.848
 7669TIP3    H122946   7.096   4.226   3.887
 7669TIP3    H222947   7.078   4.159   3.753
 7670TIP3   OH222948   6.472   4.331   3.864
 7670TIP3    H122949   6.501   4.240   3.883
 7670TIP3    H222950   6.391   4.317   3.813
 7671TIP3   OH222951   5.776   3.988   3.821
 7671TIP3    H122952   5.704   4.042   3.786
 7671TIP3    H222953   5.743   3.901   3.792
 7672TIP3   OH222954   6.505   4.038   3.463
 7672TIP3    H122955   6.573   4.044   3.534
 7672TIP3    H222956   6.525   4.118   3.412
 7673TIP3   OH222957   7.142   4.353   4.014
 7673TIP3    H122958   7.058   4.398   3.990
 7673TIP3    H222959   7.142   4.370   4.110
 7674TIP3   OH222960   5.798   3.960   4.291
 7674TIP3    H122961   5.756   4.007   4.216
 7674TIP3    H222962   5.740   3.987   4.365
 7675TIP3   OH222963   5.906   4.746   4.136
 7675TIP3    H122964   5.826   4.798   4.160
 7675TIP3    H222965   5.940   4.799   4.063
 7676TIP3   OH222966   6.711   4.074   3.644
 7676TIP3    H122967   6.678   4.038   3.727
 7676TIP3    H222968   6.754   4.157   3.673
 7677TIP3   OH222969   5.696   4.088   4.075
 7677TIP3    H122970   5.750   4.169   4.085
 7677TIP3    H222971   5.739   4.051   3.996
 7678TIP3   OH222972   5.723   4.943   4.172
 7678TIP3    H122973   5.698   5.031   4.137
 7678TIP3    H222974   5.644   4.926   4.229
 7679TIP3   OH222975   5.124   4.625   3.416
 7679TIP3    H122976   5.090   4.647   3.327
 7679TIP3    H222977   5.156   4.712   3.447
 7680TIP3   OH222978   6.567   5.146   3.660
 7680TIP3    H122979   6.476   5.132   3.692
 7680TIP3    H222980   6.555   5.227   3.607
 7681TIP3   OH222981   6.857   4.042   4.013
 7681TIP3    H122982   6.768   4.065   3.982
 7681TIP3    H222983   6.913   4.073   3.939
 7682TIP3   OH222984   6.159   3.682   3.997
 7682TIP3    H122985   6.135   3.589   4.011
 7682TIP3    H222986   6.082   3.727   4.038
 7683TIP3   OH222987   6.260   5.185   3.316
 7683TIP3    H122988   6.310   5.101   3.301
 7683TIP3    H222989   6.326   5.249   3.280
 7684TIP3   OH222990   6.403   4.968   3.228
 7684TIP3    H122991   6.379   4.884   3.188
 7684TIP3    H222992   6.449   4.938   3.310
 7685TIP3   OH222993   6.797   5.052   3.990
 7685TIP3    H122994   6.779   4.974   3.932
 7685TIP3    H222995   6.774   5.126   3.930
 7686TIP3   OH222996   6.059   4.415   3.209
 7686TIP3    H122997   6.002   4.492   3.229
 7686TIP3    H222998   6.134   4.456   3.164
 7687TIP3   OH222999   6.035   4.234   2.957
 7687TIP3    H123000   6.079   4.277   3.033
 7687TIP3    H223001   6.107   4.178   2.922
 7688TIP3   OH223002   6.990   4.696   3.840
 7688TIP3    H123003   6.904   4.743   3.844
 7688TIP3    H223004   7.016   4.718   3.747
 7689TIP3   OH223005   6.408   4.551   3.247
 7689TIP3    H123006   6.361   4.583   3.328
 7689TIP3    H223007   6.490   4.517   3.288
 7690TIP3   OH223008   6.676   4.571   4.132
 7690TIP3    H123009   6.663   4.656   4.176
 7690TIP3    H223010   6.588   4.562   4.089
 7691TIP3   OH223011   5.742   4.964   3.768
 7691TIP3    H123012   5.725   4.928   3.678
 7691TIP3    H223013   5.834   4.939   3.782
 7692TIP3   OH223014   6.319   5.137   3.769
 7692TIP3    H123015   6.316   5.217   3.825
 7692TIP3    H223016   6.329   5.065   3.835
 7693TIP3   OH223017   5.936   5.055   4.316
 7693TIP3    H123018   5.875   5.117   4.362
 7693TIP3    H223019   5.872   5.001   4.266
 7694TIP3   OH223020   6.297   4.384   3.051
 7694TIP3    H123021   6.337   4.455   3.105
 7694TIP3    H223022   6.313   4.415   2.958
 7695TIP3   OH223023   5.708   4.616   4.432
 7695TIP3    H123024   5.691   4.702   4.474
 7695TIP3    H223025   5.620   4.591   4.399
 7696TIP3   OH223026   5.985   5.108   3.351
 7696TIP3    H123027   6.082   5.114   3.339
 7696TIP3    H223028   5.951   5.160   3.277
 7697TIP3   OH223029   5.731   5.224   4.403
 7697TIP3    H123030   5.696   5.225   4.312
 7697TIP3    H223031   5.651   5.202   4.456
 7698TIP3   OH223032   6.786   3.626   3.095
 7698TIP3    H123033   6.706   3.648   3.147
 7698TIP3    H223034   6.801   3.711   3.048
 7699TIP3   OH223035   6.586   4.994   2.643
 7699TIP3    H123036   6.595   5.091   2.629
 7699TIP3    H223037   6.679   4.965   2.632
 7700TIP3   OH223038   5.313   4.754   4.351
 7700TIP3    H123039   5.290   4.714   4.267
 7700TIP3    H223040   5.359   4.679   4.396
 7701TIP3   OH223041   5.136   5.001   3.972
 7701TIP3    H123042   5.231   4.988   3.987
 7701TIP3    H223043   5.116   5.072   4.035
 7702TIP3   OH223044   7.031   5.400   4.040
 7702TIP3    H123045   7.028   5.303   4.051
 7702TIP3    H223046   6.947   5.425   4.084
 7703TIP3   OH223047   6.129   5.184   4.171
 7703TIP3    H123048   6.133   5.277   4.204
 7703TIP3    H223049   6.060   5.146   4.228
 7704TIP3   OH223050   5.897   5.312   3.125
 7704TIP3    H123051   5.851   5.294   3.041
 7704TIP3    H223052   5.865   5.401   3.149
 7705TIP3   OH223053   5.332   5.162   3.510
 7705TIP3    H123054   5.383   5.154   3.594
 7705TIP3    H223055   5.277   5.082   3.514
 7706TIP3   OH223056   6.097   5.214   2.764
 7706TIP3    H123057   6.156   5.144   2.728
 7706TIP3    H223058   6.132   5.223   2.856
 7707TIP3   OH223059   6.148   5.261   3.034
 7707TIP3    H123060   6.060   5.271   3.077
 7707TIP3    H223061   6.199   5.220   3.106
 7708TIP3   OH223062   6.919   4.531   4.309
 7708TIP3    H123063   6.835   4.544   4.261
 7708TIP3    H223064   6.931   4.434   4.299
 7709TIP3   OH223065   5.512   4.941   4.342
 7709TIP3    H123066   5.566   4.923   4.422
 7709TIP3    H223067   5.440   4.876   4.350
 7710TIP3   OH223068   5.919   3.755   4.117
 7710TIP3    H123069   5.824   3.736   4.103
 7710TIP3    H223070   5.914   3.851   4.136
 7711TIP3   OH223071   6.448   3.874   4.318
 7711TIP3    H123072   6.513   3.846   4.385
 7711TIP3    H223073   6.362   3.859   4.362
 7712TIP3   OH223074   6.696   4.309   4.244
 7712TIP3    H123075   6.637   4.304   4.322
 7712TIP3    H223076   6.661   4.387   4.197
 7713TIP3   OH223077   6.346   4.434   2.786
 7713TIP3    H123078   6.315   4.408   2.698
 7713TIP3    H223079   6.428   4.482   2.764
 7714TIP3   OH223080   6.059   3.809   3.093
 7714TIP3    H123081   6.030   3.808   3.187
 7714TIP3    H223082   6.020   3.724   3.063
 7715TIP3   OH223083   6.207   4.224   3.368
 7715TIP3    H123084   6.159   4.309   3.366
 7715TIP3    H223085   6.269   4.235   3.294
 7716TIP3   OH223086   6.399   4.533   4.485
 7716TIP3    H123087   6.374   4.456   4.540
 7716TIP3    H223088   6.495   4.534   4.495
 7717TIP3   OH223089   5.628   4.316   4.375
 7717TIP3    H123090   5.708   4.363   4.400
 7717TIP3    H223091   5.649   4.225   4.402
 7718TIP3   OH223092   5.712   3.779   3.059
 7718TIP3    H123093   5.709   3.779   3.157
 7718TIP3    H223094   5.638   3.839   3.038
 7719TIP3   OH223095   5.267   3.825   3.937
 7719TIP3    H123096   5.342   3.866   3.986
 7719TIP3    H223097   5.307   3.803   3.852
 7720TIP3   OH223098   5.236   3.802   3.446
 7720TIP3    H123099   5.286   3.842   3.372
 7720TIP3    H223100   5.173   3.875   3.465
 7721TIP3   OH223101   6.421   4.534   4.046
 7721TIP3    H123102   6.431   4.467   3.975
 7721TIP3    H223103   6.379   4.480   4.117
 7722TIP3   OH223104   6.056   3.951   3.734
 7722TIP3    H123105   5.968   3.966   3.775
 7722TIP3    H223106   6.112   3.991   3.803
 7723TIP3   OH223107   5.481   3.985   3.738
 7723TIP3    H123108   5.396   3.983   3.694
 7723TIP3    H223109   5.531   3.912   3.696
 7724TIP3   OH223110   5.761   4.014   3.407
 7724TIP3    H123111   5.852   4.050   3.408
 7724TIP3    H223112   5.718   4.059   3.332
 7725TIP3   OH223113   6.551   4.057   3.913
 7725TIP3    H123114   6.520   4.073   4.005
 7725TIP3    H223115   6.480   3.996   3.883
 7726TIP3   OH223116   5.598   4.076   3.187
 7726TIP3    H123117   5.529   4.031   3.137
 7726TIP3    H223118   5.655   4.110   3.115
 7727TIP3   OH223119   6.721   5.748   4.137
 7727TIP3    H123120   6.717   5.771   4.043
 7727TIP3    H223121   6.799   5.800   4.167
 7728TIP3   OH223122   5.673   4.867   4.559
 7728TIP3    H123123   5.756   4.892   4.606
 7728TIP3    H223124   5.611   4.860   4.634
 7729TIP3   OH223125   5.659   3.785   3.680
 7729TIP3    H123126   5.633   3.705   3.730
 7729TIP3    H223127   5.722   3.751   3.614
 7730TIP3   OH223128   5.849   4.608   3.194
 7730TIP3    H123129   5.786   4.534   3.183
 7730TIP3    H223130   5.830   4.635   3.287
 7731TIP3   OH223131   6.753   4.832   3.828
 7731TIP3    H123132   6.770   4.883   3.747
 7731TIP3    H223133   6.668   4.788   3.808
 7732TIP3   OH223134   6.307   3.916   3.039
 7732TIP3    H123135   6.213   3.899   3.065
 7732TIP3    H223136   6.326   4.004   3.078
 7733TIP3   OH223137   6.261   4.926   4.190
 7733TIP3    H123138   6.260   4.879   4.273
 7733TIP3    H223139   6.212   5.008   4.209
 7734TIP3   OH223140   6.394   4.150   3.147
 7734TIP3    H123141   6.486   4.166   3.177
 7734TIP3    H223142   6.368   4.236   3.109
 7735TIP3   OH223143   5.996   4.746   3.003
 7735TIP3    H123144   5.956   4.834   3.021
 7735TIP3    H223145   5.956   4.694   3.075
 7736TIP3   OH223146   5.421   4.565   4.505
 7736TIP3    H123147   5.463   4.541   4.590
 7736TIP3    H223148   5.366   4.487   4.487
 7737TIP3   OH223149   6.149   4.655   4.512
 7737TIP3    H123150   6.090   4.607   4.450
 7737TIP3    H223151   6.236   4.622   4.479
 7738TIP3   OH223152   6.416   5.212   4.080
 7738TIP3    H123153   6.327   5.175   4.095
 7738TIP3    H223154   6.438   5.244   4.170
 7739TIP3   OH223155   6.827   4.249   2.998
 7739TIP3    H123156   6.764   4.205   2.936
 7739TIP3    H223157   6.821   4.340   2.960
 7740TIP3   OH223158   7.045   5.111   4.079
 7740TIP3    H123159   6.948   5.103   4.071
 7740TIP3    H223160   7.070   5.078   3.989
 7741TIP3   OH223161   6.527   5.068   2.909
 7741TIP3    H123162   6.497   4.998   2.969
 7741TIP3    H223163   6.537   5.021   2.825
 7742TIP3   OH223164   6.523   4.690   3.753
 7742TIP3    H123165   6.430   4.667   3.740
 7742TIP3    H223166   6.564   4.622   3.696
 7743TIP3   OH223167   5.646   4.927   3.509
 7743TIP3    H123168   5.660   5.002   3.447
 7743TIP3    H223169   5.552   4.910   3.495
 7744TIP3   OH223170   5.207   4.226   3.199
 7744TIP3    H123171   5.258   4.307   3.221
 7744TIP3    H223172   5.134   4.232   3.265
 7745TIP3   OH223173   5.767   4.679   3.440
 7745TIP3    H123174   5.739   4.767   3.471
 7745TIP3    H223175   5.801   4.637   3.521
 7746TIP3   OH223176   5.918   5.264   3.966
 7746TIP3    H123177   5.960   5.338   3.916
 7746TIP3    H223178   5.995   5.232   4.016
 7747TIP3   OH223179   5.564   5.166   3.349
 7747TIP3    H123180   5.480   5.175   3.397
 7747TIP3    H223181   5.598   5.258   3.353
 7748TIP3   OH223182   6.370   4.924   3.941
 7748TIP3    H123183   6.327   4.909   4.028
 7748TIP3    H223184   6.404   4.836   3.919
 7749TIP3   OH223185   6.279   4.796   2.812
 7749TIP3    H123186   6.333   4.770   2.890
 7749TIP3    H223187   6.191   4.771   2.844
 7750TIP3   OH223188   6.558   5.440   3.980
 7750TIP3    H123189   6.483   5.375   3.983
 7750TIP3    H223190   6.532   5.497   3.905
 7751TIP3   OH223191   6.620   5.270   2.630
 7751TIP3    H123192   6.656   5.341   2.575
 7751TIP3    H223193   6.540   5.315   2.664
 7752TIP3   OH223194   5.640   4.046   4.500
 7752TIP3    H123195   5.543   4.053   4.509
 7752TIP3    H223196   5.662   3.982   4.569
 7753TIP3   OH223197   6.440   4.728   3.029
 7753TIP3    H123198   6.425   4.669   3.106
 7753TIP3    H223199   6.537   4.721   3.019
 7754TIP3   OH223200   5.354   5.131   4.128
 7754TIP3    H123201   5.411   5.058   4.157
 7754TIP3    H223202   5.383   5.202   4.188
 7755TIP3   OH223203   5.643   4.778   2.811
 7755TIP3    H123204   5.662   4.686   2.784
 7755TIP3    H223205   5.626   4.766   2.907
 7756TIP3   OH223206   5.591   4.780   3.085
 7756TIP3    H123207   5.669   4.749   3.132
 7756TIP3    H223208   5.598   4.878   3.093
 7757TIP3   OH223209   5.314   4.466   3.278
 7757TIP3    H123210   5.260   4.517   3.341
 7757TIP3    H223211   5.349   4.536   3.221
 7758TIP3   OH223212   6.484   4.106   4.173
 7758TIP3    H123213   6.555   4.148   4.223
 7758TIP3    H223214   6.462   4.028   4.227
 7759TIP3   OH223215   6.360   3.850   3.336
 7759TIP3    H123216   6.340   3.891   3.250
 7759TIP3    H223217   6.405   3.925   3.383
 7760TIP3   OH223218   5.857   4.981   3.030
 7760TIP3    H123219   5.771   5.006   3.068
 7760TIP3    H223220   5.872   5.055   2.969
 7761TIP3   OH223221   6.041   4.032   3.452
 7761TIP3    H123222   6.102   4.104   3.422
 7761TIP3    H223223   6.051   4.038   3.548
 7762TIP3   OH223224   6.339   4.380   4.248
 7762TIP3    H123225   6.340   4.420   4.336
 7762TIP3    H223226   6.350   4.285   4.266
 7763TIP3   OH223227   6.190   3.767   3.549
 7763TIP3    H123228   6.166   3.845   3.604
 7763TIP3    H223229   6.249   3.809   3.482
 7764TIP3   OH223230   5.600   5.055   3.098
 7764TIP3    H123231   5.569   5.125   3.036
 7764TIP3    H223232   5.585   5.097   3.185
 7765TIP3   OH223233   5.703   3.761   3.333
 7765TIP3    H123234   5.702   3.853   3.368
 7765TIP3    H223235   5.799   3.743   3.344
 7766TIP3   OH223236   6.959   4.259   4.229
 7766TIP3    H123237   6.862   4.263   4.244
 7766TIP3    H223238   6.959   4.214   4.144
 7767TIP3   OH223239   6.610   4.456   3.614
 7767TIP3    H123240   6.520   4.432   3.641
 7767TIP3    H223241   6.665   4.400   3.672
 7768TIP3   OH223242   5.319   4.690   3.085
 7768TIP3    H123243   5.393   4.752   3.097
 7768TIP3    H223244   5.362   4.629   3.022
 7769TIP3   OH223245   5.267   3.957   3.216
 7769TIP3    H123246   5.274   4.055   3.218
 7769TIP3    H223247   5.173   3.946   3.201
 7770TIP3   OH223248   6.574   5.415   3.570
 7770TIP3    H123249   6.531   5.461   3.495
 7770TIP3    H223250   6.668   5.431   3.548
 7771TIP3   OH223251   5.646   3.684   4.098
 7771TIP3    H123252   5.618   3.651   4.010
 7771TIP3    H223253   5.638   3.604   4.154
 7772TIP3   OH223254   5.189   4.894   3.479
 7772TIP3    H123255   5.121   4.928   3.538
 7772TIP3    H223256   5.163   4.935   3.393
 7773TIP3   OH223257   5.346   5.442   4.550
 7773TIP3    H123258   5.433   5.440   4.596
 7773TIP3    H223259   5.326   5.347   4.547
 7774TIP3   OH223260   5.827   5.403   4.595
 7774TIP3    H123261   5.922   5.383   4.599
 7774TIP3    H223262   5.800   5.344   4.521
 7775TIP3   OH223263   5.808   4.980   2.721
 7775TIP3    H123264   5.751   4.909   2.761
 7775TIP3    H223265   5.884   4.927   2.693
 7776TIP3   OH223266   6.461   5.316   4.334
 7776TIP3    H123267   6.456   5.243   4.400
 7776TIP3    H223268   6.542   5.362   4.361
 7777TIP3   OH223269   6.244   5.020   2.634
 7777TIP3    H123270   6.287   4.956   2.694
 7777TIP3    H223271   6.301   5.018   2.555
 7778TIP3   OH223272   5.477   4.845   4.753
 7778TIP3    H123273   5.494   4.749   4.755
 7778TIP3    H223274   5.390   4.848   4.707
 7779TIP3   OH223275   5.453   4.496   2.946
 7779TIP3    H123276   5.509   4.464   3.019
 7779TIP3    H223277   5.521   4.502   2.875
 7780TIP3   OH223278   6.082   4.930   4.522
 7780TIP3    H123279   6.041   4.945   4.435
 7780TIP3    H223280   6.111   4.836   4.516
 7781TIP3   OH223281   5.957   4.692   2.741
 7781TIP3    H123282   5.964   4.708   2.838
 7781TIP3    H223283   5.959   4.594   2.740
 7782TIP3   OH223284   6.585   4.945   4.144
 7782TIP3    H123285   6.652   4.992   4.091
 7782TIP3    H223286   6.503   4.977   4.103
 7783TIP3   OH223287   5.594   4.584   4.734
 7783TIP3    H123288   5.669   4.533   4.699
 7783TIP3    H223289   5.626   4.612   4.822
 7784TIP3   OH223290   5.657   4.401   3.155
 7784TIP3    H123291   5.632   4.353   3.235
 7784TIP3    H223292   5.701   4.330   3.104
 7785TIP3   OH223293   5.924   4.455   4.400
 7785TIP3    H123294   5.854   4.524   4.404
 7785TIP3    H223295   5.959   4.468   4.310
 7786TIP3   OH223296   5.763   4.193   3.003
 7786TIP3    H123297   5.740   4.201   2.908
 7786TIP3    H223298   5.861   4.200   2.999
 7787TIP3   OH223299   6.455   4.871   4.532
 7787TIP3    H123300   6.519   4.836   4.469
 7787TIP3    H223301   6.441   4.796   4.592
 7788TIP3   OH223302   6.585   4.525   2.669
 7788TIP3    H123303   6.563   4.480   2.584
 7788TIP3    H223304   6.552   4.615   2.648
 7789TIP3   OH223305   6.060   4.250   4.512
 7789TIP3    H123306   6.057   4.177   4.447
 7789TIP3    H223307   6.013   4.320   4.461
 7790TIP3   OH223308   6.055   4.046   4.297
 7790TIP3    H123309   6.057   4.081   4.204
 7790TIP3    H223310   5.961   4.018   4.300
 7791TIP3   OH223311   6.111   4.595   4.230
 7791TIP3    H123312   6.156   4.553   4.156
 7791TIP3    H223313   6.037   4.644   4.187
 7792TIP3   OH223314   6.669   4.542   4.585
 7792TIP3    H123315   6.715   4.457   4.583
 7792TIP3    H223316   6.732   4.601   4.540
 7793TIP3   OH223317   6.709   4.797   4.328
 7793TIP3    H123318   6.651   4.851   4.269
 7793TIP3    H223319   6.795   4.814   4.285
 7794TIP3   OH223320   5.938   4.362   4.754
 7794TIP3    H123321   5.867   4.295   4.764
 7794TIP3    H223322   5.964   4.347   4.661
 7795TIP3   OH223323   6.185   3.813   4.394
 7795TIP3    H123324   6.139   3.893   4.359
 7795TIP3    H223325   6.117   3.744   4.380
 7796TIP3   OH223326   6.314   4.305   4.608
 7796TIP3    H123327   6.293   4.292   4.703
 7796TIP3    H223328   6.227   4.282   4.570
 7797TIP3   OH223329   6.556   4.261   4.469
 7797TIP3    H123330   6.477   4.260   4.527
 7797TIP3    H223331   6.626   4.226   4.527
 7798TIP3   OH223332   6.794   4.200   4.619
 7798TIP3    H123333   6.800   4.104   4.635
 7798TIP3    H223334   6.784   4.237   4.709
 7799TIP3   OH223335   5.770   4.146   4.805
 7799TIP3    H123336   5.776   4.057   4.764
 7799TIP3    H223337   5.807   4.129   4.893
 7800TIP3   OH223338   6.282   3.813   4.652
 7800TIP3    H123339   6.347   3.740   4.642
 7800TIP3    H223340   6.241   3.812   4.563
 7801TIP3   OH223341   6.350   4.027   4.811
 7801TIP3    H123342   6.328   3.957   4.746
 7801TIP3    H223343   6.273   4.087   4.803
 7802TIP3   OH223344   5.571   5.260   2.912
 7802TIP3    H123345   5.666   5.251   2.894
 7802TIP3    H223346   5.544   5.308   2.831
 7803TIP3   OH223347   5.052   4.638   3.131
 7803TIP3    H123348   5.146   4.662   3.114
 7803TIP3    H223349   5.048   4.550   3.089
 7804TIP3   OH223350   4.964   5.253   3.540
 7804TIP3    H123351   4.898   5.190   3.503
 7804TIP3    H223352   5.010   5.195   3.605
 7805TIP3   OH223353   5.099   5.105   3.723
 7805TIP3    H123354   5.083   5.041   3.796
 7805TIP3    H223355   5.154   5.168   3.773
 7806TIP3   OH223356   6.830   5.499   3.527
 7806TIP3    H123357   6.854   5.534   3.615
 7806TIP3    H223358   6.889   5.548   3.468
 7807TIP3   OH223359   6.857   5.523   3.809
 7807TIP3    H123360   6.810   5.437   3.804
 7807TIP3    H223361   6.930   5.497   3.867
 7808TIP3   OH223362   6.906   5.199   4.385
 7808TIP3    H123363   6.831   5.207   4.446
 7808TIP3    H223364   6.945   5.288   4.388
 7809TIP3   OH223365   6.720   4.710   3.003
 7809TIP3    H123366   6.787   4.775   2.974
 7809TIP3    H223367   6.764   4.672   3.082
 7810TIP3   OH223368   6.850   4.579   3.207
 7810TIP3    H123369   6.779   4.536   3.260
 7810TIP3    H223370   6.905   4.621   3.276
 7811TIP3   OH223371   6.909   4.976   3.644
 7811TIP3    H123372   6.953   4.907   3.591
 7811TIP3    H223373   6.891   5.045   3.577
 7812TIP3   OH223374   6.734   5.275   3.835
 7812TIP3    H123375   6.661   5.315   3.886
 7812TIP3    H223376   6.684   5.227   3.765
 7813TIP3   OH223377   6.786   4.487   2.851
 7813TIP3    H123378   6.714   4.490   2.784
 7813TIP3    H223379   6.757   4.562   2.908
 7814TIP3   OH223380   6.663   4.157   2.802
 7814TIP3    H123381   6.610   4.200   2.734
 7814TIP3    H223382   6.635   4.063   2.791
 7815TIP3   OH223383   6.661   4.439   3.346
 7815TIP3    H123384   6.663   4.342   3.338
 7815TIP3    H223385   6.646   4.450   3.443
 7816TIP3   OH223386   6.951   4.861   4.213
 7816TIP3    H123387   7.023   4.795   4.199
 7816TIP3    H223388   6.968   4.926   4.143
 7817TIP3   OH223389   7.137   4.665   4.222
 7817TIP3    H123390   7.060   4.618   4.260
 7817TIP3    H223391   7.208   4.599   4.240
 7818TIP3   OH223392   6.603   3.890   2.785
 7818TIP3    H123393   6.674   3.864   2.847
 7818TIP3    H223394   6.526   3.838   2.816
 7819TIP3   OH223395   6.662   4.162   3.243
 7819TIP3    H123396   6.693   4.071   3.266
 7819TIP3    H223397   6.723   4.185   3.172
 7820TIP3   OH223398   6.822   4.316   3.746
 7820TIP3    H123399   6.905   4.347   3.705
 7820TIP3    H223400   6.830   4.360   3.833
 7821TIP3   OH223401   6.891   4.471   3.973
 7821TIP3    H123402   6.812   4.502   4.022
 7821TIP3    H223403   6.920   4.553   3.929
 7822TIP3   OH223404   5.502   4.195   4.774
 7822TIP3    H123405   5.600   4.190   4.773
 7822TIP3    H223406   5.480   4.109   4.815
 7823TIP3   OH223407   7.344   4.066   4.530
 7823TIP3    H123408   7.400   3.998   4.486
 7823TIP3    H223409   7.310   4.117   4.453
 7824TIP3   OH223410   6.771   3.902   3.279
 7824TIP3    H123411   6.812   3.890   3.367
 7824TIP3    H223412   6.704   3.831   3.281
 7825TIP3   OH223413   5.471   3.907   4.110
 7825TIP3    H123414   5.531   3.830   4.116
 7825TIP3    H223415   5.537   3.978   4.094
 7826TIP3   OH223416   5.291   4.189   4.174
 7826TIP3    H123417   5.304   4.137   4.093
 7826TIP3    H223418   5.377   4.231   4.182
 7827TIP3   OH223419   7.210   4.200   4.335
 7827TIP3    H123420   7.124   4.243   4.353
 7827TIP3    H223421   7.179   4.128   4.276
 7828TIP3   OH223422   6.847   3.837   2.918
 7828TIP3    H123423   6.888   3.766   2.865
 7828TIP3    H223424   6.913   3.908   2.914
 7829TIP3   OH223425   5.251   3.657   3.674
 7829TIP3    H123426   5.158   3.653   3.705
 7829TIP3    H223427   5.245   3.720   3.599
 7830TIP3   OH223428   6.411   5.370   3.184
 7830TIP3    H123429   6.462   5.356   3.101
 7830TIP3    H223430   6.466   5.436   3.230
 7831TIP3   OH223431   5.471   3.744   4.491
 7831TIP3    H123432   5.420   3.743   4.574
 7831TIP3    H223433   5.407   3.785   4.430
 7832TIP3   OH223434   5.511   5.179   4.570
 7832TIP3    H123435   5.421   5.147   4.551
 7832TIP3    H223436   5.523   5.151   4.661
 7833TIP3   OH223437   5.689   5.211   4.117
 7833TIP3    H123438   5.644   5.288   4.076
 7833TIP3    H223439   5.776   5.222   4.074
 7834TIP3   OH223440   6.134   5.451   4.257
 7834TIP3    H123441   6.178   5.451   4.345
 7834TIP3    H223442   6.200   5.500   4.203
 7835TIP3   OH223443   6.312   5.603   4.114
 7835TIP3    H123444   6.379   5.550   4.069
 7835TIP3    H223445   6.367   5.658   4.174
 7836TIP3   OH223446   7.109   3.964   4.213
 7836TIP3    H123447   7.019   3.961   4.178
 7836TIP3    H223448   7.138   3.870   4.202
 7837TIP3   OH223449   5.365   5.462   4.140
 7837TIP3    H123450   5.277   5.498   4.118
 7837TIP3    H223451   5.377   5.498   4.229
 7838TIP3   OH223452   5.603   5.443   3.999
 7838TIP3    H123453   5.515   5.455   4.042
 7838TIP3    H223454   5.585   5.474   3.908
 7839TIP3   OH223455   6.026   5.468   3.799
 7839TIP3    H123456   5.961   5.488   3.730
 7839TIP3    H223457   6.040   5.557   3.839
 7840TIP3   OH223458   6.298   5.413   3.849
 7840TIP3    H123459   6.204   5.426   3.827
 7840TIP3    H223460   6.341   5.486   3.802
 7841TIP3   OH223461   6.505   5.601   3.763
 7841TIP3    H123462   6.492   5.685   3.713
 7841TIP3    H223463   6.531   5.540   3.691
 7842TIP3   OH223464   5.278   5.261   3.887
 7842TIP3    H123465   5.306   5.232   3.976
 7842TIP3    H223466   5.348   5.215   3.834
 7843TIP3   OH223467   5.470   5.134   3.742
 7843TIP3    H123468   5.486   5.053   3.795
 7843TIP3    H223469   5.560   5.171   3.736
 7844TIP3   OH223470   5.735   5.239   3.743
 7844TIP3    H123471   5.753   5.145   3.725
 7844TIP3    H223472   5.785   5.251   3.826
 7845TIP3   OH223473   6.336   3.881   3.852
 7845TIP3    H123474   6.271   3.821   3.892
 7845TIP3    H223475   6.383   3.824   3.789
 7846TIP3   OH223476   6.843   3.756   3.737
 7846TIP3    H123477   6.875   3.812   3.663
 7846TIP3    H223478   6.746   3.773   3.734
 7847TIP3   OH223479   6.934   3.857   3.500
 7847TIP3    H123480   7.008   3.810   3.458
 7847TIP3    H223481   6.962   3.951   3.487
 7848TIP3   OH223482   5.564   3.583   3.849
 7848TIP3    H123483   5.471   3.554   3.852
 7848TIP3    H223484   5.611   3.497   3.846
 7849TIP3   OH223485   5.338   3.459   3.492
 7849TIP3    H123486   5.375   3.518   3.424
 7849TIP3    H223487   5.315   3.523   3.563
 7850TIP3   OH223488   6.007   3.617   3.731
 7850TIP3    H123489   6.061   3.672   3.671
 7850TIP3    H223490   6.019   3.664   3.815
 7851TIP3   OH223491   6.569   3.762   3.711
 7851TIP3    H123492   6.540   3.739   3.622
 7851TIP3    H223493   6.544   3.683   3.764
 7852TIP3   OH223494   6.582   3.691   3.274
 7852TIP3    H123495   6.499   3.739   3.291
 7852TIP3    H223496   6.564   3.607   3.321
 7853TIP3   OH223497   5.066   5.029   3.280
 7853TIP3    H123498   4.982   4.994   3.244
 7853TIP3    H223499   5.055   5.123   3.258
 7854TIP3   OH223500   5.467   3.617   3.258
 7854TIP3    H123501   5.519   3.557   3.202
 7854TIP3    H223502   5.538   3.673   3.296
 7855TIP3   OH223503   5.982   3.785   3.358
 7855TIP3    H123504   6.045   3.747   3.421
 7855TIP3    H223505   5.991   3.879   3.384
 7856TIP3   OH223506   5.837   5.216   2.858
 7856TIP3    H123507   5.926   5.238   2.823
 7856TIP3    H223508   5.816   5.141   2.798
 7857TIP3   OH223509   6.558   5.335   2.952
 7857TIP3    H123510   6.550   5.237   2.940
 7857TIP3    H223511   6.512   5.366   2.871
 7858TIP3   OH223512   5.768   3.865   4.741
 7858TIP3    H123513   5.736   3.794   4.799
 7858TIP3    H223514   5.863   3.867   4.767
 7859TIP3   OH223515   6.019   3.867   4.860
 7859TIP3    H123516   6.103   3.842   4.818
 7859TIP3    H223517   6.008   3.795   4.926
 7860TIP3   OH223518   5.143   5.053   2.914
 7860TIP3    H123519   5.148   5.074   3.008
 7860TIP3    H223520   5.231   5.011   2.897
 7861TIP3   OH223521   6.846   3.927   4.647
 7861TIP3    H123522   6.864   3.896   4.738
 7861TIP3    H223523   6.934   3.921   4.606
 7862TIP3   OH223524   6.784   5.479   4.140
 7862TIP3    H123525   6.706   5.447   4.089
 7862TIP3    H223526   6.763   5.575   4.143
 7863TIP3   OH223527   8.043   4.861   2.913
 7863TIP3    H123528   8.009   4.946   2.877
 7863TIP3    H223529   7.976   4.801   2.876
 7864TIP3   OH223530   8.049   4.856   3.322
 7864TIP3    H123531   8.076   4.768   3.356
 7864TIP3    H223532   8.020   4.829   3.234
 7865TIP3   OH223533   7.351   4.744   3.645
 7865TIP3    H123534   7.379   4.677   3.710
 7865TIP3    H223535   7.423   4.808   3.651
 7866TIP3   OH223536   8.301   5.144   2.957
 7866TIP3    H123537   8.247   5.090   3.015
 7866TIP3    H223538   8.320   5.224   3.010
 7867TIP3   OH223539   7.321   5.160   3.378
 7867TIP3    H123540   7.313   5.062   3.380
 7867TIP3    H223541   7.417   5.168   3.367
 7868TIP3   OH223542   7.029   4.362   3.160
 7868TIP3    H123543   6.976   4.443   3.177
 7868TIP3    H223544   6.959   4.305   3.123
 7869TIP3   OH223545   7.092   4.651   3.336
 7869TIP3    H123546   7.137   4.570   3.369
 7869TIP3    H223547   7.137   4.666   3.252
 7870TIP3   OH223548   7.939   5.620   2.981
 7870TIP3    H123549   7.986   5.548   2.935
 7870TIP3    H223550   7.925   5.583   3.069
 7871TIP3   OH223551   7.832   5.075   3.334
 7871TIP3    H123552   7.852   4.988   3.296
 7871TIP3    H223553   7.909   5.126   3.306
 7872TIP3   OH223554   8.245   4.628   3.374
 7872TIP3    H123555   8.264   4.538   3.408
 7872TIP3    H223556   8.211   4.603   3.287
 7873TIP3   OH223557   7.597   4.239   3.333
 7873TIP3    H123558   7.579   4.310   3.269
 7873TIP3    H223559   7.550   4.165   3.288
 7874TIP3   OH223560   7.232   4.440   3.438
 7874TIP3    H123561   7.314   4.418   3.487
 7874TIP3    H223562   7.243   4.383   3.359
 7875TIP3   OH223563   7.674   4.637   3.232
 7875TIP3    H123564   7.767   4.609   3.246
 7875TIP3    H223565   7.633   4.554   3.200
 7876TIP3   OH223566   7.595   4.223   3.768
 7876TIP3    H123567   7.534   4.258   3.700
 7876TIP3    H223568   7.542   4.239   3.848
 7877TIP3   OH223569   7.938   5.073   2.774
 7877TIP3    H123570   7.897   5.055   2.688
 7877TIP3    H223571   7.894   5.157   2.798
 7878TIP3   OH223572   7.699   4.995   3.566
 7878TIP3    H123573   7.635   5.059   3.605
 7878TIP3    H223574   7.729   5.045   3.488
 7879TIP3   OH223575   7.467   4.338   3.552
 7879TIP3    H123576   7.532   4.408   3.574
 7879TIP3    H223577   7.513   4.296   3.475
 7880TIP3   OH223578   7.530   5.190   3.660
 7880TIP3    H123579   7.504   5.276   3.620
 7880TIP3    H223580   7.450   5.174   3.715
 7881TIP3   OH223581   6.924   4.881   2.894
 7881TIP3    H123582   6.881   4.907   2.811
 7881TIP3    H223583   6.954   4.967   2.930
 7882TIP3   OH223584   8.361   5.388   3.142
 7882TIP3    H123585   8.271   5.387   3.182
 7882TIP3    H223586   8.358   5.471   3.090
 7883TIP3   OH223587   7.943   3.929   3.480
 7883TIP3    H123588   7.922   3.835   3.498
 7883TIP3    H223589   7.867   3.973   3.524
 7884TIP3   OH223590   8.071   5.442   2.821
 7884TIP3    H123591   8.115   5.360   2.789
 7884TIP3    H223592   8.129   5.508   2.775
 7885TIP3   OH223593   8.198   5.227   2.712
 7885TIP3    H123594   8.153   5.149   2.678
 7885TIP3    H223595   8.251   5.192   2.785
 7886TIP3   OH223596   8.627   5.273   3.471
 7886TIP3    H123597   8.567   5.265   3.394
 7886TIP3    H223598   8.626   5.371   3.479
 7887TIP3   OH223599   7.886   4.707   2.739
 7887TIP3    H123600   7.802   4.756   2.722
 7887TIP3    H223601   7.922   4.700   2.650
 7888TIP3   OH223602   7.839   4.484   2.455
 7888TIP3    H123603   7.907   4.540   2.497
 7888TIP3    H223604   7.896   4.423   2.405
 7889TIP3   OH223605   8.217   4.788   2.710
 7889TIP3    H123606   8.163   4.816   2.788
 7889TIP3    H223607   8.291   4.742   2.754
 7890TIP3   OH223608   8.452   4.860   3.578
 7890TIP3    H123609   8.457   4.884   3.672
 7890TIP3    H223610   8.381   4.793   3.575
 7891TIP3   OH223611   7.460   4.782   3.124
 7891TIP3    H123612   7.415   4.726   3.057
 7891TIP3    H223613   7.535   4.726   3.151
 7892TIP3   OH223614   7.583   5.196   3.269
 7892TIP3    H123615   7.556   5.162   3.182
 7892TIP3    H223616   7.669   5.153   3.285
 7893TIP3   OH223617   7.613   4.747   3.483
 7893TIP3    H123618   7.629   4.728   3.388
 7893TIP3    H223619   7.636   4.841   3.492
 7894TIP3   OH223620   8.120   5.388   3.282
 7894TIP3    H123621   8.112   5.485   3.275
 7894TIP3    H223622   8.103   5.380   3.377
 7895TIP3   OH223623   7.735   5.308   3.803
 7895TIP3    H123624   7.676   5.372   3.848
 7895TIP3    H223625   7.668   5.258   3.752
 7896TIP3   OH223626   8.069   4.637   2.532
 7896TIP3    H123627   8.122   4.703   2.581
 7896TIP3    H223628   8.095   4.659   2.439
 7897TIP3   OH223629   7.489   4.866   3.905
 7897TIP3    H123630   7.493   4.953   3.948
 7897TIP3    H223631   7.394   4.845   3.918
 7898TIP3   OH223632   7.815   5.323   2.815
 7898TIP3    H123633   7.890   5.384   2.824
 7898TIP3    H223634   7.750   5.375   2.765
 7899TIP3   OH223635   7.531   5.478   3.891
 7899TIP3    H123636   7.495   5.480   3.800
 7899TIP3    H223637   7.451   5.455   3.944
 7900TIP3   OH223638   7.325   4.628   2.932
 7900TIP3    H123639   7.259   4.672   2.874
 7900TIP3    H223640   7.286   4.540   2.941
 7901TIP3   OH223641   8.380   5.256   2.134
 7901TIP3    H123642   8.374   5.349   2.107
 7901TIP3    H223643   8.464   5.229   2.094
 7902TIP3   OH223644   7.109   5.010   3.836
 7902TIP3    H123645   7.038   4.994   3.770
 7902TIP3    H223646   7.141   4.919   3.854
 7903TIP3   OH223647   6.961   5.207   3.464
 7903TIP3    H123648   7.057   5.203   3.461
 7903TIP3    H223649   6.945   5.285   3.520
 7904TIP3   OH223650   7.934   5.433   3.660
 7904TIP3    H123651   7.933   5.526   3.692
 7904TIP3    H223652   7.860   5.395   3.714
 7905TIP3   OH223653   7.695   5.567   2.614
 7905TIP3    H123654   7.649   5.548   2.529
 7905TIP3    H223655   7.661   5.655   2.636
 7906TIP3   OH223656   7.131   5.418   2.995
 7906TIP3    H123657   7.176   5.409   3.082
 7906TIP3    H223658   7.074   5.339   2.996
 7907TIP3   OH223659   7.894   5.473   2.251
 7907TIP3    H123660   7.953   5.404   2.213
 7907TIP3    H223661   7.930   5.482   2.341
 7908TIP3   OH223662   7.945   5.520   2.520
 7908TIP3    H123663   7.856   5.529   2.562
 7908TIP3    H223664   7.996   5.477   2.590
 7909TIP3   OH223665   7.313   5.191   3.823
 7909TIP3    H123666   7.360   5.175   3.908
 7909TIP3    H223667   7.238   5.129   3.830
 7910TIP3   OH223668   7.712   4.016   3.611
 7910TIP3    H123669   7.624   3.985   3.582
 7910TIP3    H223670   7.686   4.099   3.656
 7911TIP3   OH223671   8.214   4.150   3.788
 7911TIP3    H123672   8.278   4.107   3.848
 7911TIP3    H223673   8.129   4.127   3.830
 7912TIP3   OH223674   8.522   4.548   3.738
 7912TIP3    H123675   8.459   4.551   3.814
 7912TIP3    H223676   8.488   4.617   3.681
 7913TIP3   OH223677   8.148   4.690   2.279
 7913TIP3    H123678   8.115   4.662   2.191
 7913TIP3    H223679   8.212   4.757   2.253
 7914TIP3   OH223680   7.867   4.062   2.581
 7914TIP3    H123681   7.835   4.063   2.674
 7914TIP3    H223682   7.820   3.984   2.548
 7915TIP3   OH223683   7.650   4.532   3.637
 7915TIP3    H123684   7.588   4.549   3.712
 7915TIP3    H223685   7.630   4.609   3.578
 7916TIP3   OH223686   7.527   4.420   3.143
 7916TIP3    H123687   7.434   4.393   3.161
 7916TIP3    H223688   7.540   4.379   3.055
 7917TIP3   OH223689   8.025   4.505   2.871
 7917TIP3    H123690   7.969   4.575   2.830
 7917TIP3    H223691   8.072   4.469   2.794
 7918TIP3   OH223692   8.196   4.781   3.952
 7918TIP3    H123693   8.167   4.709   4.012
 7918TIP3    H223694   8.288   4.792   3.980
 7919TIP3   OH223695   8.172   4.526   3.109
 7919TIP3    H123696   8.119   4.527   3.027
 7919TIP3    H223697   8.213   4.437   3.100
 7920TIP3   OH223698   7.468   4.561   3.838
 7920TIP3    H123699   7.471   4.625   3.910
 7920TIP3    H223700   7.450   4.478   3.886
 7921TIP3   OH223701   7.514   4.038   2.547
 7921TIP3    H123702   7.503   4.038   2.644
 7921TIP3    H223703   7.436   4.091   2.520
 7922TIP3   OH223704   7.057   4.082   3.416
 7922TIP3    H123705   7.132   4.113   3.470
 7922TIP3    H223706   7.098   4.050   3.334
 7923TIP3   OH223707   7.027   4.064   2.936
 7923TIP3    H123708   7.072   4.102   2.858
 7923TIP3    H223709   6.965   4.136   2.957
 7924TIP3   OH223710   7.852   4.258   3.204
 7924TIP3    H123711   7.776   4.246   3.264
 7924TIP3    H223712   7.926   4.225   3.259
 7925TIP3   OH223713   7.289   4.297   3.210
 7925TIP3    H123714   7.195   4.306   3.183
 7925TIP3    H223715   7.310   4.205   3.187
 7926TIP3   OH223716   7.554   4.291   2.902
 7926TIP3    H123717   7.648   4.307   2.883
 7926TIP3    H223718   7.509   4.314   2.818
 7927TIP3   OH223719   8.283   4.365   3.399
 7927TIP3    H123720   8.260   4.330   3.487
 7927TIP3    H223721   8.292   4.286   3.345
 7928TIP3   OH223722   7.402   4.326   2.678
 7928TIP3    H123723   7.330   4.281   2.631
 7928TIP3    H223724   7.453   4.363   2.603
 7929TIP3   OH223725   8.514   6.010   3.628
 7929TIP3    H123726   8.505   6.011   3.530
 7929TIP3    H223727   8.560   6.094   3.642
 7930TIP3   OH223728   7.476   5.114   4.045
 7930TIP3    H123729   7.553   5.146   4.095
 7930TIP3    H223730   7.409   5.111   4.116
 7931TIP3   OH223731   7.943   4.568   3.311
 7931TIP3    H123732   8.001   4.519   3.252
 7931TIP3    H223733   7.946   4.514   3.393
 7932TIP3   OH223734   7.462   4.056   3.181
 7932TIP3    H123735   7.425   3.977   3.227
 7932TIP3    H223736   7.509   4.015   3.106
 7933TIP3   OH223737   7.913   4.461   3.588
 7933TIP3    H123738   7.822   4.494   3.604
 7933TIP3    H223739   7.969   4.520   3.642
 7934TIP3   OH223740   7.652   4.855   2.690
 7934TIP3    H123741   7.580   4.790   2.676
 7934TIP3    H223742   7.631   4.889   2.780
 7935TIP3   OH223743   8.556   5.099   3.283
 7935TIP3    H123744   8.580   5.130   3.193
 7935TIP3    H223745   8.489   5.032   3.260
 7936TIP3   OH223746   8.115   4.167   2.527
 7936TIP3    H123747   8.022   4.142   2.551
 7936TIP3    H223748   8.119   4.261   2.555
 7937TIP3   OH223749   8.066   5.167   3.683
 7937TIP3    H123750   8.048   5.138   3.777
 7937TIP3    H223751   8.026   5.259   3.688
 7938TIP3   OH223752   8.200   4.417   2.631
 7938TIP3    H123753   8.279   4.462   2.663
 7938TIP3    H223754   8.153   4.490   2.585
 7939TIP3   OH223755   7.357   4.886   3.364
 7939TIP3    H123756   7.384   4.850   3.277
 7939TIP3    H223757   7.368   4.810   3.423
 7940TIP3   OH223758   7.800   5.007   2.516
 7940TIP3    H123759   7.751   5.093   2.515
 7940TIP3    H223760   7.742   4.952   2.572
 7941TIP3   OH223761   7.228   4.790   3.971
 7941TIP3    H123762   7.236   4.777   4.068
 7941TIP3    H223763   7.152   4.734   3.950
 7942TIP3   OH223764   7.949   4.912   3.994
 7942TIP3    H123765   7.883   4.852   3.956
 7942TIP3    H223766   8.032   4.874   3.960
 7943TIP3   OH223767   8.195   5.412   3.571
 7943TIP3    H123768   8.105   5.435   3.600
 7943TIP3    H223769   8.246   5.461   3.638
 7944TIP3   OH223770   8.311   5.333   2.394
 7944TIP3    H123771   8.303   5.269   2.466
 7944TIP3    H223772   8.336   5.280   2.317
 7945TIP3   OH223773   7.445   5.183   2.990
 7945TIP3    H123774   7.443   5.264   2.934
 7945TIP3    H223775   7.351   5.163   2.996
 7946TIP3   OH223776   7.010   4.486   2.691
 7946TIP3    H123777   7.053   4.571   2.711
 7946TIP3    H223778   6.932   4.490   2.751
 7947TIP3   OH223779   7.586   4.949   2.936
 7947TIP3    H123780   7.548   5.038   2.950
 7947TIP3    H223781   7.543   4.897   3.006
 7948TIP3   OH223782   7.714   5.526   3.453
 7948TIP3    H123783   7.750   5.600   3.401
 7948TIP3    H223784   7.790   5.502   3.507
 7949TIP3   OH223785   7.366   5.419   2.841
 7949TIP3    H123786   7.279   5.429   2.884
 7949TIP3    H223787   7.398   5.512   2.841
 7950TIP3   OH223788   8.059   5.055   2.307
 7950TIP3    H123789   8.111   5.030   2.387
 7950TIP3    H223790   7.970   5.027   2.333
 7951TIP3   OH223791   8.350   5.690   3.455
 7951TIP3    H123792   8.265   5.645   3.443
 7951TIP3    H223793   8.340   5.763   3.389
 7952TIP3   OH223794   7.431   4.304   3.981
 7952TIP3    H123795   7.334   4.310   3.992
 7952TIP3    H223796   7.456   4.244   4.052
 7953TIP3   OH223797   8.224   4.987   2.520
 7953TIP3    H123798   8.216   4.915   2.587
 7953TIP3    H223799   8.316   5.014   2.533
 7954TIP3   OH223800   7.154   5.388   3.612
 7954TIP3    H123801   7.204   5.313   3.648
 7954TIP3    H223802   7.177   5.458   3.674
 7955TIP3   OH223803   7.444   5.034   2.297
 7955TIP3    H123804   7.452   4.942   2.265
 7955TIP3    H223805   7.422   5.019   2.391
 7956TIP3   OH223806   7.387   5.038   2.570
 7956TIP3    H123807   7.460   5.014   2.628
 7956TIP3    H223808   7.389   5.136   2.574
 7957TIP3   OH223809   7.124   4.732   2.772
 7957TIP3    H123810   7.056   4.777   2.828
 7957TIP3    H223811   7.135   4.801   2.703
 7958TIP3   OH223812   8.263   4.399   3.688
 7958TIP3    H123813   8.358   4.399   3.705
 7958TIP3    H223814   8.237   4.311   3.724
 7959TIP3   OH223815   8.114   4.132   2.828
 7959TIP3    H123816   8.141   4.164   2.741
 7959TIP3    H223817   8.185   4.165   2.887
 7960TIP3   OH223818   7.656   5.236   2.521
 7960TIP3    H123819   7.567   5.262   2.553
 7960TIP3    H223820   7.669   5.301   2.451
 7961TIP3   OH223821   7.834   4.303   2.932
 7961TIP3    H123822   7.908   4.365   2.915
 7961TIP3    H223823   7.842   4.292   3.030
 7962TIP3   OH223824   8.088   4.611   3.739
 7962TIP3    H123825   8.128   4.664   3.810
 7962TIP3    H223826   8.153   4.538   3.728
 7963TIP3   OH223827   7.982   4.019   3.038
 7963TIP3    H123828   7.994   4.088   3.105
 7963TIP3    H223829   8.036   4.057   2.965
 7964TIP3   OH223830   7.399   5.310   2.585
 7964TIP3    H123831   7.369   5.379   2.521
 7964TIP3    H223832   7.382   5.354   2.671
 7965TIP3   OH223833   7.498   4.025   2.824
 7965TIP3    H123834   7.494   4.116   2.860
 7965TIP3    H223835   7.595   4.009   2.832
 7966TIP3   OH223836   8.403   4.685   3.133
 7966TIP3    H123837   8.312   4.659   3.108
 7966TIP3    H223838   8.414   4.627   3.211
 7967TIP3   OH223839   7.114   4.938   2.578
 7967TIP3    H123840   7.179   5.011   2.584
 7967TIP3    H223841   7.159   4.883   2.510
 7968TIP3   OH223842   7.058   4.216   2.710
 7968TIP3    H123843   7.060   4.314   2.708
 7968TIP3    H223844   6.972   4.197   2.671
 7969TIP3   OH223845   8.385   5.662   3.053
 7969TIP3    H123846   8.334   5.708   2.982
 7969TIP3    H223847   8.474   5.685   3.026
 7970TIP3   OH223848   7.449   3.937   3.583
 7970TIP3    H123849   7.416   3.904   3.496
 7970TIP3    H223850   7.436   3.858   3.640
 7971TIP3   OH223851   6.986   5.154   2.963
 7971TIP3    H123852   6.917   5.184   3.025
 7971TIP3    H223853   6.955   5.196   2.879
 7972TIP3   OH223854   7.142   5.697   4.037
 7972TIP3    H123855   7.229   5.695   4.083
 7972TIP3    H223856   7.119   5.603   4.035
 7973TIP3   OH223857   7.625   5.658   4.085
 7973TIP3    H123858   7.720   5.640   4.084
 7973TIP3    H223859   7.595   5.601   4.011
 7974TIP3   OH223860   7.608   5.237   2.211
 7974TIP3    H123861   7.552   5.163   2.244
 7974TIP3    H223862   7.681   5.188   2.169
 7975TIP3   OH223863   8.270   5.554   3.802
 7975TIP3    H123864   8.259   5.493   3.879
 7975TIP3    H223865   8.338   5.616   3.835
 7976TIP3   OH223866   8.036   5.280   2.118
 7976TIP3    H123867   8.081   5.216   2.175
 7976TIP3    H223868   8.088   5.277   2.035
 7977TIP3   OH223869   7.273   5.104   4.236
 7977TIP3    H123870   7.288   5.007   4.241
 7977TIP3    H223871   7.186   5.107   4.191
 7978TIP3   OH223872   7.248   4.754   2.429
 7978TIP3    H123873   7.305   4.722   2.501
 7978TIP3    H223874   7.314   4.758   2.356
 7979TIP3   OH223875   7.884   5.189   4.008
 7979TIP3    H123876   7.833   5.206   3.926
 7979TIP3    H223877   7.907   5.094   4.000
 7980TIP3   OH223878   7.765   4.954   2.242
 7980TIP3    H123879   7.761   4.963   2.339
 7980TIP3    H223880   7.765   4.856   2.232
 7981TIP3   OH223881   7.394   4.842   4.219
 7981TIP3    H123882   7.463   4.778   4.200
 7981TIP3    H223883   7.420   4.873   4.308
 7982TIP3   OH223884   7.463   4.657   2.655
 7982TIP3    H123885   7.429   4.612   2.734
 7982TIP3    H223886   7.496   4.582   2.602
 7983TIP3   OH223887   7.736   4.738   3.887
 7983TIP3    H123888   7.649   4.783   3.896
 7983TIP3    H223889   7.754   4.752   3.793
 7984TIP3   OH223890   7.558   4.451   2.492
 7984TIP3    H123891   7.532   4.457   2.397
 7984TIP3    H223892   7.656   4.455   2.484
 7985TIP3   OH223893   8.247   5.120   4.009
 7985TIP3    H123894   8.342   5.110   3.999
 7985TIP3    H223895   8.227   5.054   4.078
 7986TIP3   OH223896   7.852   4.511   4.005
 7986TIP3    H123897   7.851   4.431   3.948
 7986TIP3    H223898   7.810   4.578   3.947
 7987TIP3   OH223899   7.853   4.297   3.814
 7987TIP3    H123900   7.880   4.336   3.728
 7987TIP3    H223901   7.759   4.275   3.796
 7988TIP3   OH223902   7.930   4.882   3.666
 7988TIP3    H123903   7.932   4.792   3.630
 7988TIP3    H223904   7.842   4.916   3.638
 7989TIP3   OH223905   8.462   4.801   4.069
 7989TIP3    H123906   8.499   4.711   4.072
 7989TIP3    H223907   8.540   4.854   4.045
 7990TIP3   OH223908   8.522   5.060   3.787
 7990TIP3    H123909   8.494   5.149   3.760
 7990TIP3    H223910   8.604   5.047   3.737
 7991TIP3   OH223911   7.732   4.620   4.238
 7991TIP3    H123912   7.662   4.552   4.253
 7991TIP3    H223913   7.763   4.594   4.149
 7992TIP3   OH223914   7.976   4.060   3.884
 7992TIP3    H123915   7.924   4.141   3.862
 7992TIP3    H223916   7.908   3.990   3.872
 7993TIP3   OH223917   8.110   4.567   4.095
 7993TIP3    H123918   8.094   4.551   4.190
 7993TIP3    H223919   8.021   4.542   4.061
 7994TIP3   OH223920   8.359   4.526   3.955
 7994TIP3    H123921   8.274   4.522   4.004
 7994TIP3    H223922   8.419   4.477   4.015
 7995TIP3   OH223923   8.549   4.417   4.114
 7995TIP3    H123924   8.606   4.344   4.141
 7995TIP3    H223925   8.562   4.481   4.187
 7996TIP3   OH223926   7.571   4.401   4.289
 7996TIP3    H123927   7.572   4.309   4.255
 7996TIP3    H223928   7.605   4.387   4.380
 7997TIP3   OH223929   8.080   4.071   4.138
 7997TIP3    H123930   8.136   3.991   4.135
 7997TIP3    H223931   8.038   4.067   4.050
 7998TIP3   OH223932   8.149   4.287   4.296
 7998TIP3    H123933   8.126   4.216   4.232
 7998TIP3    H223934   8.070   4.346   4.291
 7999TIP3   OH223935   7.367   5.512   2.399
 7999TIP3    H123936   7.462   5.508   2.378
 7999TIP3    H223937   7.336   5.562   2.321
 8000TIP3   OH223938   6.846   4.895   2.615
 8000TIP3    H123939   6.940   4.917   2.599
 8000TIP3    H223940   6.840   4.806   2.573
 8001TIP3   OH223941   6.762   5.507   3.028
 8001TIP3    H123942   6.695   5.446   2.990
 8001TIP3    H223943   6.806   5.448   3.093
 8002TIP3   OH223944   6.897   5.356   3.214
 8002TIP3    H123945   6.883   5.285   3.278
 8002TIP3    H223946   6.947   5.419   3.269
 8003TIP3   OH223947   8.697   5.749   3.290
 8003TIP3    H123948   8.639   5.670   3.291
 8003TIP3    H223949   8.675   5.790   3.374
 8004TIP3   OH223950   8.664   5.470   3.867
 8004TIP3    H123951   8.600   5.473   3.941
 8004TIP3    H223952   8.703   5.560   3.870
 8005TIP3   OH223953   8.532   5.519   3.335
 8005TIP3    H123954   8.464   5.572   3.382
 8005TIP3    H223955   8.479   5.479   3.263
 8006TIP3   OH223956   8.432   4.662   2.828
 8006TIP3    H123957   8.511   4.604   2.844
 8006TIP3    H223958   8.431   4.709   2.913
 8007TIP3   OH223959   7.083   4.761   3.588
 8007TIP3    H123960   7.079   4.732   3.494
 8007TIP3    H223961   7.181   4.763   3.602
 8008TIP3   OH223962   7.304   4.455   4.268
 8008TIP3    H123963   7.401   4.444   4.266
 8008TIP3    H223964   7.277   4.367   4.303
 8009TIP3   OH223965   7.264   4.144   3.587
 8009TIP3    H123966   7.326   4.070   3.598
 8009TIP3    H223967   7.326   4.220   3.584
 8010TIP3   OH223968   7.068   4.417   3.668
 8010TIP3    H123969   7.113   4.412   3.581
 8010TIP3    H223970   7.088   4.508   3.694
 8011TIP3   OH223971   7.049   3.919   3.164
 8011TIP3    H123972   6.956   3.916   3.195
 8011TIP3    H223973   7.043   3.980   3.087
 8012TIP3   OH223974   8.209   5.622   2.676
 8012TIP3    H123975   8.253   5.608   2.589
 8012TIP3    H223976   8.261   5.695   2.712
 8013TIP3   OH223977   7.271   4.001   3.979
 8013TIP3    H123978   7.218   3.996   4.061
 8013TIP3    H223979   7.206   4.042   3.919
 8014TIP3   OH223980   7.310   5.428   4.057
 8014TIP3    H123981   7.217   5.404   4.037
 8014TIP3    H223982   7.314   5.411   4.152
 8015TIP3   OH223983   7.489   5.462   3.604
 8015TIP3    H123984   7.437   5.535   3.566
 8015TIP3    H223985   7.573   5.479   3.556
 8016TIP3   OH223986   7.933   5.698   3.739
 8016TIP3    H123987   7.973   5.707   3.829
 8016TIP3    H223988   7.996   5.753   3.686
 8017TIP3   OH223989   8.108   5.851   3.597
 8017TIP3    H123990   8.185   5.814   3.552
 8017TIP3    H223991   8.154   5.909   3.662
 8018TIP3   OH223992   7.164   5.720   3.629
 8018TIP3    H123993   7.075   5.751   3.602
 8018TIP3    H223994   7.170   5.760   3.716
 8019TIP3   OH223995   7.400   5.696   3.485
 8019TIP3    H123996   7.313   5.710   3.530
 8019TIP3    H223997   7.380   5.730   3.396
 8020TIP3   OH223998   7.825   5.723   3.284
 8020TIP3    H123999   7.756   5.743   3.218
 8020TIP3    H224000   7.838   5.812   3.324
 8021TIP3   OH224001   8.094   5.652   3.320
 8021TIP3    H124002   8.001   5.682   3.310
 8021TIP3    H224003   8.142   5.732   3.289
 8022TIP3   OH224004   8.273   5.844   3.244
 8022TIP3    H124005   8.278   5.938   3.214
 8022TIP3    H224006   8.313   5.798   3.167
 8023TIP3   OH224007   7.075   5.514   3.372
 8023TIP3    H124008   7.100   5.486   3.462
 8023TIP3    H224009   7.145   5.469   3.320
 8024TIP3   OH224010   7.267   5.384   3.230
 8024TIP3    H124011   7.283   5.302   3.281
 8024TIP3    H224012   7.358   5.421   3.223
 8025TIP3   OH224013   7.534   5.479   3.231
 8025TIP3    H124014   7.563   5.387   3.219
 8025TIP3    H224015   7.578   5.500   3.316
 8026TIP3   OH224016   8.073   4.128   3.298
 8026TIP3    H124017   8.068   4.046   3.350
 8026TIP3    H224018   8.155   4.117   3.246
 8027TIP3   OH224019   7.359   3.844   3.335
 8027TIP3    H124020   7.266   3.812   3.338
 8027TIP3    H224021   7.407   3.759   3.331
 8028TIP3   OH224022   7.147   3.714   2.984
 8028TIP3    H124023   7.174   3.773   2.911
 8028TIP3    H224024   7.116   3.778   3.051
 8029TIP3   OH224025   7.803   3.873   3.216
 8029TIP3    H124026   7.856   3.921   3.150
 8029TIP3    H224027   7.830   3.917   3.298
 8030TIP3   OH224028   6.863   5.287   2.764
 8030TIP3    H124029   6.777   5.253   2.730
 8030TIP3    H224030   6.853   5.381   2.740
 8031TIP3   OH224031   7.263   3.872   2.747
 8031TIP3    H124032   7.312   3.811   2.689
 8031TIP3    H224033   7.335   3.927   2.783
 8032TIP3   OH224034   7.778   4.050   2.846
 8032TIP3    H124035   7.842   4.009   2.906
 8032TIP3    H224036   7.795   4.144   2.868
 8033TIP3   OH224037   7.635   5.473   2.347
 8033TIP3    H124038   7.723   5.496   2.310
 8033TIP3    H224039   7.613   5.399   2.286
 8034TIP3   OH224040   8.342   5.597   2.442
 8034TIP3    H124041   8.341   5.500   2.429
 8034TIP3    H224042   8.315   5.627   2.354
 8035TIP3   OH224043   7.566   4.127   4.229
 8035TIP3    H124044   7.530   4.056   4.284
 8035TIP3    H224045   7.660   4.125   4.257
 8036TIP3   OH224046   7.816   4.122   4.348
 8036TIP3    H124047   7.901   4.094   4.309
 8036TIP3    H224048   7.802   4.052   4.415
 8037TIP3   OH224049   6.938   5.309   2.400
 8037TIP3    H124050   6.940   5.336   2.493
 8037TIP3    H224051   7.026   5.267   2.388
 8038TIP3   OH224052   8.567   5.741   3.636
 8038TIP3    H124053   8.494   5.712   3.578
 8038TIP3    H224054   8.556   5.838   3.634
 8039TIP3   OH224055   0.509   5.638   4.601
 8039TIP3    H124056   0.488   5.733   4.592
 8039TIP3    H224057   0.429   5.599   4.561
 8040TIP3   OH224058   0.541   5.614   4.955
 8040TIP3    H124059   0.533   5.594   5.049
 8040TIP3    H224060   0.471   5.559   4.917
 8041TIP3   OH224061   0.741   5.941   4.660
 8041TIP3    H124062   0.732   5.869   4.723
 8041TIP3    H224063   0.778   6.013   4.714
 8042TIP3   OH224064   0.458   6.423   4.685
 8042TIP3    H124065   0.496   6.345   4.639
 8042TIP3    H224066   0.376   6.384   4.722
 8043TIP3   OH224067   0.338   5.804   5.062
 8043TIP3    H124068   0.325   5.781   4.969
 8043TIP3    H224069   0.406   5.873   5.054
 8044TIP3   OH224070   1.315   5.184   5.023
 8044TIP3    H124071   1.344   5.268   5.063
 8044TIP3    H224072   1.336   5.200   4.929
 8045TIP3   OH224073   0.711   5.366   5.062
 8045TIP3    H124074   0.755   5.280   5.076
 8045TIP3    H224075   0.681   5.357   4.970
 8046TIP3   OH224076   0.745   5.121   4.644
 8046TIP3    H124077   0.817   5.104   4.709
 8046TIP3    H224078   0.797   5.153   4.568
 8047TIP3   OH224079   1.388   5.393   5.193
 8047TIP3    H124080   1.305   5.440   5.172
 8047TIP3    H224081   1.403   5.423   5.284
 8048TIP3   OH224082   0.411   5.865   4.460
 8048TIP3    H124083   0.360   5.801   4.409
 8048TIP3    H224084   0.346   5.896   4.526
 8049TIP3   OH224085   0.954   5.121   4.816
 8049TIP3    H124086   0.946   5.070   4.898
 8049TIP3    H224087   1.007   5.197   4.844
 8050TIP3   OH224088   0.810   6.184   4.830
 8050TIP3    H124089   0.718   6.182   4.863
 8050TIP3    H224090   0.810   6.268   4.780
 8051TIP3   OH224091   1.106   5.085   5.189
 8051TIP3    H124092   1.019   5.111   5.155
 8051TIP3    H224093   1.166   5.117   5.118
 8052TIP3   OH224094   0.410   4.719   5.159
 8052TIP3    H124095   0.401   4.623   5.177
 8052TIP3    H224096   0.357   4.756   5.231
 8053TIP3   OH224097   0.516   6.220   4.494
 8053TIP3    H124098   0.563   6.136   4.471
 8053TIP3    H224099   0.579   6.284   4.453
 8054TIP3   OH224100   0.669   6.012   4.402
 8054TIP3    H124101   0.616   5.938   4.370
 8054TIP3    H224102   0.702   5.978   4.488
 8055TIP3   OH224103   1.038   6.096   5.168
 8055TIP3    H124104   1.030   6.016   5.111
 8055TIP3    H224105   1.034   6.168   5.101
 8056TIP3   OH224106   0.333   5.513   4.428
 8056TIP3    H124107   0.250   5.460   4.442
 8056TIP3    H224108   0.361   5.490   4.339
 8057TIP3   OH224109   0.302   5.275   4.135
 8057TIP3    H124110   0.370   5.322   4.187
 8057TIP3    H224111   0.361   5.213   4.086
 8058TIP3   OH224112   1.236   5.735   5.014
 8058TIP3    H124113   1.152   5.787   5.018
 8058TIP3    H224114   1.267   5.759   4.924
 8059TIP3   OH224115   0.678   5.571   4.397
 8059TIP3    H124116   0.625   5.595   4.476
 8059TIP3    H224117   0.764   5.547   4.439
 8060TIP3   OH224118   0.917   5.612   5.311
 8060TIP3    H124119   0.913   5.696   5.360
 8060TIP3    H224120   0.831   5.615   5.265
 8061TIP3   OH224121   0.568   6.194   4.964
 8061TIP3    H124122   0.577   6.232   5.052
 8061TIP3    H224123   0.560   6.099   4.986
 8062TIP3   OH224124   0.517   5.431   4.222
 8062TIP3    H124125   0.574   5.491   4.275
 8062TIP3    H224126   0.546   5.455   4.131
 8063TIP3   OH224127   1.037   4.672   4.273
 8063TIP3    H124128   0.955   4.694   4.322
 8063TIP3    H224129   1.051   4.754   4.222
 8064TIP3   OH224130   0.836   6.039   3.821
 8064TIP3    H124131   0.844   6.136   3.806
 8064TIP3    H224132   0.929   6.010   3.809
 8065TIP3   OH224133   1.280   6.442   5.217
 8065TIP3    H124134   1.278   6.345   5.231
 8065TIP3    H224135   1.197   6.469   5.262
 8066TIP3   OH224136   0.351   6.264   3.937
 8066TIP3    H124137   0.410   6.192   3.906
 8066TIP3    H224138   0.368   6.265   4.033
 8067TIP3   OH224139   0.393   6.308   4.218
 8067TIP3    H124140   0.330   6.311   4.292
 8067TIP3    H224141   0.473   6.279   4.264
 8068TIP3   OH224142   1.166   5.572   5.491
 8068TIP3    H124143   1.087   5.584   5.437
 8068TIP3    H224144   1.183   5.476   5.479
 8069TIP3   OH224145   0.706   4.921   5.491
 8069TIP3    H124146   0.775   4.891   5.554
 8069TIP3    H224147   0.623   4.900   5.538
 8070TIP3   OH224148   0.936   5.347   5.410
 8070TIP3    H124149   0.886   5.344   5.495
 8070TIP3    H224150   0.914   5.436   5.376
 8071TIP3   OH224151   0.588   5.481   3.965
 8071TIP3    H124152   0.563   5.451   3.875
 8071TIP3    H224153   0.674   5.523   3.945
 8072TIP3   OH224154   0.294   4.867   4.243
 8072TIP3    H124155   0.284   4.863   4.341
 8072TIP3    H224156   0.267   4.775   4.223
 8073TIP3   OH224157   0.472   5.300   4.561
 8073TIP3    H124158   0.424   5.375   4.521
 8073TIP3    H224159   0.523   5.266   4.484
 8074TIP3   OH224160   0.669   5.561   5.638
 8074TIP3    H124161   0.644   5.488   5.699
 8074TIP3    H224162   0.763   5.572   5.662
 8075TIP3   OH224163   0.626   5.321   4.801
 8075TIP3    H124164   0.567   5.353   4.729
 8075TIP3    H224165   0.661   5.241   4.756
 8076TIP3   OH224166   0.637   5.568   5.228
 8076TIP3    H124167   0.670   5.502   5.162
 8076TIP3    H224168   0.610   5.506   5.300
 8077TIP3   OH224169   0.314   5.021   4.886
 8077TIP3    H124170   0.223   5.050   4.905
 8077TIP3    H224171   0.362   5.042   4.967
 8078TIP3   OH224172   0.799   5.103   5.100
 8078TIP3    H124173   0.760   5.117   5.189
 8078TIP3    H224174   0.735   5.040   5.063
 8079TIP3   OH224175   0.968   6.792   5.316
 8079TIP3    H124176   0.971   6.817   5.222
 8079TIP3    H224177   1.044   6.842   5.351
 8080TIP3   OH224178   0.395   5.349   4.988
 8080TIP3    H124179   0.472   5.323   4.934
 8080TIP3    H224180   0.415   5.308   5.073
 8081TIP3   OH224181   0.391   5.237   5.281
 8081TIP3    H124182   0.325   5.310   5.273
 8081TIP3    H224183   0.463   5.285   5.326
 8082TIP3   OH224184   1.003   5.881   5.004
 8082TIP3    H124185   1.028   5.930   4.923
 8082TIP3    H224186   0.920   5.837   4.976
 8083TIP3   OH224187   0.557   4.954   4.239
 8083TIP3    H124188   0.460   4.943   4.242
 8083TIP3    H224189   0.570   5.048   4.264
 8084TIP3   OH224190   0.521   5.984   5.365
 8084TIP3    H124191   0.528   5.947   5.454
 8084TIP3    H224192   0.451   6.052   5.377
 8085TIP3   OH224193   0.630   5.203   4.341
 8085TIP3    H124194   0.726   5.208   4.357
 8085TIP3    H224195   0.614   5.283   4.287
 8086TIP3   OH224196   0.237   5.785   4.193
 8086TIP3    H124197   0.200   5.873   4.206
 8086TIP3    H224198   0.179   5.730   4.247
 8087TIP3   OH224199   0.453   5.689   5.739
 8087TIP3    H124200   0.394   5.623   5.699
 8087TIP3    H224201   0.538   5.662   5.700
 8088TIP3   OH224202   0.648   6.262   5.243
 8088TIP3    H124203   0.582   6.200   5.278
 8088TIP3    H224204   0.688   6.293   5.329
 8089TIP3   OH224205   1.071   5.296   4.178
 8089TIP3    H124206   1.007   5.252   4.116
 8089TIP3    H224207   1.069   5.385   4.136
 8090TIP3   OH224208   1.290   6.150   5.258
 8090TIP3    H124209   1.192   6.146   5.250
 8090TIP3    H224210   1.316   6.121   5.168
 8091TIP3   OH224211   0.773   6.113   4.086
 8091TIP3    H124212   0.749   6.041   4.146
 8091TIP3    H224213   0.785   6.068   4.000
 8092TIP3   OH224214   0.777   5.743   4.921
 8092TIP3    H124215   0.686   5.709   4.933
 8092TIP3    H224216   0.815   5.666   4.874
 8093TIP3   OH224217   0.574   5.953   5.098
 8093TIP3    H124218   0.559   5.951   5.195
 8093TIP3    H224219   0.643   5.887   5.086
 8094TIP3   OH224220   0.534   5.842   3.984
 8094TIP3    H124221   0.583   5.816   4.065
 8094TIP3    H224222   0.445   5.809   4.003
 8095TIP3   OH224223   0.804   6.476   5.162
 8095TIP3    H124224   0.741   6.402   5.175
 8095TIP3    H224225   0.794   6.497   5.068
 8096TIP3   OH224226   0.869   6.314   3.805
 8096TIP3    H124227   0.904   6.387   3.751
 8096TIP3    H224228   0.789   6.359   3.840
 8097TIP3   OH224229   0.688   5.771   4.202
 8097TIP3    H124230   0.679   5.707   4.275
 8097TIP3    H224231   0.786   5.771   4.190
 8098TIP3   OH224232   0.718   5.164   5.361
 8098TIP3    H124233   0.806   5.196   5.388
 8098TIP3    H224234   0.711   5.079   5.410
 8099TIP3   OH224235   0.613   4.902   4.521
 8099TIP3    H124236   0.590   4.925   4.429
 8099TIP3    H224237   0.646   4.988   4.556
 8100TIP3   OH224238   0.297   5.092   4.620
 8100TIP3    H124239   0.363   5.164   4.608
 8100TIP3    H224240   0.296   5.081   4.717
 8101TIP3   OH224241   0.571   5.400   5.428
 8101TIP3    H124242   0.602   5.453   5.504
 8101TIP3    H224243   0.627   5.320   5.434
 8102TIP3   OH224244   0.448   4.813   4.738
 8102TIP3    H124245   0.419   4.896   4.781
 8102TIP3    H224246   0.497   4.848   4.661
 8103TIP3   OH224247   1.203   5.306   5.410
 8103TIP3    H124248   1.105   5.304   5.416
 8103TIP3    H224249   1.216   5.265   5.324
 8104TIP3   OH224250   0.856   5.501   4.798
 8104TIP3    H124251   0.778   5.445   4.810
 8104TIP3    H224252   0.926   5.450   4.845
 8105TIP3   OH224253   0.821   6.449   4.756
 8105TIP3    H124254   0.778   6.505   4.688
 8105TIP3    H224255   0.914   6.474   4.736
 8106TIP3   OH224256   0.728   6.349   5.489
 8106TIP3    H124257   0.704   6.295   5.567
 8106TIP3    H224258   0.794   6.409   5.527
 8107TIP3   OH224259   0.497   6.066   3.811
 8107TIP3    H124260   0.538   5.999   3.868
 8107TIP3    H224261   0.550   6.063   3.730
 8108TIP3   OH224262   0.233   5.734   3.923
 8108TIP3    H124263   0.228   5.752   4.019
 8108TIP3    H224264   0.195   5.645   3.918
 8109TIP3   OH224265   0.829   5.979   5.310
 8109TIP3    H124266   0.900   6.028   5.264
 8109TIP3    H224267   0.751   6.032   5.291
 8110TIP3   OH224268   0.022   5.280   4.149
 8110TIP3    H124269  -0.001   5.189   4.129
 8110TIP3    H224270   0.119   5.276   4.160
 8111TIP3   OH224271   0.692   5.915   5.711
 8111TIP3    H124272   0.766   5.887   5.656
 8111TIP3    H224273   0.693   5.847   5.782
 8112TIP3   OH224274   0.828   5.567   3.850
 8112TIP3    H124275   0.819   5.521   3.765
 8112TIP3    H224276   0.796   5.657   3.823
 8113TIP3   OH224277   0.275   5.036   5.433
 8113TIP3    H124278   0.328   5.098   5.378
 8113TIP3    H224279   0.230   5.099   5.492
 8114TIP3   OH224280   0.388   5.687   5.328
 8114TIP3    H124281   0.479   5.663   5.302
 8114TIP3    H224282   0.366   5.750   5.256
 8115TIP3   OH224283   0.920   5.583   5.754
 8115TIP3    H124284   0.971   5.502   5.772
 8115TIP3    H224285   0.988   5.641   5.717
 8116TIP3   OH224286   0.958   5.839   5.499
 8116TIP3    H124287   0.901   5.893   5.438
 8116TIP3    H224288   1.046   5.859   5.459
 8117TIP3   OH224289   0.455   4.850   5.571
 8117TIP3    H124290   0.393   4.921   5.546
 8117TIP3    H224291   0.399   4.772   5.562
 8118TIP3   OH224292   0.569   5.355   5.793
 8118TIP3    H124293   0.590   5.351   5.888
 8118TIP3    H224294   0.483   5.309   5.793
 8119TIP3   OH224295   0.805   5.299   5.642
 8119TIP3    H124296   0.732   5.300   5.706
 8119TIP3    H224297   0.881   5.270   5.696
 8120TIP3   OH224298   1.027   5.240   5.793
 8120TIP3    H124299   1.045   5.145   5.812
 8120TIP3    H224300   1.027   5.281   5.882
 8121TIP3   OH224301   1.076   6.542   4.707
 8121TIP3    H124302   1.104   6.588   4.788
 8121TIP3    H224303   1.129   6.586   4.639
 8122TIP3   OH224304   1.098   6.570   4.992
 8122TIP3    H124305   1.062   6.479   4.980
 8122TIP3    H224306   1.180   6.549   5.040
 8123TIP3   OH224307   1.154   6.245   5.557
 8123TIP3    H124308   1.081   6.255   5.622
 8123TIP3    H224309   1.196   6.333   5.561
 8124TIP3   OH224310   0.967   5.757   4.180
 8124TIP3    H124311   1.034   5.821   4.148
 8124TIP3    H224312   1.013   5.719   4.258
 8125TIP3   OH224313   1.097   5.624   4.383
 8125TIP3    H124314   1.030   5.582   4.441
 8125TIP3    H224315   1.160   5.662   4.447
 8126TIP3   OH224316   1.149   6.016   4.814
 8126TIP3    H124317   1.202   5.950   4.766
 8126TIP3    H224318   1.149   6.091   4.752
 8127TIP3   OH224319   0.987   6.311   5.006
 8127TIP3    H124320   0.915   6.332   5.067
 8127TIP3    H224321   0.938   6.268   4.932
 8128TIP3   OH224322   1.032   5.532   4.030
 8128TIP3    H124323   0.961   5.532   3.962
 8128TIP3    H224324   1.003   5.609   4.084
 8129TIP3   OH224325   0.898   5.209   3.988
 8129TIP3    H124326   0.885   5.244   3.898
 8129TIP3    H224327   0.874   5.115   3.976
 8130TIP3   OH224328   0.909   5.482   4.529
 8130TIP3    H124329   0.917   5.385   4.520
 8130TIP3    H224330   0.896   5.494   4.625
 8131TIP3   OH224331   1.199   5.906   5.386
 8131TIP3    H124332   1.271   5.839   5.377
 8131TIP3    H224333   1.227   5.975   5.324
 8132TIP3   OH224334   1.382   5.709   5.402
 8132TIP3    H124335   1.308   5.658   5.441
 8132TIP3    H224336   1.456   5.646   5.417
 8133TIP3   OH224337   0.847   4.942   3.975
 8133TIP3    H124338   0.925   4.910   4.024
 8133TIP3    H224339   0.779   4.876   3.994
 8134TIP3   OH224340   0.906   5.198   4.423
 8134TIP3    H124341   0.947   5.109   4.438
 8134TIP3    H224342   0.963   5.230   4.351
 8135TIP3   OH224343   1.068   5.369   4.920
 8135TIP3    H124344   1.153   5.395   4.878
 8135TIP3    H224345   1.083   5.407   5.009
 8136TIP3   OH224346   1.139   5.515   5.151
 8136TIP3    H124347   1.060   5.549   5.198
 8136TIP3    H224348   1.171   5.595   5.104
 8137TIP3   OH224349   1.587   5.106   5.706
 8137TIP3    H124350   1.647   5.041   5.664
 8137TIP3    H224351   1.558   5.160   5.629
 8138TIP3   OH224352   1.014   4.948   4.462
 8138TIP3    H124353   1.062   4.931   4.545
 8138TIP3    H224354   0.953   4.871   4.460
 8139TIP3   OH224355   1.458   5.245   5.510
 8139TIP3    H124356   1.372   5.287   5.530
 8139TIP3    H224357   1.428   5.172   5.452
 8140TIP3   OH224358   1.096   4.880   4.095
 8140TIP3    H124359   1.135   4.809   4.039
 8140TIP3    H224360   1.162   4.951   4.088
 8141TIP3   OH224361   0.661   6.405   4.362
 8141TIP3    H124362   0.712   6.396   4.279
 8141TIP3    H224363   0.706   6.479   4.405
 8142TIP3   OH224364   0.581   6.665   5.256
 8142TIP3    H124365   0.641   6.587   5.255
 8142TIP3    H224366   0.629   6.717   5.326
 8143TIP3   OH224367   1.357   5.008   5.391
 8143TIP3    H124368   1.267   5.001   5.355
 8143TIP3    H224369   1.389   4.915   5.380
 8144TIP3   OH224370   0.541   6.525   5.000
 8144TIP3    H124371   0.479   6.454   5.027
 8144TIP3    H224372   0.564   6.493   4.911
 8145TIP3   OH224373   0.580   4.926   5.028
 8145TIP3    H124374   0.524   4.852   5.058
 8145TIP3    H224375   0.634   4.883   4.959
 8146TIP3   OH224376   1.086   4.806   4.918
 8146TIP3    H124377   1.122   4.856   4.841
 8146TIP3    H224378   0.990   4.819   4.908
 8147TIP3   OH224379   1.180   4.902   4.679
 8147TIP3    H124380   1.253   4.851   4.638
 8147TIP3    H224381   1.213   4.994   4.664
 8148TIP3   OH224382   0.270   4.656   4.910
 8148TIP3    H124383   0.316   4.708   4.841
 8148TIP3    H224384   0.307   4.696   4.990
 8149TIP3   OH224385   0.807   4.810   4.887
 8149TIP3    H124386   0.795   4.774   4.799
 8149TIP3    H224387   0.789   4.732   4.944
 8150TIP3   OH224388   0.832   4.735   4.453
 8150TIP3    H124389   0.747   4.781   4.468
 8150TIP3    H224390   0.815   4.649   4.497
 8151TIP3   OH224391   0.274   4.840   4.510
 8151TIP3    H124392   0.273   4.789   4.592
 8151TIP3    H224393   0.266   4.931   4.546
 8152TIP3   OH224394   0.804   6.379   4.129
 8152TIP3    H124395   0.797   6.282   4.116
 8152TIP3    H224396   0.761   6.413   4.048
 8153TIP3   OH224397   1.093   4.969   5.827
 8153TIP3    H124398   1.115   4.937   5.917
 8153TIP3    H224399   1.180   4.965   5.783
 8154TIP3   OH224400   1.033   6.525   5.320
 8154TIP3    H124401   0.953   6.497   5.271
 8154TIP3    H224402   1.018   6.622   5.322
 8155TIP3   OH224403   2.298   5.896   4.082
 8155TIP3    H124404   2.270   5.987   4.062
 8155TIP3    H224405   2.223   5.846   4.047
 8156TIP3   OH224406   2.298   5.897   4.463
 8156TIP3    H124407   2.330   5.869   4.550
 8156TIP3    H224408   2.256   5.816   4.429
 8157TIP3   OH224409   1.596   5.792   4.830
 8157TIP3    H124410   1.628   5.723   4.891
 8157TIP3    H224411   1.676   5.844   4.817
 8158TIP3   OH224412   2.541   6.200   4.145
 8158TIP3    H124413   2.527   6.131   4.210
 8158TIP3    H224414   2.572   6.275   4.199
 8159TIP3   OH224415   1.568   6.201   4.553
 8159TIP3    H124416   1.561   6.103   4.555
 8159TIP3    H224417   1.665   6.211   4.546
 8160TIP3   OH224418   1.274   5.403   4.338
 8160TIP3    H124419   1.225   5.486   4.352
 8160TIP3    H224420   1.205   5.350   4.294
 8161TIP3   OH224421   1.334   5.692   4.513
 8161TIP3    H124422   1.383   5.614   4.546
 8161TIP3    H224423   1.390   5.721   4.440
 8162TIP3   OH224424   2.190   6.660   4.162
 8162TIP3    H124425   2.236   6.588   4.113
 8162TIP3    H224426   2.183   6.623   4.251
 8163TIP3   OH224427   2.096   6.122   4.512
 8163TIP3    H124428   2.135   6.046   4.466
 8163TIP3    H224429   2.179   6.168   4.537
 8164TIP3   OH224430   3.108   5.440   4.510
 8164TIP3    H124431   3.138   5.523   4.552
 8164TIP3    H224432   3.133   5.457   4.417
 8165TIP3   OH224433   2.507   5.622   4.544
 8165TIP3    H124434   2.552   5.537   4.562
 8165TIP3    H224435   2.477   5.607   4.452
 8166TIP3   OH224436   1.848   5.282   4.508
 8166TIP3    H124437   1.827   5.355   4.446
 8166TIP3    H224438   1.801   5.209   4.464
 8167TIP3   OH224439   2.541   5.375   4.130
 8167TIP3    H124440   2.613   5.360   4.196
 8167TIP3    H224441   2.594   5.409   4.055
 8168TIP3   OH224442   1.480   5.484   4.616
 8168TIP3    H124443   1.563   5.464   4.663
 8168TIP3    H224444   1.492   5.428   4.536
 8169TIP3   OH224445   1.920   5.682   4.411
 8169TIP3    H124446   2.014   5.657   4.422
 8169TIP3    H224447   1.881   5.598   4.377
 8170TIP3   OH224448   3.182   5.648   4.682
 8170TIP3    H124449   3.099   5.696   4.663
 8170TIP3    H224450   3.205   5.684   4.769
 8171TIP3   OH224451   1.843   5.267   4.944
 8171TIP3    H124452   1.784   5.303   4.875
 8171TIP3    H224453   1.790   5.285   5.024
 8172TIP3   OH224454   2.189   6.117   3.951
 8172TIP3    H124455   2.146   6.098   3.867
 8172TIP3    H224456   2.145   6.201   3.976
 8173TIP3   OH224457   1.950   6.042   4.737
 8173TIP3    H124458   1.889   6.109   4.774
 8173TIP3    H224459   1.992   6.091   4.664
 8174TIP3   OH224460   2.750   5.378   4.303
 8174TIP3    H124461   2.743   5.329   4.386
 8174TIP3    H224462   2.804   5.455   4.330
 8175TIP3   OH224463   1.715   5.380   4.727
 8175TIP3    H124464   1.777   5.453   4.750
 8175TIP3    H224465   1.763   5.340   4.651
 8176TIP3   OH224466   1.778   6.237   4.836
 8176TIP3    H124467   1.753   6.323   4.797
 8176TIP3    H224468   1.698   6.221   4.891
 8177TIP3   OH224469   1.170   5.925   4.071
 8177TIP3    H124470   1.130   5.951   3.986
 8177TIP3    H224471   1.201   6.012   4.106
 8178TIP3   OH224472   2.611   6.441   4.311
 8178TIP3    H124473   2.521   6.433   4.350
 8178TIP3    H224474   2.603   6.528   4.267
 8179TIP3   OH224475   2.900   5.340   4.675
 8179TIP3    H124476   2.814   5.369   4.640
 8179TIP3    H224477   2.963   5.373   4.607
 8180TIP3   OH224478   2.199   4.986   4.658
 8180TIP3    H124479   2.181   4.892   4.673
 8180TIP3    H224480   2.122   5.026   4.704
 8181TIP3   OH224481   2.313   6.489   3.984
 8181TIP3    H124482   2.363   6.406   3.965
 8181TIP3    H224483   2.375   6.554   3.943
 8182TIP3   OH224484   2.456   6.273   3.893
 8182TIP3    H124485   2.419   6.193   3.853
 8182TIP3    H224486   2.492   6.239   3.977
 8183TIP3   OH224487   2.837   6.353   4.656
 8183TIP3    H124488   2.826   6.276   4.596
 8183TIP3    H224489   2.819   6.429   4.596
 8184TIP3   OH224490   2.130   5.748   3.913
 8184TIP3    H124491   2.049   5.800   3.892
 8184TIP3    H224492   2.175   5.744   3.827
 8185TIP3   OH224493   2.088   5.533   3.628
 8185TIP3    H124494   2.155   5.585   3.675
 8185TIP3    H224495   2.145   5.469   3.581
 8186TIP3   OH224496   3.032   5.990   4.500
 8186TIP3    H124497   2.949   6.043   4.505
 8186TIP3    H224498   3.063   6.015   4.411
 8187TIP3   OH224499   2.476   5.831   3.883
 8187TIP3    H124500   2.422   5.855   3.962
 8187TIP3    H224501   2.561   5.806   3.926
 8188TIP3   OH224502   2.711   5.868   4.798
 8188TIP3    H124503   2.709   5.952   4.848
 8188TIP3    H224504   2.625   5.873   4.752
 8189TIP3   OH224505   1.708   5.828   4.302
 8189TIP3    H124506   1.666   5.771   4.235
 8189TIP3    H224507   1.785   5.774   4.330
 8190TIP3   OH224508   1.837   6.238   4.451
 8190TIP3    H124509   1.818   6.200   4.364
 8190TIP3    H224510   1.927   6.204   4.468
 8191TIP3   OH224511   1.844   5.799   4.657
 8191TIP3    H124512   1.876   5.776   4.567
 8191TIP3    H224513   1.888   5.885   4.674
 8192TIP3   OH224514   2.369   6.437   4.432
 8192TIP3    H124515   2.357   6.518   4.484
 8192TIP3    H224516   2.354   6.365   4.496
 8193TIP3   OH224517   1.984   6.355   4.981
 8193TIP3    H124518   1.923   6.418   5.026
 8193TIP3    H224519   1.919   6.302   4.930
 8194TIP3   OH224520   2.316   5.689   3.710
 8194TIP3    H124521   2.375   5.749   3.761
 8194TIP3    H224522   2.343   5.711   3.617
 8195TIP3   OH224523   1.739   5.910   5.085
 8195TIP3    H124524   1.743   5.999   5.126
 8195TIP3    H224525   1.643   5.892   5.091
 8196TIP3   OH224526   2.062   6.366   3.985
 8196TIP3    H124527   2.141   6.420   4.001
 8196TIP3    H224528   1.999   6.430   3.949
 8197TIP3   OH224529   1.778   6.522   5.066
 8197TIP3    H124530   1.742   6.525   4.975
 8197TIP3    H224531   1.698   6.501   5.119
 8198TIP3   OH224532   2.833   4.929   3.759
 8198TIP3    H124533   2.751   4.951   3.809
 8198TIP3    H224534   2.847   5.012   3.709
 8199TIP3   OH224535   1.573   5.671   4.109
 8199TIP3    H124536   1.508   5.717   4.051
 8199TIP3    H224537   1.535   5.583   4.114
 8200TIP3   OH224538   2.633   6.296   3.308
 8200TIP3    H124539   2.644   6.392   3.292
 8200TIP3    H224540   2.726   6.265   3.295
 8201TIP3   OH224541   1.354   6.055   5.014
 8201TIP3    H124542   1.292   6.033   4.942
 8201TIP3    H224543   1.393   5.968   5.036
 8202TIP3   OH224544   1.211   6.244   4.652
 8202TIP3    H124545   1.306   6.241   4.635
 8202TIP3    H224546   1.203   6.328   4.700
 8203TIP3   OH224547   3.076   6.700   4.703
 8203TIP3    H124548   3.073   6.603   4.717
 8203TIP3    H224549   2.992   6.726   4.748
 8204TIP3   OH224550   2.181   6.484   4.837
 8204TIP3    H124551   2.179   6.577   4.869
 8204TIP3    H224552   2.109   6.444   4.892
 8205TIP3   OH224553   1.945   6.619   3.784
 8205TIP3    H124554   1.887   6.598   3.709
 8205TIP3    H224555   1.908   6.703   3.817
 8206TIP3   OH224556   1.380   6.462   4.172
 8206TIP3    H124557   1.426   6.453   4.259
 8206TIP3    H224558   1.324   6.383   4.174
 8207TIP3   OH224559   2.150   6.527   3.434
 8207TIP3    H124560   2.201   6.450   3.397
 8207TIP3    H224561   2.178   6.520   3.529
 8208TIP3   OH224562   2.194   6.568   3.695
 8208TIP3    H124563   2.107   6.577   3.740
 8208TIP3    H224564   2.247   6.528   3.767
 8209TIP3   OH224565   2.963   5.828   4.979
 8209TIP3    H124566   2.884   5.842   4.925
 8209TIP3    H224567   2.980   5.732   4.966
 8210TIP3   OH224568   1.560   6.236   5.001
 8210TIP3    H124569   1.610   6.221   5.084
 8210TIP3    H224570   1.486   6.174   5.009
 8211TIP3   OH224571   1.961   5.060   4.787
 8211TIP3    H124572   1.872   5.030   4.759
 8211TIP3    H224573   1.935   5.143   4.832
 8212TIP3   OH224574   2.489   5.177   4.987
 8212TIP3    H124575   2.537   5.140   5.062
 8212TIP3    H224576   2.396   5.161   5.014
 8213TIP3   OH224577   2.727   5.603   4.897
 8213TIP3    H124578   2.679   5.604   4.983
 8213TIP3    H224579   2.709   5.692   4.861
 8214TIP3   OH224580   2.393   5.736   3.455
 8214TIP3    H124581   2.359   5.710   3.368
 8214TIP3    H224582   2.477   5.780   3.430
 8215TIP3   OH224583   2.107   5.109   3.758
 8215TIP3    H124584   2.071   5.105   3.849
 8215TIP3    H224585   2.066   5.028   3.722
 8216TIP3   OH224586   1.892   5.577   4.805
 8216TIP3    H124587   1.841   5.598   4.886
 8216TIP3    H224588   1.877   5.658   4.751
 8217TIP3   OH224589   1.776   5.463   4.319
 8217TIP3    H124590   1.683   5.438   4.336
 8217TIP3    H224591   1.789   5.423   4.230
 8218TIP3   OH224592   2.267   5.548   4.047
 8218TIP3    H124593   2.215   5.620   4.004
 8218TIP3    H224594   2.322   5.516   3.973
 8219TIP3   OH224595   2.441   5.824   5.130
 8219TIP3    H124596   2.420   5.754   5.195
 8219TIP3    H224597   2.534   5.843   5.153
 8220TIP3   OH224598   2.422   5.576   4.285
 8220TIP3    H124599   2.362   5.606   4.214
 8220TIP3    H224600   2.457   5.496   4.241
 8221TIP3   OH224601   1.711   5.606   5.013
 8221TIP3    H124602   1.740   5.670   5.080
 8221TIP3    H224603   1.701   5.524   5.065
 8222TIP3   OH224604   1.765   5.083   3.724
 8222TIP3    H124605   1.750   5.082   3.820
 8222TIP3    H224606   1.686   5.134   3.694
 8223TIP3   OH224607   1.303   5.126   4.597
 8223TIP3    H124608   1.381   5.159   4.647
 8223TIP3    H224609   1.341   5.097   4.513
 8224TIP3   OH224610   1.275   5.109   4.116
 8224TIP3    H124611   1.319   5.145   4.036
 8224TIP3    H224612   1.213   5.181   4.134
 8225TIP3   OH224613   2.433   5.822   4.707
 8225TIP3    H124614   2.466   5.750   4.649
 8225TIP3    H224615   2.402   5.768   4.784
 8226TIP3   OH224616   2.105   5.283   4.380
 8226TIP3    H124617   2.022   5.283   4.431
 8226TIP3    H224618   2.172   5.285   4.450
 8227TIP3   OH224619   1.536   5.341   4.388
 8227TIP3    H124620   1.442   5.349   4.360
 8227TIP3    H224621   1.559   5.249   4.363
 8228TIP3   OH224622   1.806   5.337   4.077
 8228TIP3    H124623   1.899   5.352   4.053
 8228TIP3    H224624   1.757   5.359   3.994
 8229TIP3   OH224625   2.596   5.360   4.583
 8229TIP3    H124626   2.559   5.373   4.673
 8229TIP3    H224627   2.530   5.299   4.545
 8230TIP3   OH224628   1.651   5.372   3.857
 8230TIP3    H124629   1.581   5.324   3.810
 8230TIP3    H224630   1.702   5.408   3.781
 8231TIP3   OH224631   2.767   7.049   4.801
 8231TIP3    H124632   2.764   7.075   4.707
 8231TIP3    H224633   2.845   7.099   4.833
 8232TIP3   OH224634   1.722   6.158   5.222
 8232TIP3    H124635   1.803   6.190   5.269
 8232TIP3    H224636   1.658   6.160   5.296
 8233TIP3   OH224637   2.186   5.612   4.476
 8233TIP3    H124638   2.260   5.576   4.424
 8233TIP3    H224639   2.197   5.569   4.562
 8234TIP3   OH224640   1.711   5.101   4.356
 8234TIP3    H124641   1.675   5.022   4.402
 8234TIP3    H224642   1.753   5.062   4.279
 8235TIP3   OH224643   2.162   5.508   4.772
 8235TIP3    H124644   2.073   5.546   4.781
 8235TIP3    H224645   2.219   5.572   4.818
 8236TIP3   OH224646   1.899   5.901   3.862
 8236TIP3    H124647   1.828   5.834   3.851
 8236TIP3    H224648   1.880   5.934   3.953
 8237TIP3   OH224649   2.800   6.137   4.490
 8237TIP3    H124650   2.824   6.187   4.410
 8237TIP3    H224651   2.715   6.095   4.464
 8238TIP3   OH224652   2.358   5.211   3.727
 8238TIP3    H124653   2.261   5.193   3.734
 8238TIP3    H224654   2.366   5.306   3.750
 8239TIP3   OH224655   2.296   6.217   4.860
 8239TIP3    H124656   2.326   6.202   4.950
 8239TIP3    H224657   2.261   6.308   4.864
 8240TIP3   OH224658   2.426   5.461   3.829
 8240TIP3    H124659   2.523   5.467   3.844
 8240TIP3    H224660   2.408   5.541   3.776
 8241TIP3   OH224661   1.592   5.924   4.537
 8241TIP3    H124662   1.629   5.896   4.451
 8241TIP3    H224663   1.635   5.860   4.597
 8242TIP3   OH224664   2.044   6.050   3.683
 8242TIP3    H124665   1.996   6.136   3.689
 8242TIP3    H224666   1.990   5.994   3.744
 8243TIP3   OH224667   1.472   5.844   5.152
 8243TIP3    H124668   1.493   5.829   5.246
 8243TIP3    H224669   1.404   5.776   5.135
 8244TIP3   OH224670   2.199   5.956   5.171
 8244TIP3    H124671   2.139   5.899   5.121
 8244TIP3    H224672   2.286   5.923   5.141
 8245TIP3   OH224673   2.458   6.475   4.757
 8245TIP3    H124674   2.362   6.477   4.769
 8245TIP3    H224675   2.487   6.529   4.834
 8246TIP3   OH224676   2.867   5.552   3.665
 8246TIP3    H124677   2.805   5.508   3.602
 8246TIP3    H224678   2.865   5.641   3.624
 8247TIP3   OH224679   3.087   6.408   4.745
 8247TIP3    H124680   2.989   6.403   4.736
 8247TIP3    H224681   3.113   6.378   4.655
 8248TIP3   OH224682   2.563   6.370   3.571
 8248TIP3    H124683   2.546   6.298   3.633
 8248TIP3    H224684   2.582   6.322   3.488
 8249TIP3   OH224685   2.565   5.999   4.410
 8249TIP3    H124686   2.471   5.975   4.422
 8249TIP3    H224687   2.598   5.919   4.364
 8250TIP3   OH224688   1.693   6.227   4.163
 8250TIP3    H124689   1.691   6.309   4.109
 8250TIP3    H224690   1.599   6.209   4.173
 8251TIP3   OH224691   1.263   5.525   3.876
 8251TIP3    H124692   1.304   5.612   3.891
 8251TIP3    H224693   1.182   5.532   3.931
 8252TIP3   OH224694   1.830   5.992   4.106
 8252TIP3    H124695   1.795   6.081   4.125
 8252TIP3    H224696   1.793   5.941   4.181
 8253TIP3   OH224697   1.962   6.570   4.631
 8253TIP3    H124698   2.003   6.643   4.581
 8253TIP3    H224699   2.039   6.535   4.679
 8254TIP3   OH224700   1.612   6.465   4.014
 8254TIP3    H124701   1.526   6.474   4.061
 8254TIP3    H224702   1.644   6.558   4.018
 8255TIP3   OH224703   2.349   6.204   4.591
 8255TIP3    H124704   2.339   6.201   4.689
 8255TIP3    H224705   2.430   6.153   4.578
 8256TIP3   OH224706   2.324   6.103   3.474
 8256TIP3    H124707   2.378   6.076   3.551
 8256TIP3    H224708   2.237   6.068   3.501
 8257TIP3   OH224709   2.598   6.737   4.640
 8257TIP3    H124710   2.517   6.683   4.631
 8257TIP3    H224711   2.584   6.803   4.568
 8258TIP3   OH224712   2.665   6.573   3.292
 8258TIP3    H124713   2.710   6.646   3.247
 8258TIP3    H224714   2.582   6.618   3.318
 8259TIP3   OH224715   1.683   5.349   5.159
 8259TIP3    H124716   1.586   5.352   5.170
 8259TIP3    H224717   1.710   5.289   5.231
 8260TIP3   OH224718   2.486   6.032   3.689
 8260TIP3    H124719   2.475   5.966   3.760
 8260TIP3    H224720   2.583   6.028   3.677
 8261TIP3   OH224721   1.399   6.433   4.792
 8261TIP3    H124722   1.453   6.359   4.824
 8261TIP3    H224723   1.432   6.506   4.846
 8262TIP3   OH224724   1.691   6.079   3.473
 8262TIP3    H124725   1.703   5.987   3.444
 8262TIP3    H224726   1.670   6.067   3.568
 8263TIP3   OH224727   1.636   6.084   3.744
 8263TIP3    H124728   1.707   6.055   3.803
 8263TIP3    H224729   1.640   6.182   3.754
 8264TIP3   OH224730   1.373   5.778   3.950
 8264TIP3    H124731   1.305   5.822   4.006
 8264TIP3    H224732   1.384   5.846   3.881
 8265TIP3   OH224733   2.518   5.413   4.842
 8265TIP3    H124734   2.600   5.455   4.874
 8265TIP3    H224735   2.509   5.334   4.898
 8266TIP3   OH224736   2.401   5.163   4.007
 8266TIP3    H124737   2.387   5.184   3.913
 8266TIP3    H224738   2.440   5.246   4.042
 8267TIP3   OH224739   1.902   6.280   3.694
 8267TIP3    H124740   1.816   6.304   3.733
 8267TIP3    H224741   1.913   6.351   3.630
 8268TIP3   OH224742   2.091   5.344   4.108
 8268TIP3    H124743   2.154   5.416   4.090
 8268TIP3    H224744   2.095   5.337   4.206
 8269TIP3   OH224745   2.358   5.662   4.915
 8269TIP3    H124746   2.382   5.716   4.993
 8269TIP3    H224747   2.413   5.583   4.926
 8270TIP3   OH224748   2.233   5.069   4.210
 8270TIP3    H124749   2.222   5.149   4.266
 8270TIP3    H224750   2.295   5.104   4.141
 8271TIP3   OH224751   1.649   6.357   3.762
 8271TIP3    H124752   1.615   6.425   3.700
 8271TIP3    H224753   1.629   6.398   3.849
 8272TIP3   OH224754   1.745   5.070   4.001
 8272TIP3    H124755   1.743   5.161   4.036
 8272TIP3    H224756   1.841   5.052   4.007
 8273TIP3   OH224757   2.997   5.564   4.900
 8273TIP3    H124758   2.899   5.559   4.898
 8273TIP3    H224759   3.019   5.527   4.813
 8274TIP3   OH224760   2.650   5.757   4.285
 8274TIP3    H124761   2.575   5.696   4.296
 8274TIP3    H224762   2.722   5.710   4.332
 8275TIP3   OH224763   1.364   5.984   3.754
 8275TIP3    H124764   1.432   6.053   3.762
 8275TIP3    H224765   1.408   5.927   3.687
 8276TIP3   OH224766   1.308   5.257   3.891
 8276TIP3    H124767   1.307   5.355   3.889
 8276TIP3    H224768   1.235   5.236   3.832
 8277TIP3   OH224769   2.620   6.712   4.233
 8277TIP3    H124770   2.577   6.759   4.157
 8277TIP3    H224771   2.714   6.732   4.213
 8278TIP3   OH224772   1.696   4.982   4.760
 8278TIP3    H124773   1.665   4.949   4.673
 8278TIP3    H224774   1.683   4.903   4.817
 8279TIP3   OH224775   1.234   6.200   4.140
 8279TIP3    H124776   1.163   6.231   4.199
 8279TIP3    H224777   1.205   6.240   4.055
 8280TIP3   OH224778   1.392   6.742   5.215
 8280TIP3    H124779   1.479   6.744   5.261
 8280TIP3    H224780   1.375   6.647   5.211
 8281TIP3   OH224781   1.869   6.704   5.260
 8281TIP3    H124782   1.965   6.691   5.265
 8281TIP3    H224783   1.847   6.645   5.185
 8282TIP3   OH224784   1.857   6.280   3.386
 8282TIP3    H124785   1.798   6.211   3.424
 8282TIP3    H224786   1.929   6.224   3.353
 8283TIP3   OH224787   2.511   6.612   4.991
 8283TIP3    H124788   2.504   6.543   5.061
 8283TIP3    H224789   2.588   6.664   5.021
 8284TIP3   OH224790   2.288   6.327   3.300
 8284TIP3    H124791   2.329   6.260   3.359
 8284TIP3    H224792   2.345   6.321   3.221
 8285TIP3   OH224793   1.520   6.147   5.414
 8285TIP3    H124794   1.538   6.051   5.417
 8285TIP3    H224795   1.434   6.150   5.368
 8286TIP3   OH224796   1.500   5.800   3.607
 8286TIP3    H124797   1.554   5.763   3.679
 8286TIP3    H224798   1.567   5.803   3.535
 8287TIP3   OH224799   2.128   6.233   5.188
 8287TIP3    H124800   2.088   6.253   5.100
 8287TIP3    H224801   2.159   6.141   5.177
 8288TIP3   OH224802   2.011   5.998   3.413
 8288TIP3    H124803   2.012   6.009   3.511
 8288TIP3    H224804   2.011   5.900   3.406
 8289TIP3   OH224805   2.621   6.243   4.794
 8289TIP3    H124806   2.697   6.285   4.750
 8289TIP3    H224807   2.552   6.310   4.779
 8290TIP3   OH224808   1.639   5.881   5.397
 8290TIP3    H124809   1.717   5.831   5.370
 8290TIP3    H224810   1.667   5.916   5.484
 8291TIP3   OH224811   1.710   5.702   3.830
 8291TIP3    H124812   1.679   5.658   3.911
 8291TIP3    H224813   1.745   5.627   3.778
 8292TIP3   OH224814   1.976   5.765   5.057
 8292TIP3    H124815   1.898   5.825   5.058
 8292TIP3    H224816   2.027   5.800   4.980
 8293TIP3   OH224817   1.808   5.497   3.669
 8293TIP3    H124818   1.781   5.501   3.575
 8293TIP3    H224819   1.905   5.500   3.661
 8294TIP3   OH224820   2.491   6.168   5.191
 8294TIP3    H124821   2.572   6.145   5.143
 8294TIP3    H224822   2.491   6.102   5.263
 8295TIP3   OH224823   2.627   5.827   3.334
 8295TIP3    H124824   2.608   5.781   3.249
 8295TIP3    H224825   2.594   5.917   3.310
 8296TIP3   OH224826   2.101   5.556   5.181
 8296TIP3    H124827   2.100   5.476   5.124
 8296TIP3    H224828   2.057   5.623   5.125
 8297TIP3   OH224829   2.102   5.340   4.991
 8297TIP3    H124830   2.129   5.384   4.908
 8297TIP3    H224831   2.008   5.319   4.972
 8298TIP3   OH224832   2.128   5.876   4.864
 8298TIP3    H124833   2.212   5.888   4.819
 8298TIP3    H224834   2.071   5.943   4.820
 8299TIP3   OH224835   2.709   5.848   5.240
 8299TIP3    H124836   2.766   5.771   5.254
 8299TIP3    H224837   2.773   5.913   5.206
 8300TIP3   OH224838   2.751   6.096   4.979
 8300TIP3    H124839   2.693   6.150   4.921
 8300TIP3    H224840   2.839   6.118   4.940
 8301TIP3   OH224841   1.979   5.664   5.415
 8301TIP3    H124842   1.910   5.596   5.429
 8301TIP3    H224843   2.011   5.641   5.326
 8302TIP3   OH224844   2.232   5.105   5.056
 8302TIP3    H124845   2.181   5.186   5.034
 8302TIP3    H224846   2.163   5.036   5.045
 8303TIP3   OH224847   2.361   5.606   5.274
 8303TIP3    H124848   2.344   5.595   5.369
 8303TIP3    H224849   2.272   5.584   5.239
 8304TIP3   OH224850   2.599   5.554   5.132
 8304TIP3    H124851   2.521   5.561   5.191
 8304TIP3    H224852   2.669   5.522   5.192
 8305TIP3   OH224853   2.826   5.477   5.295
 8305TIP3    H124854   2.826   5.402   5.355
 8305TIP3    H224855   2.822   5.552   5.359
 8306TIP3   OH224856   1.816   5.446   5.467
 8306TIP3    H124857   1.821   5.354   5.433
 8306TIP3    H224858   1.852   5.434   5.557
 8307TIP3   OH224859   2.329   5.115   5.313
 8307TIP3    H124860   2.393   5.042   5.307
 8307TIP3    H224861   2.287   5.111   5.225
 8308TIP3   OH224862   2.396   5.330   5.473
 8308TIP3    H124863   2.372   5.259   5.409
 8308TIP3    H224864   2.318   5.389   5.468
 8309TIP3   OH224865   1.615   6.559   3.575
 8309TIP3    H124866   1.710   6.557   3.551
 8309TIP3    H224867   1.581   6.608   3.498
 8310TIP3   OH224868   1.095   5.940   3.793
 8310TIP3    H124869   1.189   5.960   3.776
 8310TIP3    H224870   1.086   5.852   3.750
 8311TIP3   OH224871   1.009   6.552   4.204
 8311TIP3    H124872   0.942   6.491   4.166
 8311TIP3    H224873   1.053   6.493   4.269
 8312TIP3   OH224874   1.146   6.401   4.390
 8312TIP3    H124875   1.132   6.330   4.453
 8312TIP3    H224876   1.198   6.463   4.444
 8313TIP3   OH224877   2.872   6.804   4.191
 8313TIP3    H124878   2.899   6.838   4.279
 8313TIP3    H224879   2.936   6.847   4.132
 8314TIP3   OH224880   2.900   6.824   4.473
 8314TIP3    H124881   2.858   6.735   4.469
 8314TIP3    H224882   2.977   6.803   4.528
 8315TIP3   OH224883   2.948   6.499   5.047
 8315TIP3    H124884   2.875   6.510   5.111
 8315TIP3    H224885   2.990   6.588   5.050
 8316TIP3   OH224886   2.764   6.014   3.666
 8316TIP3    H124887   2.832   6.078   3.635
 8316TIP3    H224888   2.808   5.976   3.744
 8317TIP3   OH224889   2.892   5.881   3.869
 8317TIP3    H124890   2.826   5.839   3.929
 8317TIP3    H224891   2.958   5.918   3.931
 8318TIP3   OH224892   2.947   6.273   4.301
 8318TIP3    H124893   2.999   6.207   4.252
 8318TIP3    H224894   2.942   6.347   4.238
 8319TIP3   OH224895   2.777   6.572   4.497
 8319TIP3    H124896   2.706   6.616   4.547
 8319TIP3    H224897   2.727   6.526   4.426
 8320TIP3   OH224898   2.829   5.789   3.516
 8320TIP3    H124899   2.758   5.791   3.448
 8320TIP3    H224900   2.802   5.865   3.571
 8321TIP3   OH224901   2.700   5.462   3.471
 8321TIP3    H124902   2.659   5.499   3.392
 8321TIP3    H224903   2.676   5.367   3.462
 8322TIP3   OH224904   2.705   5.739   4.015
 8322TIP3    H124905   2.714   5.642   4.008
 8322TIP3    H224906   2.691   5.751   4.112
 8323TIP3   OH224907   1.331   5.810   4.765
 8323TIP3    H124908   1.329   5.779   4.672
 8323TIP3    H224909   1.428   5.813   4.780
 8324TIP3   OH224910   2.995   6.162   4.873
 8324TIP3    H124911   3.068   6.097   4.863
 8324TIP3    H224912   3.021   6.232   4.810
 8325TIP3   OH224913   3.179   5.965   4.889
 8325TIP3    H124914   3.105   5.915   4.930
 8325TIP3    H224915   3.252   5.902   4.903
 8326TIP3   OH224916   2.644   5.196   3.455
 8326TIP3    H124917   2.719   5.164   3.510
 8326TIP3    H224918   2.571   5.136   3.478
 8327TIP3   OH224919   2.703   5.454   3.910
 8327TIP3    H124920   2.743   5.365   3.925
 8327TIP3    H224921   2.761   5.487   3.839
 8328TIP3   OH224922   2.863   5.627   4.406
 8328TIP3    H124923   2.949   5.652   4.365
 8328TIP3    H224924   2.878   5.664   4.495
 8329TIP3   OH224925   2.933   5.772   4.638
 8329TIP3    H124926   2.855   5.808   4.684
 8329TIP3    H224927   2.967   5.852   4.592
 8330TIP3   OH224928   1.549   5.498   5.438
 8330TIP3    H124929   1.647   5.492   5.439
 8330TIP3    H224930   1.526   5.411   5.477
 8331TIP3   OH224931   3.399   5.371   5.197
 8331TIP3    H124932   3.449   5.300   5.151
 8331TIP3    H224933   3.351   5.413   5.123
 8332TIP3   OH224934   2.811   5.204   3.948
 8332TIP3    H124935   2.860   5.188   4.031
 8332TIP3    H224936   2.750   5.127   3.947
 8333TIP3   OH224937   1.511   5.190   4.771
 8333TIP3    H124938   1.573   5.115   4.777
 8333TIP3    H224939   1.574   5.264   4.761
 8334TIP3   OH224940   1.313   5.463   4.841
 8334TIP3    H124941   1.361   5.456   4.756
 8334TIP3    H224942   1.343   5.550   4.872
 8335TIP3   OH224943   3.254   5.498   5.001
 8335TIP3    H124944   3.167   5.539   5.017
 8335TIP3    H224945   3.226   5.421   4.947
 8336TIP3   OH224946   2.891   5.137   3.582
 8336TIP3    H124947   2.932   5.066   3.527
 8336TIP3    H224948   2.958   5.208   3.577
 8337TIP3   OH224949   1.298   4.970   4.346
 8337TIP3    H124950   1.203   4.963   4.368
 8337TIP3    H224951   1.295   5.027   4.266
 8338TIP3   OH224952   2.450   6.676   3.841
 8338TIP3    H124953   2.509   6.661   3.765
 8338TIP3    H224954   2.503   6.736   3.897
 8339TIP3   OH224955   1.518   5.046   5.156
 8339TIP3    H124956   1.466   5.042   5.238
 8339TIP3    H224957   1.453   5.085   5.095
 8340TIP3   OH224958   1.558   6.473   5.231
 8340TIP3    H124959   1.465   6.448   5.216
 8340TIP3    H224960   1.567   6.459   5.326
 8341TIP3   OH224961   1.735   6.508   4.780
 8341TIP3    H124962   1.688   6.584   4.740
 8341TIP3    H224963   1.822   6.521   4.736
 8342TIP3   OH224964   2.179   6.751   4.917
 8342TIP3    H124965   2.221   6.752   5.006
 8342TIP3    H224966   2.245   6.802   4.866
 8343TIP3   OH224967   2.359   6.903   4.778
 8343TIP3    H124968   2.431   6.854   4.736
 8343TIP3    H224969   2.410   6.961   4.839
 8344TIP3   OH224970   3.160   5.271   4.868
 8344TIP3    H124971   3.067   5.263   4.844
 8344TIP3    H224972   3.189   5.177   4.867
 8345TIP3   OH224973   1.414   6.760   4.807
 8345TIP3    H124974   1.324   6.791   4.782
 8345TIP3    H224975   1.426   6.810   4.889
 8346TIP3   OH224976   1.648   6.741   4.661
 8346TIP3    H124977   1.561   6.754   4.706
 8346TIP3    H224978   1.629   6.775   4.572
 8347TIP3   OH224979   2.074   6.770   4.460
 8347TIP3    H124980   2.004   6.790   4.395
 8347TIP3    H224981   2.086   6.858   4.503
 8348TIP3   OH224982   2.343   6.708   4.512
 8348TIP3    H124983   2.249   6.728   4.492
 8348TIP3    H224984   2.387   6.784   4.471
 8349TIP3   OH224985   2.547   6.900   4.426
 8349TIP3    H124986   2.535   6.985   4.379
 8349TIP3    H224987   2.576   6.841   4.353
 8350TIP3   OH224988   1.321   6.555   4.548
 8350TIP3    H124989   1.348   6.532   4.640
 8350TIP3    H224990   1.395   6.513   4.499
 8351TIP3   OH224991   1.517   6.429   4.407
 8351TIP3    H124992   1.534   6.345   4.456
 8351TIP3    H224993   1.607   6.466   4.402
 8352TIP3   OH224994   1.783   6.522   4.410
 8352TIP3    H124995   1.815   6.431   4.399
 8352TIP3    H224996   1.829   6.545   4.493
 8353TIP3   OH224997   2.362   5.181   4.501
 8353TIP3    H124998   2.316   5.110   4.548
 8353TIP3    H224999   2.432   5.134   4.452
 8354TIP3   OH225000   2.880   5.062   4.402
 8354TIP3    H125001   2.917   5.113   4.327
 8354TIP3    H225002   2.785   5.080   4.393
 8355TIP3   OH225003   2.976   5.158   4.165
 8355TIP3    H125004   3.050   5.107   4.126
 8355TIP3    H225005   3.010   5.250   4.151
 8356TIP3   OH225006   1.607   4.889   4.513
 8356TIP3    H125007   1.514   4.858   4.513
 8356TIP3    H225008   1.654   4.804   4.507
 8357TIP3   OH225009   1.400   4.758   4.162
 8357TIP3    H125010   1.427   4.813   4.087
 8357TIP3    H225011   1.369   4.824   4.226
 8358TIP3   OH225012   2.053   4.919   4.393
 8358TIP3    H125013   2.109   4.967   4.331
 8358TIP3    H225014   2.074   4.963   4.477
 8359TIP3   OH225015   2.596   5.068   4.375
 8359TIP3    H125016   2.595   5.029   4.287
 8359TIP3    H225017   2.586   4.989   4.433
 8360TIP3   OH225018   2.628   4.991   3.940
 8360TIP3    H125019   2.541   5.034   3.951
 8360TIP3    H225020   2.612   4.905   3.985
 8361TIP3   OH225021   1.111   6.331   3.939
 8361TIP3    H125022   1.026   6.298   3.906
 8361TIP3    H225023   1.101   6.426   3.918
 8362TIP3   OH225024   1.511   4.913   3.928
 8362TIP3    H125025   1.559   4.853   3.867
 8362TIP3    H225026   1.584   4.969   3.961
 8363TIP3   OH225027   2.022   5.094   4.022
 8363TIP3    H125028   2.083   5.046   4.081
 8363TIP3    H225029   2.045   5.186   4.047
 8364TIP3   OH225030   1.883   6.517   3.517
 8364TIP3    H125031   1.977   6.524   3.490
 8364TIP3    H225032   1.856   6.441   3.460
 8365TIP3   OH225033   2.600   6.635   3.613
 8365TIP3    H125034   2.592   6.537   3.605
 8365TIP3    H225035   2.564   6.663   3.527
 8366TIP3   OH225036   1.815   5.169   5.404
 8366TIP3    H125037   1.779   5.098   5.461
 8366TIP3    H225038   1.909   5.169   5.432
 8367TIP3   OH225039   2.064   5.167   5.524
 8367TIP3    H125040   2.149   5.139   5.485
 8367TIP3    H225041   2.050   5.097   5.591
 8368TIP3   OH225042   1.187   6.357   3.577
 8368TIP3    H125043   1.185   6.380   3.671
 8368TIP3    H225044   1.275   6.314   3.568
 8369TIP3   OH225045   2.828   6.780   4.802
 8369TIP3    H125046   2.749   6.750   4.753
 8369TIP3    H225047   2.809   6.876   4.806
 8370TIP3   OH225048   4.094   6.154   3.567
 8370TIP3    H125049   4.064   6.244   3.545
 8370TIP3    H225050   4.019   6.103   3.531
 8371TIP3   OH225051   4.096   6.154   3.950
 8371TIP3    H125052   4.126   6.123   4.037
 8371TIP3    H225053   4.053   6.074   3.914
 8372TIP3   OH225054   3.392   6.048   4.317
 8372TIP3    H125055   3.424   5.980   4.379
 8372TIP3    H225056   3.472   6.101   4.305
 8373TIP3   OH225057   4.339   6.455   3.631
 8373TIP3    H125058   4.321   6.387   3.697
 8373TIP3    H225059   4.367   6.530   3.686
 8374TIP3   OH225060   3.365   6.457   4.039
 8374TIP3    H125061   3.357   6.360   4.041
 8374TIP3    H225062   3.461   6.467   4.031
 8375TIP3   OH225063   3.071   5.658   3.824
 8375TIP3    H125064   3.024   5.742   3.839
 8375TIP3    H225065   2.999   5.606   3.782
 8376TIP3   OH225066   3.129   5.947   3.997
 8376TIP3    H125067   3.179   5.870   4.032
 8376TIP3    H225068   3.190   5.980   3.929
 8377TIP3   OH225069   3.987   6.917   3.649
 8377TIP3    H125070   4.032   6.846   3.598
 8377TIP3    H225071   3.979   6.877   3.736
 8378TIP3   OH225072   3.892   6.379   4.000
 8378TIP3    H125073   3.930   6.303   3.952
 8378TIP3    H225074   3.975   6.425   4.023
 8379TIP3   OH225075   4.906   5.699   3.995
 8379TIP3    H125076   4.936   5.781   4.037
 8379TIP3    H225077   4.929   5.716   3.902
 8380TIP3   OH225078   4.305   5.880   4.030
 8380TIP3    H125079   4.347   5.794   4.050
 8380TIP3    H225080   4.273   5.864   3.939
 8381TIP3   OH225081   3.643   5.539   3.995
 8381TIP3    H125082   3.624   5.612   3.932
 8381TIP3    H225083   3.595   5.466   3.951
 8382TIP3   OH225084   4.337   5.631   3.617
 8382TIP3    H125085   4.408   5.615   3.683
 8382TIP3    H225086   4.389   5.666   3.543
 8383TIP3   OH225087   3.276   5.741   4.102
 8383TIP3    H125088   3.359   5.722   4.150
 8383TIP3    H225089   3.290   5.685   4.022
 8384TIP3   OH225090   3.716   5.938   3.899
 8384TIP3    H125091   3.811   5.914   3.909
 8384TIP3    H225092   3.678   5.855   3.864
 8385TIP3   OH225093   4.980   5.907   4.165
 8385TIP3    H125094   4.896   5.953   4.144
 8385TIP3    H225095   4.990   5.929   4.258
 8386TIP3   OH225096   3.639   5.523   4.430
 8386TIP3    H125097   3.579   5.560   4.362
 8386TIP3    H225098   3.587   5.541   4.511
 8387TIP3   OH225099   3.989   6.376   3.436
 8387TIP3    H125100   3.949   6.356   3.348
 8387TIP3    H225101   3.939   6.455   3.461
 8388TIP3   OH225102   3.747   6.298   4.224
 8388TIP3    H125103   3.685   6.366   4.261
 8388TIP3    H225104   3.788   6.347   4.150
 8389TIP3   OH225105   4.547   5.634   3.790
 8389TIP3    H125106   4.536   5.585   3.872
 8389TIP3    H225107   4.599   5.711   3.818
 8390TIP3   OH225108   3.510   5.638   4.214
 8390TIP3    H125109   3.573   5.710   4.237
 8390TIP3    H225110   3.559   5.597   4.138
 8391TIP3   OH225111   3.575   6.493   4.323
 8391TIP3    H125112   3.549   6.579   4.284
 8391TIP3    H225113   3.495   6.477   4.378
 8392TIP3   OH225114   2.966   6.183   3.558
 8392TIP3    H125115   2.929   6.211   3.473
 8392TIP3    H225116   3.000   6.267   3.595
 8393TIP3   OH225117   4.408   6.699   3.799
 8393TIP3    H125118   4.318   6.690   3.838
 8393TIP3    H225119   4.400   6.785   3.753
 8394TIP3   OH225120   4.699   5.601   4.162
 8394TIP3    H125121   4.611   5.627   4.129
 8394TIP3    H225122   4.758   5.632   4.091
 8395TIP3   OH225123   3.994   5.240   4.143
 8395TIP3    H125124   3.982   5.145   4.163
 8395TIP3    H225125   3.917   5.277   4.191
 8396TIP3   OH225126   4.109   6.744   3.472
 8396TIP3    H125127   4.159   6.661   3.452
 8396TIP3    H225128   4.171   6.809   3.431
 8397TIP3   OH225129   4.253   6.529   3.379
 8397TIP3    H125130   4.204   6.452   3.345
 8397TIP3    H225131   4.289   6.494   3.463
 8398TIP3   OH225132   4.636   6.609   4.144
 8398TIP3    H125133   4.623   6.533   4.083
 8398TIP3    H225134   4.616   6.685   4.085
 8399TIP3   OH225135   3.925   6.007   3.401
 8399TIP3    H125136   3.845   6.059   3.380
 8399TIP3    H225137   3.967   6.001   3.313
 8400TIP3   OH225138   3.887   5.767   3.144
 8400TIP3    H125139   3.950   5.835   3.172
 8400TIP3    H225140   3.940   5.720   3.077
 8401TIP3   OH225141   4.829   6.249   3.988
 8401TIP3    H125142   4.745   6.300   3.991
 8401TIP3    H225143   4.859   6.272   3.897
 8402TIP3   OH225144   4.274   6.089   3.371
 8402TIP3    H125145   4.217   6.113   3.448
 8402TIP3    H225146   4.357   6.064   3.416
 8403TIP3   OH225147   4.507   6.127   4.283
 8403TIP3    H125148   4.502   6.212   4.331
 8403TIP3    H225149   4.421   6.127   4.238
 8404TIP3   OH225150   3.504   6.085   3.790
 8404TIP3    H125151   3.462   6.027   3.723
 8404TIP3    H225152   3.581   6.031   3.818
 8405TIP3   OH225153   3.633   6.494   3.938
 8405TIP3    H125154   3.613   6.459   3.849
 8405TIP3    H225155   3.723   6.459   3.954
 8406TIP3   OH225156   3.639   6.056   4.143
 8406TIP3    H125157   3.672   6.032   4.054
 8406TIP3    H225158   3.684   6.142   4.161
 8407TIP3   OH225159   4.167   6.694   3.919
 8407TIP3    H125160   4.153   6.774   3.972
 8407TIP3    H225161   4.151   6.622   3.983
 8408TIP3   OH225162   3.780   6.612   4.468
 8408TIP3    H125163   3.718   6.674   4.512
 8408TIP3    H225164   3.715   6.559   4.416
 8409TIP3   OH225165   4.116   5.942   3.199
 8409TIP3    H125166   4.170   6.007   3.248
 8409TIP3    H225167   4.141   5.962   3.106
 8410TIP3   OH225168   3.535   6.168   4.570
 8410TIP3    H125169   3.539   6.256   4.613
 8410TIP3    H225170   3.440   6.149   4.578
 8411TIP3   OH225171   3.855   6.625   3.478
 8411TIP3    H125172   3.937   6.678   3.487
 8411TIP3    H225173   3.797   6.685   3.430
 8412TIP3   OH225174   3.574   6.780   4.553
 8412TIP3    H125175   3.538   6.782   4.462
 8412TIP3    H225176   3.494   6.758   4.606
 8413TIP3   OH225177   4.628   5.186   3.245
 8413TIP3    H125178   4.547   5.205   3.296
 8413TIP3    H225179   4.641   5.269   3.196
 8414TIP3   OH225180   3.369   5.928   3.597
 8414TIP3    H125181   3.306   5.972   3.538
 8414TIP3    H225182   3.332   5.839   3.602
 8415TIP3   OH225183   4.427   6.552   2.792
 8415TIP3    H125184   4.435   6.649   2.779
 8415TIP3    H225185   4.521   6.525   2.783
 8416TIP3   OH225186   3.151   6.312   4.501
 8416TIP3    H125187   3.087   6.290   4.431
 8416TIP3    H225188   3.190   6.224   4.523
 8417TIP3   OH225189   3.007   6.504   4.133
 8417TIP3    H125190   3.103   6.497   4.123
 8417TIP3    H225191   2.999   6.583   4.188
 8418TIP3   OH225192   4.872   6.958   4.193
 8418TIP3    H125193   4.869   6.861   4.200
 8418TIP3    H225194   4.787   6.983   4.235
 8419TIP3   OH225195   3.978   6.740   4.325
 8419TIP3    H125196   3.975   6.833   4.356
 8419TIP3    H225197   3.905   6.701   4.378
 8420TIP3   OH225198   3.739   6.870   3.275
 8420TIP3    H125199   3.692   6.851   3.192
 8420TIP3    H225200   3.705   6.958   3.299
 8421TIP3   OH225201   3.174   6.719   3.661
 8421TIP3    H125202   3.224   6.711   3.745
 8421TIP3    H225203   3.122   6.637   3.664
 8422TIP3   OH225204   3.938   6.773   2.914
 8422TIP3    H125205   3.996   6.702   2.878
 8422TIP3    H225206   3.972   6.782   3.006
 8423TIP3   OH225207   3.990   6.820   3.184
 8423TIP3    H125208   3.901   6.829   3.225
 8423TIP3    H225209   4.040   6.779   3.256
 8424TIP3   OH225210   4.758   6.087   4.463
 8424TIP3    H125211   4.677   6.097   4.411
 8424TIP3    H225212   4.775   5.991   4.452
 8425TIP3   OH225213   3.357   6.494   4.487
 8425TIP3    H125214   3.406   6.478   4.570
 8425TIP3    H225215   3.282   6.431   4.495
 8426TIP3   OH225216   3.756   5.317   4.272
 8426TIP3    H125217   3.667   5.287   4.245
 8426TIP3    H225218   3.731   5.399   4.319
 8427TIP3   OH225219   4.291   5.434   4.468
 8427TIP3    H125220   4.360   5.403   4.530
 8427TIP3    H225221   4.208   5.411   4.515
 8428TIP3   OH225222   4.530   5.863   4.387
 8428TIP3    H125223   4.479   5.859   4.471
 8428TIP3    H225224   4.504   5.949   4.350
 8429TIP3   OH225225   4.199   5.975   2.942
 8429TIP3    H125226   4.145   5.962   2.862
 8429TIP3    H225227   4.261   6.044   2.914
 8430TIP3   OH225228   3.903   5.362   3.245
 8430TIP3    H125229   3.868   5.361   3.336
 8430TIP3    H225230   3.862   5.281   3.210
 8431TIP3   OH225231   3.688   5.834   4.292
 8431TIP3    H125232   3.638   5.855   4.373
 8431TIP3    H225233   3.672   5.914   4.238
 8432TIP3   OH225234   3.573   5.719   3.805
 8432TIP3    H125235   3.480   5.694   3.822
 8432TIP3    H225236   3.586   5.679   3.716
 8433TIP3   OH225237   4.062   5.806   3.534
 8433TIP3    H125238   4.009   5.877   3.491
 8433TIP3    H225239   4.114   5.772   3.458
 8434TIP3   OH225240   4.238   6.084   4.620
 8434TIP3    H125241   4.215   6.010   4.681
 8434TIP3    H225242   4.333   6.094   4.641
 8435TIP3   OH225243   4.219   5.834   3.771
 8435TIP3    H125244   4.158   5.863   3.701
 8435TIP3    H225245   4.253   5.752   3.728
 8436TIP3   OH225246   3.507   5.862   4.500
 8436TIP3    H125247   3.538   5.926   4.567
 8436TIP3    H225248   3.498   5.780   4.552
 8437TIP3   OH225249   3.555   5.338   3.210
 8437TIP3    H125250   3.547   5.338   3.307
 8437TIP3    H225251   3.480   5.394   3.184
 8438TIP3   OH225252   3.100   5.382   4.083
 8438TIP3    H125253   3.176   5.416   4.136
 8438TIP3    H225254   3.141   5.354   4.000
 8439TIP3   OH225255   3.071   5.364   3.601
 8439TIP3    H125256   3.116   5.401   3.522
 8439TIP3    H225257   3.010   5.438   3.621
 8440TIP3   OH225258   4.233   6.078   4.196
 8440TIP3    H125259   4.264   6.007   4.136
 8440TIP3    H225260   4.201   6.024   4.271
 8441TIP3   OH225261   3.901   5.542   3.867
 8441TIP3    H125262   3.819   5.540   3.920
 8441TIP3    H225263   3.970   5.537   3.935
 8442TIP3   OH225264   3.333   5.597   3.875
 8442TIP3    H125265   3.239   5.604   3.847
 8442TIP3    H225266   3.358   5.506   3.851
 8443TIP3   OH225267   3.602   5.594   3.563
 8443TIP3    H125268   3.696   5.609   3.540
 8443TIP3    H225269   3.555   5.615   3.479
 8444TIP3   OH225270   4.391   5.618   4.070
 8444TIP3    H125271   4.357   5.630   4.161
 8444TIP3    H225272   4.326   5.556   4.033
 8445TIP3   OH225273   3.444   5.625   3.342
 8445TIP3    H125274   3.376   5.581   3.288
 8445TIP3    H225275   3.498   5.666   3.272
 8446TIP3   OH225276   4.563   7.304   4.288
 8446TIP3    H125277   4.559   7.330   4.194
 8446TIP3    H225278   4.641   7.355   4.318
 8447TIP3   OH225279   3.519   6.416   4.709
 8447TIP3    H125280   3.598   6.447   4.757
 8447TIP3    H225281   3.454   6.416   4.782
 8448TIP3   OH225282   3.982   5.870   3.964
 8448TIP3    H125283   4.054   5.831   3.913
 8448TIP3    H225284   3.990   5.825   4.051
 8449TIP3   OH225285   3.504   5.358   3.843
 8449TIP3    H125286   3.471   5.279   3.890
 8449TIP3    H225287   3.554   5.319   3.770
 8450TIP3   OH225288   3.959   5.767   4.254
 8450TIP3    H125289   3.869   5.803   4.267
 8450TIP3    H225290   4.016   5.828   4.304
 8451TIP3   OH225291   3.694   6.155   3.348
 8451TIP3    H125292   3.620   6.092   3.336
 8451TIP3    H225293   3.675   6.190   3.438
 8452TIP3   OH225294   4.595   6.393   3.978
 8452TIP3    H125295   4.619   6.444   3.897
 8452TIP3    H225296   4.511   6.351   3.951
 8453TIP3   OH225297   4.152   5.470   3.209
 8453TIP3    H125298   4.056   5.451   3.218
 8453TIP3    H225299   4.159   5.564   3.236
 8454TIP3   OH225300   4.096   6.476   4.346
 8454TIP3    H125301   4.116   6.456   4.438
 8454TIP3    H225302   4.057   6.565   4.351
 8455TIP3   OH225303   4.223   5.716   3.316
 8455TIP3    H125304   4.318   5.727   3.334
 8455TIP3    H225305   4.199   5.798   3.267
 8456TIP3   OH225306   3.387   6.178   4.025
 8456TIP3    H125307   3.424   6.152   3.938
 8456TIP3    H225308   3.432   6.118   4.085
 8457TIP3   OH225309   3.869   6.321   3.194
 8457TIP3    H125310   3.810   6.398   3.182
 8457TIP3    H225311   3.804   6.253   3.221
 8458TIP3   OH225312   3.269   6.100   4.638
 8458TIP3    H125313   3.290   6.087   4.733
 8458TIP3    H225314   3.201   6.033   4.623
 8459TIP3   OH225315   3.995   6.215   4.657
 8459TIP3    H125316   3.935   6.156   4.608
 8459TIP3    H225317   4.082   6.179   4.629
 8460TIP3   OH225318   4.256   6.732   4.243
 8460TIP3    H125319   4.159   6.732   4.254
 8460TIP3    H225320   4.283   6.787   4.320
 8461TIP3   OH225321   4.660   5.806   3.146
 8461TIP3    H125322   4.605   5.762   3.078
 8461TIP3    H225323   4.655   5.899   3.113
 8462TIP3   OH225324   4.886   6.668   4.231
 8462TIP3    H125325   4.789   6.660   4.221
 8462TIP3    H225326   4.913   6.636   4.142
 8463TIP3   OH225327   4.367   6.626   3.059
 8463TIP3    H125328   4.338   6.558   3.121
 8463TIP3    H225329   4.377   6.577   2.976
 8464TIP3   OH225330   4.362   6.255   3.898
 8464TIP3    H125331   4.268   6.231   3.909
 8464TIP3    H225332   4.395   6.176   3.851
 8465TIP3   OH225333   3.491   6.485   3.653
 8465TIP3    H125334   3.492   6.564   3.596
 8465TIP3    H225335   3.396   6.465   3.656
 8466TIP3   OH225336   3.053   5.787   3.352
 8466TIP3    H125337   3.099   5.871   3.374
 8466TIP3    H225338   2.977   5.792   3.414
 8467TIP3   OH225339   3.626   6.247   3.594
 8467TIP3    H125340   3.593   6.338   3.612
 8467TIP3    H225341   3.589   6.198   3.670
 8468TIP3   OH225342   3.758   6.827   4.118
 8468TIP3    H125343   3.799   6.900   4.067
 8468TIP3    H225344   3.835   6.792   4.165
 8469TIP3   OH225345   3.408   6.723   3.501
 8469TIP3    H125346   3.323   6.732   3.548
 8469TIP3    H225347   3.441   6.816   3.504
 8470TIP3   OH225348   4.145   6.460   4.077
 8470TIP3    H125349   4.137   6.458   4.175
 8470TIP3    H225350   4.224   6.406   4.063
 8471TIP3   OH225351   4.116   6.350   2.962
 8471TIP3    H125352   4.172   6.328   3.041
 8471TIP3    H225353   4.028   6.329   2.998
 8472TIP3   OH225354   4.395   6.994   4.127
 8472TIP3    H125355   4.314   6.940   4.118
 8472TIP3    H225356   4.381   7.060   4.055
 8473TIP3   OH225357   4.460   6.828   2.779
 8473TIP3    H125358   4.500   6.903   2.731
 8473TIP3    H225359   4.380   6.872   2.813
 8474TIP3   OH225360   3.480   5.605   4.646
 8474TIP3    H125361   3.384   5.606   4.659
 8474TIP3    H225362   3.510   5.547   4.718
 8475TIP3   OH225363   4.284   6.286   3.172
 8475TIP3    H125364   4.271   6.224   3.246
 8475TIP3    H225365   4.382   6.283   3.164
 8476TIP3   OH225366   3.195   6.688   4.277
 8476TIP3    H125367   3.251   6.616   4.311
 8476TIP3    H225368   3.224   6.762   4.333
 8477TIP3   OH225369   3.469   6.353   2.959
 8477TIP3    H125370   3.526   6.290   2.907
 8477TIP3    H225371   3.472   6.314   3.047
 8478TIP3   OH225372   3.427   6.337   3.246
 8478TIP3    H125373   3.512   6.313   3.287
 8478TIP3    H225374   3.434   6.435   3.242
 8479TIP3   OH225375   3.166   6.031   3.436
 8479TIP3    H125376   3.101   6.078   3.491
 8479TIP3    H225377   3.185   6.099   3.368
 8480TIP3   OH225378   4.317   5.671   4.330
 8480TIP3    H125379   4.399   5.705   4.367
 8480TIP3    H225380   4.303   5.589   4.383
 8481TIP3   OH225381   4.199   5.419   3.493
 8481TIP3    H125382   4.183   5.442   3.399
 8481TIP3    H225383   4.236   5.502   3.529
 8482TIP3   OH225384   3.697   6.532   3.181
 8482TIP3    H125385   3.610   6.561   3.215
 8482TIP3    H225386   3.711   6.598   3.111
 8483TIP3   OH225387   3.886   5.600   3.595
 8483TIP3    H125388   3.949   5.673   3.577
 8483TIP3    H225389   3.892   5.593   3.693
 8484TIP3   OH225390   4.155   5.918   4.402
 8484TIP3    H125391   4.178   5.969   4.482
 8484TIP3    H225392   4.209   5.837   4.412
 8485TIP3   OH225393   4.030   5.325   3.696
 8485TIP3    H125394   4.023   5.403   3.755
 8485TIP3    H225395   4.091   5.360   3.627
 8486TIP3   OH225396   3.442   6.612   3.248
 8486TIP3    H125397   3.411   6.682   3.185
 8486TIP3    H225398   3.427   6.656   3.334
 8487TIP3   OH225399   3.541   5.327   3.487
 8487TIP3    H125400   3.540   5.418   3.522
 8487TIP3    H225401   3.637   5.308   3.494
 8488TIP3   OH225402   4.797   5.821   4.383
 8488TIP3    H125403   4.699   5.819   4.392
 8488TIP3    H225404   4.806   5.772   4.299
 8489TIP3   OH225405   4.447   6.014   3.771
 8489TIP3    H125406   4.370   5.954   3.783
 8489TIP3    H225407   4.518   5.966   3.819
 8490TIP3   OH225408   3.161   6.238   3.238
 8490TIP3    H125409   3.233   6.303   3.252
 8490TIP3    H225410   3.205   6.185   3.168
 8491TIP3   OH225411   3.100   5.517   3.377
 8491TIP3    H125412   3.105   5.614   3.372
 8491TIP3    H225413   3.021   5.498   3.326
 8492TIP3   OH225414   4.416   6.969   3.720
 8492TIP3    H125415   4.373   7.016   3.645
 8492TIP3    H225416   4.510   6.989   3.699
 8493TIP3   OH225417   3.490   5.239   4.248
 8493TIP3    H125418   3.461   5.204   4.160
 8493TIP3    H225419   3.481   5.160   4.305
 8494TIP3   OH225420   3.031   6.454   3.628
 8494TIP3    H125421   2.960   6.487   3.685
 8494TIP3    H225422   3.005   6.495   3.542
 8495TIP3   OH225423   3.188   6.999   4.701
 8495TIP3    H125424   3.274   7.000   4.747
 8495TIP3    H225425   3.168   6.904   4.699
 8496TIP3   OH225426   3.667   6.960   4.747
 8496TIP3    H125427   3.762   6.945   4.750
 8496TIP3    H225428   3.642   6.902   4.672
 8497TIP3   OH225429   3.654   6.540   2.873
 8497TIP3    H125430   3.592   6.473   2.909
 8497TIP3    H225431   3.720   6.481   2.831
 8498TIP3   OH225432   4.306   6.870   4.478
 8498TIP3    H125433   4.300   6.800   4.547
 8498TIP3    H225434   4.382   6.923   4.508
 8499TIP3   OH225435   4.088   6.579   2.787
 8499TIP3    H125436   4.130   6.514   2.846
 8499TIP3    H225437   4.143   6.575   2.707
 8500TIP3   OH225438   3.317   6.404   4.900
 8500TIP3    H125439   3.333   6.308   4.905
 8500TIP3    H225440   3.230   6.407   4.855
 8501TIP3   OH225441   3.300   6.054   3.082
 8501TIP3    H125442   3.357   6.021   3.154
 8501TIP3    H225443   3.365   6.070   3.012
 8502TIP3   OH225444   3.926   6.490   4.673
 8502TIP3    H125445   3.883   6.509   4.587
 8502TIP3    H225446   3.954   6.397   4.664
 8503TIP3   OH225447   4.419   6.499   4.283
 8503TIP3    H125448   4.493   6.542   4.236
 8503TIP3    H225449   4.347   6.563   4.267
 8504TIP3   OH225450   3.436   6.137   4.883
 8504TIP3    H125451   3.515   6.087   4.858
 8504TIP3    H225452   3.463   6.171   4.971
 8505TIP3   OH225453   3.497   5.959   3.313
 8505TIP3    H125454   3.477   5.914   3.396
 8505TIP3    H225455   3.540   5.888   3.261
 8506TIP3   OH225456   3.771   6.022   4.543
 8506TIP3    H125457   3.694   6.083   4.544
 8506TIP3    H225458   3.822   6.057   4.467
 8507TIP3   OH225459   3.606   5.753   3.166
 8507TIP3    H125460   3.579   5.748   3.071
 8507TIP3    H225461   3.704   5.754   3.158
 8508TIP3   OH225462   4.292   6.426   4.680
 8508TIP3    H125463   4.362   6.392   4.623
 8508TIP3    H225464   4.285   6.357   4.748
 8509TIP3   OH225465   4.441   6.086   2.811
 8509TIP3    H125466   4.409   6.038   2.732
 8509TIP3    H225467   4.400   6.174   2.795
 8510TIP3   OH225468   3.895   5.812   4.669
 8510TIP3    H125469   3.896   5.732   4.613
 8510TIP3    H225470   3.851   5.878   4.611
 8511TIP3   OH225471   3.897   5.599   4.478
 8511TIP3    H125472   3.926   5.639   4.394
 8511TIP3    H225473   3.804   5.576   4.459
 8512TIP3   OH225474   3.924   6.134   4.352
 8512TIP3    H125475   4.008   6.143   4.305
 8512TIP3    H225476   3.867   6.200   4.306
 8513TIP3   OH225477   4.507   6.100   4.731
 8513TIP3    H125478   4.551   6.014   4.744
 8513TIP3    H225479   4.578   6.151   4.690
 8514TIP3   OH225480   4.548   6.356   4.473
 8514TIP3    H125481   4.491   6.409   4.411
 8514TIP3    H225482   4.636   6.378   4.436
 8515TIP3   OH225483   3.772   5.922   4.901
 8515TIP3    H125484   3.705   5.853   4.915
 8515TIP3    H225485   3.807   5.897   4.813
 8516TIP3   OH225486   4.031   5.362   4.544
 8516TIP3    H125487   3.980   5.443   4.522
 8516TIP3    H225488   3.963   5.292   4.533
 8517TIP3   OH225489   4.155   5.866   4.761
 8517TIP3    H125490   4.143   5.851   4.856
 8517TIP3    H225491   4.065   5.841   4.729
 8518TIP3   OH225492   4.396   5.819   4.617
 8518TIP3    H125493   4.320   5.816   4.679
 8518TIP3    H225494   4.470   5.784   4.672
 8519TIP3   OH225495   4.628   5.756   4.764
 8519TIP3    H125496   4.639   5.660   4.781
 8519TIP3    H225497   4.623   5.794   4.855
 8520TIP3   OH225498   3.611   5.703   4.955
 8520TIP3    H125499   3.618   5.612   4.920
 8520TIP3    H225500   3.649   5.690   5.044
 8521TIP3   OH225501   4.119   5.373   4.804
 8521TIP3    H125502   4.189   5.304   4.801
 8521TIP3    H225503   4.083   5.365   4.714
 8522TIP3   OH225504   4.191   5.587   4.960
 8522TIP3    H125505   4.169   5.515   4.897
 8522TIP3    H225506   4.112   5.644   4.954
 8523TIP3   OH225507   3.411   6.819   3.062
 8523TIP3    H125508   3.507   6.809   3.044
 8523TIP3    H225509   3.384   6.866   2.982
 8524TIP3   OH225510   2.892   6.197   3.277
 8524TIP3    H125511   2.986   6.219   3.262
 8524TIP3    H225512   2.886   6.108   3.237
 8525TIP3   OH225513   2.805   6.808   3.692
 8525TIP3    H125514   2.740   6.745   3.655
 8525TIP3    H225515   2.851   6.751   3.758
 8526TIP3   OH225516   2.940   6.659   3.879
 8526TIP3    H125517   2.931   6.586   3.942
 8526TIP3    H225518   2.993   6.721   3.931
 8527TIP3   OH225519   4.669   7.059   3.678
 8527TIP3    H125520   4.695   7.096   3.764
 8527TIP3    H225521   4.731   7.103   3.618
 8528TIP3   OH225522   4.695   7.081   3.961
 8528TIP3    H125523   4.654   6.992   3.956
 8528TIP3    H225524   4.775   7.060   4.010
 8529TIP3   OH225525   4.749   6.756   4.539
 8529TIP3    H125526   4.667   6.769   4.591
 8529TIP3    H225527   4.784   6.847   4.533
 8530TIP3   OH225528   4.564   6.267   3.150
 8530TIP3    H125529   4.629   6.334   3.123
 8530TIP3    H225530   4.607   6.231   3.232
 8531TIP3   OH225531   4.689   6.135   3.356
 8531TIP3    H125532   4.622   6.095   3.416
 8531TIP3    H225533   4.754   6.174   3.418
 8532TIP3   OH225534   4.744   6.530   3.789
 8532TIP3    H125535   4.795   6.464   3.739
 8532TIP3    H225536   4.738   6.604   3.726
 8533TIP3   OH225537   4.573   6.828   3.985
 8533TIP3    H125538   4.501   6.873   4.033
 8533TIP3    H225539   4.525   6.783   3.913
 8534TIP3   OH225540   4.625   6.040   3.005
 8534TIP3    H125541   4.556   6.051   2.935
 8534TIP3    H225542   4.603   6.118   3.061
 8535TIP3   OH225543   4.536   5.711   2.897
 8535TIP3    H125544   4.451   5.759   2.888
 8535TIP3    H225545   4.498   5.623   2.925
 8536TIP3   OH225546   4.502   5.994   3.503
 8536TIP3    H125547   4.508   5.897   3.498
 8536TIP3    H225548   4.488   6.009   3.599
 8537TIP3   OH225549   3.127   6.066   4.250
 8537TIP3    H125550   3.126   6.035   4.157
 8537TIP3    H225551   3.225   6.069   4.267
 8538TIP3   OH225552   4.799   6.428   4.383
 8538TIP3    H125553   4.866   6.359   4.365
 8538TIP3    H225554   4.814   6.490   4.309
 8539TIP3   OH225555   4.976   6.224   4.382
 8539TIP3    H125556   4.900   6.172   4.415
 8539TIP3    H225557   5.049   6.159   4.395
 8540TIP3   OH225558   4.438   5.461   2.949
 8540TIP3    H125559   4.511   5.419   2.999
 8540TIP3    H225560   4.364   5.399   2.963
 8541TIP3   OH225561   4.499   5.710   3.398
 8541TIP3    H125562   4.538   5.621   3.414
 8541TIP3    H225563   4.559   5.743   3.329
 8542TIP3   OH225564   4.659   5.883   3.892
 8542TIP3    H125565   4.745   5.909   3.851
 8542TIP3    H225566   4.674   5.920   3.982
 8543TIP3   OH225567   4.730   6.028   4.124
 8543TIP3    H125568   4.651   6.062   4.171
 8543TIP3    H225569   4.762   6.109   4.078
 8544TIP3   OH225570   3.344   5.750   4.921
 8544TIP3    H125571   3.442   5.747   4.925
 8544TIP3    H225572   3.322   5.665   4.963
 8545TIP3   OH225573   5.180   5.620   4.679
 8545TIP3    H125574   5.240   5.554   4.639
 8545TIP3    H225575   5.152   5.673   4.602
 8546TIP3   OH225576   4.609   5.460   3.433
 8546TIP3    H125577   4.656   5.444   3.517
 8546TIP3    H225578   4.547   5.384   3.432
 8547TIP3   OH225579   3.306   5.447   4.258
 8547TIP3    H125580   3.368   5.372   4.265
 8547TIP3    H225581   3.369   5.521   4.248
 8548TIP3   OH225582   3.109   5.720   4.327
 8548TIP3    H125583   3.159   5.713   4.243
 8548TIP3    H225584   3.138   5.806   4.360
 8549TIP3   OH225585   5.050   5.758   4.482
 8549TIP3    H125586   4.961   5.798   4.496
 8549TIP3    H225587   5.025   5.683   4.426
 8550TIP3   OH225588   4.686   5.394   3.065
 8550TIP3    H125589   4.725   5.320   3.015
 8550TIP3    H225590   4.758   5.461   3.061
 8551TIP3   OH225591   3.093   5.223   3.829
 8551TIP3    H125592   3.000   5.220   3.855
 8551TIP3    H225593   3.091   5.282   3.751
 8552TIP3   OH225594   4.253   6.927   3.334
 8552TIP3    H125595   4.304   6.915   3.252
 8552TIP3    H225596   4.304   6.994   3.381
 8553TIP3   OH225597   3.315   5.302   4.639
 8553TIP3    H125598   3.265   5.302   4.723
 8553TIP3    H225599   3.248   5.340   4.579
 8554TIP3   OH225600   3.354   6.730   4.719
 8554TIP3    H125601   3.261   6.704   4.703
 8554TIP3    H225602   3.362   6.714   4.814
 8555TIP3   OH225603   3.532   6.764   4.267
 8555TIP3    H125604   3.484   6.840   4.228
 8555TIP3    H225605   3.618   6.778   4.222
 8556TIP3   OH225606   3.975   7.007   4.405
 8556TIP3    H125607   4.017   7.009   4.493
 8556TIP3    H225608   4.040   7.058   4.352
 8557TIP3   OH225609   4.154   7.159   4.266
 8557TIP3    H125610   4.225   7.111   4.220
 8557TIP3    H225611   4.207   7.217   4.325
 8558TIP3   OH225612   4.950   5.520   4.364
 8558TIP3    H125613   4.859   5.509   4.331
 8558TIP3    H225614   4.984   5.428   4.355
 8559TIP3   OH225615   3.207   7.018   4.293
 8559TIP3    H125616   3.117   7.052   4.269
 8559TIP3    H225617   3.220   7.063   4.377
 8560TIP3   OH225618   3.444   6.998   4.149
 8560TIP3    H125619   3.356   7.011   4.193
 8560TIP3    H225620   3.426   7.032   4.059
 8561TIP3   OH225621   3.869   7.026   3.948
 8561TIP3    H125622   3.801   7.046   3.881
 8561TIP3    H225623   3.882   7.114   3.989
 8562TIP3   OH225624   4.139   6.966   4.000
 8562TIP3    H125625   4.045   6.984   3.980
 8562TIP3    H225626   4.183   7.040   3.956
 8563TIP3   OH225627   4.345   7.157   3.913
 8563TIP3    H125628   4.331   7.242   3.866
 8563TIP3    H225629   4.372   7.098   3.839
 8564TIP3   OH225630   3.118   6.813   4.035
 8564TIP3    H125631   3.145   6.787   4.126
 8564TIP3    H225632   3.191   6.770   3.985
 8565TIP3   OH225633   3.313   6.685   3.894
 8565TIP3    H125634   3.330   6.601   3.942
 8565TIP3    H225635   3.404   6.722   3.888
 8566TIP3   OH225636   3.579   6.780   3.897
 8566TIP3    H125637   3.611   6.689   3.883
 8566TIP3    H225638   3.625   6.801   3.980
 8567TIP3   OH225639   4.154   5.436   3.983
 8567TIP3    H125640   4.111   5.365   4.035
 8567TIP3    H225641   4.228   5.388   3.940
 8568TIP3   OH225642   4.677   5.316   3.889
 8568TIP3    H125643   4.713   5.368   3.814
 8568TIP3    H225644   4.582   5.334   3.881
 8569TIP3   OH225645   4.772   5.418   3.652
 8569TIP3    H125646   4.846   5.365   3.614
 8569TIP3    H225647   4.806   5.509   3.637
 8570TIP3   OH225648   3.404   5.145   3.999
 8570TIP3    H125649   3.311   5.112   4.001
 8570TIP3    H225650   3.452   5.059   3.996
 8571TIP3   OH225651   3.190   5.015   3.647
 8571TIP3    H125652   3.221   5.071   3.574
 8571TIP3    H225653   3.163   5.081   3.714
 8572TIP3   OH225654   3.847   5.178   3.882
 8572TIP3    H125655   3.904   5.226   3.819
 8572TIP3    H225656   3.875   5.214   3.967
 8573TIP3   OH225657   4.393   5.325   3.863
 8573TIP3    H125658   4.393   5.285   3.775
 8573TIP3    H225659   4.381   5.245   3.921
 8574TIP3   OH225660   4.424   5.248   3.426
 8574TIP3    H125661   4.337   5.291   3.440
 8574TIP3    H225662   4.409   5.163   3.472
 8575TIP3   OH225663   2.907   6.587   3.429
 8575TIP3    H125664   2.822   6.554   3.393
 8575TIP3    H225665   2.897   6.682   3.409
 8576TIP3   OH225666   3.308   5.172   3.412
 8576TIP3    H125667   3.357   5.111   3.353
 8576TIP3    H225668   3.381   5.228   3.446
 8577TIP3   OH225669   3.818   5.350   3.509
 8577TIP3    H125670   3.879   5.303   3.569
 8577TIP3    H225671   3.840   5.443   3.534
 8578TIP3   OH225672   3.678   6.776   3.007
 8578TIP3    H125673   3.767   6.797   2.973
 8578TIP3    H225674   3.657   6.699   2.949
 8579TIP3   OH225675   4.399   6.893   3.102
 8579TIP3    H125676   4.391   6.795   3.091
 8579TIP3    H225677   4.353   6.925   3.022
 8580TIP3   OH225678   3.612   5.426   4.887
 8580TIP3    H125679   3.575   5.360   4.947
 8580TIP3    H225680   3.706   5.425   4.915
 8581TIP3   OH225681   3.861   5.423   5.008
 8581TIP3    H125682   3.945   5.399   4.966
 8581TIP3    H225683   3.852   5.351   5.074
 8582TIP3   OH225684   2.986   6.610   3.064
 8582TIP3    H125685   2.992   6.632   3.158
 8582TIP3    H225686   3.073   6.568   3.047
 8583TIP3   OH225687   4.686   5.486   4.797
 8583TIP3    H125688   4.704   5.453   4.888
 8583TIP3    H225689   4.775   5.479   4.756
 8584TIP3   OH225690   4.622   7.035   4.293
 8584TIP3    H125691   4.545   7.006   4.239
 8584TIP3    H225692   4.606   7.132   4.293
 8585TIP3   OH225693   5.890   6.405   3.057
 8585TIP3    H125694   5.863   6.498   3.039
 8585TIP3    H225695   5.812   6.359   3.021
 8586TIP3   OH225696   5.885   6.408   3.437
 8586TIP3    H125697   5.920   6.383   3.524
 8586TIP3    H225698   5.847   6.324   3.406
 8587TIP3   OH225699   5.188   6.306   3.806
 8587TIP3    H125700   5.221   6.237   3.866
 8587TIP3    H225701   5.270   6.355   3.788
 8588TIP3   OH225702   6.125   6.702   3.116
 8588TIP3    H125703   6.121   6.635   3.187
 8588TIP3    H225704   6.140   6.783   3.166
 8589TIP3   OH225705   5.161   6.713   3.526
 8589TIP3    H125706   5.153   6.615   3.529
 8589TIP3    H225707   5.257   6.723   3.517
 8590TIP3   OH225708   4.868   5.914   3.305
 8590TIP3    H125709   4.826   6.000   3.326
 8590TIP3    H225710   4.791   5.863   3.277
 8591TIP3   OH225711   4.925   6.203   3.483
 8591TIP3    H125712   4.976   6.127   3.519
 8591TIP3    H225713   4.990   6.242   3.422
 8592TIP3   OH225714   5.785   7.172   3.139
 8592TIP3    H125715   5.827   7.102   3.084
 8592TIP3    H225716   5.788   7.130   3.226
 8593TIP3   OH225717   5.688   6.634   3.488
 8593TIP3    H125718   5.732   6.560   3.443
 8593TIP3    H225719   5.769   6.686   3.509
 8594TIP3   OH225720   6.704   5.954   3.483
 8594TIP3    H125721   6.732   6.039   3.524
 8594TIP3    H225722   6.723   5.973   3.389
 8595TIP3   OH225723   6.098   6.135   3.518
 8595TIP3    H125724   6.144   6.051   3.537
 8595TIP3    H225725   6.069   6.119   3.426
 8596TIP3   OH225726   5.437   5.795   3.483
 8596TIP3    H125727   5.421   5.868   3.419
 8596TIP3    H225728   5.390   5.722   3.437
 8597TIP3   OH225729   6.134   5.889   3.103
 8597TIP3    H125730   6.205   5.873   3.169
 8597TIP3    H225731   6.187   5.923   3.029
 8598TIP3   OH225732   5.073   5.998   3.588
 8598TIP3    H125733   5.155   5.979   3.638
 8598TIP3    H225734   5.089   5.943   3.509
 8599TIP3   OH225735   5.513   6.195   3.386
 8599TIP3    H125736   5.607   6.172   3.396
 8599TIP3    H225737   5.476   6.111   3.351
 8600TIP3   OH225738   6.777   6.163   3.654
 8600TIP3    H125739   6.695   6.211   3.630
 8600TIP3    H225740   6.791   6.196   3.744
 8601TIP3   OH225741   5.435   5.780   3.917
 8601TIP3    H125742   5.376   5.817   3.849
 8601TIP3    H225743   5.383   5.798   3.998
 8602TIP3   OH225744   5.773   6.624   2.928
 8602TIP3    H125745   5.744   6.616   2.837
 8602TIP3    H225746   5.735   6.710   2.954
 8603TIP3   OH225747   5.542   6.554   3.710
 8603TIP3    H125748   5.482   6.624   3.746
 8603TIP3    H225749   5.587   6.602   3.638
 8604TIP3   OH225750   6.342   5.891   3.277
 8604TIP3    H125751   6.334   5.843   3.361
 8604TIP3    H225752   6.395   5.968   3.303
 8605TIP3   OH225753   5.306   5.894   3.701
 8605TIP3    H125754   5.369   5.967   3.725
 8605TIP3    H225755   5.355   5.853   3.626
 8606TIP3   OH225756   5.370   6.750   3.809
 8606TIP3    H125757   5.347   6.836   3.769
 8606TIP3    H225758   5.290   6.736   3.864
 8607TIP3   OH225759   4.764   6.439   3.046
 8607TIP3    H125760   4.724   6.469   2.962
 8607TIP3    H225761   4.796   6.524   3.083
 8608TIP3   OH225762   6.495   5.855   3.648
 8608TIP3    H125763   6.408   5.883   3.616
 8608TIP3    H225764   6.555   5.888   3.577
 8609TIP3   OH225765   5.789   5.498   3.627
 8609TIP3    H125766   5.777   5.403   3.649
 8609TIP3    H225767   5.713   5.536   3.676
 8610TIP3   OH225768   5.898   7.001   2.950
 8610TIP3    H125769   5.949   6.919   2.933
 8610TIP3    H225770   5.963   7.067   2.915
 8611TIP3   OH225771   6.042   6.784   2.868
 8611TIP3    H125772   6.026   6.704   2.816
 8611TIP3    H225773   6.079   6.746   2.951
 8612TIP3   OH225774   5.720   6.259   2.885
 8612TIP3    H125775   5.643   6.315   2.863
 8612TIP3    H225776   5.770   6.259   2.802
 8613TIP3   OH225777   5.679   6.045   2.602
 8613TIP3    H125778   5.745   6.098   2.651
 8613TIP3    H225779   5.739   5.984   2.555
 8614TIP3   OH225780   6.632   6.503   3.484
 8614TIP3    H125781   6.546   6.551   3.479
 8614TIP3    H225782   6.664   6.521   3.393
 8615TIP3   OH225783   6.068   6.341   2.858
 8615TIP3    H125784   6.015   6.366   2.937
 8615TIP3    H225785   6.153   6.318   2.900
 8616TIP3   OH225786   6.303   6.382   3.772
 8616TIP3    H125787   6.302   6.468   3.818
 8616TIP3    H225788   6.219   6.387   3.723
 8617TIP3   OH225789   5.301   6.340   3.277
 8617TIP3    H125790   5.263   6.283   3.207
 8617TIP3    H225791   5.378   6.288   3.307
 8618TIP3   OH225792   5.428   6.748   3.426
 8618TIP3    H125793   5.413   6.713   3.337
 8618TIP3    H225794   5.520   6.718   3.445
 8619TIP3   OH225795   5.432   6.315   3.629
 8619TIP3    H125796   5.468   6.289   3.542
 8619TIP3    H225797   5.479   6.399   3.649
 8620TIP3   OH225798   5.912   6.952   3.400
 8620TIP3    H125799   5.951   7.031   3.441
 8620TIP3    H225800   5.936   6.881   3.461
 8621TIP3   OH225801   5.575   6.868   3.957
 8621TIP3    H125802   5.513   6.931   4.000
 8621TIP3    H225803   5.512   6.815   3.904
 8622TIP3   OH225804   5.907   6.204   2.682
 8622TIP3    H125805   5.967   6.262   2.733
 8622TIP3    H225806   5.935   6.225   2.589
 8623TIP3   OH225807   5.332   6.423   4.061
 8623TIP3    H125808   5.334   6.512   4.100
 8623TIP3    H225809   5.236   6.405   4.063
 8624TIP3   OH225810   5.650   6.882   2.960
 8624TIP3    H125811   5.735   6.930   2.971
 8624TIP3    H225812   5.593   6.950   2.921
 8625TIP3   OH225813   5.369   7.037   4.039
 8625TIP3    H125814   5.336   7.039   3.947
 8625TIP3    H225815   5.289   7.013   4.090
 8626TIP3   OH225816   6.425   5.442   2.733
 8626TIP3    H125817   6.344   5.463   2.782
 8626TIP3    H225818   6.440   5.524   2.682
 8627TIP3   OH225819   5.170   6.184   3.076
 8627TIP3    H125820   5.103   6.229   3.020
 8627TIP3    H225821   5.127   6.101   3.096
 8628TIP3   OH225822   6.225   6.802   2.286
 8628TIP3    H125823   6.244   6.895   2.262
 8628TIP3    H225824   6.290   6.753   2.230
 8629TIP3   OH225825   4.947   6.569   3.988
 8629TIP3    H125826   4.882   6.548   3.918
 8629TIP3    H225827   4.984   6.481   4.010
 8630TIP3   OH225828   4.803   6.760   3.621
 8630TIP3    H125829   4.899   6.754   3.610
 8630TIP3    H225830   4.795   6.841   3.674
 8631TIP3   OH225831   6.667   7.219   3.672
 8631TIP3    H125832   6.648   7.127   3.650
 8631TIP3    H225833   6.586   7.241   3.723
 8632TIP3   OH225834   5.770   6.998   3.810
 8632TIP3    H125835   5.769   7.091   3.841
 8632TIP3    H225836   5.701   6.958   3.867
 8633TIP3   OH225837   5.531   7.124   2.763
 8633TIP3    H125838   5.490   7.109   2.676
 8633TIP3    H225839   5.501   7.214   2.786
 8634TIP3   OH225840   4.971   6.976   3.148
 8634TIP3    H125841   5.021   6.968   3.232
 8634TIP3    H225842   4.915   6.897   3.152
 8635TIP3   OH225843   5.735   7.026   2.402
 8635TIP3    H125844   5.794   6.957   2.364
 8635TIP3    H225845   5.771   7.036   2.492
 8636TIP3   OH225846   5.785   7.078   2.672
 8636TIP3    H125847   5.698   7.084   2.717
 8636TIP3    H225848   5.840   7.040   2.743
 8637TIP3   OH225849   6.556   6.342   3.952
 8637TIP3    H125850   6.476   6.357   3.898
 8637TIP3    H225851   6.571   6.246   3.938
 8638TIP3   OH225852   5.152   6.751   3.974
 8638TIP3    H125853   5.202   6.734   4.057
 8638TIP3    H225854   5.078   6.687   3.981
 8639TIP3   OH225855   5.552   5.574   3.760
 8639TIP3    H125856   5.463   5.544   3.732
 8639TIP3    H225857   5.527   5.656   3.807
 8640TIP3   OH225858   6.088   5.690   3.954
 8640TIP3    H125859   6.157   5.660   4.017
 8640TIP3    H225860   6.004   5.668   4.001
 8641TIP3   OH225861   6.325   6.118   3.872
 8641TIP3    H125862   6.274   6.116   3.956
 8641TIP3    H225863   6.303   6.206   3.835
 8642TIP3   OH225864   5.985   6.247   2.425
 8642TIP3    H125865   5.953   6.224   2.336
 8642TIP3    H225866   6.066   6.298   2.401
 8643TIP3   OH225867   5.693   5.625   2.730
 8643TIP3    H125868   5.664   5.620   2.823
 8643TIP3    H225869   5.660   5.540   2.697
 8644TIP3   OH225870   5.483   6.091   3.777
 8644TIP3    H125871   5.435   6.113   3.859
 8644TIP3    H225872   5.468   6.172   3.723
 8645TIP3   OH225873   5.369   5.976   3.292
 8645TIP3    H125874   5.276   5.949   3.310
 8645TIP3    H225875   5.382   5.935   3.203
 8646TIP3   OH225876   5.857   6.058   3.018
 8646TIP3    H125877   5.807   6.132   2.976
 8646TIP3    H225878   5.915   6.029   2.945
 8647TIP3   OH225879   6.034   6.339   4.106
 8647TIP3    H125880   6.013   6.266   4.168
 8647TIP3    H225881   6.128   6.353   4.126
 8648TIP3   OH225882   6.014   6.089   3.260
 8648TIP3    H125883   5.956   6.121   3.188
 8648TIP3    H225884   6.048   6.009   3.215
 8649TIP3   OH225885   5.302   6.119   3.987
 8649TIP3    H125886   5.338   6.182   4.052
 8649TIP3    H225887   5.293   6.037   4.039
 8650TIP3   OH225888   5.352   5.594   2.697
 8650TIP3    H125889   5.353   5.593   2.794
 8650TIP3    H225890   5.269   5.642   2.680
 8651TIP3   OH225891   4.898   5.640   3.566
 8651TIP3    H125892   4.971   5.672   3.622
 8651TIP3    H225893   4.943   5.607   3.487
 8652TIP3   OH225894   4.858   5.623   3.072
 8652TIP3    H125895   4.944   5.660   3.046
 8652TIP3    H225896   4.807   5.701   3.100
 8653TIP3   OH225897   6.022   6.334   3.681
 8653TIP3    H125898   6.056   6.263   3.622
 8653TIP3    H225899   5.994   6.280   3.758
 8654TIP3   OH225900   5.696   5.799   3.353
 8654TIP3    H125901   5.616   5.796   3.409
 8654TIP3    H225902   5.768   5.795   3.419
 8655TIP3   OH225903   5.130   5.854   3.361
 8655TIP3    H125904   5.036   5.859   3.334
 8655TIP3    H225905   5.155   5.762   3.341
 8656TIP3   OH225906   5.397   5.849   3.049
 8656TIP3    H125907   5.493   5.862   3.036
 8656TIP3    H225908   5.358   5.873   2.963
 8657TIP3   OH225909   6.189   5.874   3.557
 8657TIP3    H125910   6.153   5.886   3.648
 8657TIP3    H225911   6.124   5.813   3.519
 8658TIP3   OH225912   5.236   5.878   2.818
 8658TIP3    H125913   5.171   5.838   2.758
 8658TIP3    H225914   5.296   5.923   2.754
 8659TIP3   OH225915   6.358   7.564   3.776
 8659TIP3    H125916   6.355   7.582   3.680
 8659TIP3    H225917   6.439   7.611   3.803
 8660TIP3   OH225918   5.313   6.672   4.198
 8660TIP3    H125919   5.395   6.702   4.240
 8660TIP3    H225920   5.251   6.678   4.273
 8661TIP3   OH225921   5.778   6.125   3.448
 8661TIP3    H125922   5.853   6.090   3.397
 8661TIP3    H225923   5.790   6.082   3.535
 8662TIP3   OH225924   5.297   5.615   3.329
 8662TIP3    H125925   5.265   5.535   3.377
 8662TIP3    H225926   5.357   5.575   3.264
 8663TIP3   OH225927   5.755   6.021   3.745
 8663TIP3    H125928   5.666   6.061   3.755
 8663TIP3    H225929   5.813   6.084   3.792
 8664TIP3   OH225930   5.490   6.414   2.833
 8664TIP3    H125931   5.417   6.350   2.823
 8664TIP3    H225932   5.473   6.448   2.924
 8665TIP3   OH225933   6.401   6.638   3.464
 8665TIP3    H125934   6.401   6.736   3.461
 8665TIP3    H225935   6.311   6.615   3.435
 8666TIP3   OH225936   5.950   5.724   2.701
 8666TIP3    H125937   5.852   5.711   2.706
 8666TIP3    H225938   5.961   5.819   2.722
 8667TIP3   OH225939   5.883   6.725   3.837
 8667TIP3    H125940   5.921   6.719   3.925
 8667TIP3    H225941   5.859   6.819   3.831
 8668TIP3   OH225942   6.019   5.975   2.801
 8668TIP3    H125943   6.116   5.980   2.817
 8668TIP3    H225944   6.002   6.055   2.747
 8669TIP3   OH225945   5.180   6.431   3.511
 8669TIP3    H125946   5.220   6.408   3.424
 8669TIP3    H225947   5.233   6.376   3.571
 8670TIP3   OH225948   5.637   6.562   2.654
 8670TIP3    H125949   5.589   6.648   2.659
 8670TIP3    H225950   5.585   6.508   2.717
 8671TIP3   OH225951   5.062   6.357   4.127
 8671TIP3    H125952   5.080   6.337   4.221
 8671TIP3    H225953   4.995   6.290   4.105
 8672TIP3   OH225954   5.791   6.468   4.146
 8672TIP3    H125955   5.734   6.414   4.091
 8672TIP3    H225956   5.880   6.436   4.117
 8673TIP3   OH225957   6.050   6.976   3.745
 8673TIP3    H125958   5.954   6.991   3.738
 8673TIP3    H225959   6.074   7.040   3.814
 8674TIP3   OH225960   6.460   6.066   2.638
 8674TIP3    H125961   6.398   6.022   2.576
 8674TIP3    H225962   6.458   6.156   2.596
 8675TIP3   OH225963   6.676   6.900   3.715
 8675TIP3    H125964   6.586   6.926   3.682
 8675TIP3    H225965   6.715   6.881   3.627
 8676TIP3   OH225966   6.155   6.884   2.544
 8676TIP3    H125967   6.141   6.809   2.603
 8676TIP3    H225968   6.176   6.841   2.458
 8677TIP3   OH225969   6.147   6.515   3.383
 8677TIP3    H125970   6.054   6.487   3.392
 8677TIP3    H225971   6.187   6.437   3.340
 8678TIP3   OH225972   5.287   6.740   3.137
 8678TIP3    H125973   5.289   6.821   3.082
 8678TIP3    H225974   5.192   6.726   3.145
 8679TIP3   OH225975   4.825   6.050   2.814
 8679TIP3    H125976   4.886   6.123   2.838
 8679TIP3    H225977   4.765   6.052   2.892
 8680TIP3   OH225978   5.418   6.502   3.078
 8680TIP3    H125979   5.388   6.594   3.097
 8680TIP3    H225980   5.386   6.455   3.156
 8681TIP3   OH225981   5.555   7.083   3.605
 8681TIP3    H125982   5.598   7.154   3.552
 8681TIP3    H225983   5.633   7.044   3.648
 8682TIP3   OH225984   5.203   6.980   2.987
 8682TIP3    H125985   5.118   6.989   3.034
 8682TIP3    H225986   5.236   7.072   2.991
 8683TIP3   OH225987   5.944   6.714   3.564
 8683TIP3    H125988   5.936   6.710   3.661
 8683TIP3    H225989   6.026   6.664   3.548
 8684TIP3   OH225990   5.913   6.612   2.460
 8684TIP3    H125991   5.971   6.588   2.535
 8684TIP3    H225992   5.827   6.585   2.494
 8685TIP3   OH225993   6.184   7.275   3.637
 8685TIP3    H125994   6.147   7.190   3.609
 8685TIP3    H225995   6.176   7.327   3.554
 8686TIP3   OH225996   6.258   7.085   2.265
 8686TIP3    H125997   6.300   7.161   2.220
 8686TIP3    H225998   6.176   7.127   2.296
 8687TIP3   OH225999   5.275   5.863   4.133
 8687TIP3    H126000   5.178   5.864   4.143
 8687TIP3    H226001   5.302   5.801   4.203
 8688TIP3   OH226002   6.079   6.548   2.671
 8688TIP3    H126003   6.071   6.477   2.738
 8688TIP3    H226004   6.175   6.543   2.652
 8689TIP3   OH226005   4.991   6.946   3.765
 8689TIP3    H126006   5.047   6.873   3.796
 8689TIP3    H226007   5.024   7.019   3.818
 8690TIP3   OH226008   5.279   6.593   2.447
 8690TIP3    H126009   5.301   6.503   2.419
 8690TIP3    H226010   5.262   6.581   2.542
 8691TIP3   OH226011   5.228   6.595   2.721
 8691TIP3    H126012   5.304   6.570   2.775
 8691TIP3    H226013   5.231   6.693   2.727
 8692TIP3   OH226014   4.961   6.285   2.921
 8692TIP3    H126015   4.896   6.332   2.978
 8692TIP3    H226016   4.979   6.355   2.855
 8693TIP3   OH226017   6.112   5.928   3.817
 8693TIP3    H126018   6.195   5.964   3.851
 8693TIP3    H226019   6.100   5.846   3.870
 8694TIP3   OH226020   5.992   5.678   2.981
 8694TIP3    H126021   5.981   5.699   2.887
 8694TIP3    H226022   6.033   5.760   3.016
 8695TIP3   OH226023   5.492   6.790   2.666
 8695TIP3    H126024   5.407   6.820   2.703
 8695TIP3    H226025   5.514   6.865   2.609
 8696TIP3   OH226026   5.676   5.859   3.082
 8696TIP3    H126027   5.743   5.929   3.063
 8696TIP3    H226028   5.687   5.850   3.180
 8697TIP3   OH226029   5.950   6.173   3.890
 8697TIP3    H126030   5.975   6.227   3.968
 8697TIP3    H226031   6.007   6.094   3.899
 8698TIP3   OH226032   5.825   5.582   3.182
 8698TIP3    H126033   5.823   5.657   3.244
 8698TIP3    H226034   5.887   5.617   3.114
 8699TIP3   OH226035   5.236   6.868   2.735
 8699TIP3    H126036   5.207   6.939   2.673
 8699TIP3    H226037   5.222   6.911   2.822
 8700TIP3   OH226038   5.341   5.585   2.972
 8700TIP3    H126039   5.343   5.675   3.011
 8700TIP3    H226040   5.436   5.561   2.982
 8701TIP3   OH226041   6.593   6.075   3.872
 8701TIP3    H126042   6.494   6.073   3.878
 8701TIP3    H226043   6.605   6.038   3.783
 8702TIP3   OH226044   6.243   6.269   3.259
 8702TIP3    H126045   6.168   6.208   3.272
 8702TIP3    H226046   6.316   6.224   3.306
 8703TIP3   OH226047   4.956   6.498   2.727
 8703TIP3    H126048   5.024   6.567   2.739
 8703TIP3    H226049   5.002   6.443   2.660
 8704TIP3   OH226050   6.206   7.250   3.215
 8704TIP3    H126051   6.168   7.291   3.135
 8704TIP3    H226052   6.300   7.251   3.191
 8705TIP3   OH226053   5.286   5.496   3.734
 8705TIP3    H126054   5.257   5.460   3.647
 8705TIP3    H226055   5.278   5.418   3.792
 8706TIP3   OH226056   4.825   6.709   3.114
 8706TIP3    H126057   4.756   6.742   3.173
 8706TIP3    H226058   4.798   6.751   3.029
 8707TIP3   OH226059   4.984   7.256   4.188
 8707TIP3    H126060   5.071   7.258   4.234
 8707TIP3    H226061   4.966   7.161   4.185
 8708TIP3   OH226062   5.461   7.217   4.234
 8708TIP3    H126063   5.557   7.205   4.239
 8708TIP3    H226064   5.439   7.158   4.158
 8709TIP3   OH226065   5.446   6.795   2.357
 8709TIP3    H126066   5.393   6.722   2.396
 8709TIP3    H226067   5.523   6.746   2.324
 8710TIP3   OH226068   6.096   7.131   3.971
 8710TIP3    H126069   6.094   7.058   4.037
 8710TIP3    H226070   6.178   7.179   3.995
 8711TIP3   OH226071   5.882   6.834   2.269
 8711TIP3    H126072   5.928   6.771   2.328
 8711TIP3    H226073   5.939   6.830   2.189
 8712TIP3   OH226074   5.111   6.650   4.395
 8712TIP3    H126075   5.134   6.556   4.377
 8712TIP3    H226076   5.028   6.660   4.344
 8713TIP3   OH226077   5.091   6.309   2.583
 8713TIP3    H126078   5.150   6.282   2.656
 8713TIP3    H226079   5.156   6.314   2.510
 8714TIP3   OH226080   5.718   6.745   4.163
 8714TIP3    H126081   5.682   6.767   4.074
 8714TIP3    H226082   5.751   6.654   4.150
 8715TIP3   OH226083   5.591   6.507   2.387
 8715TIP3    H126084   5.603   6.521   2.483
 8715TIP3    H226085   5.597   6.409   2.382
 8716TIP3   OH226086   6.223   6.760   3.755
 8716TIP3    H126087   6.283   6.793   3.687
 8716TIP3    H226088   6.154   6.830   3.753
 8717TIP3   OH226089   5.234   6.395   4.371
 8717TIP3    H126090   5.309   6.348   4.334
 8717TIP3    H226091   5.267   6.421   4.458
 8718TIP3   OH226092   5.292   6.217   2.798
 8718TIP3    H126093   5.273   6.179   2.885
 8718TIP3    H226094   5.335   6.143   2.751
 8719TIP3   OH226095   5.566   6.276   4.028
 8719TIP3    H126096   5.491   6.339   4.030
 8719TIP3    H226097   5.619   6.311   3.953
 8720TIP3   OH226098   5.401   6.008   2.645
 8720TIP3    H126099   5.378   6.016   2.550
 8720TIP3    H226100   5.499   6.012   2.639
 8721TIP3   OH226101   6.085   6.681   4.165
 8721TIP3    H126102   6.162   6.656   4.112
 8721TIP3    H226103   6.084   6.612   4.235
 8722TIP3   OH226104   6.223   6.344   2.305
 8722TIP3    H126105   6.197   6.302   2.221
 8722TIP3    H226106   6.237   6.435   2.272
 8723TIP3   OH226107   5.690   6.069   4.158
 8723TIP3    H126108   5.693   5.989   4.101
 8723TIP3    H226109   5.648   6.135   4.098
 8724TIP3   OH226110   5.694   5.855   3.967
 8724TIP3    H126111   5.723   5.897   3.883
 8724TIP3    H226112   5.601   5.832   3.946
 8725TIP3   OH226113   5.720   6.389   3.839
 8725TIP3    H126114   5.805   6.401   3.795
 8725TIP3    H226115   5.665   6.457   3.793
 8726TIP3   OH226116   6.303   6.357   4.219
 8726TIP3    H126117   6.352   6.274   4.222
 8726TIP3    H226118   6.369   6.417   4.181
 8727TIP3   OH226119   6.341   6.615   3.952
 8727TIP3    H126120   6.287   6.670   3.890
 8727TIP3    H226121   6.430   6.632   3.915
 8728TIP3   OH226122   5.567   6.179   4.390
 8728TIP3    H126123   5.502   6.107   4.401
 8728TIP3    H226124   5.603   6.158   4.301
 8729TIP3   OH226125   5.826   5.618   4.033
 8729TIP3    H126126   5.777   5.700   4.009
 8729TIP3    H226127   5.758   5.549   4.020
 8730TIP3   OH226128   5.952   6.121   4.248
 8730TIP3    H126129   5.939   6.107   4.343
 8730TIP3    H226130   5.863   6.097   4.215
 8731TIP3   OH226131   6.192   6.075   4.103
 8731TIP3    H126132   6.117   6.073   4.165
 8731TIP3    H226133   6.266   6.042   4.159
 8732TIP3   OH226134   6.422   6.014   4.254
 8732TIP3    H126135   6.434   5.917   4.269
 8732TIP3    H226136   6.418   6.050   4.345
 8733TIP3   OH226137   5.409   5.959   4.442
 8733TIP3    H126138   5.413   5.868   4.406
 8733TIP3    H226139   5.447   5.944   4.531
 8734TIP3   OH226140   5.919   5.627   4.290
 8734TIP3    H126141   5.987   5.557   4.284
 8734TIP3    H226142   5.881   5.622   4.201
 8735TIP3   OH226143   5.986   5.842   4.449
 8735TIP3    H126144   5.966   5.770   4.385
 8735TIP3    H226145   5.908   5.900   4.440
 8736TIP3   OH226146   5.208   7.072   2.547
 8736TIP3    H126147   5.303   7.063   2.530
 8736TIP3    H226148   5.181   7.122   2.468
 8737TIP3   OH226149   4.688   6.458   2.767
 8737TIP3    H126150   4.783   6.480   2.752
 8737TIP3    H226151   4.681   6.372   2.721
 8738TIP3   OH226152   4.603   7.065   3.177
 8738TIP3    H126153   4.536   7.004   3.141
 8738TIP3    H226154   4.647   7.007   3.243
 8739TIP3   OH226155   4.738   6.915   3.364
 8739TIP3    H126156   4.725   6.843   3.428
 8739TIP3    H226157   4.791   6.977   3.417
 8740TIP3   OH226158   6.462   7.336   3.159
 8740TIP3    H126159   6.499   7.351   3.247
 8740TIP3    H226160   6.540   7.345   3.102
 8741TIP3   OH226161   6.491   7.330   3.447
 8741TIP3    H126162   6.446   7.245   3.434
 8741TIP3    H226163   6.567   7.300   3.500
 8742TIP3   OH226164   6.543   7.011   4.025
 8742TIP3    H126165   6.468   7.023   4.086
 8742TIP3    H226166   6.582   7.101   4.023
 8743TIP3   OH226167   6.355   6.527   2.640
 8743TIP3    H126168   6.421   6.591   2.607
 8743TIP3    H226169   6.402   6.489   2.717
 8744TIP3   OH226170   6.485   6.392   2.841
 8744TIP3    H126171   6.418   6.353   2.902
 8744TIP3    H226172   6.549   6.433   2.903
 8745TIP3   OH226173   6.420   6.300   2.490
 8745TIP3    H126174   6.350   6.304   2.421
 8745TIP3    H226175   6.394   6.378   2.543
 8746TIP3   OH226176   6.291   5.974   2.448
 8746TIP3    H126177   6.255   6.017   2.370
 8746TIP3    H226178   6.265   5.880   2.431
 8747TIP3   OH226179   6.296   6.252   2.990
 8747TIP3    H126180   6.307   6.156   2.984
 8747TIP3    H226181   6.283   6.266   3.086
 8748TIP3   OH226182   4.924   6.322   3.737
 8748TIP3    H126183   4.923   6.292   3.644
 8748TIP3    H226184   5.021   6.326   3.754
 8749TIP3   OH226185   6.585   6.675   3.848
 8749TIP3    H126186   6.659   6.613   3.833
 8749TIP3    H226187   6.608   6.750   3.788
 8750TIP3   OH226188   6.772   6.480   3.862
 8750TIP3    H126189   6.697   6.431   3.902
 8750TIP3    H226190   6.844   6.415   3.877
 8751TIP3   OH226191   6.238   5.706   2.427
 8751TIP3    H126192   6.313   5.678   2.484
 8751TIP3    H226193   6.166   5.647   2.454
 8752TIP3   OH226194   6.294   5.966   2.883
 8752TIP3    H126195   6.336   5.878   2.897
 8752TIP3    H226196   6.352   6.001   2.813
 8753TIP3   OH226197   6.457   6.139   3.380
 8753TIP3    H126198   6.543   6.165   3.339
 8753TIP3    H226199   6.471   6.179   3.468
 8754TIP3   OH226200   6.526   6.284   3.611
 8754TIP3    H126201   6.447   6.321   3.657
 8754TIP3    H226202   6.561   6.365   3.567
 8755TIP3   OH226203   5.143   6.013   4.417
 8755TIP3    H126204   5.240   6.003   4.414
 8755TIP3    H226205   5.118   5.925   4.453
 8756TIP3   OH226206   6.981   5.879   4.167
 8756TIP3    H126207   7.038   5.812   4.123
 8756TIP3    H226208   6.947   5.930   4.091
 8757TIP3   OH226209   6.404   5.717   2.922
 8757TIP3    H126210   6.452   5.701   3.005
 8757TIP3    H226211   6.343   5.640   2.921
 8758TIP3   OH226212   5.102   5.704   3.742
 8758TIP3    H126213   5.163   5.628   3.751
 8758TIP3    H226214   5.165   5.777   3.734
 8759TIP3   OH226215   4.905   5.977   3.814
 8759TIP3    H126216   4.955   5.970   3.730
 8759TIP3    H226217   4.935   6.062   3.847
 8760TIP3   OH226218   6.846   6.013   3.974
 8760TIP3    H126219   6.760   6.056   3.991
 8760TIP3    H226220   6.816   5.942   3.913
 8761TIP3   OH226221   6.484   5.650   2.556
 8761TIP3    H126222   6.524   5.580   2.501
 8761TIP3    H226223   6.550   5.722   2.550
 8762TIP3   OH226224   4.888   5.485   3.309
 8762TIP3    H126225   4.798   5.475   3.343
 8762TIP3    H226226   4.875   5.539   3.229
 8763TIP3   OH226227   6.045   7.188   2.820
 8763TIP3    H126228   6.098   7.173   2.739
 8763TIP3    H226229   6.104   7.244   2.872
 8764TIP3   OH226230   5.111   5.564   4.132
 8764TIP3    H126231   5.058   5.555   4.213
 8764TIP3    H226232   5.044   5.598   4.069
 8765TIP3   OH226233   5.151   6.984   4.204
 8765TIP3    H126234   5.057   6.960   4.190
 8765TIP3    H226235   5.158   6.981   4.300
 8766TIP3   OH226236   5.328   7.022   3.754
 8766TIP3    H126237   5.283   7.099   3.713
 8766TIP3    H226238   5.416   7.034   3.710
 8767TIP3   OH226239   5.771   7.266   3.893
 8767TIP3    H126240   5.816   7.267   3.980
 8767TIP3    H226241   5.837   7.315   3.838
 8768TIP3   OH226242   5.949   7.416   3.749
 8768TIP3    H126243   6.018   7.363   3.704
 8768TIP3    H226244   6.005   7.471   3.808
 8769TIP3   OH226245   6.746   5.778   3.851
 8769TIP3    H126246   6.655   5.771   3.816
 8769TIP3    H226247   6.776   5.684   3.840
 8770TIP3   OH226248   5.002   7.275   3.779
 8770TIP3    H126249   4.913   7.308   3.756
 8770TIP3    H226250   5.016   7.321   3.863
 8771TIP3   OH226251   5.239   7.255   3.636
 8771TIP3    H126252   5.152   7.268   3.679
 8771TIP3    H226253   5.222   7.288   3.546
 8772TIP3   OH226254   5.662   7.284   3.436
 8772TIP3    H126255   5.597   7.307   3.367
 8772TIP3    H226256   5.678   7.371   3.478
 8773TIP3   OH226257   5.936   7.222   3.486
 8773TIP3    H126258   5.843   7.238   3.462
 8773TIP3    H226259   5.982   7.295   3.443
 8774TIP3   OH226260   6.145   7.425   3.408
 8774TIP3    H126261   6.129   7.504   3.353
 8774TIP3    H226262   6.170   7.358   3.339
 8775TIP3   OH226263   4.915   7.069   3.522
 8775TIP3    H126264   4.941   7.044   3.613
 8775TIP3    H226265   4.988   7.026   3.472
 8776TIP3   OH226266   5.110   6.942   3.380
 8776TIP3    H126267   5.127   6.858   3.429
 8776TIP3    H226268   5.201   6.979   3.376
 8777TIP3   OH226269   5.375   7.037   3.386
 8777TIP3    H126270   5.410   6.947   3.370
 8777TIP3    H226271   5.423   7.060   3.467
 8778TIP3   OH226272   5.949   5.692   3.467
 8778TIP3    H126273   5.908   5.621   3.520
 8778TIP3    H226274   6.025   5.646   3.426
 8779TIP3   OH226275   6.473   5.575   3.376
 8779TIP3    H126276   6.509   5.625   3.299
 8779TIP3    H226277   6.377   5.592   3.368
 8780TIP3   OH226278   6.568   5.671   3.139
 8780TIP3    H126279   6.642   5.620   3.099
 8780TIP3    H226280   6.602   5.763   3.124
 8781TIP3   OH226281   5.199   5.402   3.485
 8781TIP3    H126282   5.107   5.367   3.489
 8781TIP3    H226283   5.249   5.317   3.482
 8782TIP3   OH226284   4.981   5.271   3.132
 8782TIP3    H126285   5.020   5.326   3.061
 8782TIP3    H226286   4.960   5.338   3.200
 8783TIP3   OH226287   5.640   5.438   3.368
 8783TIP3    H126288   5.699   5.482   3.305
 8783TIP3    H226289   5.673   5.471   3.453
 8784TIP3   OH226290   6.188   5.581   3.350
 8784TIP3    H126291   6.191   5.541   3.263
 8784TIP3    H226292   6.178   5.502   3.408
 8785TIP3   OH226293   6.220   5.503   2.913
 8785TIP3    H126294   6.133   5.545   2.926
 8785TIP3    H226295   6.206   5.418   2.960
 8786TIP3   OH226296   4.704   6.843   2.913
 8786TIP3    H126297   4.618   6.811   2.880
 8786TIP3    H226298   4.693   6.938   2.896
 8787TIP3   OH226299   5.108   5.428   2.920
 8787TIP3    H126300   5.139   5.374   2.845
 8787TIP3    H226301   5.189   5.481   2.940
 8788TIP3   OH226302   5.616   5.607   2.996
 8788TIP3    H126303   5.677   5.559   3.055
 8788TIP3    H226304   5.639   5.699   3.021
 8789TIP3   OH226305   5.476   7.031   2.496
 8789TIP3    H126306   5.565   7.051   2.461
 8789TIP3    H226307   5.454   6.955   2.436
 8790TIP3   OH226308   6.192   7.150   2.589
 8790TIP3    H126309   6.184   7.052   2.579
 8790TIP3    H226310   6.150   7.180   2.506
 8791TIP3   OH226311   5.406   5.684   4.379
 8791TIP3    H126312   5.372   5.611   4.434
 8791TIP3    H226313   5.501   5.683   4.405
 8792TIP3   OH226314   5.657   5.681   4.496
 8792TIP3    H126315   5.741   5.655   4.455
 8792TIP3    H226316   5.645   5.610   4.563
 8793TIP3   OH226317   4.779   6.866   2.551
 8793TIP3    H126318   4.781   6.890   2.645
 8793TIP3    H226319   4.867   6.825   2.537
 8794TIP3   OH226320   6.483   5.742   4.283
 8794TIP3    H126321   6.501   5.710   4.374
 8794TIP3    H226322   6.571   5.736   4.241
 8795TIP3   OH226323   6.420   7.295   3.781
 8795TIP3    H126324   6.344   7.261   3.729
 8795TIP3    H226325   6.398   7.390   3.781
 8796TIP3   OH226326   7.676   6.665   2.557
 8796TIP3    H126327   7.646   6.754   2.526
 8796TIP3    H226328   7.611   6.610   2.509
 8797TIP3   OH226329   7.693   6.640   2.954
 8797TIP3    H126330   7.723   6.552   2.983
 8797TIP3    H226331   7.653   6.617   2.869
 8798TIP3   OH226332   6.998   6.557   3.276
 8798TIP3    H126333   7.022   6.496   3.348
 8798TIP3    H226334   7.054   6.634   3.295
 8799TIP3   OH226335   7.921   6.951   2.611
 8799TIP3    H126336   7.914   6.886   2.682
 8799TIP3    H226337   7.925   7.035   2.658
 8800TIP3   OH226338   6.965   6.969   3.023
 8800TIP3    H126339   6.947   6.873   3.022
 8800TIP3    H226340   7.061   6.967   3.007
 8801TIP3   OH226341   6.664   6.170   2.799
 8801TIP3    H126342   6.618   6.255   2.815
 8801TIP3    H226343   6.593   6.121   2.753
 8802TIP3   OH226344   6.721   6.462   2.968
 8802TIP3    H126345   6.771   6.387   3.006
 8802TIP3    H226346   6.780   6.492   2.897
 8803TIP3   OH226347   7.621   7.412   2.641
 8803TIP3    H126348   7.636   7.334   2.587
 8803TIP3    H226349   7.539   7.390   2.688
 8804TIP3   OH226350   7.544   6.891   2.999
 8804TIP3    H126351   7.516   6.832   2.926
 8804TIP3    H226352   7.571   6.971   2.947
 8805TIP3   OH226353   8.488   6.220   2.973
 8805TIP3    H126354   8.524   6.295   3.021
 8805TIP3    H226355   8.516   6.239   2.882
 8806TIP3   OH226356   7.885   6.406   2.999
 8806TIP3    H126357   7.930   6.327   3.034
 8806TIP3    H226358   7.864   6.378   2.908
 8807TIP3   OH226359   7.237   6.052   2.968
 8807TIP3    H126360   7.215   6.125   2.906
 8807TIP3    H226361   7.190   5.978   2.924
 8808TIP3   OH226362   7.933   6.145   2.597
 8808TIP3    H126363   8.009   6.125   2.655
 8808TIP3    H226364   7.980   6.179   2.518
 8809TIP3   OH226365   6.868   6.255   3.076
 8809TIP3    H126366   6.951   6.234   3.123
 8809TIP3    H226367   6.880   6.199   2.996
 8810TIP3   OH226368   7.310   6.451   2.871
 8810TIP3    H126369   7.403   6.423   2.884
 8810TIP3    H226370   7.269   6.369   2.836
 8811TIP3   OH226371   7.232   6.037   3.404
 8811TIP3    H126372   7.172   6.072   3.336
 8811TIP3    H226373   7.179   6.054   3.485
 8812TIP3   OH226374   7.566   6.879   2.414
 8812TIP3    H126375   7.521   6.862   2.330
 8812TIP3    H226376   7.530   6.968   2.436
 8813TIP3   OH226377   7.363   6.830   3.202
 8813TIP3    H126378   7.299   6.868   3.266
 8813TIP3    H226379   7.328   6.874   3.122
 8814TIP3   OH226380   8.150   6.142   2.769
 8814TIP3    H126381   8.117   6.102   2.850
 8814TIP3    H226382   8.189   6.225   2.800
 8815TIP3   OH226383   7.105   6.151   3.187
 8815TIP3    H126384   7.169   6.222   3.209
 8815TIP3    H226385   7.151   6.110   3.111
 8816TIP3   OH226386   7.171   6.998   3.295
 8816TIP3    H126387   7.146   7.081   3.250
 8816TIP3    H226388   7.091   6.989   3.353
 8817TIP3   OH226389   6.560   6.695   2.534
 8817TIP3    H126390   6.533   6.725   2.446
 8817TIP3    H226391   6.595   6.778   2.573
 8818TIP3   OH226392   8.292   6.100   3.135
 8818TIP3    H126393   8.205   6.136   3.112
 8818TIP3    H226394   8.350   6.138   3.065
 8819TIP3   OH226395   7.590   5.754   3.122
 8819TIP3    H126396   7.570   5.659   3.133
 8819TIP3    H226397   7.512   5.794   3.166
 8820TIP3   OH226398   7.816   7.029   2.368
 8820TIP3    H126399   7.759   6.958   2.337
 8820TIP3    H226400   7.850   6.991   2.452
 8821TIP3   OH226401   7.523   6.521   2.376
 8821TIP3    H126402   7.441   6.572   2.358
 8821TIP3    H226403   7.560   6.512   2.287
 8822TIP3   OH226404   7.478   6.290   2.096
 8822TIP3    H126405   7.543   6.353   2.132
 8822TIP3    H226406   7.538   6.233   2.043
 8823TIP3   OH226407   8.452   6.741   2.995
 8823TIP3    H126408   8.360   6.773   3.006
 8823TIP3    H226409   8.471   6.780   2.909
 8824TIP3   OH226410   7.855   6.584   2.359
 8824TIP3    H126411   7.807   6.609   2.440
 8824TIP3    H226412   7.944   6.563   2.396
 8825TIP3   OH226413   8.109   6.631   3.267
 8825TIP3    H126414   8.099   6.709   3.325
 8825TIP3    H226415   8.041   6.649   3.199
 8826TIP3   OH226416   7.093   6.594   2.765
 8826TIP3    H126417   7.051   6.540   2.694
 8826TIP3    H226418   7.172   6.541   2.786
 8827TIP3   OH226419   7.232   6.955   2.921
 8827TIP3    H126420   7.183   6.958   2.836
 8827TIP3    H226421   7.280   7.039   2.915
 8828TIP3   OH226422   7.265   6.567   3.122
 8828TIP3    H126423   7.268   6.543   3.027
 8828TIP3    H226424   7.271   6.664   3.121
 8829TIP3   OH226425   7.723   7.163   2.920
 8829TIP3    H126426   7.729   7.260   2.913
 8829TIP3    H226427   7.784   7.148   2.993
 8830TIP3   OH226428   7.372   7.120   3.440
 8830TIP3    H126429   7.315   7.186   3.486
 8830TIP3    H226430   7.304   7.073   3.388
 8831TIP3   OH226431   7.703   6.453   2.164
 8831TIP3    H126432   7.762   6.511   2.217
 8831TIP3    H226433   7.731   6.475   2.072
 8832TIP3   OH226434   7.126   6.680   3.541
 8832TIP3    H126435   7.130   6.767   3.585
 8832TIP3    H226436   7.031   6.658   3.558
 8833TIP3   OH226437   7.451   7.147   2.438
 8833TIP3    H126438   7.464   7.229   2.485
 8833TIP3    H226439   7.381   7.174   2.376
 8834TIP3   OH226440   7.169   7.293   3.526
 8834TIP3    H126441   7.136   7.295   3.434
 8834TIP3    H226442   7.088   7.269   3.577
 8835TIP3   OH226443   8.216   5.700   2.217
 8835TIP3    H126444   8.137   5.711   2.274
 8835TIP3    H226445   8.233   5.790   2.189
 8836TIP3   OH226446   6.962   6.440   2.568
 8836TIP3    H126447   6.900   6.491   2.510
 8836TIP3    H226448   6.916   6.356   2.573
 8837TIP3   OH226449   6.769   6.824   3.469
 8837TIP3    H126450   6.676   6.834   3.438
 8837TIP3    H226451   6.778   6.728   3.481
 8838TIP3   OH226452   6.603   7.036   3.072
 8838TIP3    H126453   6.694   7.010   3.087
 8838TIP3    H226454   6.573   7.060   3.161
 8839TIP3   OH226455   7.564   7.264   3.294
 8839TIP3    H126456   7.552   7.354   3.328
 8839TIP3    H226457   7.498   7.214   3.347
 8840TIP3   OH226458   7.298   7.358   2.268
 8840TIP3    H126459   7.282   7.347   2.173
 8840TIP3    H226460   7.342   7.444   2.273
 8841TIP3   OH226461   6.762   7.235   2.634
 8841TIP3    H126462   6.817   7.233   2.716
 8841TIP3    H226463   6.714   7.151   2.644
 8842TIP3   OH226464   8.383   6.620   3.413
 8842TIP3    H126465   8.289   6.616   3.394
 8842TIP3    H226466   8.406   6.525   3.421
 8843TIP3   OH226467   6.960   7.014   3.463
 8843TIP3    H126468   7.004   6.994   3.548
 8843TIP3    H226469   6.887   6.948   3.463
 8844TIP3   OH226470   7.350   5.830   3.247
 8844TIP3    H126471   7.261   5.799   3.219
 8844TIP3    H226472   7.324   5.913   3.293
 8845TIP3   OH226473   7.882   5.945   3.438
 8845TIP3    H126474   7.950   5.924   3.505
 8845TIP3    H226475   7.798   5.929   3.486
 8846TIP3   OH226476   8.117   6.366   3.358
 8846TIP3    H126477   8.074   6.364   3.446
 8846TIP3    H226478   8.103   6.459   3.330
 8847TIP3   OH226479   7.790   6.500   1.908
 8847TIP3    H126480   7.744   6.489   1.823
 8847TIP3    H226481   7.857   6.566   1.885
 8848TIP3   OH226482   7.495   5.876   2.218
 8848TIP3    H126483   7.458   5.874   2.309
 8848TIP3    H226484   7.454   5.795   2.182
 8849TIP3   OH226485   7.286   6.347   3.273
 8849TIP3    H126486   7.223   6.363   3.347
 8849TIP3    H226487   7.270   6.425   3.215
 8850TIP3   OH226488   7.166   6.233   2.779
 8850TIP3    H126489   7.072   6.210   2.795
 8850TIP3    H226490   7.178   6.194   2.690
 8851TIP3   OH226491   7.656   6.320   2.508
 8851TIP3    H126492   7.604   6.390   2.464
 8851TIP3    H226493   7.710   6.287   2.434
 8852TIP3   OH226494   7.830   6.595   3.589
 8852TIP3    H126495   7.811   6.522   3.652
 8852TIP3    H226496   7.920   6.619   3.619
 8853TIP3   OH226497   7.812   6.349   2.740
 8853TIP3    H126498   7.749   6.372   2.669
 8853TIP3    H226499   7.848   6.267   2.700
 8854TIP3   OH226500   7.110   6.378   3.478
 8854TIP3    H126501   7.098   6.445   3.548
 8854TIP3    H226502   7.093   6.295   3.527
 8855TIP3   OH226503   7.149   5.853   2.185
 8855TIP3    H126504   7.138   5.852   2.281
 8855TIP3    H226505   7.073   5.907   2.157
 8856TIP3   OH226506   6.692   5.895   3.057
 8856TIP3    H126507   6.768   5.929   3.109
 8856TIP3    H226508   6.731   5.869   2.972
 8857TIP3   OH226509   6.663   5.879   2.574
 8857TIP3    H126510   6.707   5.917   2.494
 8857TIP3    H226511   6.602   5.953   2.594
 8858TIP3   OH226512   7.495   6.052   2.841
 8858TIP3    H126513   7.410   6.053   2.890
 8858TIP3    H226514   7.559   6.054   2.914
 8859TIP3   OH226515   6.925   6.111   2.849
 8859TIP3    H126516   6.831   6.121   2.821
 8859TIP3    H226517   6.947   6.020   2.823
 8860TIP3   OH226518   7.196   6.108   2.537
 8860TIP3    H126519   7.288   6.123   2.510
 8860TIP3    H226520   7.145   6.128   2.455
 8861TIP3   OH226521   7.980   6.133   3.037
 8861TIP3    H126522   7.951   6.147   3.130
 8861TIP3    H226523   7.911   6.071   3.007
 8862TIP3   OH226524   7.041   6.136   2.317
 8862TIP3    H126525   6.968   6.095   2.268
 8862TIP3    H226526   7.092   6.175   2.243
 8863TIP3   OH226527   7.114   6.924   3.684
 8863TIP3    H126528   7.191   6.958   3.734
 8863TIP3    H226529   7.045   6.927   3.754
 8864TIP3   OH226530   7.572   6.373   2.943
 8864TIP3    H126531   7.646   6.338   2.891
 8864TIP3    H226532   7.585   6.330   3.030
 8865TIP3   OH226533   7.101   5.869   2.817
 8865TIP3    H126534   7.064   5.791   2.863
 8865TIP3    H226535   7.138   5.831   2.737
 8866TIP3   OH226536   7.551   6.276   3.225
 8866TIP3    H126537   7.461   6.310   3.240
 8866TIP3    H226538   7.607   6.336   3.279
 8867TIP3   OH226539   7.292   6.670   2.327
 8867TIP3    H126540   7.220   6.605   2.313
 8867TIP3    H226541   7.270   6.703   2.417
 8868TIP3   OH226542   8.190   6.817   2.948
 8868TIP3    H126543   8.182   6.908   2.913
 8868TIP3    H226544   8.097   6.786   2.936
 8869TIP3   OH226545   7.747   5.978   2.194
 8869TIP3    H126546   7.650   5.962   2.194
 8869TIP3    H226547   7.754   6.074   2.207
 8870TIP3   OH226548   7.813   6.232   2.293
 8870TIP3    H126549   7.910   6.240   2.300
 8870TIP3    H226550   7.790   6.306   2.233
 8871TIP3   OH226551   6.989   6.694   3.004
 8871TIP3    H126552   7.019   6.663   2.915
 8871TIP3    H226553   7.004   6.617   3.060
 8872TIP3   OH226554   7.436   6.821   2.150
 8872TIP3    H126555   7.386   6.906   2.151
 8872TIP3    H226556   7.379   6.765   2.207
 8873TIP3   OH226557   6.872   6.591   3.609
 8873TIP3    H126558   6.873   6.586   3.707
 8873TIP3    H226559   6.789   6.543   3.588
 8874TIP3   OH226560   7.585   6.724   3.630
 8874TIP3    H126561   7.521   6.658   3.596
 8874TIP3    H226562   7.671   6.686   3.604
 8875TIP3   OH226563   7.827   7.212   3.240
 8875TIP3    H126564   7.729   7.222   3.240
 8875TIP3    H226565   7.846   7.263   3.322
 8876TIP3   OH226566   7.936   6.757   2.864
 8876TIP3    H126567   7.849   6.727   2.897
 8876TIP3    H226568   7.967   6.678   2.816
 8877TIP3   OH226569   7.086   6.993   2.631
 8877TIP3    H126570   7.097   7.082   2.592
 8877TIP3    H226571   6.990   6.986   2.629
 8878TIP3   OH226572   6.646   6.300   2.321
 8878TIP3    H126573   6.687   6.388   2.335
 8878TIP3    H226574   6.566   6.308   2.377
 8879TIP3   OH226575   7.221   6.761   2.573
 8879TIP3    H126576   7.186   6.851   2.587
 8879TIP3    H226577   7.178   6.713   2.645
 8880TIP3   OH226578   7.355   7.322   3.116
 8880TIP3    H126579   7.370   7.389   3.045
 8880TIP3    H226580   7.446   7.310   3.147
 8881TIP3   OH226581   6.994   7.230   2.471
 8881TIP3    H126582   6.908   7.244   2.514
 8881TIP3    H226583   7.052   7.281   2.532
 8882TIP3   OH226584   7.648   6.861   1.926
 8882TIP3    H126585   7.696   6.843   2.007
 8882TIP3    H226586   7.561   6.823   1.946
 8883TIP3   OH226587   7.069   6.118   3.619
 8883TIP3    H126588   6.973   6.121   3.630
 8883TIP3    H226589   7.095   6.057   3.690
 8884TIP3   OH226590   7.879   6.777   2.164
 8884TIP3    H126591   7.845   6.723   2.237
 8884TIP3    H226592   7.967   6.737   2.154
 8885TIP3   OH226593   6.788   7.210   3.256
 8885TIP3    H126594   6.836   7.128   3.272
 8885TIP3    H226595   6.833   7.270   3.317
 8886TIP3   OH226596   7.073   6.848   1.931
 8886TIP3    H126597   7.091   6.756   1.905
 8886TIP3    H226598   7.057   6.838   2.027
 8887TIP3   OH226599   7.030   6.855   2.202
 8887TIP3    H126600   7.095   6.830   2.269
 8887TIP3    H226601   7.030   6.953   2.210
 8888TIP3   OH226602   6.763   6.548   2.411
 8888TIP3    H126603   6.694   6.590   2.467
 8888TIP3    H226604   6.769   6.618   2.342
 8889TIP3   OH226605   7.908   6.184   3.297
 8889TIP3    H126606   7.985   6.228   3.338
 8889TIP3    H226607   7.897   6.105   3.354
 8890TIP3   OH226608   7.790   5.932   2.469
 8890TIP3    H126609   7.773   5.951   2.374
 8890TIP3    H226610   7.827   6.017   2.500
 8891TIP3   OH226611   7.291   7.050   2.163
 8891TIP3    H126612   7.202   7.071   2.197
 8891TIP3    H226613   7.303   7.127   2.105
 8892TIP3   OH226614   7.483   6.112   2.568
 8892TIP3    H126615   7.545   6.185   2.549
 8892TIP3    H226616   7.485   6.108   2.666
 8893TIP3   OH226617   7.723   6.428   3.383
 8893TIP3    H126618   7.764   6.486   3.450
 8893TIP3    H226619   7.792   6.361   3.370
 8894TIP3   OH226620   7.623   5.840   2.672
 8894TIP3    H126621   7.606   5.922   2.724
 8894TIP3    H226622   7.683   5.875   2.603
 8895TIP3   OH226623   7.032   7.125   2.221
 8895TIP3    H126624   6.999   7.196   2.161
 8895TIP3    H226625   7.020   7.169   2.309
 8896TIP3   OH226626   7.133   5.840   2.463
 8896TIP3    H126627   7.131   5.932   2.495
 8896TIP3    H226628   7.229   5.822   2.468
 8897TIP3   OH226629   8.389   6.330   3.342
 8897TIP3    H126630   8.293   6.332   3.359
 8897TIP3    H226631   8.389   6.313   3.247
 8898TIP3   OH226632   8.036   6.527   2.747
 8898TIP3    H126633   7.960   6.467   2.753
 8898TIP3    H226634   8.106   6.477   2.794
 8899TIP3   OH226635   6.764   6.758   2.233
 8899TIP3    H126636   6.834   6.825   2.226
 8899TIP3    H226637   6.784   6.703   2.155
 8900TIP3   OH226638   6.693   6.032   2.350
 8900TIP3    H126639   6.697   6.130   2.344
 8900TIP3    H226640   6.616   6.015   2.294
 8901TIP3   OH226641   7.086   5.751   3.220
 8901TIP3    H126642   7.054   5.718   3.133
 8901TIP3    H226643   7.073   5.673   3.277
 8902TIP3   OH226644   6.625   6.965   2.602
 8902TIP3    H126645   6.556   6.998   2.661
 8902TIP3    H226646   6.599   7.006   2.517
 8903TIP3   OH226647   6.778   7.512   3.674
 8903TIP3    H126648   6.865   7.508   3.718
 8903TIP3    H226649   6.754   7.417   3.671
 8904TIP3   OH226650   7.261   7.473   3.718
 8904TIP3    H126651   7.355   7.450   3.723
 8904TIP3    H226652   7.231   7.415   3.646
 8905TIP3   OH226653   7.241   7.045   1.844
 8905TIP3    H126654   7.183   6.975   1.881
 8905TIP3    H226655   7.315   6.991   1.810
 8906TIP3   OH226656   7.899   7.367   3.452
 8906TIP3    H126657   7.889   7.302   3.525
 8906TIP3    H226658   7.979   7.415   3.481
 8907TIP3   OH226659   6.904   6.917   3.868
 8907TIP3    H126660   6.920   6.821   3.873
 8907TIP3    H226661   6.816   6.918   3.825
 8908TIP3   OH226662   6.878   6.567   2.065
 8908TIP3    H126663   6.935   6.543   2.139
 8908TIP3    H226664   6.944   6.571   1.992
 8909TIP3   OH226665   7.514   7.006   3.652
 8909TIP3    H126666   7.477   7.029   3.564
 8909TIP3    H226667   7.551   6.916   3.638
 8910TIP3   OH226668   7.378   6.766   1.882
 8910TIP3    H126669   7.377   6.772   1.979
 8910TIP3    H226670   7.394   6.670   1.870
 8911TIP3   OH226671   8.002   7.004   3.246
 8911TIP3    H126672   8.075   7.054   3.210
 8911TIP3    H226673   7.929   7.070   3.245
 8912TIP3   OH226674   7.029   6.653   3.860
 8912TIP3    H126675   7.105   6.599   3.836
 8912TIP3    H226676   7.056   6.688   3.947
 8913TIP3   OH226677   7.103   6.472   2.294
 8913TIP3    H126678   7.065   6.428   2.371
 8913TIP3    H226679   7.134   6.397   2.239
 8914TIP3   OH226680   7.379   6.561   3.512
 8914TIP3    H126681   7.294   6.606   3.536
 8914TIP3    H226682   7.363   6.542   3.419
 8915TIP3   OH226683   7.196   6.264   2.131
 8915TIP3    H126684   7.170   6.272   2.037
 8915TIP3    H226685   7.294   6.267   2.123
 8916TIP3   OH226686   7.889   6.939   3.655
 8916TIP3    H126687   7.969   6.910   3.607
 8916TIP3    H226688   7.882   6.871   3.724
 8917TIP3   OH226689   7.481   6.325   3.644
 8917TIP3    H126690   7.487   6.245   3.588
 8917TIP3    H226691   7.452   6.393   3.580
 8918TIP3   OH226692   7.491   6.110   3.451
 8918TIP3    H126693   7.519   6.150   3.367
 8918TIP3    H226694   7.397   6.089   3.433
 8919TIP3   OH226695   8.111   6.860   3.450
 8919TIP3    H126696   8.058   6.914   3.387
 8919TIP3    H226697   8.200   6.874   3.410
 8920TIP3   OH226698   7.366   6.434   3.874
 8920TIP3    H126699   7.297   6.367   3.891
 8920TIP3    H226700   7.399   6.406   3.787
 8921TIP3   OH226701   7.621   5.874   3.519
 8921TIP3    H126702   7.573   5.956   3.495
 8921TIP3    H226703   7.550   5.807   3.506
 8922TIP3   OH226704   7.749   6.377   3.730
 8922TIP3    H126705   7.751   6.368   3.827
 8922TIP3    H226706   7.656   6.353   3.711
 8923TIP3   OH226707   7.989   6.319   3.595
 8923TIP3    H126708   7.905   6.327   3.644
 8923TIP3    H226709   8.048   6.365   3.658
 8924TIP3   OH226710   8.275   6.268   3.800
 8924TIP3    H126711   8.211   6.197   3.785
 8924TIP3    H226712   8.215   6.347   3.807
 8925TIP3   OH226713   7.204   6.216   3.928
 8925TIP3    H126714   7.209   6.125   3.892
 8925TIP3    H226715   7.240   6.202   4.018
 8926TIP3   OH226716   7.717   5.878   3.774
 8926TIP3    H126717   7.783   5.807   3.764
 8926TIP3    H226718   7.676   5.877   3.685
 8927TIP3   OH226719   7.765   6.084   3.945
 8927TIP3    H126720   7.751   6.021   3.872
 8927TIP3    H226721   7.695   6.151   3.929
 8928TIP3   OH226722   6.993   7.333   2.038
 8928TIP3    H126723   7.088   7.315   2.029
 8928TIP3    H226724   6.978   7.381   1.954
 8929TIP3   OH226725   6.396   7.323   2.666
 8929TIP3    H126726   6.332   7.259   2.630
 8929TIP3    H226727   6.443   7.266   2.732
 8930TIP3   OH226728   6.532   7.176   2.850
 8930TIP3    H126729   6.534   7.103   2.916
 8930TIP3    H226730   6.587   7.240   2.899
 8931TIP3   OH226731   8.071   6.238   1.942
 8931TIP3    H126732   8.043   6.275   1.857
 8931TIP3    H226733   8.052   6.143   1.928
 8932TIP3   OH226734   8.090   6.503   2.477
 8932TIP3    H126735   8.099   6.407   2.466
 8932TIP3    H226736   8.081   6.515   2.574
 8933TIP3   OH226737   6.726   6.549   3.238
 8933TIP3    H126738   6.707   6.550   3.142
 8933TIP3    H226739   6.823   6.565   3.238
 8934TIP3   OH226740   8.336   6.918   3.314
 8934TIP3    H126741   8.414   6.863   3.336
 8934TIP3    H226742   8.374   6.977   3.246
 8935TIP3   OH226743   8.027   5.967   1.933
 8935TIP3    H126744   8.084   5.913   1.987
 8935TIP3    H226745   7.946   5.913   1.923
 8936TIP3   OH226746   8.091   6.226   2.380
 8936TIP3    H126747   8.127   6.135   2.392
 8936TIP3    H226748   8.138   6.253   2.300
 8937TIP3   OH226749   8.252   6.393   2.854
 8937TIP3    H126750   8.335   6.428   2.818
 8937TIP3    H226751   8.258   6.428   2.946
 8938TIP3   OH226752   8.302   6.520   3.087
 8938TIP3    H126753   8.241   6.559   3.153
 8938TIP3    H226754   8.366   6.593   3.076
 8939TIP3   OH226755   6.937   6.266   3.899
 8939TIP3    H126756   7.035   6.260   3.900
 8939TIP3    H226757   6.914   6.180   3.938
 8940TIP3   OH226758   8.182   5.973   2.423
 8940TIP3    H126759   8.241   5.945   2.495
 8940TIP3    H226760   8.125   5.895   2.414
 8941TIP3   OH226761   6.900   5.959   3.229
 8941TIP3    H126762   6.963   5.885   3.236
 8941TIP3    H226763   6.961   6.035   3.222
 8942TIP3   OH226764   6.704   6.235   3.303
 8942TIP3    H126765   6.752   6.230   3.218
 8942TIP3    H226766   6.715   6.328   3.324
 8943TIP3   OH226767   6.686   5.737   2.802
 8943TIP3    H126768   6.593   5.733   2.828
 8943TIP3    H226769   6.683   5.796   2.724
 8944TIP3   OH226770   6.907   5.816   3.616
 8944TIP3    H126771   6.855   5.811   3.698
 8944TIP3    H226772   6.842   5.855   3.555
 8945TIP3   OH226773   6.947   7.244   3.696
 8945TIP3    H126774   6.855   7.219   3.675
 8945TIP3    H226775   6.951   7.226   3.791
 8946TIP3   OH226776   7.124   7.273   3.245
 8946TIP3    H126777   7.078   7.348   3.203
 8946TIP3    H226778   7.211   7.285   3.198
 8947TIP3   OH226779   7.585   7.539   3.376
 8947TIP3    H126780   7.604   7.528   3.471
 8947TIP3    H226781   7.675   7.539   3.341
 8948TIP3   OH226782   8.518   5.998   3.355
 8948TIP3    H126783   8.464   6.066   3.312
 8948TIP3    H226784   8.575   5.970   3.283
 8949TIP3   OH226785   6.800   7.543   3.262
 8949TIP3    H126786   6.711   7.576   3.237
 8949TIP3    H226787   6.799   7.558   3.356
 8950TIP3   OH226788   7.046   7.514   3.133
 8950TIP3    H126789   6.955   7.528   3.168
 8950TIP3    H226790   7.034   7.543   3.040
 8951TIP3   OH226791   7.446   7.514   2.946
 8951TIP3    H126792   7.390   7.519   2.867
 8951TIP3    H226793   7.498   7.595   2.937
 8952TIP3   OH226794   6.709   7.332   3.013
 8952TIP3    H126795   6.736   7.298   3.102
 8952TIP3    H226796   6.778   7.286   2.959
 8953TIP3   OH226797   6.894   7.200   2.869
 8953TIP3    H126798   6.932   7.125   2.919
 8953TIP3    H226799   6.975   7.244   2.833
 8954TIP3   OH226800   7.751   5.952   2.965
 8954TIP3    H126801   7.705   5.882   3.013
 8954TIP3    H226802   7.815   5.902   2.911
 8955TIP3   OH226803   8.277   5.827   2.866
 8955TIP3    H126804   8.311   5.879   2.791
 8955TIP3    H226805   8.181   5.845   2.859
 8956TIP3   OH226806   8.377   5.922   2.622
 8956TIP3    H126807   8.448   5.870   2.580
 8956TIP3    H226808   8.408   6.013   2.612
 8957TIP3   OH226809   6.995   5.658   2.973
 8957TIP3    H126810   6.902   5.627   2.975
 8957TIP3    H226811   7.043   5.572   2.968
 8958TIP3   OH226812   6.786   5.528   2.622
 8958TIP3    H126813   6.814   5.585   2.548
 8958TIP3    H226814   6.756   5.595   2.687
 8959TIP3   OH226815   7.444   5.686   2.853
 8959TIP3    H126816   7.499   5.737   2.792
 8959TIP3    H226817   7.457   5.734   2.936
 8960TIP3   OH226818   7.995   5.838   2.833
 8960TIP3    H126819   7.983   5.805   2.744
 8960TIP3    H226820   7.975   5.759   2.888
 8961TIP3   OH226821   8.012   5.759   2.399
 8961TIP3    H126822   7.926   5.802   2.410
 8961TIP3    H226823   7.997   5.673   2.444
 8962TIP3   OH226824   6.499   7.098   2.402
 8962TIP3    H126825   6.415   7.064   2.367
 8962TIP3    H226826   6.487   7.193   2.386
 8963TIP3   OH226827   6.900   5.684   2.386
 8963TIP3    H126828   6.948   5.624   2.326
 8963TIP3    H226829   6.972   5.740   2.421
 8964TIP3   OH226830   7.410   5.863   2.483
 8964TIP3    H126831   7.471   5.815   2.542
 8964TIP3    H226832   7.434   5.955   2.507
 8965TIP3   OH226833   7.260   7.275   1.997
 8965TIP3    H126834   7.327   7.332   1.953
 8965TIP3    H226835   7.250   7.203   1.931
 8966TIP3   OH226836   7.202   5.940   3.865
 8966TIP3    H126837   7.167   5.869   3.921
 8966TIP3    H226838   7.297   5.940   3.893
 8967TIP3   OH226839   7.452   5.937   3.984
 8967TIP3    H126840   7.537   5.914   3.944
 8967TIP3    H226841   7.440   5.865   4.049
 8968TIP3   OH226842   6.580   7.134   2.041
 8968TIP3    H126843   6.581   7.137   2.138
 8968TIP3    H226844   6.663   7.085   2.022
 8969TIP3   OH226845   8.272   5.974   3.769
 8969TIP3    H126846   8.299   5.965   3.862
 8969TIP3    H226847   8.357   5.998   3.725
 8970TIP3   OH226848   0.967   6.993   4.663
 8970TIP3    H126849   0.977   7.081   4.704
 8970TIP3    H226850   0.977   7.014   4.568
 8971TIP3   OH226851   0.380   6.896   4.280
 8971TIP3    H126852   0.447   6.913   4.349
 8971TIP3    H226853   0.414   6.953   4.208
 8972TIP3   OH226854   1.010   7.206   4.852
 8972TIP3    H126855   0.938   7.266   4.823
 8972TIP3    H226856   1.057   7.260   4.918
 8973TIP3   OH226857   0.584   6.947   4.460
 8973TIP3    H126858   0.616   6.870   4.508
 8973TIP3    H226859   0.648   7.017   4.484
 8974TIP3   OH226860   0.668   7.923   4.810
 8974TIP3    H126861   0.655   7.838   4.764
 8974TIP3    H226862   0.705   7.981   4.740
 8975TIP3   OH226863   0.874   7.544   4.651
 8975TIP3    H126864   0.793   7.598   4.657
 8975TIP3    H226865   0.906   7.570   4.562
 8976TIP3   OH226866   0.678   6.486   3.907
 8976TIP3    H126867   0.598   6.507   3.958
 8976TIP3    H226868   0.691   6.570   3.857
 8977TIP3   OH226869   0.820   7.384   5.134
 8977TIP3    H126870   0.753   7.412   5.071
 8977TIP3    H226871   0.816   7.287   5.128
 8978TIP3   OH226872   0.646   7.697   4.647
 8978TIP3    H126873   0.682   7.747   4.570
 8978TIP3    H226874   0.556   7.676   4.618
 8979TIP3   OH226875   0.714   7.108   3.808
 8979TIP3    H126876   0.648   7.067   3.748
 8979TIP3    H226877   0.709   7.200   3.772
 8980TIP3   OH226878   0.921   7.952   4.905
 8980TIP3    H126879   0.825   7.961   4.887
 8980TIP3    H226880   0.953   7.935   4.813
 8981TIP3   OH226881   0.818   7.111   5.045
 8981TIP3    H126882   0.726   7.108   5.016
 8981TIP3    H226883   0.867   7.125   4.962
 8982TIP3   OH226884   0.481   7.299   4.437
 8982TIP3    H126885   0.426   7.220   4.439
 8982TIP3    H226886   0.565   7.267   4.476
 8983TIP3   OH226887   0.486   7.382   3.472
 8983TIP3    H126888   0.434   7.336   3.403
 8983TIP3    H226889   0.465   7.474   3.456
 8984TIP3   OH226890   0.748   7.040   5.479
 8984TIP3    H126891   0.739   6.943   5.470
 8984TIP3    H226892   0.654   7.065   5.482
 8985TIP3   OH226893   0.609   7.560   3.813
 8985TIP3    H126894   0.682   7.622   3.790
 8985TIP3    H226895   0.645   7.521   3.896
 8986TIP3   OH226896   0.737   7.437   4.018
 8986TIP3    H126897   0.675   7.389   4.078
 8986TIP3    H226898   0.804   7.472   4.080
 8987TIP3   OH226899   0.776   7.826   4.450
 8987TIP3    H126900   0.837   7.769   4.400
 8987TIP3    H226901   0.776   7.908   4.398
 8988TIP3   OH226902   0.674   7.341   3.664
 8988TIP3    H126903   0.603   7.345   3.596
 8988TIP3    H226904   0.645   7.417   3.720
 8989TIP3   OH226905   0.542   7.021   3.617
 8989TIP3    H126906   0.492   7.062   3.545
 8989TIP3    H226907   0.522   6.926   3.601
 8990TIP3   OH226908   0.574   7.289   4.174
 8990TIP3    H126909   0.553   7.196   4.151
 8990TIP3    H226910   0.536   7.298   4.263
 8991TIP3   OH226911   0.828   7.712   5.025
 8991TIP3    H126912   0.905   7.653   5.016
 8991TIP3    H226913   0.850   7.785   4.964
 8992TIP3   OH226914   1.025   7.525   5.033
 8992TIP3    H126915   0.954   7.478   5.083
 8992TIP3    H226916   1.099   7.463   5.047
 8993TIP3   OH226917   0.501   6.753   3.601
 8993TIP3    H126918   0.576   6.730   3.659
 8993TIP3    H226919   0.430   6.694   3.636
 8994TIP3   OH226920   0.550   7.017   4.082
 8994TIP3    H126921   0.589   6.927   4.089
 8994TIP3    H226922   0.584   7.045   3.995
 8995TIP3   OH226923   0.707   7.193   4.558
 8995TIP3    H126924   0.793   7.216   4.515
 8995TIP3    H226925   0.724   7.227   4.647
 8996TIP3   OH226926   0.766   7.335   4.797
 8996TIP3    H126927   0.678   7.367   4.827
 8996TIP3    H226928   0.800   7.414   4.749
 8997TIP3   OH226929   1.222   6.916   5.344
 8997TIP3    H126930   1.283   6.853   5.301
 8997TIP3    H226931   1.195   6.972   5.269
 8998TIP3   OH226932   0.661   6.758   4.094
 8998TIP3    H126933   0.703   6.747   4.181
 8998TIP3    H226934   0.595   6.686   4.096
 8999TIP3   OH226935   1.094   7.061   5.152
 8999TIP3    H126936   1.012   7.101   5.188
 8999TIP3    H226937   1.058   6.992   5.094
 9000TIP3   OH226938   0.738   6.696   3.733
 9000TIP3    H126939   0.777   6.625   3.677
 9000TIP3    H226940   0.805   6.767   3.728
 9001TIP3   OH226941   1.001   6.825   5.031
 9001TIP3    H126942   0.924   6.828   4.973
 9001TIP3    H226943   1.033   6.733   5.018
 9002TIP3   OH226944   0.739   6.619   4.560
 9002TIP3    H126945   0.776   6.665   4.482
 9002TIP3    H226946   0.643   6.637   4.549
 9003TIP3   OH226947   0.818   6.716   4.320
 9003TIP3    H126948   0.889   6.664   4.276
 9003TIP3    H226949   0.852   6.807   4.302
 9004TIP3   OH226950   0.475   6.650   4.530
 9004TIP3    H126951   0.416   6.648   4.453
 9004TIP3    H226952   0.458   6.565   4.575
 9005TIP3   OH226953   0.477   6.543   4.089
 9005TIP3    H126954   0.390   6.569   4.057
 9005TIP3    H226955   0.456   6.460   4.136
 9006TIP3   OH226956   0.728   6.767   5.458
 9006TIP3    H126957   0.743   6.743   5.553
 9006TIP3    H226958   0.820   6.768   5.424
 9007TIP3   OH226959   1.940   7.674   3.741
 9007TIP3    H126960   1.923   7.767   3.715
 9007TIP3    H226961   1.861   7.633   3.701
 9008TIP3   OH226962   1.944   7.708   4.095
 9008TIP3    H126963   1.968   7.683   4.186
 9008TIP3    H226964   1.895   7.631   4.064
 9009TIP3   OH226965   1.232   7.609   4.469
 9009TIP3    H126966   1.268   7.541   4.529
 9009TIP3    H226967   1.309   7.667   4.457
 9010TIP3   OH226968   2.166   7.994   3.801
 9010TIP3    H126969   2.169   7.934   3.878
 9010TIP3    H226970   2.200   8.076   3.837
 9011TIP3   OH226971   1.271   7.942   4.283
 9011TIP3    H126972   1.224   7.873   4.233
 9011TIP3    H226973   1.345   7.963   4.222
 9012TIP3   OH226974   0.914   7.215   3.974
 9012TIP3    H126975   0.869   7.300   3.991
 9012TIP3    H226976   0.840   7.165   3.936
 9013TIP3   OH226977   0.968   7.505   4.151
 9013TIP3    H126978   1.019   7.428   4.183
 9013TIP3    H226979   1.037   7.559   4.109
 9014TIP3   OH226980   1.750   7.923   4.150
 9014TIP3    H126981   1.797   7.853   4.103
 9014TIP3    H226982   1.827   7.979   4.175
 9015TIP3   OH226983   2.747   7.256   4.146
 9015TIP3    H126984   2.776   7.339   4.191
 9015TIP3    H226985   2.769   7.277   4.054
 9016TIP3   OH226986   2.144   7.437   4.182
 9016TIP3    H126987   2.188   7.352   4.201
 9016TIP3    H226988   2.115   7.422   4.090
 9017TIP3   OH226989   1.486   7.096   4.145
 9017TIP3    H126990   1.464   7.170   4.083
 9017TIP3    H226991   1.436   7.024   4.101
 9018TIP3   OH226992   2.179   7.179   3.768
 9018TIP3    H126993   2.250   7.170   3.836
 9018TIP3    H226994   2.228   7.223   3.697
 9019TIP3   OH226995   1.115   7.297   4.255
 9019TIP3    H126996   1.200   7.279   4.300
 9019TIP3    H226997   1.129   7.244   4.173
 9020TIP3   OH226998   1.557   7.496   4.047
 9020TIP3    H126999   1.651   7.471   4.059
 9020TIP3    H227000   1.517   7.413   4.014
 9021TIP3   OH227001   2.818   7.462   4.319
 9021TIP3    H127002   2.736   7.512   4.298
 9021TIP3    H227003   2.841   7.500   4.406
 9022TIP3   OH227004   1.480   7.080   4.580
 9022TIP3    H127005   1.422   7.118   4.511
 9022TIP3    H227006   1.428   7.099   4.660
 9023TIP3   OH227007   1.853   7.872   3.571
 9023TIP3    H127008   1.812   7.864   3.484
 9023TIP3    H227009   1.808   7.956   3.600
 9024TIP3   OH227010   1.584   7.860   4.376
 9024TIP3    H127011   1.517   7.925   4.403
 9024TIP3    H227012   1.620   7.903   4.295
 9025TIP3   OH227013   2.387   7.190   3.942
 9025TIP3    H127014   2.369   7.152   4.028
 9025TIP3    H227015   2.438   7.270   3.965
 9026TIP3   OH227016   1.353   7.195   4.364
 9026TIP3    H127017   1.413   7.269   4.387
 9026TIP3    H227018   1.402   7.156   4.288
 9027TIP3   OH227019   1.414   8.079   4.482
 9027TIP3    H127020   1.374   8.072   4.393
 9027TIP3    H227021   1.333   8.070   4.536
 9028TIP3   OH227022   0.821   7.710   3.723
 9028TIP3    H127023   0.777   7.729   3.638
 9028TIP3    H227024   0.833   7.802   3.753
 9029TIP3   OH227025   2.540   7.152   4.310
 9029TIP3    H127026   2.454   7.186   4.281
 9029TIP3    H227027   2.601   7.188   4.241
 9030TIP3   OH227028   1.837   6.799   4.295
 9030TIP3    H127029   1.821   6.704   4.312
 9030TIP3    H227030   1.759   6.839   4.341
 9031TIP3   OH227031   2.128   8.046   3.530
 9031TIP3    H127032   2.040   8.009   3.516
 9031TIP3    H227033   2.142   8.026   3.625
 9032TIP3   OH227034   2.467   8.167   4.295
 9032TIP3    H127035   2.457   8.088   4.237
 9032TIP3    H227036   2.492   8.236   4.230
 9033TIP3   OH227037   1.765   7.552   3.554
 9033TIP3    H127038   1.685   7.607   3.541
 9033TIP3    H227039   1.812   7.565   3.470
 9034TIP3   OH227040   1.722   7.349   3.267
 9034TIP3    H127041   1.785   7.398   3.323
 9034TIP3    H227042   1.784   7.287   3.222
 9035TIP3   OH227043   2.671   7.802   4.136
 9035TIP3    H127044   2.588   7.855   4.143
 9035TIP3    H227045   2.702   7.830   4.047
 9036TIP3   OH227046   2.112   7.635   3.529
 9036TIP3    H127047   2.059   7.657   3.609
 9036TIP3    H227048   2.200   7.617   3.570
 9037TIP3   OH227049   2.348   7.683   4.435
 9037TIP3    H127050   2.348   7.767   4.484
 9037TIP3    H227051   2.262   7.689   4.390
 9038TIP3   OH227052   1.348   7.644   3.933
 9038TIP3    H127053   1.310   7.585   3.864
 9038TIP3    H227054   1.427   7.593   3.962
 9039TIP3   OH227055   1.483   8.007   4.137
 9039TIP3    H127056   1.449   8.015   4.046
 9039TIP3    H227057   1.579   8.023   4.126
 9040TIP3   OH227058   1.479   7.618   4.292
 9040TIP3    H127059   1.513   7.597   4.202
 9040TIP3    H227060   1.522   7.704   4.311
 9041TIP3   OH227061   1.658   8.071   4.619
 9041TIP3    H127062   1.623   8.160   4.641
 9041TIP3    H227063   1.586   8.040   4.562
 9042TIP3   OH227064   1.962   7.488   3.352
 9042TIP3    H127065   2.017   7.551   3.404
 9042TIP3    H227066   1.990   7.511   3.260
 9043TIP3   OH227067   1.378   7.723   4.721
 9043TIP3    H127068   1.383   7.812   4.761
 9043TIP3    H227069   1.282   7.705   4.730
 9044TIP3   OH227070   2.466   6.744   3.392
 9044TIP3    H127071   2.394   6.778   3.447
 9044TIP3    H227072   2.492   6.825   3.342
 9045TIP3   OH227073   1.216   7.481   3.738
 9045TIP3    H127074   1.151   7.529   3.682
 9045TIP3    H227075   1.166   7.402   3.761
 9046TIP3   OH227076   1.005   7.870   4.659
 9046TIP3    H127077   0.943   7.854   4.586
 9046TIP3    H227078   1.041   7.781   4.678
 9047TIP3   OH227079   2.602   7.643   4.615
 9047TIP3    H127080   2.520   7.657   4.565
 9047TIP3    H227081   2.616   7.546   4.604
 9048TIP3   OH227082   1.196   8.071   4.656
 9048TIP3    H127083   1.253   8.032   4.725
 9048TIP3    H227084   1.125   8.004   4.648
 9049TIP3   OH227085   1.598   6.874   4.423
 9049TIP3    H127086   1.509   6.844   4.396
 9049TIP3    H227087   1.574   6.957   4.469
 9050TIP3   OH227088   2.132   6.989   4.617
 9050TIP3    H127089   2.201   6.963   4.682
 9050TIP3    H227090   2.049   6.971   4.665
 9051TIP3   OH227091   2.368   7.419   4.534
 9051TIP3    H127092   2.319   7.417   4.619
 9051TIP3    H227093   2.347   7.508   4.500
 9052TIP3   OH227094   2.030   7.526   3.091
 9052TIP3    H127095   2.003   7.513   2.998
 9052TIP3    H227096   2.066   7.616   3.087
 9053TIP3   OH227097   1.779   6.890   3.389
 9053TIP3    H127098   1.739   6.917   3.473
 9053TIP3    H227099   1.714   6.822   3.361
 9054TIP3   OH227100   1.529   7.394   4.439
 9054TIP3    H127101   1.480   7.415   4.521
 9054TIP3    H227102   1.513   7.475   4.386
 9055TIP3   OH227103   1.414   7.275   3.955
 9055TIP3    H127104   1.320   7.253   3.973
 9055TIP3    H227105   1.425   7.235   3.866
 9056TIP3   OH227106   1.905   7.356   3.681
 9056TIP3    H127107   1.851   7.428   3.642
 9056TIP3    H227108   1.959   7.329   3.604
 9057TIP3   OH227109   2.081   7.637   4.765
 9057TIP3    H127110   2.059   7.567   4.830
 9057TIP3    H227111   2.174   7.656   4.789
 9058TIP3   OH227112   2.061   7.391   3.924
 9058TIP3    H127113   2.005   7.432   3.855
 9058TIP3    H227114   2.086   7.309   3.876
 9059TIP3   OH227115   1.351   7.420   4.650
 9059TIP3    H127116   1.377   7.488   4.714
 9059TIP3    H227117   1.343   7.340   4.705
 9060TIP3   OH227118   1.401   6.900   3.360
 9060TIP3    H127119   1.390   6.897   3.457
 9060TIP3    H227120   1.322   6.953   3.335
 9061TIP3   OH227121   0.942   6.936   4.236
 9061TIP3    H127122   1.018   6.973   4.286
 9061TIP3    H227123   0.980   6.916   4.149
 9062TIP3   OH227124   0.914   6.923   3.748
 9062TIP3    H127125   0.959   6.962   3.671
 9062TIP3    H227126   0.852   6.995   3.770
 9063TIP3   OH227127   2.070   7.636   4.346
 9063TIP3    H127128   2.103   7.565   4.287
 9063TIP3    H227129   2.040   7.583   4.423
 9064TIP3   OH227130   1.741   7.091   4.016
 9064TIP3    H127131   1.657   7.095   4.067
 9064TIP3    H227132   1.807   7.101   4.086
 9065TIP3   OH227133   1.174   7.156   4.025
 9065TIP3    H127134   1.080   7.167   3.998
 9065TIP3    H227135   1.194   7.065   4.000
 9066TIP3   OH227136   1.445   7.149   3.713
 9066TIP3    H127137   1.537   7.170   3.688
 9066TIP3    H227138   1.394   7.172   3.632
 9067TIP3   OH227139   2.232   7.173   4.215
 9067TIP3    H127140   2.202   7.187   4.308
 9067TIP3    H227141   2.161   7.115   4.183
 9068TIP3   OH227142   1.289   7.179   3.494
 9068TIP3    H127143   1.214   7.140   3.446
 9068TIP3    H227144   1.339   7.219   3.419
 9069TIP3   OH227145   1.364   7.971   4.857
 9069TIP3    H127146   1.443   8.000   4.907
 9069TIP3    H227147   1.299   7.961   4.930
 9070TIP3   OH227148   1.822   7.423   4.113
 9070TIP3    H127149   1.900   7.392   4.065
 9070TIP3    H227150   1.833   7.384   4.201
 9071TIP3   OH227151   1.348   6.914   3.994
 9071TIP3    H127152   1.310   6.836   4.041
 9071TIP3    H227153   1.390   6.874   3.918
 9072TIP3   OH227154   1.800   7.323   4.408
 9072TIP3    H127155   1.710   7.362   4.418
 9072TIP3    H227156   1.857   7.386   4.456
 9073TIP3   OH227157   1.539   7.701   3.503
 9073TIP3    H127158   1.460   7.644   3.490
 9073TIP3    H227159   1.515   7.745   3.588
 9074TIP3   OH227160   2.438   7.946   4.131
 9074TIP3    H127161   2.466   7.996   4.051
 9074TIP3    H227162   2.353   7.907   4.103
 9075TIP3   OH227163   1.950   8.053   4.496
 9075TIP3    H127164   1.972   8.005   4.577
 9075TIP3    H227165   1.866   8.096   4.522
 9076TIP3   OH227166   2.063   7.252   3.464
 9076TIP3    H127167   2.159   7.266   3.476
 9076TIP3    H227168   2.038   7.328   3.409
 9077TIP3   OH227169   1.203   7.685   4.163
 9077TIP3    H127170   1.256   7.682   4.080
 9077TIP3    H227171   1.267   7.655   4.229
 9078TIP3   OH227172   1.656   7.888   3.339
 9078TIP3    H127173   1.648   7.964   3.400
 9078TIP3    H227174   1.610   7.818   3.390
 9079TIP3   OH227175   1.114   7.650   4.789
 9079TIP3    H127176   1.129   7.638   4.885
 9079TIP3    H227177   1.040   7.588   4.774
 9080TIP3   OH227178   1.840   7.761   4.813
 9080TIP3    H127179   1.778   7.714   4.755
 9080TIP3    H227180   1.926   7.729   4.780
 9081TIP3   OH227181   2.503   7.365   3.302
 9081TIP3    H127182   2.443   7.318   3.240
 9081TIP3    H227183   2.498   7.455   3.261
 9082TIP3   OH227184   2.724   8.205   4.384
 9082TIP3    H127185   2.627   8.219   4.373
 9082TIP3    H227186   2.749   8.191   4.290
 9083TIP3   OH227187   2.202   7.818   4.038
 9083TIP3    H127188   2.109   7.791   4.057
 9083TIP3    H227189   2.235   7.736   3.997
 9084TIP3   OH227190   0.896   7.344   3.504
 9084TIP3    H127191   0.940   7.429   3.523
 9084TIP3    H227192   0.818   7.349   3.564
 9085TIP3   OH227193   1.467   7.809   3.739
 9085TIP3    H127194   1.473   7.903   3.762
 9085TIP3    H227195   1.429   7.769   3.819
 9086TIP3   OH227196   1.993   8.015   4.225
 9086TIP3    H127197   1.983   8.026   4.322
 9086TIP3    H227198   2.078   7.972   4.217
 9087TIP3   OH227199   1.991   7.835   3.085
 9087TIP3    H127200   2.030   7.837   3.176
 9087TIP3    H227201   1.913   7.892   3.096
 9088TIP3   OH227202   1.324   7.160   4.798
 9088TIP3    H127203   1.228   7.160   4.814
 9088TIP3    H227204   1.356   7.104   4.871
 9089TIP3   OH227205   2.119   7.821   3.322
 9089TIP3    H127206   2.112   7.774   3.407
 9089TIP3    H227207   2.215   7.842   3.321
 9090TIP3   OH227208   1.307   7.843   3.156
 9090TIP3    H127209   1.354   7.759   3.135
 9090TIP3    H227210   1.342   7.865   3.243
 9091TIP3   OH227211   1.016   7.587   3.581
 9091TIP3    H127212   0.952   7.624   3.645
 9091TIP3    H227213   1.021   7.660   3.517
 9092TIP3   OH227214   2.162   7.224   4.474
 9092TIP3    H127215   2.238   7.267   4.517
 9092TIP3    H227216   2.148   7.145   4.531
 9093TIP3   OH227217   2.051   6.993   3.616
 9093TIP3    H127218   2.011   7.053   3.551
 9093TIP3    H227219   2.092   7.061   3.675
 9094TIP3   OH227220   1.732   7.154   3.745
 9094TIP3    H127221   1.793   7.229   3.728
 9094TIP3    H227222   1.733   7.149   3.842
 9095TIP3   OH227223   1.995   7.475   4.553
 9095TIP3    H127224   2.018   7.532   4.630
 9095TIP3    H227225   2.052   7.397   4.568
 9096TIP3   OH227226   1.872   6.887   3.848
 9096TIP3    H127227   1.856   6.960   3.912
 9096TIP3    H227228   1.928   6.933   3.782
 9097TIP3   OH227229   1.384   6.883   3.637
 9097TIP3    H127230   1.380   6.974   3.672
 9097TIP3    H227231   1.480   6.868   3.644
 9098TIP3   OH227232   2.636   7.375   4.537
 9098TIP3    H127233   2.537   7.372   4.541
 9098TIP3    H227234   2.651   7.344   4.447
 9099TIP3   OH227235   2.288   7.572   3.923
 9099TIP3    H127236   2.212   7.513   3.936
 9099TIP3    H227237   2.360   7.524   3.971
 9100TIP3   OH227238   1.005   7.801   3.396
 9100TIP3    H127239   1.032   7.895   3.393
 9100TIP3    H227240   1.062   7.760   3.329
 9101TIP3   OH227241   0.945   7.075   3.521
 9101TIP3    H127242   0.946   7.173   3.522
 9101TIP3    H227243   0.855   7.058   3.490
 9102TIP3   OH227244   1.334   6.795   4.397
 9102TIP3    H127245   1.302   6.763   4.310
 9102TIP3    H227246   1.321   6.716   4.454
 9103TIP3   OH227247   1.159   7.938   5.035
 9103TIP3    H127248   1.180   7.843   5.044
 9103TIP3    H227249   1.069   7.934   4.996
 9104TIP3   OH227250   1.132   7.604   3.247
 9104TIP3    H127251   1.182   7.572   3.324
 9104TIP3    H227252   1.205   7.609   3.181
 9105TIP3   OH227253   1.784   8.027   4.854
 9105TIP3    H127254   1.748   8.041   4.764
 9105TIP3    H227255   1.817   7.936   4.846
 9106TIP3   OH227256   1.572   7.775   3.056
 9106TIP3    H127257   1.621   7.809   3.133
 9106TIP3    H227258   1.606   7.684   3.048
 9107TIP3   OH227259   2.258   8.046   4.429
 9107TIP3    H127260   2.325   8.103   4.386
 9107TIP3    H227261   2.180   8.103   4.424
 9108TIP3   OH227262   1.282   7.687   5.036
 9108TIP3    H127263   1.364   7.644   5.010
 9108TIP3    H227264   1.307   7.724   5.124
 9109TIP3   OH227265   1.334   7.515   3.462
 9109TIP3    H127266   1.309   7.477   3.548
 9109TIP3    H227267   1.374   7.438   3.416
 9110TIP3   OH227268   1.613   7.578   4.691
 9110TIP3    H127269   1.536   7.639   4.695
 9110TIP3    H227270   1.663   7.615   4.615
 9111TIP3   OH227271   1.445   7.307   3.308
 9111TIP3    H127272   1.418   7.312   3.214
 9111TIP3    H227273   1.542   7.317   3.300
 9112TIP3   OH227274   2.133   7.974   4.828
 9112TIP3    H127275   2.216   7.955   4.780
 9112TIP3    H227276   2.135   7.909   4.900
 9113TIP3   OH227277   2.278   7.646   2.958
 9113TIP3    H127278   2.240   7.599   2.882
 9113TIP3    H227279   2.249   7.738   2.937
 9114TIP3   OH227280   1.736   7.370   4.819
 9114TIP3    H127281   1.737   7.291   4.761
 9114TIP3    H227282   1.693   7.437   4.762
 9115TIP3   OH227283   1.739   7.154   4.628
 9115TIP3    H127284   1.767   7.199   4.545
 9115TIP3    H227285   1.645   7.133   4.608
 9116TIP3   OH227286   1.763   7.695   4.501
 9116TIP3    H127287   1.846   7.706   4.451
 9116TIP3    H227288   1.705   7.762   4.458
 9117TIP3   OH227289   2.347   7.659   4.881
 9117TIP3    H127290   2.401   7.578   4.889
 9117TIP3    H227291   2.412   7.723   4.849
 9118TIP3   OH227292   2.389   7.907   4.617
 9118TIP3    H127293   2.332   7.961   4.558
 9118TIP3    H227294   2.477   7.929   4.578
 9119TIP3   OH227295   1.615   7.479   5.052
 9119TIP3    H127296   1.545   7.412   5.066
 9119TIP3    H227297   1.648   7.455   4.963
 9120TIP3   OH227298   1.871   6.918   4.695
 9120TIP3    H127299   1.822   7.000   4.672
 9120TIP3    H227300   1.801   6.850   4.683
 9121TIP3   OH227301   1.998   7.422   4.911
 9121TIP3    H127302   1.985   7.411   5.007
 9121TIP3    H227303   1.908   7.399   4.880
 9122TIP3   OH227304   2.235   7.369   4.764
 9122TIP3    H127305   2.161   7.374   4.827
 9122TIP3    H227306   2.309   7.342   4.821
 9123TIP3   OH227307   2.463   7.313   4.916
 9123TIP3    H127308   2.476   7.218   4.934
 9123TIP3    H227309   2.460   7.352   5.006
 9124TIP3   OH227310   1.450   7.261   5.104
 9124TIP3    H127311   1.460   7.170   5.071
 9124TIP3    H227312   1.486   7.252   5.195
 9125TIP3   OH227313   1.963   6.927   4.954
 9125TIP3    H127314   2.031   6.857   4.947
 9125TIP3    H227315   1.924   6.923   4.864
 9126TIP3   OH227316   2.030   7.143   5.113
 9126TIP3    H127317   2.008   7.073   5.048
 9126TIP3    H227318   1.953   7.203   5.106
 9127TIP3   OH227319   0.738   7.716   3.417
 9127TIP3    H127320   0.826   7.752   3.397
 9127TIP3    H227321   0.734   7.635   3.363
 9128TIP3   OH227322   2.613   8.333   4.659
 9128TIP3    H127323   2.537   8.315   4.720
 9128TIP3    H227324   2.657   8.407   4.704
 9129TIP3   OH227325   2.398   7.820   3.307
 9129TIP3    H127326   2.470   7.879   3.277
 9129TIP3    H227327   2.440   7.780   3.386
 9130TIP3   OH227328   2.529   7.689   3.505
 9130TIP3    H127329   2.465   7.652   3.569
 9130TIP3    H227330   2.598   7.728   3.563
 9131TIP3   OH227331   2.575   8.084   3.941
 9131TIP3    H127332   2.634   8.030   3.886
 9131TIP3    H227333   2.564   8.165   3.889
 9132TIP3   OH227334   2.463   7.599   3.152
 9132TIP3    H127335   2.395   7.611   3.081
 9132TIP3    H227336   2.438   7.673   3.210
 9133TIP3   OH227337   2.340   7.266   3.104
 9133TIP3    H127338   2.298   7.341   3.060
 9133TIP3    H227339   2.307   7.192   3.052
 9134TIP3   OH227340   2.345   7.553   3.657
 9134TIP3    H127341   2.351   7.456   3.653
 9134TIP3    H227342   2.329   7.569   3.752
 9135TIP3   OH227343   0.968   7.626   4.403
 9135TIP3    H127344   0.965   7.594   4.310
 9135TIP3    H227345   1.066   7.629   4.417
 9136TIP3   OH227346   2.631   7.974   4.511
 9136TIP3    H127347   2.705   7.910   4.500
 9136TIP3    H227348   2.656   8.046   4.451
 9137TIP3   OH227349   2.817   7.779   4.524
 9137TIP3    H127350   2.743   7.731   4.566
 9137TIP3    H227351   2.890   7.716   4.540
 9138TIP3   OH227352   2.338   7.267   3.549
 9138TIP3    H127353   2.382   7.180   3.561
 9138TIP3    H227354   2.395   7.306   3.481
 9139TIP3   OH227355   2.500   7.439   4.043
 9139TIP3    H127356   2.586   7.465   4.002
 9139TIP3    H227357   2.513   7.478   4.131
 9140TIP3   OH227358   2.569   7.585   4.273
 9140TIP3    H127359   2.492   7.621   4.322
 9140TIP3    H227360   2.602   7.666   4.228
 9141TIP3   OH227361   1.184   7.306   5.058
 9141TIP3    H127362   1.281   7.305   5.069
 9141TIP3    H227363   1.161   7.224   5.107
 9142TIP3   OH227364   3.022   7.177   4.831
 9142TIP3    H127365   3.081   7.112   4.787
 9142TIP3    H227366   2.991   7.231   4.754
 9143TIP3   OH227367   2.448   7.016   3.585
 9143TIP3    H127368   2.503   7.009   3.666
 9143TIP3    H227369   2.390   6.940   3.596
 9144TIP3   OH227370   1.150   7.005   4.406
 9144TIP3    H127371   1.212   6.930   4.415
 9144TIP3    H227372   1.211   7.080   4.398
 9145TIP3   OH227373   0.955   7.277   4.483
 9145TIP3    H127374   1.000   7.268   4.397
 9145TIP3    H227375   0.978   7.368   4.507
 9146TIP3   OH227376   2.891   7.315   4.637
 9146TIP3    H127377   2.806   7.358   4.658
 9146TIP3    H227378   2.859   7.245   4.577
 9147TIP3   OH227379   2.533   6.950   3.228
 9147TIP3    H127380   2.568   6.885   3.165
 9147TIP3    H227381   2.594   7.025   3.217
 9148TIP3   OH227382   0.934   6.781   3.978
 9148TIP3    H127383   0.841   6.777   4.006
 9148TIP3    H227384   0.929   6.841   3.900
 9149TIP3   OH227385   1.159   6.853   4.792
 9149TIP3    H127386   1.114   6.865   4.877
 9149TIP3    H227387   1.095   6.895   4.730
 9150TIP3   OH227388   2.791   7.079   4.514
 9150TIP3    H127389   2.701   7.074   4.479
 9150TIP3    H227390   2.822   6.986   4.503
 9151TIP3   OH227391   1.998   6.994   4.134
 9151TIP3    H127392   1.953   6.925   4.185
 9151TIP3    H227393   2.071   6.945   4.092
 9152TIP3   OH227394   2.518   6.868   4.034
 9152TIP3    H127395   2.555   6.924   3.963
 9152TIP3    H227396   2.424   6.895   4.034
 9153TIP3   OH227397   2.612   6.974   3.799
 9153TIP3    H127398   2.687   6.922   3.763
 9153TIP3    H227399   2.648   7.065   3.787
 9154TIP3   OH227400   1.245   6.702   4.149
 9154TIP3    H127401   1.151   6.672   4.150
 9154TIP3    H227402   1.291   6.616   4.145
 9155TIP3   OH227403   1.035   6.573   3.800
 9155TIP3    H127404   1.061   6.631   3.726
 9155TIP3    H227405   1.003   6.638   3.866
 9156TIP3   OH227406   1.692   6.731   4.030
 9156TIP3    H127407   1.746   6.787   3.972
 9156TIP3    H227408   1.705   6.774   4.116
 9157TIP3   OH227409   2.233   6.880   4.015
 9157TIP3    H127410   2.235   6.838   3.929
 9157TIP3    H227411   2.221   6.803   4.075
 9158TIP3   OH227412   2.219   6.794   3.534
 9158TIP3    H127413   2.168   6.864   3.581
 9158TIP3    H227414   2.227   6.725   3.603
 9159TIP3   OH227415   1.148   6.731   3.560
 9159TIP3    H127416   1.197   6.669   3.503
 9159TIP3    H227417   1.220   6.786   3.597
 9160TIP3   OH227418   1.662   6.907   3.655
 9160TIP3    H127419   1.717   6.861   3.720
 9160TIP3    H227420   1.681   7.000   3.681
 9161TIP3   OH227421   1.452   6.980   5.037
 9161TIP3    H127422   1.417   6.911   5.097
 9161TIP3    H227423   1.546   6.982   5.066
 9162TIP3   OH227424   1.700   6.980   5.158
 9162TIP3    H127425   1.786   6.959   5.118
 9162TIP3    H227426   1.691   6.909   5.224
 9163TIP3   OH227427   2.527   7.042   4.947
 9163TIP3    H127428   2.546   7.011   5.038
 9163TIP3    H227429   2.616   7.038   4.906
 9164TIP3   OH227430   3.732   7.949   3.211
 9164TIP3    H127431   3.708   8.043   3.217
 9164TIP3    H227432   3.649   7.913   3.175
 9165TIP3   OH227433   3.722   7.965   3.586
 9165TIP3    H127434   3.764   7.945   3.671
 9165TIP3    H227435   3.685   7.879   3.560
 9166TIP3   OH227436   3.030   7.864   3.953
 9166TIP3    H127437   3.063   7.797   4.015
 9166TIP3    H227438   3.106   7.924   3.947
 9167TIP3   OH227439   3.065   8.201   3.766
 9167TIP3    H127440   3.021   8.130   3.717
 9167TIP3    H227441   3.142   8.221   3.707
 9168TIP3   OH227442   2.710   7.468   3.459
 9168TIP3    H127443   2.671   7.555   3.480
 9168TIP3    H227444   2.633   7.424   3.419
 9169TIP3   OH227445   2.766   7.760   3.629
 9169TIP3    H127446   2.815   7.684   3.666
 9169TIP3    H227447   2.839   7.818   3.600
 9170TIP3   OH227448   3.544   8.181   3.634
 9170TIP3    H127449   3.594   8.106   3.597
 9170TIP3    H227450   3.620   8.238   3.658
 9171TIP3   OH227451   4.544   7.512   3.634
 9171TIP3    H127452   4.572   7.596   3.677
 9171TIP3    H227453   4.563   7.533   3.540
 9172TIP3   OH227454   3.940   7.692   3.670
 9172TIP3    H127455   3.984   7.608   3.688
 9172TIP3    H227456   3.910   7.678   3.578
 9173TIP3   OH227457   3.280   7.353   3.632
 9173TIP3    H127458   3.261   7.427   3.570
 9173TIP3    H227459   3.231   7.281   3.588
 9174TIP3   OH227460   3.975   7.444   3.254
 9174TIP3    H127461   4.046   7.429   3.321
 9174TIP3    H227462   4.028   7.481   3.181
 9175TIP3   OH227463   2.912   7.555   3.740
 9175TIP3    H127464   2.996   7.538   3.788
 9175TIP3    H227465   2.928   7.502   3.660
 9176TIP3   OH227466   3.353   7.753   3.533
 9176TIP3    H127467   3.448   7.729   3.545
 9176TIP3    H227468   3.315   7.668   3.501
 9177TIP3   OH227469   4.615   7.720   3.805
 9177TIP3    H127470   4.533   7.769   3.783
 9177TIP3    H227471   4.635   7.756   3.893
 9178TIP3   OH227472   3.276   7.337   4.067
 9178TIP3    H127473   3.217   7.375   3.999
 9178TIP3    H227474   3.224   7.356   4.148
 9179TIP3   OH227475   3.594   8.167   3.089
 9179TIP3    H127476   3.595   8.150   2.995
 9179TIP3    H227477   3.653   8.245   3.096
 9180TIP3   OH227478   3.381   8.117   3.862
 9180TIP3    H127479   3.314   8.183   3.890
 9180TIP3    H227480   3.417   8.160   3.782
 9181TIP3   OH227481   4.184   7.448   3.428
 9181TIP3    H127482   4.168   7.405   3.514
 9181TIP3    H227483   4.235   7.527   3.454
 9182TIP3   OH227484   3.147   7.452   3.851
 9182TIP3    H127485   3.208   7.526   3.874
 9182TIP3    H227486   3.197   7.412   3.776
 9183TIP3   OH227487   3.209   8.335   3.969
 9183TIP3    H127488   3.169   8.328   3.880
 9183TIP3    H227489   3.128   8.327   4.023
 9184TIP3   OH227490   2.611   7.963   3.209
 9184TIP3    H127491   2.575   7.995   3.124
 9184TIP3    H227492   2.629   8.048   3.251
 9185TIP3   OH227493   4.337   7.410   3.798
 9185TIP3    H127494   4.249   7.441   3.768
 9185TIP3    H227495   4.396   7.444   3.728
 9186TIP3   OH227496   3.632   7.055   3.781
 9186TIP3    H127497   3.617   6.960   3.799
 9186TIP3    H227498   3.555   7.094   3.828
 9187TIP3   OH227499   4.264   8.424   3.780
 9187TIP3    H127500   4.255   8.344   3.724
 9187TIP3    H227501   4.274   8.494   3.712
 9188TIP3   OH227502   3.559   7.809   3.038
 9188TIP3    H127503   3.479   7.863   3.020
 9188TIP3    H227504   3.608   7.815   2.954
 9189TIP3   OH227505   3.519   7.605   2.749
 9189TIP3    H127506   3.582   7.655   2.804
 9189TIP3    H227507   3.579   7.543   2.704
 9190TIP3   OH227508   4.467   8.063   3.625
 9190TIP3    H127509   4.384   8.114   3.630
 9190TIP3    H227510   4.497   8.088   3.534
 9191TIP3   OH227511   3.909   7.897   3.011
 9191TIP3    H127512   3.856   7.921   3.091
 9191TIP3    H227513   3.996   7.877   3.053
 9192TIP3   OH227514   4.144   7.939   3.920
 9192TIP3    H127515   4.142   8.024   3.968
 9192TIP3    H227516   4.062   7.947   3.868
 9193TIP3   OH227517   3.148   7.900   3.417
 9193TIP3    H127518   3.108   7.839   3.352
 9193TIP3    H227519   3.224   7.848   3.451
 9194TIP3   OH227520   3.280   8.265   3.623
 9194TIP3    H127521   3.249   8.268   3.531
 9194TIP3    H227522   3.376   8.276   3.613
 9195TIP3   OH227523   3.276   7.875   3.777
 9195TIP3    H127524   3.312   7.853   3.689
 9195TIP3    H227525   3.320   7.961   3.797
 9196TIP3   OH227526   3.454   8.329   4.106
 9196TIP3    H127527   3.418   8.416   4.128
 9196TIP3    H227528   3.382   8.297   4.049
 9197TIP3   OH227529   3.749   7.760   2.837
 9197TIP3    H127530   3.809   7.819   2.888
 9197TIP3    H227531   3.779   7.778   2.745
 9198TIP3   OH227532   3.172   7.980   4.207
 9198TIP3    H127533   3.178   8.068   4.247
 9198TIP3    H227534   3.077   7.961   4.217
 9199TIP3   OH227535   4.266   7.000   2.882
 9199TIP3    H127536   4.184   7.020   2.933
 9199TIP3    H227537   4.279   7.084   2.834
 9200TIP3   OH227538   3.014   7.739   3.222
 9200TIP3    H127539   2.946   7.784   3.168
 9200TIP3    H227540   2.967   7.659   3.249
 9201TIP3   OH227541   2.805   8.126   4.137
 9201TIP3    H127542   2.733   8.110   4.073
 9201TIP3    H227543   2.835   8.035   4.160
 9202TIP3   OH227544   4.398   7.900   4.101
 9202TIP3    H127545   4.317   7.915   4.051
 9202TIP3    H227546   4.412   7.804   4.089
 9203TIP3   OH227547   2.992   8.329   4.144
 9203TIP3    H127548   3.048   8.288   4.213
 9203TIP3    H227549   2.922   8.261   4.133
 9204TIP3   OH227550   3.394   7.131   3.911
 9204TIP3    H127551   3.305   7.102   3.884
 9204TIP3    H227552   3.370   7.214   3.957
 9205TIP3   OH227553   3.928   7.246   4.104
 9205TIP3    H127554   3.996   7.219   4.169
 9205TIP3    H227555   3.844   7.228   4.151
 9206TIP3   OH227556   4.165   7.676   4.022
 9206TIP3    H127557   4.115   7.675   4.106
 9206TIP3    H227558   4.143   7.764   3.985
 9207TIP3   OH227559   3.823   7.789   2.578
 9207TIP3    H127560   3.798   7.768   2.486
 9207TIP3    H227561   3.883   7.865   2.566
 9208TIP3   OH227562   3.537   7.183   2.881
 9208TIP3    H127563   3.505   7.179   2.973
 9208TIP3    H227564   3.500   7.098   2.848
 9209TIP3   OH227565   3.324   7.651   3.925
 9209TIP3    H127566   3.275   7.672   4.008
 9209TIP3    H227567   3.308   7.732   3.873
 9210TIP3   OH227568   3.210   7.533   3.442
 9210TIP3    H127569   3.117   7.509   3.461
 9210TIP3    H227570   3.221   7.491   3.354
 9211TIP3   OH227571   3.700   7.614   3.170
 9211TIP3    H127572   3.648   7.687   3.130
 9211TIP3    H227573   3.756   7.587   3.095
 9212TIP3   OH227574   3.877   7.894   4.253
 9212TIP3    H127575   3.855   7.823   4.317
 9212TIP3    H227576   3.970   7.911   4.276
 9213TIP3   OH227577   3.853   7.646   3.413
 9213TIP3    H127578   3.797   7.683   3.342
 9213TIP3    H227579   3.886   7.567   3.366
 9214TIP3   OH227580   3.146   7.677   4.136
 9214TIP3    H127581   3.171   7.743   4.202
 9214TIP3    H227582   3.136   7.596   4.191
 9215TIP3   OH227583   3.191   7.153   2.846
 9215TIP3    H127584   3.187   7.151   2.944
 9215TIP3    H227585   3.114   7.210   2.826
 9216TIP3   OH227586   2.740   7.195   3.718
 9216TIP3    H127587   2.810   7.232   3.775
 9216TIP3    H227588   2.787   7.172   3.637
 9217TIP3   OH227589   2.707   7.179   3.235
 9217TIP3    H127590   2.756   7.217   3.159
 9217TIP3    H227591   2.650   7.255   3.257
 9218TIP3   OH227592   3.857   7.892   3.831
 9218TIP3    H127593   3.896   7.823   3.772
 9218TIP3    H227594   3.832   7.837   3.908
 9219TIP3   OH227595   3.537   7.352   3.503
 9219TIP3    H127596   3.455   7.353   3.557
 9219TIP3    H227597   3.606   7.357   3.571
 9220TIP3   OH227598   2.971   7.412   3.512
 9220TIP3    H127599   2.877   7.420   3.484
 9220TIP3    H227600   2.995   7.321   3.487
 9221TIP3   OH227601   3.238   7.405   3.201
 9221TIP3    H127602   3.333   7.422   3.182
 9221TIP3    H227603   3.193   7.429   3.117
 9222TIP3   OH227604   4.030   7.430   3.704
 9222TIP3    H127605   3.997   7.444   3.796
 9222TIP3    H227606   3.961   7.371   3.669
 9223TIP3   OH227607   3.083   7.438   2.977
 9223TIP3    H127608   3.008   7.399   2.929
 9223TIP3    H227609   3.134   7.477   2.904
 9224TIP3   OH227610   3.160   8.227   4.344
 9224TIP3    H127611   3.238   8.256   4.395
 9224TIP3    H227612   3.095   8.218   4.417
 9225TIP3   OH227613   3.618   7.680   3.598
 9225TIP3    H127614   3.696   7.648   3.549
 9225TIP3    H227615   3.631   7.641   3.686
 9226TIP3   OH227616   3.140   7.172   3.480
 9226TIP3    H127617   3.107   7.093   3.527
 9226TIP3    H227618   3.195   7.133   3.410
 9227TIP3   OH227619   3.595   7.579   3.896
 9227TIP3    H127620   3.506   7.619   3.905
 9227TIP3    H227621   3.653   7.642   3.943
 9228TIP3   OH227622   3.333   7.957   2.988
 9228TIP3    H127623   3.254   7.901   2.978
 9228TIP3    H227624   3.313   8.003   3.073
 9229TIP3   OH227625   4.234   8.203   3.619
 9229TIP3    H127626   4.253   8.253   3.536
 9229TIP3    H227627   4.149   8.159   3.598
 9230TIP3   OH227628   3.788   7.286   2.841
 9230TIP3    H127629   3.693   7.268   2.856
 9230TIP3    H227630   3.800   7.378   2.873
 9231TIP3   OH227631   3.749   8.309   3.988
 9231TIP3    H127632   3.767   8.260   4.069
 9231TIP3    H227633   3.664   8.350   4.009
 9232TIP3   OH227634   3.861   7.530   2.950
 9232TIP3    H127635   3.956   7.536   2.970
 9232TIP3    H227636   3.843   7.613   2.903
 9233TIP3   OH227637   2.997   7.938   3.648
 9233TIP3    H127638   3.054   7.937   3.568
 9233TIP3    H227639   3.060   7.912   3.717
 9234TIP3   OH227640   3.438   8.142   2.817
 9234TIP3    H127641   3.409   8.213   2.879
 9234TIP3    H227642   3.407   8.064   2.869
 9235TIP3   OH227643   2.909   7.905   4.276
 9235TIP3    H127644   2.924   7.892   4.372
 9235TIP3    H227645   2.836   7.843   4.259
 9236TIP3   OH227646   3.635   8.018   4.300
 9236TIP3    H127647   3.573   7.970   4.243
 9236TIP3    H227648   3.722   7.985   4.266
 9237TIP3   OH227649   4.302   7.622   2.787
 9237TIP3    H127650   4.239   7.578   2.725
 9237TIP3    H227651   4.298   7.712   2.749
 9238TIP3   OH227652   4.520   8.464   3.869
 9238TIP3    H127653   4.423   8.475   3.856
 9238TIP3    H227654   4.546   8.449   3.775
 9239TIP3   OH227655   4.007   8.054   3.564
 9239TIP3    H127656   3.910   8.050   3.553
 9239TIP3    H227657   4.036   7.998   3.491
 9240TIP3   OH227658   2.689   7.601   2.989
 9240TIP3    H127659   2.736   7.685   3.009
 9240TIP3    H227660   2.612   7.608   3.050
 9241TIP3   OH227661   3.258   8.070   3.225
 9241TIP3    H127662   3.242   8.158   3.263
 9241TIP3    H227663   3.229   8.013   3.299
 9242TIP3   OH227664   3.784   8.272   3.714
 9242TIP3    H127665   3.783   8.275   3.812
 9242TIP3    H227666   3.871   8.235   3.695
 9243TIP3   OH227667   3.791   8.106   2.571
 9243TIP3    H127668   3.830   8.100   2.662
 9243TIP3    H227669   3.709   8.156   2.589
 9244TIP3   OH227670   3.117   7.418   4.283
 9244TIP3    H127671   3.021   7.422   4.297
 9244TIP3    H227672   3.145   7.360   4.356
 9245TIP3   OH227673   3.920   8.092   2.812
 9245TIP3    H127674   3.910   8.041   2.895
 9245TIP3    H227675   4.017   8.095   2.806
 9246TIP3   OH227676   3.111   8.104   2.637
 9246TIP3    H127677   3.147   8.015   2.623
 9246TIP3    H227678   3.133   8.122   2.729
 9247TIP3   OH227679   2.810   7.842   3.068
 9247TIP3    H127680   2.744   7.879   3.131
 9247TIP3    H227681   2.816   7.917   3.004
 9248TIP3   OH227682   3.957   7.482   3.963
 9248TIP3    H127683   4.035   7.523   4.003
 9248TIP3    H227684   3.943   7.403   4.019
 9249TIP3   OH227685   3.836   7.234   3.130
 9249TIP3    H127686   3.823   7.260   3.037
 9249TIP3    H227687   3.875   7.316   3.169
 9250TIP3   OH227688   3.520   7.415   3.232
 9250TIP3    H127689   3.585   7.486   3.215
 9250TIP3    H227690   3.527   7.406   3.330
 9251TIP3   OH227691   3.790   7.730   4.041
 9251TIP3    H127692   3.814   7.787   4.117
 9251TIP3    H227693   3.848   7.653   4.054
 9252TIP3   OH227694   3.666   7.140   3.333
 9252TIP3    H127695   3.659   7.216   3.393
 9252TIP3    H227696   3.728   7.176   3.265
 9253TIP3   OH227697   3.179   7.140   3.122
 9253TIP3    H127698   3.178   7.231   3.160
 9253TIP3    H227699   3.275   7.121   3.131
 9254TIP3   OH227700   4.432   7.632   4.023
 9254TIP3    H127701   4.334   7.630   4.028
 9254TIP3    H227702   4.446   7.600   3.933
 9255TIP3   OH227703   4.087   7.822   3.402
 9255TIP3    H127704   4.008   7.770   3.423
 9255TIP3    H227705   4.157   7.778   3.455
 9256TIP3   OH227706   2.800   8.058   2.884
 9256TIP3    H127707   2.827   8.151   2.882
 9256TIP3    H227708   2.858   8.018   2.816
 9257TIP3   OH227709   2.742   7.332   3.009
 9257TIP3    H127710   2.745   7.430   3.009
 9257TIP3    H227711   2.655   7.316   2.972
 9258TIP3   OH227712   3.128   7.052   3.884
 9258TIP3    H127713   3.098   7.019   3.798
 9258TIP3    H227714   3.118   6.974   3.942
 9259TIP3   OH227715   2.956   8.198   4.524
 9259TIP3    H127716   2.976   8.102   4.530
 9259TIP3    H227717   2.866   8.196   4.484
 9260TIP3   OH227718   2.931   7.862   2.734
 9260TIP3    H127719   2.980   7.829   2.812
 9260TIP3    H227720   3.004   7.864   2.668
 9261TIP3   OH227721   3.580   8.284   4.341
 9261TIP3    H127722   3.544   8.298   4.250
 9261TIP3    H227723   3.613   8.192   4.332
 9262TIP3   OH227724   3.384   8.036   2.536
 9262TIP3    H127725   3.409   8.063   2.625
 9262TIP3    H227726   3.414   7.943   2.533
 9263TIP3   OH227727   4.057   8.304   3.920
 9263TIP3    H127728   4.122   8.362   3.875
 9263TIP3    H227729   3.976   8.356   3.909
 9264TIP3   OH227730   3.076   7.946   4.523
 9264TIP3    H127731   3.156   7.898   4.497
 9264TIP3    H227732   3.103   7.982   4.610
 9265TIP3   OH227733   3.127   7.772   2.946
 9265TIP3    H127734   3.105   7.737   3.035
 9265TIP3    H227735   3.170   7.696   2.903
 9266TIP3   OH227736   3.410   7.836   4.178
 9266TIP3    H127737   3.332   7.896   4.181
 9266TIP3    H227738   3.460   7.872   4.102
 9267TIP3   OH227739   3.241   7.565   2.794
 9267TIP3    H127740   3.217   7.569   2.700
 9267TIP3    H227741   3.339   7.571   2.788
 9268TIP3   OH227742   3.930   8.231   4.315
 9268TIP3    H127743   4.010   8.211   4.264
 9268TIP3    H227744   3.932   8.164   4.386
 9269TIP3   OH227745   4.065   7.907   2.449
 9269TIP3    H127746   4.039   7.850   2.373
 9269TIP3    H227747   4.034   7.994   2.417
 9270TIP3   OH227748   3.533   7.627   4.306
 9270TIP3    H127749   3.533   7.548   4.248
 9270TIP3    H227750   3.490   7.694   4.248
 9271TIP3   OH227751   3.535   7.411   4.116
 9271TIP3    H127752   3.563   7.455   4.033
 9271TIP3    H227753   3.441   7.390   4.096
 9272TIP3   OH227754   3.561   7.952   3.988
 9272TIP3    H127755   3.643   7.960   3.937
 9272TIP3    H227756   3.504   8.018   3.943
 9273TIP3   OH227757   4.145   7.915   4.369
 9273TIP3    H127758   4.197   7.834   4.372
 9273TIP3    H227759   4.208   7.979   4.334
 9274TIP3   OH227760   4.186   8.164   4.107
 9274TIP3    H127761   4.129   8.218   4.047
 9274TIP3    H227762   4.274   8.185   4.067
 9275TIP3   OH227763   3.412   7.735   4.539
 9275TIP3    H127764   3.342   7.668   4.553
 9275TIP3    H227765   3.444   7.713   4.450
 9276TIP3   OH227766   3.667   7.175   4.183
 9276TIP3    H127767   3.618   7.257   4.159
 9276TIP3    H227768   3.598   7.107   4.170
 9277TIP3   OH227769   3.794   7.678   4.398
 9277TIP3    H127770   3.779   7.666   4.493
 9277TIP3    H227771   3.704   7.656   4.365
 9278TIP3   OH227772   4.032   7.628   4.252
 9278TIP3    H127773   3.957   7.631   4.315
 9278TIP3    H227774   4.106   7.599   4.309
 9279TIP3   OH227775   4.261   7.571   4.404
 9279TIP3    H127776   4.273   7.475   4.421
 9279TIP3    H227777   4.258   7.609   4.494
 9280TIP3   OH227778   3.248   7.517   4.591
 9280TIP3    H127779   3.255   7.426   4.557
 9280TIP3    H227780   3.285   7.505   4.681
 9281TIP3   OH227781   3.761   7.184   4.440
 9281TIP3    H127782   3.827   7.113   4.433
 9281TIP3    H227783   3.721   7.180   4.351
 9282TIP3   OH227784   3.827   7.399   4.600
 9282TIP3    H127785   3.805   7.329   4.534
 9282TIP3    H227786   3.749   7.459   4.592
 9283TIP3   OH227787   2.530   7.973   2.904
 9283TIP3    H127788   2.619   8.008   2.884
 9283TIP3    H227789   2.527   7.891   2.851
 9284TIP3   OH227790   4.410   8.590   4.146
 9284TIP3    H127791   4.334   8.572   4.206
 9284TIP3    H227792   4.453   8.664   4.191
 9285TIP3   OH227793   4.194   8.079   2.794
 9285TIP3    H127794   4.269   8.135   2.766
 9285TIP3    H227795   4.232   8.039   2.875
 9286TIP3   OH227796   4.325   7.947   2.990
 9286TIP3    H127797   4.259   7.910   3.053
 9286TIP3    H227798   4.391   7.987   3.051
 9287TIP3   OH227799   4.384   8.346   3.436
 9287TIP3    H127800   4.428   8.285   3.375
 9287TIP3    H227801   4.330   8.400   3.376
 9288TIP3   OH227802   4.262   7.859   2.639
 9288TIP3    H127803   4.190   7.866   2.572
 9288TIP3    H227804   4.236   7.932   2.699
 9289TIP3   OH227805   4.135   7.531   2.592
 9289TIP3    H127806   4.092   7.569   2.515
 9289TIP3    H227807   4.110   7.437   2.585
 9290TIP3   OH227808   4.140   7.808   3.137
 9290TIP3    H127809   4.147   7.711   3.136
 9290TIP3    H227810   4.124   7.826   3.232
 9291TIP3   OH227811   2.766   7.880   3.887
 9291TIP3    H127812   2.765   7.852   3.793
 9291TIP3    H227813   2.863   7.883   3.904
 9292TIP3   OH227814   4.427   8.231   3.999
 9292TIP3    H127815   4.501   8.168   3.987
 9292TIP3    H227816   4.450   8.302   3.936
 9293TIP3   OH227817   4.614   8.037   4.011
 9293TIP3    H127818   4.539   7.988   4.052
 9293TIP3    H227819   4.686   7.972   4.027
 9294TIP3   OH227820   4.078   7.265   2.575
 9294TIP3    H127821   4.153   7.237   2.632
 9294TIP3    H227822   4.005   7.208   2.603
 9295TIP3   OH227823   4.133   7.522   3.034
 9295TIP3    H127824   4.175   7.434   3.048
 9295TIP3    H227825   4.194   7.558   2.966
 9296TIP3   OH227826   4.298   7.694   3.532
 9296TIP3    H127827   4.383   7.721   3.490
 9296TIP3    H227828   4.310   7.736   3.619
 9297TIP3   OH227829   4.366   7.844   3.761
 9297TIP3    H127830   4.288   7.878   3.808
 9297TIP3    H227831   4.398   7.924   3.715
 9298TIP3   OH227832   2.981   7.565   4.556
 9298TIP3    H127833   3.079   7.561   4.561
 9298TIP3    H227834   2.958   7.480   4.600
 9299TIP3   OH227835   4.816   7.433   4.317
 9299TIP3    H127836   4.877   7.369   4.274
 9299TIP3    H227837   4.787   7.488   4.242
 9300TIP3   OH227838   4.246   7.274   3.071
 9300TIP3    H127839   4.293   7.259   3.155
 9300TIP3    H227840   4.184   7.198   3.071
 9301TIP3   OH227841   2.943   7.261   3.892
 9301TIP3    H127842   3.006   7.187   3.901
 9301TIP3    H227843   3.004   7.336   3.884
 9302TIP3   OH227844   2.746   7.533   3.965
 9302TIP3    H127845   2.797   7.531   3.881
 9302TIP3    H227846   2.769   7.620   4.000
 9303TIP3   OH227847   4.687   7.572   4.124
 9303TIP3    H127848   4.601   7.615   4.142
 9303TIP3    H227849   4.656   7.501   4.064
 9304TIP3   OH227850   4.323   7.210   2.703
 9304TIP3    H127851   4.365   7.137   2.653
 9304TIP3    H227852   4.392   7.279   2.702
 9305TIP3   OH227853   2.731   7.032   3.460
 9305TIP3    H127854   2.639   7.036   3.490
 9305TIP3    H227855   2.729   7.094   3.384
 9306TIP3   OH227856   2.950   7.116   4.279
 9306TIP3    H127857   2.900   7.114   4.362
 9306TIP3    H227858   2.885   7.155   4.218
 9307TIP3   OH227859   4.587   7.336   4.002
 9307TIP3    H127860   4.497   7.332   3.965
 9307TIP3    H227861   4.617   7.243   3.990
 9308TIP3   OH227862   3.793   7.251   3.620
 9308TIP3    H127863   3.749   7.181   3.671
 9308TIP3    H227864   3.867   7.203   3.577
 9309TIP3   OH227865   4.314   7.129   3.524
 9309TIP3    H127866   4.351   7.182   3.451
 9309TIP3    H227867   4.219   7.150   3.520
 9310TIP3   OH227868   4.410   7.230   3.289
 9310TIP3    H127869   4.484   7.180   3.249
 9310TIP3    H227870   4.443   7.322   3.275
 9311TIP3   OH227871   3.040   6.959   3.636
 9311TIP3    H127872   2.948   6.926   3.638
 9311TIP3    H227873   3.089   6.874   3.633
 9312TIP3   OH227874   2.822   6.828   3.283
 9312TIP3    H127875   2.856   6.885   3.212
 9312TIP3    H227876   2.797   6.895   3.351
 9313TIP3   OH227877   3.484   6.992   3.518
 9313TIP3    H127878   3.540   7.040   3.456
 9313TIP3    H227879   3.509   7.032   3.603
 9314TIP3   OH227880   4.030   7.138   3.501
 9314TIP3    H127881   4.030   7.100   3.412
 9314TIP3    H227882   4.017   7.058   3.557
 9315TIP3   OH227883   4.061   7.062   3.063
 9315TIP3    H127884   3.975   7.105   3.078
 9315TIP3    H227885   4.046   6.976   3.109
 9316TIP3   OH227886   2.946   6.989   3.046
 9316TIP3    H127887   2.995   6.925   2.990
 9316TIP3    H227888   3.019   7.043   3.082
 9317TIP3   OH227889   3.457   7.164   3.145
 9317TIP3    H127890   3.517   7.117   3.205
 9317TIP3    H227891   3.478   7.257   3.172
 9318TIP3   OH227892   3.248   7.239   4.526
 9318TIP3    H127893   3.213   7.169   4.584
 9318TIP3    H227894   3.342   7.239   4.554
 9319TIP3   OH227895   3.497   7.238   4.646
 9319TIP3    H127896   3.582   7.214   4.606
 9319TIP3    H227897   3.486   7.166   4.713
 9320TIP3   OH227898   4.324   7.299   4.433
 9320TIP3    H127899   4.343   7.269   4.525
 9320TIP3    H227900   4.413   7.295   4.392
 9321TIP3   OH227901   5.531   8.210   2.700
 9321TIP3    H127902   5.494   8.296   2.673
 9321TIP3    H227903   5.459   8.153   2.669
 9322TIP3   OH227904   5.529   8.223   3.074
 9322TIP3    H127905   5.562   8.196   3.162
 9322TIP3    H227906   5.487   8.141   3.043
 9323TIP3   OH227907   4.829   8.119   3.435
 9323TIP3    H127908   4.857   8.051   3.499
 9323TIP3    H227909   4.902   8.182   3.441
 9324TIP3   OH227910   5.746   8.525   2.763
 9324TIP3    H127911   5.744   8.450   2.825
 9324TIP3    H227912   5.797   8.590   2.813
 9325TIP3   OH227913   4.856   8.472   3.237
 9325TIP3    H127914   4.826   8.384   3.208
 9325TIP3    H227915   4.940   8.482   3.186
 9326TIP3   OH227916   4.507   7.728   2.945
 9326TIP3    H127917   4.464   7.813   2.967
 9326TIP3    H227918   4.431   7.679   2.909
 9327TIP3   OH227919   4.562   8.016   3.114
 9327TIP3    H127920   4.610   7.939   3.153
 9327TIP3    H227921   4.635   8.068   3.077
 9328TIP3   OH227922   5.342   8.441   3.113
 9328TIP3    H127923   5.389   8.362   3.081
 9328TIP3    H227924   5.420   8.494   3.141
 9329TIP3   OH227925   6.336   7.772   3.116
 9329TIP3    H127926   6.370   7.853   3.158
 9329TIP3    H227927   6.367   7.783   3.025
 9330TIP3   OH227928   5.738   7.953   3.153
 9330TIP3    H127929   5.781   7.868   3.175
 9330TIP3    H227930   5.707   7.934   3.062
 9331TIP3   OH227931   5.076   7.610   3.119
 9331TIP3    H127932   5.057   7.683   3.056
 9331TIP3    H227933   5.027   7.537   3.075
 9332TIP3   OH227934   5.770   7.702   2.739
 9332TIP3    H127935   5.840   7.686   2.807
 9332TIP3    H227936   5.826   7.736   2.667
 9333TIP3   OH227937   4.709   7.813   3.226
 9333TIP3    H127938   4.791   7.794   3.275
 9333TIP3    H227939   4.724   7.757   3.146
 9334TIP3   OH227940   5.151   8.010   3.018
 9334TIP3    H127941   5.245   7.985   3.032
 9334TIP3    H227942   5.112   7.925   2.988
 9335TIP3   OH227943   6.415   7.982   3.286
 9335TIP3    H127944   6.328   8.024   3.267
 9335TIP3    H227945   6.416   7.989   3.383
 9336TIP3   OH227946   5.072   7.594   3.554
 9336TIP3    H127947   5.013   7.631   3.486
 9336TIP3    H227948   5.020   7.612   3.635
 9337TIP3   OH227949   5.411   8.411   2.559
 9337TIP3    H127950   5.364   8.406   2.475
 9337TIP3    H227951   5.428   8.506   2.569
 9338TIP3   OH227952   5.176   8.375   3.348
 9338TIP3    H127953   5.109   8.436   3.383
 9338TIP3    H227954   5.209   8.424   3.270
 9339TIP3   OH227955   5.977   7.707   2.913
 9339TIP3    H127956   5.976   7.652   2.993
 9339TIP3    H227957   6.033   7.781   2.941
 9340TIP3   OH227958   4.944   7.709   3.338
 9340TIP3    H127959   5.005   7.782   3.362
 9340TIP3    H227960   4.993   7.669   3.263
 9341TIP3   OH227961   5.005   8.586   3.454
 9341TIP3    H127962   4.960   8.582   3.367
 9341TIP3    H227963   4.926   8.582   3.512
 9342TIP3   OH227964   4.410   8.219   2.697
 9342TIP3    H127965   4.374   8.258   2.615
 9342TIP3    H227966   4.426   8.301   2.747
 9343TIP3   OH227967   6.132   7.679   3.287
 9343TIP3    H127968   6.044   7.701   3.251
 9343TIP3    H227969   6.192   7.706   3.214
 9344TIP3   OH227970   5.425   7.313   3.263
 9344TIP3    H127971   5.416   7.218   3.284
 9344TIP3    H227972   5.349   7.350   3.313
 9345TIP3   OH227973   5.774   8.539   2.483
 9345TIP3    H127974   5.740   8.457   2.441
 9345TIP3    H227975   5.784   8.512   2.577
 9346TIP3   OH227976   6.062   8.683   3.267
 9346TIP3    H127977   6.051   8.601   3.214
 9346TIP3    H227978   6.077   8.750   3.197
 9347TIP3   OH227979   5.361   8.070   2.527
 9347TIP3    H127980   5.280   8.122   2.509
 9347TIP3    H227981   5.405   8.070   2.440
 9348TIP3   OH227982   5.317   7.860   2.239
 9348TIP3    H127983   5.384   7.911   2.288
 9348TIP3    H227984   5.375   7.796   2.192
 9349TIP3   OH227985   6.261   8.319   3.111
 9349TIP3    H127986   6.177   8.369   3.118
 9349TIP3    H227987   6.288   8.342   3.020
 9350TIP3   OH227988   5.708   8.150   2.500
 9350TIP3    H127989   5.653   8.171   2.579
 9350TIP3    H227990   5.792   8.124   2.544
 9351TIP3   OH227991   5.941   8.197   3.408
 9351TIP3    H127992   5.938   8.281   3.459
 9351TIP3    H227993   5.853   8.201   3.364
 9352TIP3   OH227994   4.946   8.155   2.903
 9352TIP3    H127995   4.904   8.095   2.839
 9352TIP3    H227996   5.022   8.102   2.936
 9353TIP3   OH227997   5.079   8.523   3.103
 9353TIP3    H127998   5.042   8.518   3.013
 9353TIP3    H227999   5.176   8.518   3.088
 9354TIP3   OH228000   5.076   8.130   3.263
 9354TIP3    H128001   5.110   8.107   3.174
 9354TIP3    H228002   5.118   8.216   3.282
 9355TIP3   OH228003   5.253   8.587   3.587
 9355TIP3    H128004   5.216   8.673   3.613
 9355TIP3    H228005   5.179   8.553   3.534
 9356TIP3   OH228006   5.543   8.017   2.322
 9356TIP3    H128007   5.603   8.075   2.373
 9356TIP3    H228008   5.573   8.034   2.230
 9357TIP3   OH228009   4.966   8.239   3.689
 9357TIP3    H128010   4.972   8.326   3.734
 9357TIP3    H228011   4.872   8.218   3.705
 9358TIP3   OH228012   6.062   7.258   2.368
 9358TIP3    H128013   5.981   7.277   2.420
 9358TIP3    H228014   6.074   7.341   2.319
 9359TIP3   OH228015   4.808   7.997   2.713
 9359TIP3    H128016   4.740   8.038   2.656
 9359TIP3    H228017   4.766   7.914   2.737
 9360TIP3   OH228018   4.601   8.384   3.622
 9360TIP3    H128019   4.526   8.379   3.559
 9360TIP3    H228020   4.624   8.290   3.638
 9361TIP3   OH228021   6.196   8.159   3.584
 9361TIP3    H128022   6.112   8.169   3.537
 9361TIP3    H228023   6.213   8.063   3.574
 9362TIP3   OH228024   4.790   8.584   3.630
 9362TIP3    H128025   4.843   8.541   3.700
 9362TIP3    H228026   4.717   8.519   3.618
 9363TIP3   OH228027   5.190   7.388   3.398
 9363TIP3    H128028   5.101   7.358   3.370
 9363TIP3    H228029   5.164   7.470   3.445
 9364TIP3   OH228030   5.725   7.504   3.591
 9364TIP3    H128031   5.796   7.474   3.651
 9364TIP3    H228032   5.643   7.482   3.640
 9365TIP3   OH228033   5.964   7.934   3.511
 9365TIP3    H128034   5.912   7.929   3.595
 9365TIP3    H228035   5.938   8.021   3.475
 9366TIP3   OH228036   5.625   8.047   2.068
 9366TIP3    H128037   5.591   8.026   1.979
 9366TIP3    H228038   5.685   8.120   2.047
 9367TIP3   OH228039   5.332   7.440   2.367
 9367TIP3    H128040   5.301   7.435   2.460
 9367TIP3    H228041   5.297   7.355   2.334
 9368TIP3   OH228042   5.121   7.907   3.414
 9368TIP3    H128043   5.070   7.927   3.495
 9368TIP3    H228044   5.104   7.988   3.361
 9369TIP3   OH228045   5.005   7.791   2.929
 9369TIP3    H128046   4.913   7.764   2.948
 9369TIP3    H228047   5.017   7.749   2.841
 9370TIP3   OH228048   5.498   7.874   2.658
 9370TIP3    H128049   5.445   7.943   2.614
 9370TIP3    H228050   5.553   7.841   2.584
 9371TIP3   OH228051   5.673   8.152   3.741
 9371TIP3    H128052   5.650   8.080   3.804
 9371TIP3    H228053   5.767   8.166   3.764
 9372TIP3   OH228054   5.653   7.904   2.895
 9372TIP3    H128055   5.591   7.930   2.824
 9372TIP3    H228056   5.689   7.823   2.853
 9373TIP3   OH228057   4.942   7.933   3.623
 9373TIP3    H128058   4.963   7.999   3.691
 9373TIP3    H228059   4.930   7.852   3.676
 9374TIP3   OH228060   4.985   7.409   2.332
 9374TIP3    H128061   4.985   7.407   2.430
 9374TIP3    H228062   4.908   7.465   2.315
 9375TIP3   OH228063   4.534   7.453   3.204
 9375TIP3    H128064   4.607   7.487   3.260
 9375TIP3    H228065   4.580   7.424   3.123
 9376TIP3   OH228066   4.504   7.435   2.721
 9376TIP3    H128067   4.554   7.473   2.646
 9376TIP3    H228068   4.445   7.510   2.743
 9377TIP3   OH228069   5.663   8.151   3.318
 9377TIP3    H128070   5.696   8.079   3.259
 9377TIP3    H228071   5.634   8.098   3.395
 9378TIP3   OH228072   5.333   7.617   2.990
 9378TIP3    H128073   5.253   7.613   3.046
 9378TIP3    H228074   5.404   7.606   3.055
 9379TIP3   OH228075   4.768   7.669   2.998
 9379TIP3    H128076   4.674   7.677   2.971
 9379TIP3    H228077   4.790   7.577   2.975
 9380TIP3   OH228078   5.034   7.663   2.688
 9380TIP3    H128079   5.129   7.678   2.670
 9380TIP3    H228080   4.990   7.686   2.603
 9381TIP3   OH228081   5.825   7.692   3.194
 9381TIP3    H128082   5.790   7.702   3.286
 9381TIP3    H228083   5.762   7.627   3.157
 9382TIP3   OH228084   4.878   7.696   2.463
 9382TIP3    H128085   4.802   7.658   2.416
 9382TIP3    H228086   4.929   7.734   2.389
 9383TIP3   OH228087   4.957   8.485   3.832
 9383TIP3    H128088   5.035   8.513   3.884
 9383TIP3    H228089   4.891   8.474   3.904
 9384TIP3   OH228090   5.415   7.943   3.089
 9384TIP3    H128091   5.487   7.901   3.039
 9384TIP3    H228092   5.421   7.898   3.175
 9385TIP3   OH228093   4.937   7.428   2.967
 9385TIP3    H128094   4.902   7.350   3.015
 9385TIP3    H228095   4.993   7.387   2.900
 9386TIP3   OH228096   5.391   7.839   3.376
 9386TIP3    H128097   5.302   7.875   3.391
 9386TIP3    H228098   5.449   7.899   3.428
 9387TIP3   OH228099   5.129   8.214   2.480
 9387TIP3    H128100   5.051   8.156   2.467
 9387TIP3    H228101   5.106   8.259   2.565
 9388TIP3   OH228102   6.028   8.461   3.106
 9388TIP3    H128103   6.054   8.508   3.024
 9388TIP3    H228104   5.944   8.418   3.079
 9389TIP3   OH228105   5.586   7.540   2.334
 9389TIP3    H128106   5.489   7.523   2.344
 9389TIP3    H228107   5.595   7.634   2.361
 9390TIP3   OH228108   5.541   8.570   3.470
 9390TIP3    H128109   5.567   8.513   3.544
 9390TIP3    H228110   5.457   8.607   3.503
 9391TIP3   OH228111   5.656   7.788   2.439
 9391TIP3    H128112   5.752   7.792   2.456
 9391TIP3    H228113   5.640   7.868   2.386
 9392TIP3   OH228114   4.803   8.210   3.137
 9392TIP3    H128115   4.857   8.197   3.057
 9392TIP3    H228116   4.855   8.166   3.206
 9393TIP3   OH228117   5.239   8.399   2.314
 9393TIP3    H128118   5.199   8.469   2.371
 9393TIP3    H228119   5.204   8.319   2.360
 9394TIP3   OH228120   4.708   8.158   3.761
 9394TIP3    H128121   4.718   8.145   3.858
 9394TIP3    H228122   4.631   8.101   3.742
 9395TIP3   OH228123   5.432   8.276   3.786
 9395TIP3    H128124   5.369   8.224   3.733
 9395TIP3    H228125   5.518   8.242   3.754
 9396TIP3   OH228126   6.097   7.879   2.274
 9396TIP3    H128127   6.036   7.834   2.211
 9396TIP3    H228128   6.091   7.969   2.234
 9397TIP3   OH228129   6.318   8.722   3.357
 9397TIP3    H128130   6.221   8.730   3.345
 9397TIP3    H228131   6.345   8.704   3.264
 9398TIP3   OH228132   5.794   8.331   3.009
 9398TIP3    H128133   5.702   8.304   3.030
 9398TIP3    H228134   5.828   8.247   2.971
 9399TIP3   OH228135   4.482   7.858   2.473
 9399TIP3    H128136   4.531   7.940   2.496
 9399TIP3    H228137   4.407   7.862   2.537
 9400TIP3   OH228138   5.058   8.335   2.719
 9400TIP3    H128139   5.016   8.413   2.758
 9400TIP3    H228140   5.033   8.269   2.786
 9401TIP3   OH228141   5.583   8.532   3.198
 9401TIP3    H128142   5.572   8.542   3.295
 9401TIP3    H228143   5.666   8.483   3.191
 9402TIP3   OH228144   5.588   8.360   2.055
 9402TIP3    H128145   5.619   8.350   2.147
 9402TIP3    H228146   5.506   8.413   2.068
 9403TIP3   OH228147   4.912   7.675   3.769
 9403TIP3    H128148   4.816   7.679   3.783
 9403TIP3    H228149   4.940   7.617   3.842
 9404TIP3   OH228150   5.710   8.336   2.302
 9404TIP3    H128151   5.707   8.264   2.370
 9404TIP3    H228152   5.807   8.340   2.284
 9405TIP3   OH228153   4.896   8.353   2.134
 9405TIP3    H128154   4.942   8.270   2.108
 9405TIP3    H228155   4.940   8.373   2.217
 9406TIP3   OH228156   4.605   8.097   2.554
 9406TIP3    H128157   4.541   8.134   2.618
 9406TIP3    H228158   4.612   8.172   2.491
 9407TIP3   OH228159   5.749   7.743   3.454
 9407TIP3    H128160   5.833   7.777   3.490
 9407TIP3    H228161   5.737   7.660   3.507
 9408TIP3   OH228162   5.628   7.492   2.618
 9408TIP3    H128163   5.619   7.514   2.523
 9408TIP3    H228164   5.670   7.573   2.655
 9409TIP3   OH228165   5.316   7.673   2.719
 9409TIP3    H128166   5.383   7.743   2.703
 9409TIP3    H228167   5.323   7.663   2.817
 9410TIP3   OH228168   5.589   7.989   3.524
 9410TIP3    H128169   5.613   8.040   3.605
 9410TIP3    H228170   5.643   7.909   3.534
 9411TIP3   OH228171   5.462   7.395   2.819
 9411TIP3    H128172   5.466   7.468   2.884
 9411TIP3    H228173   5.523   7.430   2.750
 9412TIP3   OH228174   4.976   7.397   2.608
 9412TIP3    H128175   4.974   7.486   2.648
 9412TIP3    H228176   5.072   7.378   2.619
 9413TIP3   OH228177   6.231   7.891   3.501
 9413TIP3    H128178   6.133   7.893   3.513
 9413TIP3    H228179   6.235   7.832   3.424
 9414TIP3   OH228180   5.879   8.086   2.895
 9414TIP3    H128181   5.804   8.025   2.908
 9414TIP3    H228182   5.951   8.039   2.943
 9415TIP3   OH228183   4.594   8.313   2.368
 9415TIP3    H128184   4.626   8.405   2.365
 9415TIP3    H228185   4.651   8.270   2.301
 9416TIP3   OH228186   4.537   7.589   2.492
 9416TIP3    H128187   4.535   7.687   2.493
 9416TIP3    H228188   4.447   7.568   2.467
 9417TIP3   OH228189   4.924   7.309   3.371
 9417TIP3    H128190   4.894   7.275   3.284
 9417TIP3    H228191   4.914   7.230   3.429
 9418TIP3   OH228192   4.751   8.456   4.010
 9418TIP3    H128193   4.771   8.360   4.017
 9418TIP3    H228194   4.662   8.454   3.970
 9419TIP3   OH228195   4.715   8.114   2.209
 9419TIP3    H128196   4.760   8.080   2.288
 9419TIP3    H228197   4.792   8.122   2.149
 9420TIP3   OH228198   5.375   8.542   3.826
 9420TIP3    H128199   5.340   8.554   3.735
 9420TIP3    H228200   5.409   8.450   3.819
 9421TIP3   OH228201   5.169   8.296   2.040
 9421TIP3    H128202   5.214   8.320   2.123
 9421TIP3    H228203   5.205   8.206   2.025
 9422TIP3   OH228204   5.851   8.559   3.401
 9422TIP3    H128205   5.916   8.619   3.360
 9422TIP3    H228206   5.771   8.614   3.399
 9423TIP3   OH228207   4.874   8.205   4.009
 9423TIP3    H128208   4.951   8.152   3.985
 9423TIP3    H228209   4.901   8.240   4.097
 9424TIP3   OH228210   4.927   8.028   2.437
 9424TIP3    H128211   4.904   7.987   2.522
 9424TIP3    H228212   4.968   7.954   2.388
 9425TIP3   OH228213   5.206   8.095   3.668
 9425TIP3    H128214   5.127   8.153   3.668
 9425TIP3    H228215   5.256   8.130   3.591
 9426TIP3   OH228216   5.037   7.823   2.280
 9426TIP3    H128217   5.013   7.821   2.185
 9426TIP3    H228218   5.135   7.827   2.275
 9427TIP3   OH228219   5.727   8.487   3.801
 9427TIP3    H128220   5.810   8.465   3.755
 9427TIP3    H228221   5.725   8.422   3.873
 9428TIP3   OH228222   5.860   8.164   1.938
 9428TIP3    H128223   5.835   8.110   1.861
 9428TIP3    H228224   5.836   8.253   1.904
 9429TIP3   OH228225   5.328   7.883   3.793
 9429TIP3    H128226   5.329   7.804   3.736
 9429TIP3    H228227   5.284   7.949   3.736
 9430TIP3   OH228228   5.331   7.670   3.601
 9430TIP3    H128229   5.359   7.710   3.517
 9430TIP3    H228230   5.237   7.647   3.582
 9431TIP3   OH228231   5.355   8.208   3.475
 9431TIP3    H128232   5.437   8.213   3.424
 9431TIP3    H228233   5.299   8.275   3.430
 9432TIP3   OH228234   5.939   8.171   3.855
 9432TIP3    H128235   5.987   8.087   3.864
 9432TIP3    H228236   6.009   8.231   3.823
 9433TIP3   OH228237   5.982   8.423   3.592
 9433TIP3    H128238   5.925   8.476   3.531
 9433TIP3    H228239   6.070   8.442   3.552
 9434TIP3   OH228240   5.206   7.993   4.025
 9434TIP3    H128241   5.138   7.924   4.039
 9434TIP3    H228242   5.240   7.969   3.937
 9435TIP3   OH228243   5.463   7.433   3.670
 9435TIP3    H128244   5.413   7.514   3.647
 9435TIP3    H228245   5.395   7.364   3.657
 9436TIP3   OH228246   5.589   7.937   3.885
 9436TIP3    H128247   5.577   7.923   3.980
 9436TIP3    H228248   5.499   7.912   3.854
 9437TIP3   OH228249   5.829   7.888   3.740
 9437TIP3    H128250   5.754   7.887   3.803
 9437TIP3    H228251   5.903   7.856   3.796
 9438TIP3   OH228252   6.058   7.828   3.889
 9438TIP3    H128253   6.071   7.732   3.904
 9438TIP3    H228254   6.054   7.864   3.980
 9439TIP3   OH228255   5.045   7.773   4.078
 9439TIP3    H128256   5.052   7.682   4.043
 9439TIP3    H228257   5.082   7.762   4.168
 9440TIP3   OH228258   5.555   7.440   3.929
 9440TIP3    H128259   5.625   7.372   3.922
 9440TIP3    H228260   5.517   7.436   3.838
 9441TIP3   OH228261   5.623   7.657   4.086
 9441TIP3    H128262   5.602   7.585   4.022
 9441TIP3    H228263   5.545   7.715   4.078
 9442TIP3   OH228264   4.320   8.236   2.376
 9442TIP3    H128265   4.413   8.267   2.368
 9442TIP3    H228266   4.324   8.149   2.332
 9443TIP3   OH228267   6.201   8.851   3.630
 9443TIP3    H128268   6.128   8.832   3.693
 9443TIP3    H228269   6.254   8.914   3.681
 9444TIP3   OH228270   5.985   8.334   2.284
 9444TIP3    H128271   6.055   8.395   2.253
 9444TIP3    H228272   6.030   8.295   2.362
 9445TIP3   OH228273   6.121   8.208   2.485
 9445TIP3    H128274   6.057   8.164   2.544
 9445TIP3    H228275   6.186   8.245   2.548
 9446TIP3   OH228276   6.154   8.589   2.905
 9446TIP3    H128277   6.222   8.533   2.863
 9446TIP3    H228278   6.163   8.674   2.860
 9447TIP3   OH228279   6.054   8.116   2.126
 9447TIP3    H128280   5.983   8.122   2.058
 9447TIP3    H228281   6.027   8.192   2.183
 9448TIP3   OH228282   5.933   7.790   2.077
 9448TIP3    H128283   5.881   7.825   2.004
 9448TIP3    H228284   5.908   7.695   2.073
 9449TIP3   OH228285   5.936   8.064   2.628
 9449TIP3    H128286   5.944   7.967   2.620
 9449TIP3    H228287   5.922   8.075   2.725
 9450TIP3   OH228288   4.563   8.126   3.375
 9450TIP3    H128289   4.559   8.104   3.280
 9450TIP3    H228290   4.660   8.133   3.388
 9451TIP3   OH228291   6.225   8.487   3.484
 9451TIP3    H128292   6.299   8.423   3.475
 9451TIP3    H228293   6.253   8.559   3.424
 9452TIP3   OH228294   6.415   8.296   3.502
 9452TIP3    H128295   6.338   8.248   3.538
 9452TIP3    H228296   6.485   8.228   3.518
 9453TIP3   OH228297   5.873   7.525   2.067
 9453TIP3    H128298   5.951   7.493   2.118
 9453TIP3    H228299   5.803   7.462   2.091
 9454TIP3   OH228300   5.932   7.782   2.520
 9454TIP3    H128301   5.970   7.692   2.537
 9454TIP3    H228302   5.992   7.812   2.449
 9455TIP3   OH228303   6.091   7.958   3.015
 9455TIP3    H128304   6.178   7.982   2.975
 9455TIP3    H228305   6.107   7.989   3.106
 9456TIP3   OH228306   6.162   8.098   3.248
 9456TIP3    H128307   6.085   8.132   3.297
 9456TIP3    H228308   6.194   8.179   3.202
 9457TIP3   OH228309   4.778   7.822   4.045
 9457TIP3    H128310   4.876   7.818   4.049
 9457TIP3    H228311   4.755   7.737   4.088
 9458TIP3   OH228312   6.614   7.692   3.803
 9458TIP3    H128313   6.674   7.625   3.761
 9458TIP3    H228314   6.586   7.745   3.725
 9459TIP3   OH228315   6.037   7.533   2.558
 9459TIP3    H128316   6.089   7.517   2.640
 9459TIP3    H228317   5.979   7.454   2.558
 9460TIP3   OH228318   4.740   7.517   3.377
 9460TIP3    H128319   4.802   7.443   3.387
 9460TIP3    H228320   4.801   7.592   3.371
 9461TIP3   OH228321   4.544   7.790   3.453
 9461TIP3    H128322   4.593   7.788   3.369
 9461TIP3    H228323   4.562   7.880   3.484
 9462TIP3   OH228324   6.485   7.830   3.605
 9462TIP3    H128325   6.397   7.868   3.625
 9462TIP3    H228326   6.457   7.754   3.549
 9463TIP3   OH228327   6.119   7.467   2.188
 9463TIP3    H128328   6.160   7.391   2.141
 9463TIP3    H228329   6.191   7.533   2.186
 9464TIP3   OH228330   4.526   7.290   2.949
 9464TIP3    H128331   4.434   7.290   2.980
 9464TIP3    H228332   4.522   7.352   2.873
 9465TIP3   OH228333   4.746   7.372   3.766
 9465TIP3    H128334   4.695   7.371   3.849
 9465TIP3    H228335   4.681   7.412   3.705
 9466TIP3   OH228336   6.383   7.586   3.489
 9466TIP3    H128337   6.291   7.572   3.458
 9466TIP3    H228338   6.418   7.494   3.480
 9467TIP3   OH228339   5.582   7.504   3.098
 9467TIP3    H128340   5.544   7.434   3.154
 9467TIP3    H228341   5.661   7.460   3.061
 9468TIP3   OH228342   6.107   7.394   3.006
 9468TIP3    H128343   6.144   7.442   2.929
 9468TIP3    H228344   6.011   7.409   2.997
 9469TIP3   OH228345   6.205   7.493   2.771
 9469TIP3    H128346   6.279   7.437   2.737
 9469TIP3    H228347   6.242   7.583   2.757
 9470TIP3   OH228348   4.837   7.216   3.122
 9470TIP3    H128349   4.745   7.183   3.125
 9470TIP3    H228350   4.886   7.131   3.119
 9471TIP3   OH228351   4.620   7.086   2.770
 9471TIP3    H128352   4.652   7.145   2.700
 9471TIP3    H228353   4.594   7.151   2.839
 9472TIP3   OH228354   5.279   7.250   3.005
 9472TIP3    H128355   5.337   7.296   2.942
 9472TIP3    H228356   5.310   7.285   3.090
 9473TIP3   OH228357   5.820   7.393   2.988
 9473TIP3    H128358   5.831   7.350   2.902
 9473TIP3    H228359   5.811   7.315   3.047
 9474TIP3   OH228360   5.857   7.318   2.549
 9474TIP3    H128361   5.769   7.357   2.563
 9474TIP3    H228362   5.846   7.232   2.596
 9475TIP3   OH228363   4.742   7.247   2.532
 9475TIP3    H128364   4.791   7.183   2.477
 9475TIP3    H228365   4.816   7.300   2.569
 9476TIP3   OH228366   5.253   7.422   2.633
 9476TIP3    H128367   5.314   7.375   2.693
 9476TIP3    H228368   5.275   7.514   2.659
 9477TIP3   OH228369   5.045   7.496   4.013
 9477TIP3    H128370   5.009   7.427   4.071
 9477TIP3    H228371   5.139   7.496   4.041
 9478TIP3   OH228372   5.294   7.493   4.133
 9478TIP3    H128373   5.379   7.472   4.091
 9478TIP3    H228374   5.286   7.420   4.198
 9479TIP3   OH228375   6.119   7.558   3.921
 9479TIP3    H128376   6.138   7.524   4.011
 9479TIP3    H228377   6.207   7.550   3.877
 9480TIP3   OH228378   6.614   8.371   2.918
 9480TIP3    H128379   6.668   8.325   2.984
 9480TIP3    H228380   6.683   8.407   2.857
 9481TIP3   OH228381   6.298   7.992   2.431
 9481TIP3    H128382   6.246   8.072   2.448
 9481TIP3    H228383   6.229   7.933   2.396
 9482TIP3   OH228384   6.363   8.277   2.610
 9482TIP3    H128385   6.408   8.198   2.648
 9482TIP3    H228386   6.421   8.298   2.536
 9483TIP3   OH228387   6.834   7.858   2.616
 9483TIP3    H128388   6.830   7.918   2.540
 9483TIP3    H228389   6.804   7.776   2.572
 9484TIP3   OH228390   6.504   8.069   2.712
 9484TIP3    H128391   6.586   8.050   2.762
 9484TIP3    H228392   6.516   8.008   2.636
 9485TIP3   OH228393   6.853   7.863   3.055
 9485TIP3    H128394   6.793   7.894   2.985
 9485TIP3    H228395   6.798   7.877   3.135
 9486TIP3   OH228396   6.733   7.972   2.834
 9486TIP3    H128397   6.805   8.034   2.854
 9486TIP3    H228398   6.772   7.924   2.757
 9487TIP3   OH228399   6.201   8.479   2.193
 9487TIP3    H128400   6.175   8.499   2.102
 9487TIP3    H228401   6.236   8.565   2.219
 9488TIP3   OH228402   6.728   8.508   3.178
 9488TIP3    H128403   6.711   8.585   3.233
 9488TIP3    H228404   6.640   8.466   3.184
 9489TIP3   OH228405   6.589   8.238   2.154
 9489TIP3    H128406   6.558   8.324   2.186
 9489TIP3    H228407   6.545   8.175   2.211
 9490TIP3   OH228408   6.388   8.632   3.114
 9490TIP3    H128409   6.323   8.614   3.045
 9490TIP3    H228410   6.421   8.544   3.139
 9491TIP3   OH228411   6.986   7.666   2.910
 9491TIP3    H128412   6.929   7.610   2.855
 9491TIP3    H228413   6.923   7.730   2.947
 9492TIP3   OH228414   7.546   7.776   3.113
 9492TIP3    H128415   7.531   7.724   3.194
 9492TIP3    H228416   7.457   7.767   3.075
 9493TIP3   OH228417   6.928   8.159   2.917
 9493TIP3    H128418   6.862   8.188   2.984
 9493TIP3    H228419   6.919   8.226   2.847
 9494TIP3   OH228420   6.781   8.032   2.397
 9494TIP3    H128421   6.698   8.004   2.440
 9494TIP3    H228422   6.750   8.048   2.307
 9495TIP3   OH228423   6.750   8.198   3.122
 9495TIP3    H128424   6.727   8.257   3.196
 9495TIP3    H228425   6.731   8.111   3.162
 9496TIP3   OH228426   6.772   7.650   1.816
 9496TIP3    H128427   6.777   7.639   1.913
 9496TIP3    H228428   6.682   7.680   1.804
 9497TIP3   OH228429   6.330   7.717   2.687
 9497TIP3    H128430   6.406   7.743   2.744
 9497TIP3    H228431   6.372   7.674   2.611
 9498TIP3   OH228432   6.302   7.692   2.208
 9498TIP3    H128433   6.350   7.726   2.130
 9498TIP3    H228434   6.242   7.767   2.226
 9499TIP3   OH228435   7.095   7.898   2.512
 9499TIP3    H128436   7.045   7.836   2.568
 9499TIP3    H228437   7.179   7.849   2.493
 9500TIP3   OH228438   6.554   7.916   2.490
 9500TIP3    H128439   6.460   7.925   2.463
 9500TIP3    H228440   6.575   7.823   2.469
 9501TIP3   OH228441   6.615   7.948   1.985
 9501TIP3    H128442   6.551   7.897   1.932
 9501TIP3    H228443   6.636   8.022   1.926
 9502TIP3   OH228444   6.734   7.676   2.443
 9502TIP3    H128445   6.698   7.600   2.494
 9502TIP3    H228446   6.800   7.633   2.387
 9503TIP3   OH228447   6.486   8.410   3.255
 9503TIP3    H128448   6.490   8.391   3.351
 9503TIP3    H228449   6.410   8.354   3.229
 9504TIP3   OH228450   6.274   8.107   1.965
 9504TIP3    H128451   6.316   8.191   1.986
 9504TIP3    H228452   6.194   8.110   2.023
 9505TIP3   OH228453   6.701   7.939   3.266
 9505TIP3    H128454   6.603   7.936   3.273
 9505TIP3    H228455   6.727   7.871   3.330
 9506TIP3   OH228456   6.760   7.646   2.091
 9506TIP3    H128457   6.748   7.733   2.133
 9506TIP3    H228458   6.852   7.627   2.119
 9507TIP3   OH228459   6.325   7.839   1.973
 9507TIP3    H128460   6.322   7.936   1.978
 9507TIP3    H228461   6.234   7.817   1.950
 9508TIP3   OH228462   6.708   7.571   2.860
 9508TIP3    H128463   6.692   7.530   2.772
 9508TIP3    H228464   6.711   7.492   2.918
 9509TIP3   OH228465   6.559   8.717   3.484
 9509TIP3    H128466   6.589   8.624   3.482
 9509TIP3    H228467   6.469   8.709   3.446
 9510TIP3   OH228468   6.680   8.469   3.487
 9510TIP3    H128469   6.733   8.389   3.483
 9510TIP3    H228470   6.694   8.497   3.580
 9511TIP3   OH228471   7.102   8.153   3.273
 9511TIP3    H128472   7.134   8.063   3.256
 9511TIP3    H228473   7.039   8.164   3.201
 9512TIP3   OH228474   7.111   7.942   3.064
 9512TIP3    H128475   7.085   7.972   2.976
 9512TIP3    H228476   7.026   7.899   3.089
 9513TIP3   OH228477   7.003   8.248   3.512
 9513TIP3    H128478   6.935   8.180   3.528
 9513TIP3    H228479   7.040   8.220   3.426
 9514TIP3   OH228480   7.259   7.702   3.145
 9514TIP3    H128481   7.194   7.767   3.115
 9514TIP3    H228482   7.209   7.619   3.131
 9515TIP3   OH228483   6.846   8.030   3.563
 9515TIP3    H128484   6.843   7.938   3.530
 9515TIP3    H228485   6.878   8.014   3.654
 9516TIP3   OH228486   7.350   7.696   3.403
 9516TIP3    H128487   7.417   7.625   3.398
 9516TIP3    H228488   7.310   7.691   3.314
 9517TIP3   OH228489   7.420   7.898   3.575
 9517TIP3    H128490   7.394   7.834   3.506
 9517TIP3    H228491   7.352   7.968   3.565
 9518TIP3   OH228492   6.116   8.484   1.882
 9518TIP3    H128493   6.198   8.522   1.849
 9518TIP3    H228494   6.105   8.406   1.823
 9519TIP3   OH228495   6.353   8.406   2.857
 9519TIP3    H128496   6.353   8.365   2.768
 9519TIP3    H228497   6.450   8.400   2.879
 9520TIP3   OH228498   6.580   8.086   3.545
 9520TIP3    H128499   6.677   8.074   3.540
 9520TIP3    H228500   6.553   7.997   3.576
 9521TIP3   OH228501   6.529   7.778   2.870
 9521TIP3    H128502   6.587   7.698   2.875
 9521TIP3    H228503   6.597   7.848   2.862
 9522TIP3   OH228504   6.337   8.050   2.936
 9522TIP3    H128505   6.387   8.038   2.853
 9522TIP3    H228506   6.376   8.131   2.971
 9523TIP3   OH228507   6.323   7.557   2.442
 9523TIP3    H128508   6.230   7.547   2.466
 9523TIP3    H228509   6.318   7.612   2.360
 9524TIP3   OH228510   6.545   7.648   3.262
 9524TIP3    H128511   6.489   7.625   3.338
 9524TIP3    H228512   6.477   7.667   3.195
 9525TIP3   OH228513   6.634   7.474   2.604
 9525TIP3    H128514   6.543   7.438   2.612
 9525TIP3    H228515   6.685   7.390   2.603
 9526TIP3   OH228516   6.408   7.344   2.257
 9526TIP3    H128517   6.449   7.398   2.187
 9526TIP3    H228518   6.393   7.409   2.327
 9527TIP3   OH228519   6.535   7.503   2.014
 9527TIP3    H128520   6.582   7.433   1.964
 9527TIP3    H228521   6.610   7.552   2.052
 9528TIP3   OH228522   7.014   7.681   2.186
 9528TIP3    H128523   7.079   7.609   2.183
 9528TIP3    H228524   7.063   7.752   2.141
 9529TIP3   OH228525   6.838   7.761   3.507
 9529TIP3    H128526   6.803   7.685   3.556
 9529TIP3    H228527   6.933   7.756   3.532
 9530TIP3   OH228528   7.089   7.751   3.621
 9530TIP3    H128529   7.175   7.726   3.582
 9530TIP3    H228530   7.077   7.680   3.687
 9531TIP3   OH228531   2.267   0.945   7.519
 9531TIP3    H128532   2.274   0.872   7.580
 9531TIP3    H228533   2.307   1.018   7.567
 9532TIP3   OH228534   1.924   1.397   7.540
 9532TIP3    H128535   1.986   1.340   7.488
 9532TIP3    H228536   1.937   1.360   7.627
 9533TIP3   OH228537   1.957   0.879   7.333
 9533TIP3    H128538   1.895   0.830   7.278
 9533TIP3    H228539   1.929   0.971   7.321
 9534TIP3   OH228540   2.090   1.239   7.400
 9534TIP3    H128541   2.123   1.155   7.362
 9534TIP3    H228542   2.133   1.301   7.337
 9535TIP3   OH228543   2.199   1.023   7.265
 9535TIP3    H128544   2.157   0.946   7.224
 9535TIP3    H228545   2.228   0.985   7.350
 9536TIP3   OH228546   2.205   0.597   7.272
 9536TIP3    H128547   2.147   0.588   7.349
 9536TIP3    H228548   2.286   0.552   7.301
 9537TIP3   OH228549   1.829   1.164   7.303
 9537TIP3    H128550   1.868   1.196   7.385
 9537TIP3    H228551   1.735   1.157   7.325
 9538TIP3   OH228552   2.369   1.040   6.685
 9538TIP3    H128553   2.379   1.137   6.673
 9538TIP3    H228554   2.461   1.010   6.674
 9539TIP3   OH228555   1.653   1.363   7.160
 9539TIP3    H128556   1.626   1.359   7.066
 9539TIP3    H228557   1.640   1.457   7.183
 9540TIP3   OH228558   1.883   1.258   6.806
 9540TIP3    H128559   1.944   1.189   6.772
 9540TIP3    H228560   1.916   1.270   6.898
 9541TIP3   OH228561   1.921   1.312   7.078
 9541TIP3    H128562   1.837   1.308   7.128
 9541TIP3    H228563   1.976   1.260   7.139
 9542TIP3   OH228564   2.114   0.503   6.825
 9542TIP3    H128565   2.094   0.453   6.744
 9542TIP3    H228566   2.206   0.531   6.809
 9543TIP3   OH228567   1.832   0.852   7.002
 9543TIP3    H128568   1.769   0.923   7.022
 9543TIP3    H228569   1.815   0.791   7.076
 9544TIP3   OH228570   2.614   0.304   7.032
 9544TIP3    H128571   2.551   0.248   6.981
 9544TIP3    H228572   2.592   0.391   6.992
 9545TIP3   OH228573   2.304   1.114   6.951
 9545TIP3    H128574   2.280   1.045   7.015
 9545TIP3    H228575   2.318   1.064   6.869
 9546TIP3   OH228576   2.061   0.850   6.850
 9546TIP3    H128577   2.119   0.814   6.921
 9546TIP3    H228578   1.976   0.848   6.899
 9547TIP3   OH228579   2.402   1.317   6.672
 9547TIP3    H128580   2.442   1.391   6.624
 9547TIP3    H228581   2.321   1.361   6.705
 9548TIP3   OH228582   2.222   0.782   7.065
 9548TIP3    H128583   2.204   0.715   7.133
 9548TIP3    H228584   2.320   0.773   7.056
 9549TIP3   OH228585   1.644   1.041   7.061
 9549TIP3    H128586   1.577   1.049   7.131
 9549TIP3    H228587   1.655   1.134   7.034
 9550TIP3   OH228588   2.352   1.469   7.644
 9550TIP3    H128589   2.308   1.514   7.568
 9550TIP3    H228590   2.445   1.476   7.616
 9551TIP3   OH228591   1.589   1.005   6.776
 9551TIP3    H128592   1.596   0.963   6.865
 9551TIP3    H228593   1.668   0.967   6.731
 9552TIP3   OH228594   2.029   1.065   6.674
 9552TIP3    H128595   2.067   0.999   6.736
 9552TIP3    H228596   2.091   1.062   6.599
 9553TIP3   OH228597   2.365   0.570   6.709
 9553TIP3    H128598   2.349   0.527   6.622
 9553TIP3    H228599   2.329   0.659   6.689
 9554TIP3   OH228600   1.359   1.320   6.935
 9554TIP3    H128601   1.455   1.302   6.927
 9554TIP3    H228602   1.345   1.371   6.852
 9555TIP3   OH228603   2.619   1.544   7.587
 9555TIP3    H128604   2.643   1.614   7.649
 9555TIP3    H228605   2.666   1.572   7.506
 9556TIP3   OH228606   2.501   0.761   7.043
 9556TIP3    H128607   2.571   0.823   7.014
 9556TIP3    H228608   2.543   0.721   7.122
 9557TIP3   OH228609   2.625   0.627   7.244
 9557TIP3    H128610   2.560   0.589   7.306
 9557TIP3    H228611   2.693   0.666   7.302
 9558TIP3   OH228612   2.655   1.021   7.671
 9558TIP3    H128613   2.723   0.953   7.654
 9558TIP3    H228614   2.677   1.088   7.604
 9559TIP3   OH228615   2.562   0.536   6.893
 9559TIP3    H128616   2.492   0.541   6.825
 9559TIP3    H228617   2.535   0.611   6.950
 9560TIP3   OH228618   2.442   0.196   6.841
 9560TIP3    H128619   2.398   0.264   6.789
 9560TIP3    H228620   2.386   0.119   6.823
 9561TIP3   OH228621   2.436   0.482   7.399
 9561TIP3    H128622   2.466   0.390   7.387
 9561TIP3    H228623   2.448   0.497   7.493
 9562TIP3   OH228624   2.186   1.420   7.222
 9562TIP3    H128625   2.241   1.405   7.142
 9562TIP3    H228626   2.243   1.478   7.275
 9563TIP3   OH228627   1.624   1.264   6.892
 9563TIP3    H128628   1.716   1.279   6.860
 9563TIP3    H228629   1.601   1.185   6.840
 9564TIP3   OH228630   2.339   1.380   6.995
 9564TIP3    H128631   2.331   1.282   6.984
 9564TIP3    H228632   2.294   1.411   6.914
 9565TIP3   OH228633   3.830   0.896   6.950
 9565TIP3    H128634   3.803   0.987   6.929
 9565TIP3    H228635   3.755   0.847   6.911
 9566TIP3   OH228636   3.829   0.899   7.333
 9566TIP3    H128637   3.861   0.871   7.421
 9566TIP3    H228638   3.790   0.818   7.298
 9567TIP3   OH228639   3.135   0.822   7.670
 9567TIP3    H128640   3.130   0.774   7.754
 9567TIP3    H228641   3.228   0.813   7.644
 9568TIP3   OH228642   4.072   1.201   7.011
 9568TIP3    H128643   4.061   1.128   7.073
 9568TIP3    H228644   4.106   1.272   7.069
 9569TIP3   OH228645   3.099   1.206   7.424
 9569TIP3    H128646   3.088   1.109   7.418
 9569TIP3    H228647   3.196   1.213   7.413
 9570TIP3   OH228648   2.795   0.407   7.219
 9570TIP3    H128649   2.748   0.492   7.222
 9570TIP3    H228650   2.735   0.357   7.161
 9571TIP3   OH228651   2.855   0.703   7.368
 9571TIP3    H128652   2.894   0.622   7.411
 9571TIP3    H228653   2.928   0.730   7.310
 9572TIP3   OH228654   3.728   1.666   7.030
 9572TIP3    H128655   3.769   1.594   6.977
 9572TIP3    H228656   3.714   1.622   7.115
 9573TIP3   OH228657   3.630   1.123   7.380
 9573TIP3    H128658   3.666   1.044   7.336
 9573TIP3    H228659   3.714   1.167   7.401
 9574TIP3   OH228660   4.047   0.627   7.423
 9574TIP3    H128661   4.068   0.538   7.452
 9574TIP3    H228662   4.010   0.614   7.334
 9575TIP3   OH228663   3.353   0.253   7.359
 9575TIP3    H128664   3.338   0.336   7.308
 9575TIP3    H228665   3.280   0.198   7.327
 9576TIP3   OH228666   4.036   0.402   7.046
 9576TIP3    H128667   4.097   0.354   7.105
 9576TIP3    H228668   4.090   0.404   6.965
 9577TIP3   OH228669   2.981   0.491   7.471
 9577TIP3    H128670   3.059   0.480   7.529
 9577TIP3    H228671   3.004   0.426   7.403
 9578TIP3   OH228672   3.448   0.687   7.282
 9578TIP3    H128673   3.543   0.662   7.296
 9578TIP3    H228674   3.411   0.601   7.254
 9579TIP3   OH228675   4.684   0.636   7.569
 9579TIP3    H128676   4.608   0.690   7.538
 9579TIP3    H228677   4.737   0.701   7.618
 9580TIP3   OH228678   3.722   1.118   6.817
 9580TIP3    H128679   3.681   1.098   6.732
 9580TIP3    H228680   3.676   1.200   6.842
 9581TIP3   OH228681   3.492   1.055   7.606
 9581TIP3    H128682   3.424   1.120   7.633
 9581TIP3    H228683   3.533   1.098   7.528
 9582TIP3   OH228684   3.224   0.423   7.556
 9582TIP3    H128685   3.295   0.481   7.591
 9582TIP3    H228686   3.276   0.358   7.506
 9583TIP3   OH228687   3.301   1.227   7.705
 9583TIP3    H128688   3.270   1.304   7.653
 9583TIP3    H228689   3.235   1.223   7.777
 9584TIP3   OH228690   2.705   0.927   6.937
 9584TIP3    H128691   2.665   0.956   6.853
 9584TIP3    H228692   2.738   1.012   6.974
 9585TIP3   OH228693   4.146   1.445   7.181
 9585TIP3    H128694   4.055   1.434   7.218
 9585TIP3    H228695   4.135   1.529   7.133
 9586TIP3   OH228696   3.844   1.491   6.852
 9586TIP3    H128697   3.893   1.406   6.834
 9586TIP3    H228698   3.906   1.553   6.809
 9587TIP3   OH228699   3.988   1.276   6.760
 9587TIP3    H128700   3.955   1.196   6.717
 9587TIP3    H228701   4.023   1.240   6.844
 9588TIP3   OH228702   4.369   1.357   7.520
 9588TIP3    H128703   4.359   1.277   7.464
 9588TIP3    H228704   4.355   1.429   7.455
 9589TIP3   OH228705   3.663   0.755   6.777
 9589TIP3    H128706   3.581   0.804   6.755
 9589TIP3    H228707   3.704   0.747   6.689
 9590TIP3   OH228708   3.620   0.528   6.501
 9590TIP3    H128709   3.692   0.582   6.539
 9590TIP3    H228710   3.671   0.464   6.448
 9591TIP3   OH228711   4.567   0.997   7.368
 9591TIP3    H128712   4.483   1.046   7.372
 9591TIP3    H228713   4.596   1.018   7.277
 9592TIP3   OH228714   4.008   0.833   6.749
 9592TIP3    H128715   3.954   0.855   6.828
 9592TIP3    H228716   4.093   0.810   6.792
 9593TIP3   OH228717   4.245   0.873   7.668
 9593TIP3    H128718   4.237   0.952   7.724
 9593TIP3    H228719   4.158   0.874   7.623
 9594TIP3   OH228720   3.244   0.830   7.165
 9594TIP3    H128721   3.202   0.770   7.099
 9594TIP3    H228722   3.319   0.775   7.197
 9595TIP3   OH228723   3.371   1.241   7.316
 9595TIP3    H128724   3.348   1.201   7.231
 9595TIP3    H228725   3.461   1.205   7.331
 9596TIP3   OH228726   3.373   0.820   7.519
 9596TIP3    H128727   3.402   0.788   7.431
 9596TIP3    H228728   3.422   0.905   7.528
 9597TIP3   OH228729   3.902   1.439   7.297
 9597TIP3    H128730   3.888   1.517   7.354
 9597TIP3    H228731   3.888   1.363   7.358
 9598TIP3   OH228732   3.516   1.387   7.792
 9598TIP3    H128733   3.468   1.446   7.852
 9598TIP3    H228734   3.452   1.316   7.776
 9599TIP3   OH228735   3.850   0.687   6.576
 9599TIP3    H128736   3.907   0.750   6.626
 9599TIP3    H228737   3.876   0.710   6.483
 9600TIP3   OH228738   3.593   1.369   6.856
 9600TIP3    H128739   3.674   1.423   6.866
 9600TIP3    H228740   3.534   1.428   6.808
 9601TIP3   OH228741   3.296   1.579   7.849
 9601TIP3    H128742   3.298   1.574   7.752
 9601TIP3    H228743   3.248   1.498   7.870
 9602TIP3   OH228744   3.108   0.670   6.974
 9602TIP3    H128745   3.042   0.715   6.916
 9602TIP3    H228746   3.067   0.584   6.985
 9603TIP3   OH228747   4.167   1.296   6.176
 9603TIP3    H128748   4.176   1.392   6.159
 9603TIP3    H228749   4.259   1.265   6.162
 9604TIP3   OH228750   2.744   1.253   7.506
 9604TIP3    H128751   2.838   1.234   7.497
 9604TIP3    H228752   2.743   1.335   7.558
 9605TIP3   OH228753   4.612   1.701   7.572
 9605TIP3    H128754   4.611   1.603   7.581
 9605TIP3    H228755   4.526   1.723   7.614
 9606TIP3   OH228756   3.738   1.489   7.692
 9606TIP3    H128757   3.722   1.583   7.716
 9606TIP3    H228758   3.655   1.449   7.728
 9607TIP3   OH228759   3.477   1.615   6.654
 9607TIP3    H128760   3.430   1.592   6.571
 9607TIP3    H228761   3.439   1.702   6.677
 9608TIP3   OH228762   2.912   1.464   7.040
 9608TIP3    H128763   2.960   1.453   7.124
 9608TIP3    H228764   2.861   1.380   7.038
 9609TIP3   OH228765   3.678   1.519   6.294
 9609TIP3    H128766   3.736   1.448   6.257
 9609TIP3    H228767   3.710   1.524   6.387
 9610TIP3   OH228768   3.729   1.568   6.564
 9610TIP3    H128769   3.638   1.576   6.603
 9610TIP3    H228770   3.774   1.519   6.634
 9611TIP3   OH228771   4.499   0.820   7.815
 9611TIP3    H128772   4.412   0.847   7.783
 9611TIP3    H228773   4.479   0.736   7.857
 9612TIP3   OH228774   4.274   0.606   7.787
 9612TIP3    H128775   4.259   0.626   7.881
 9612TIP3    H228776   4.251   0.689   7.742
 9613TIP3   OH228777   3.932   0.733   6.324
 9613TIP3    H128778   3.890   0.711   6.238
 9613TIP3    H228779   4.010   0.783   6.293
 9614TIP3   OH228780   3.418   0.586   7.648
 9614TIP3    H128781   3.449   0.608   7.736
 9614TIP3    H228782   3.413   0.673   7.604
 9615TIP3   OH228783   3.309   0.464   7.192
 9615TIP3    H128784   3.213   0.446   7.202
 9615TIP3    H228785   3.324   0.435   7.099
 9616TIP3   OH228786   3.793   0.555   6.912
 9616TIP3    H128787   3.745   0.627   6.866
 9616TIP3    H228788   3.858   0.528   6.845
 9617TIP3   OH228789   3.938   0.619   7.171
 9617TIP3    H128790   3.882   0.661   7.103
 9617TIP3    H228791   3.964   0.537   7.121
 9618TIP3   OH228792   2.878   0.220   7.013
 9618TIP3    H128793   2.889   0.217   6.916
 9618TIP3    H228794   2.783   0.243   7.019
 9619TIP3   OH228795   3.962   0.829   7.577
 9619TIP3    H128796   4.000   0.758   7.521
 9619TIP3    H228797   3.943   0.778   7.659
 9620TIP3   OH228798   3.058   0.340   7.238
 9620TIP3    H128799   2.965   0.372   7.227
 9620TIP3    H228800   3.051   0.258   7.188
 9621TIP3   OH228801   3.352   0.362   6.943
 9621TIP3    H128802   3.442   0.347   6.910
 9621TIP3    H228803   3.296   0.353   6.863
 9622TIP3   OH228804   3.182   0.347   6.719
 9622TIP3    H128805   3.108   0.328   6.658
 9622TIP3    H228806   3.241   0.394   6.656
 9623TIP3   OH228807   4.303   2.045   7.660
 9623TIP3    H128808   4.307   2.078   7.565
 9623TIP3    H228809   4.369   2.107   7.702
 9624TIP3   OH228810   3.705   0.617   7.341
 9624TIP3    H128811   3.791   0.588   7.307
 9624TIP3    H228812   3.711   0.589   7.436
 9625TIP3   OH228813   3.720   0.551   7.603
 9625TIP3    H128814   3.642   0.501   7.634
 9625TIP3    H228815   3.767   0.568   7.686
 9626TIP3   OH228816   3.430   0.903   6.727
 9626TIP3    H128817   3.359   0.836   6.717
 9626TIP3    H228818   3.412   0.936   6.819
 9627TIP3   OH228819   4.332   1.140   7.357
 9627TIP3    H128820   4.357   1.188   7.275
 9627TIP3    H228821   4.248   1.096   7.331
 9628TIP3   OH228822   3.867   0.283   6.547
 9628TIP3    H128823   3.807   0.232   6.606
 9628TIP3    H228824   3.903   0.348   6.611
 9629TIP3   OH228825   3.847   1.226   7.719
 9629TIP3    H128826   3.834   1.171   7.797
 9629TIP3    H228827   3.794   1.306   7.736
 9630TIP3   OH228828   3.968   0.476   6.710
 9630TIP3    H128829   4.065   0.486   6.717
 9630TIP3    H228830   3.943   0.553   6.655
 9631TIP3   OH228831   3.119   0.936   7.390
 9631TIP3    H128832   3.164   0.896   7.313
 9631TIP3    H228833   3.146   0.878   7.464
 9632TIP3   OH228834   3.580   1.052   6.553
 9632TIP3    H128835   3.532   1.138   6.558
 9632TIP3    H228836   3.524   0.996   6.611
 9633TIP3   OH228837   4.000   1.492   7.620
 9633TIP3    H128838   3.905   1.468   7.627
 9633TIP3    H228839   4.007   1.556   7.692
 9634TIP3   OH228840   4.399   0.551   6.519
 9634TIP3    H128841   4.339   0.502   6.459
 9634TIP3    H228842   4.387   0.642   6.482
 9635TIP3   OH228843   4.620   1.416   7.605
 9635TIP3    H128844   4.523   1.404   7.600
 9635TIP3    H228845   4.646   1.382   7.516
 9636TIP3   OH228846   4.107   1.372   6.441
 9636TIP3    H128847   4.077   1.302   6.500
 9636TIP3    H228848   4.115   1.327   6.355
 9637TIP3   OH228849   4.097   1.003   7.275
 9637TIP3    H128850   4.004   0.974   7.288
 9637TIP3    H228851   4.134   0.924   7.231
 9638TIP3   OH228852   3.227   1.230   7.033
 9638TIP3    H128853   3.224   1.309   6.975
 9638TIP3    H228854   3.133   1.207   7.038
 9639TIP3   OH228855   2.787   0.532   6.734
 9639TIP3    H128856   2.834   0.615   6.755
 9639TIP3    H228857   2.711   0.538   6.796
 9640TIP3   OH228858   3.364   0.994   6.973
 9640TIP3    H128859   3.329   1.083   6.993
 9640TIP3    H228860   3.328   0.941   7.046
 9641TIP3   OH228861   3.496   1.574   7.486
 9641TIP3    H128862   3.539   1.649   7.440
 9641TIP3    H228863   3.570   1.540   7.540
 9642TIP3   OH228864   3.144   1.468   6.881
 9642TIP3    H128865   3.059   1.476   6.927
 9642TIP3    H228866   3.176   1.560   6.883
 9643TIP3   OH228867   3.886   1.207   7.452
 9643TIP3    H128868   3.880   1.205   7.551
 9643TIP3    H228869   3.960   1.146   7.437
 9644TIP3   OH228870   3.859   1.103   6.338
 9644TIP3    H128871   3.909   1.077   6.418
 9644TIP3    H228872   3.770   1.073   6.362
 9645TIP3   OH228873   4.129   1.741   7.510
 9645TIP3    H128874   4.054   1.681   7.495
 9645TIP3    H228875   4.118   1.804   7.435
 9646TIP3   OH228876   4.196   1.570   6.158
 9646TIP3    H128877   4.227   1.634   6.092
 9646TIP3    H228878   4.116   1.616   6.192
 9647TIP3   OH228879   4.019   1.037   6.558
 9647TIP3    H128880   4.007   0.968   6.627
 9647TIP3    H228881   4.116   1.030   6.544
 9648TIP3   OH228882   2.944   1.445   7.639
 9648TIP3    H128883   2.984   1.359   7.656
 9648TIP3    H228884   2.921   1.475   7.729
 9649TIP3   OH228885   3.221   1.080   6.341
 9649TIP3    H128886   3.236   0.990   6.308
 9649TIP3    H228887   3.200   1.063   6.434
 9650TIP3   OH228888   3.165   1.084   6.616
 9650TIP3    H128889   3.243   1.056   6.667
 9650TIP3    H228890   3.173   1.182   6.620
 9651TIP3   OH228891   2.904   0.776   6.816
 9651TIP3    H128892   2.838   0.822   6.872
 9651TIP3    H228893   2.920   0.845   6.748
 9652TIP3   OH228894   3.437   1.282   6.565
 9652TIP3    H128895   3.349   1.309   6.597
 9652TIP3    H228896   3.446   1.337   6.486
 9653TIP3   OH228897   3.641   0.332   6.938
 9653TIP3    H128898   3.691   0.417   6.931
 9653TIP3    H228899   3.643   0.317   7.033
 9654TIP3   OH228900   3.910   0.681   7.802
 9654TIP3    H128901   3.920   0.737   7.882
 9654TIP3    H228902   3.948   0.597   7.834
 9655TIP3   OH228903   3.181   1.358   6.627
 9655TIP3    H128904   3.149   1.427   6.565
 9655TIP3    H228905   3.163   1.400   6.714
 9656TIP3   OH228906   4.185   0.763   7.153
 9656TIP3    H128907   4.106   0.710   7.173
 9656TIP3    H228908   4.257   0.714   7.200
 9657TIP3   OH228909   2.897   0.986   6.619
 9657TIP3    H128910   2.968   1.052   6.629
 9657TIP3    H228911   2.940   0.928   6.552
 9658TIP3   OH228912   2.840   0.261   6.737
 9658TIP3    H128913   2.832   0.359   6.734
 9658TIP3    H228914   2.748   0.233   6.736
 9659TIP3   OH228915   4.152   1.717   7.101
 9659TIP3    H128916   4.110   1.763   7.025
 9659TIP3    H228917   4.246   1.735   7.080
 9660TIP3   OH228918   2.770   1.206   7.007
 9660TIP3    H128919   2.697   1.231   7.066
 9660TIP3    H228920   2.739   1.244   6.921
 9661TIP3   OH228921   3.387   1.287   6.264
 9661TIP3    H128922   3.335   1.207   6.289
 9661TIP3    H228923   3.461   1.246   6.214
 9662TIP3   OH228924   4.050   1.597   7.885
 9662TIP3    H128925   4.096   1.518   7.855
 9662TIP3    H228926   4.128   1.659   7.899
 9663TIP3   OH228927   3.834   1.330   6.168
 9663TIP3    H128928   3.866   1.257   6.223
 9663TIP3    H228929   3.885   1.320   6.085
 9664TIP3   OH228930   3.030   0.799   6.473
 9664TIP3    H128931   3.087   0.765   6.544
 9664TIP3    H228932   3.096   0.803   6.400
 9665TIP3   OH228933   3.539   0.995   6.281
 9665TIP3    H128934   3.543   1.010   6.378
 9665TIP3    H228935   3.544   0.897   6.278
 9666TIP3   OH228936   4.159   1.246   7.668
 9666TIP3    H128937   4.232   1.286   7.617
 9666TIP3    H228938   4.084   1.301   7.642
 9667TIP3   OH228939   3.239   0.704   6.697
 9667TIP3    H128940   3.215   0.661   6.780
 9667TIP3    H228941   3.276   0.630   6.644
 9668TIP3   OH228942   3.339   0.497   6.542
 9668TIP3    H128943   3.312   0.500   6.448
 9668TIP3    H228944   3.436   0.499   6.533
 9669TIP3   OH228945   4.163   0.827   6.198
 9669TIP3    H128946   4.141   0.783   6.113
 9669TIP3    H228947   4.130   0.918   6.177
 9670TIP3   OH228948   3.661   0.894   7.753
 9670TIP3    H128949   3.742   0.867   7.708
 9670TIP3    H228950   3.618   0.953   7.688
 9671TIP3   OH228951   4.295   1.103   7.854
 9671TIP3    H128952   4.233   1.151   7.795
 9671TIP3    H228953   4.380   1.119   7.806
 9672TIP3   OH228954   3.150   1.564   6.442
 9672TIP3    H128955   3.245   1.553   6.423
 9672TIP3    H228956   3.122   1.610   6.361
 9673TIP3   OH228957   2.628   0.943   6.655
 9673TIP3    H128958   2.723   0.964   6.641
 9673TIP3    H228959   2.622   0.853   6.616
 9674TIP3   OH228960   2.542   1.554   7.071
 9674TIP3    H128961   2.476   1.491   7.034
 9674TIP3    H228962   2.587   1.496   7.137
 9675TIP3   OH228963   2.675   1.405   7.259
 9675TIP3    H128964   2.666   1.329   7.320
 9675TIP3    H228965   2.734   1.462   7.310
 9676TIP3   OH228966   4.402   1.816   7.055
 9676TIP3    H128967   4.434   1.839   7.144
 9676TIP3    H228968   4.476   1.844   6.999
 9677TIP3   OH228969   4.434   1.825   7.340
 9677TIP3    H128970   4.390   1.737   7.332
 9677TIP3    H228971   4.507   1.800   7.399
 9678TIP3   OH228972   4.485   1.506   7.893
 9678TIP3    H128973   4.415   1.508   7.959
 9678TIP3    H228974   4.529   1.593   7.903
 9679TIP3   OH228975   4.297   1.014   6.531
 9679TIP3    H128976   4.364   1.077   6.501
 9679TIP3    H228977   4.340   0.976   6.611
 9680TIP3   OH228978   4.425   0.886   6.734
 9680TIP3    H128979   4.360   0.846   6.796
 9680TIP3    H228980   4.491   0.925   6.795
 9681TIP3   OH228981   4.478   1.275   7.166
 9681TIP3    H128982   4.534   1.207   7.122
 9681TIP3    H228983   4.476   1.346   7.099
 9682TIP3   OH228984   4.311   1.578   7.360
 9682TIP3    H128985   4.237   1.611   7.413
 9682TIP3    H228986   4.265   1.527   7.289
 9683TIP3   OH228987   4.357   0.788   6.383
 9683TIP3    H128988   4.289   0.797   6.313
 9683TIP3    H228989   4.333   0.864   6.440
 9684TIP3   OH228990   4.225   0.447   6.325
 9684TIP3    H128991   4.210   0.528   6.274
 9684TIP3    H228992   4.173   0.383   6.274
 9685TIP3   OH228993   4.238   0.751   6.881
 9685TIP3    H128994   4.242   0.656   6.859
 9685TIP3    H228995   4.226   0.752   6.978
 9686TIP3   OH228996   2.862   0.854   7.609
 9686TIP3    H128997   2.860   0.807   7.523
 9686TIP3    H228998   2.953   0.836   7.638
 9687TIP3   OH228999   4.530   1.164   7.729
 9687TIP3    H129000   4.599   1.094   7.726
 9687TIP3    H229001   4.564   1.229   7.665
 9688TIP3   OH229002   4.714   0.973   7.751
 9688TIP3    H129003   4.640   0.920   7.787
 9688TIP3    H229004   4.787   0.911   7.771
 9689TIP3   OH229005   4.239   0.497   6.749
 9689TIP3    H129006   4.268   0.418   6.800
 9689TIP3    H229007   4.303   0.500   6.675
 9690TIP3   OH229008   4.393   0.632   7.275
 9690TIP3    H129009   4.480   0.657   7.234
 9690TIP3    H229010   4.408   0.668   7.365
 9691TIP3   OH229011   4.458   0.777   7.499
 9691TIP3    H129012   4.386   0.811   7.556
 9691TIP3    H229013   4.494   0.859   7.460
 9692TIP3   OH229014   3.988   1.674   6.713
 9692TIP3    H129015   4.041   1.657   6.632
 9692TIP3    H229016   4.048   1.729   6.765
 9693TIP3   OH229017   3.264   1.482   7.597
 9693TIP3    H129018   3.212   1.557   7.562
 9693TIP3    H229019   3.351   1.503   7.557
 9694TIP3   OH229020   3.692   1.751   7.749
 9694TIP3    H129021   3.729   1.753   7.841
 9694TIP3    H229022   3.759   1.806   7.702
 9695TIP3   OH229023   3.878   1.899   7.621
 9695TIP3    H129024   3.944   1.851   7.569
 9695TIP3    H229025   3.937   1.950   7.684
 9696TIP3   OH229026   2.945   1.778   7.655
 9696TIP3    H129027   2.858   1.818   7.635
 9696TIP3    H229028   2.944   1.777   7.751
 9697TIP3   OH229029   3.184   1.740   7.524
 9697TIP3    H129030   3.099   1.754   7.570
 9697TIP3    H229031   3.164   1.776   7.435
 9698TIP3   OH229032   3.609   1.773   7.325
 9698TIP3    H129033   3.538   1.791   7.260
 9698TIP3    H229034   3.618   1.861   7.368
 9699TIP3   OH229035   3.877   1.713   7.380
 9699TIP3    H129036   3.782   1.727   7.359
 9699TIP3    H229037   3.919   1.784   7.329
 9700TIP3   OH229038   4.085   1.903   7.294
 9700TIP3    H129039   4.070   1.987   7.245
 9700TIP3    H229040   4.112   1.842   7.222
 9701TIP3   OH229041   2.855   1.559   7.408
 9701TIP3    H129042   2.888   1.538   7.499
 9701TIP3    H229043   2.927   1.515   7.357
 9702TIP3   OH229044   3.050   1.430   7.272
 9702TIP3    H129045   3.065   1.347   7.323
 9702TIP3    H229046   3.142   1.465   7.267
 9703TIP3   OH229047   3.316   1.525   7.273
 9703TIP3    H129048   3.346   1.433   7.260
 9703TIP3    H229049   3.366   1.547   7.354
 9704TIP3   OH229050   2.644   1.331   6.805
 9704TIP3    H129051   2.559   1.297   6.771
 9704TIP3    H229052   2.632   1.425   6.787
 9705TIP3   OH229053   3.416   1.524   6.387
 9705TIP3    H129054   3.505   1.542   6.351
 9705TIP3    H229055   3.393   1.446   6.331
 9706TIP3   OH229056   4.138   1.639   6.482
 9706TIP3    H129057   4.133   1.540   6.474
 9706TIP3    H229058   4.090   1.664   6.401
 9707TIP3   OH229059   2.720   1.358   6.443
 9707TIP3    H129060   2.723   1.375   6.538
 9707TIP3    H229061   2.807   1.314   6.428
 9708TIP3   OH229062   4.361   1.780   7.667
 9708TIP3    H129063   4.283   1.754   7.613
 9708TIP3    H229064   4.348   1.877   7.670
 9709TIP3   OH229065   5.628   1.152   6.436
 9709TIP3    H129066   5.601   1.244   6.416
 9709TIP3    H229067   5.550   1.105   6.401
 9710TIP3   OH229068   5.646   1.148   6.808
 9710TIP3    H129069   5.656   1.126   6.902
 9710TIP3    H229070   5.584   1.080   6.777
 9711TIP3   OH229071   4.919   1.054   7.184
 9711TIP3    H129072   4.965   0.989   7.241
 9711TIP3    H229073   4.993   1.086   7.130
 9712TIP3   OH229074   5.871   1.457   6.498
 9712TIP3    H129075   5.854   1.387   6.562
 9712TIP3    H229076   5.900   1.530   6.554
 9713TIP3   OH229077   4.594   0.669   6.704
 9713TIP3    H129078   4.542   0.751   6.713
 9713TIP3    H229079   4.535   0.615   6.649
 9714TIP3   OH229080   4.661   0.961   6.859
 9714TIP3    H129081   4.700   0.877   6.892
 9714TIP3    H229082   4.730   0.993   6.800
 9715TIP3   OH229083   5.520   1.918   6.515
 9715TIP3    H129084   5.566   1.848   6.464
 9715TIP3    H229085   5.513   1.876   6.602
 9716TIP3   OH229086   5.437   1.365   6.890
 9716TIP3    H129087   5.451   1.313   6.810
 9716TIP3    H229088   5.524   1.409   6.899
 9717TIP3   OH229089   5.844   0.882   6.912
 9717TIP3    H129090   5.861   0.789   6.933
 9717TIP3    H229091   5.804   0.877   6.822
 9718TIP3   OH229092   5.151   0.504   6.843
 9718TIP3    H129093   5.135   0.590   6.798
 9718TIP3    H229094   5.074   0.453   6.814
 9719TIP3   OH229095   5.832   0.660   6.532
 9719TIP3    H129096   5.895   0.611   6.589
 9719TIP3    H229097   5.883   0.662   6.449
 9720TIP3   OH229098   4.785   0.742   6.959
 9720TIP3    H129099   4.875   0.744   6.998
 9720TIP3    H229100   4.802   0.680   6.885
 9721TIP3   OH229101   5.245   0.941   6.764
 9721TIP3    H129102   5.338   0.916   6.783
 9721TIP3    H229103   5.207   0.854   6.736
 9722TIP3   OH229104   6.473   0.889   7.064
 9722TIP3    H129105   6.402   0.945   7.026
 9722TIP3    H229106   6.534   0.955   7.100
 9723TIP3   OH229107   5.523   1.376   6.303
 9723TIP3    H129108   5.475   1.353   6.222
 9723TIP3    H229109   5.477   1.459   6.328
 9724TIP3   OH229110   5.278   1.302   7.096
 9724TIP3    H129111   5.209   1.369   7.111
 9724TIP3    H229112   5.325   1.339   7.018
 9725TIP3   OH229113   5.039   0.708   7.033
 9725TIP3    H129114   5.111   0.746   7.086
 9725TIP3    H229115   5.077   0.622   7.010
 9726TIP3   OH229116   5.103   1.519   7.197
 9726TIP3    H129117   5.069   1.513   7.104
 9726TIP3    H229118   5.021   1.490   7.241
 9727TIP3   OH229119   4.498   1.182   6.424
 9727TIP3    H129120   4.461   1.211   6.339
 9727TIP3    H229121   4.534   1.265   6.461
 9728TIP3   OH229122   5.942   1.701   6.666
 9728TIP3    H129123   5.852   1.691   6.705
 9728TIP3    H229124   5.932   1.786   6.620
 9729TIP3   OH229125   5.645   1.747   6.341
 9729TIP3    H129126   5.693   1.663   6.320
 9729TIP3    H229127   5.706   1.811   6.298
 9730TIP3   OH229128   5.786   1.531   6.246
 9730TIP3    H129129   5.740   1.454   6.212
 9730TIP3    H229130   5.823   1.496   6.330
 9731TIP3   OH229131   6.168   1.612   7.008
 9731TIP3    H129132   6.154   1.534   6.950
 9731TIP3    H229133   6.148   1.686   6.947
 9732TIP3   OH229134   5.458   1.010   6.264
 9732TIP3    H129135   5.376   1.060   6.245
 9732TIP3    H229136   5.499   1.004   6.176
 9733TIP3   OH229137   5.416   0.786   5.987
 9733TIP3    H129138   5.488   0.839   6.026
 9733TIP3    H229139   5.467   0.723   5.934
 9734TIP3   OH229140   6.363   1.253   6.854
 9734TIP3    H129141   6.278   1.303   6.858
 9734TIP3    H229142   6.392   1.275   6.763
 9735TIP3   OH229143   5.804   1.089   6.235
 9735TIP3    H129144   5.750   1.112   6.314
 9735TIP3    H229145   5.890   1.068   6.279
 9736TIP3   OH229146   6.040   1.128   7.153
 9736TIP3    H129147   6.034   1.212   7.202
 9736TIP3    H229148   5.952   1.127   7.110
 9737TIP3   OH229149   5.047   1.078   6.622
 9737TIP3    H129150   5.007   1.008   6.568
 9737TIP3    H229151   5.115   1.031   6.674
 9738TIP3   OH229152   5.180   1.053   7.024
 9738TIP3    H129153   5.191   1.036   6.928
 9738TIP3    H229154   5.215   1.144   7.033
 9739TIP3   OH229155   5.700   1.697   6.785
 9739TIP3    H129156   5.687   1.774   6.843
 9739TIP3    H229157   5.687   1.621   6.846
 9740TIP3   OH229158   5.325   1.614   7.322
 9740TIP3    H129159   5.280   1.636   7.404
 9740TIP3    H229160   5.253   1.573   7.267
 9741TIP3   OH229161   5.647   0.943   6.063
 9741TIP3    H129162   5.703   1.006   6.113
 9741TIP3    H229163   5.673   0.966   5.970
 9742TIP3   OH229164   5.063   1.178   7.436
 9742TIP3    H129165   5.062   1.258   7.491
 9742TIP3    H229166   4.968   1.154   7.436
 9743TIP3   OH229167   5.393   1.623   6.335
 9743TIP3    H129168   5.471   1.680   6.353
 9743TIP3    H229169   5.329   1.685   6.299
 9744TIP3   OH229170   4.904   0.907   6.444
 9744TIP3    H129171   4.840   0.963   6.396
 9744TIP3    H229172   4.851   0.830   6.464
 9745TIP3   OH229173   5.961   1.554   5.660
 9745TIP3    H129174   5.970   1.651   5.646
 9745TIP3    H229175   6.054   1.525   5.648
 9746TIP3   OH229176   4.690   1.317   7.363
 9746TIP3    H129177   4.627   1.292   7.293
 9746TIP3    H229178   4.729   1.231   7.389
 9747TIP3   OH229179   4.538   1.504   6.994
 9747TIP3    H129180   4.632   1.481   6.982
 9747TIP3    H229181   4.546   1.581   7.053
 9748TIP3   OH229182   6.404   1.958   7.056
 9748TIP3    H129183   6.402   1.861   7.067
 9748TIP3    H229184   6.320   1.983   7.101
 9749TIP3   OH229185   5.520   1.744   7.187
 9749TIP3    H129186   5.513   1.836   7.219
 9749TIP3    H229187   5.446   1.701   7.234
 9750TIP3   OH229188   5.269   1.871   6.141
 9750TIP3    H129189   5.225   1.852   6.057
 9750TIP3    H229190   5.238   1.961   6.163
 9751TIP3   OH229191   4.708   1.724   6.530
 9751TIP3    H129192   4.760   1.710   6.612
 9751TIP3    H229193   4.663   1.637   6.524
 9752TIP3   OH229194   5.471   1.773   5.781
 9752TIP3    H129195   5.530   1.703   5.745
 9752TIP3    H229196   5.506   1.782   5.873
 9753TIP3   OH229197   5.521   1.821   6.052
 9753TIP3    H129198   5.433   1.829   6.094
 9753TIP3    H229199   5.572   1.778   6.123
 9754TIP3   OH229200   6.292   1.077   7.319
 9754TIP3    H129201   6.210   1.106   7.275
 9754TIP3    H229202   6.281   0.981   7.316
 9755TIP3   OH229203   4.880   1.524   7.376
 9755TIP3    H129204   4.936   1.479   7.443
 9755TIP3    H229205   4.812   1.454   7.361
 9756TIP3   OH229206   6.068   0.868   7.274
 9756TIP3    H129207   6.034   0.901   7.358
 9756TIP3    H229208   6.050   0.941   7.213
 9757TIP3   OH229209   5.728   0.990   5.810
 9757TIP3    H129210   5.687   0.967   5.724
 9757TIP3    H229211   5.805   1.041   5.781
 9758TIP3   OH229212   5.244   0.835   7.176
 9758TIP3    H129213   5.180   0.856   7.247
 9758TIP3    H229214   5.231   0.914   7.118
 9759TIP3   OH229215   5.107   0.716   6.678
 9759TIP3    H129216   5.011   0.704   6.687
 9759TIP3    H229217   5.121   0.688   6.585
 9760TIP3   OH229218   5.590   0.812   6.399
 9760TIP3    H129219   5.541   0.884   6.353
 9760TIP3    H229220   5.655   0.785   6.331
 9761TIP3   OH229221   5.780   1.113   7.476
 9761TIP3    H129222   5.756   1.031   7.524
 9761TIP3    H229223   5.875   1.120   7.499
 9762TIP3   OH229224   5.733   0.875   6.661
 9762TIP3    H129225   5.680   0.921   6.593
 9762TIP3    H229226   5.758   0.795   6.609
 9763TIP3   OH229227   5.045   0.868   7.366
 9763TIP3    H129228   5.058   0.930   7.439
 9763TIP3    H229229   5.019   0.787   7.412
 9764TIP3   OH229230   4.671   0.477   6.503
 9764TIP3    H129231   4.687   0.477   6.407
 9764TIP3    H229232   4.576   0.495   6.505
 9765TIP3   OH229233   5.766   1.088   7.065
 9765TIP3    H129234   5.800   1.016   7.006
 9765TIP3    H229235   5.737   1.033   7.142
 9766TIP3   OH229236   4.853   0.594   6.726
 9766TIP3    H129237   4.760   0.626   6.712
 9766TIP3    H229238   4.849   0.516   6.669
 9767TIP3   OH229239   5.148   0.614   6.429
 9767TIP3    H129240   5.238   0.604   6.393
 9767TIP3    H229241   5.091   0.609   6.350
 9768TIP3   OH229242   4.978   0.601   6.206
 9768TIP3    H129243   4.904   0.583   6.144
 9768TIP3    H229244   5.037   0.649   6.144
 9769TIP3   OH229245   6.095   2.307   7.154
 9769TIP3    H129246   6.092   2.330   7.059
 9769TIP3    H229247   6.174   2.357   7.184
 9770TIP3   OH229248   5.052   1.434   7.576
 9770TIP3    H129249   5.135   1.446   7.628
 9770TIP3    H229250   4.989   1.415   7.649
 9771TIP3   OH229251   5.502   0.867   6.834
 9771TIP3    H129252   5.588   0.847   6.794
 9771TIP3    H229253   5.513   0.833   6.926
 9772TIP3   OH229254   5.515   0.792   7.098
 9772TIP3    H129255   5.423   0.789   7.132
 9772TIP3    H229256   5.561   0.841   7.169
 9773TIP3   OH229257   5.228   1.158   6.213
 9773TIP3    H129258   5.154   1.093   6.205
 9773TIP3    H229259   5.211   1.194   6.304
 9774TIP3   OH229260   6.128   1.395   6.844
 9774TIP3    H129261   6.151   1.445   6.763
 9774TIP3    H229262   6.044   1.352   6.819
 9775TIP3   OH229263   5.663   0.539   6.034
 9775TIP3    H129264   5.603   0.489   6.093
 9775TIP3    H229265   5.699   0.604   6.097
 9776TIP3   OH229266   5.642   1.482   7.208
 9776TIP3    H129267   5.648   1.450   7.299
 9776TIP3    H229268   5.593   1.565   7.217
 9777TIP3   OH229269   5.764   0.732   6.197
 9777TIP3    H129270   5.862   0.743   6.204
 9777TIP3    H229271   5.739   0.809   6.142
 9778TIP3   OH229272   5.374   1.307   6.038
 9778TIP3    H129273   5.326   1.393   6.043
 9778TIP3    H229274   5.319   1.252   6.098
 9779TIP3   OH229275   4.798   1.106   7.505
 9779TIP3    H129276   4.816   1.088   7.600
 9779TIP3    H229277   4.730   1.039   7.485
 9780TIP3   OH229278   5.527   1.217   7.526
 9780TIP3    H129279   5.464   1.163   7.474
 9780TIP3    H229280   5.613   1.185   7.492
 9781TIP3   OH229281   5.792   1.746   7.104
 9781TIP3    H129282   5.696   1.734   7.118
 9781TIP3    H229283   5.816   1.793   7.186
 9782TIP3   OH229284   6.195   0.807   6.006
 9782TIP3    H129285   6.134   0.758   5.946
 9782TIP3    H229286   6.182   0.898   5.969
 9783TIP3   OH229287   6.417   1.669   7.096
 9783TIP3    H129288   6.320   1.662   7.087
 9783TIP3    H229289   6.444   1.637   7.006
 9784TIP3   OH229290   5.901   1.627   5.926
 9784TIP3    H129291   5.871   1.558   5.987
 9784TIP3    H229292   5.911   1.580   5.842
 9785TIP3   OH229293   5.897   1.258   6.763
 9785TIP3    H129294   5.804   1.229   6.776
 9785TIP3    H229295   5.932   1.180   6.715
 9786TIP3   OH229296   5.025   1.489   6.490
 9786TIP3    H129297   5.002   1.572   6.445
 9786TIP3    H229298   4.945   1.468   6.539
 9787TIP3   OH229299   4.583   0.788   6.221
 9787TIP3    H129300   4.631   0.872   6.241
 9787TIP3    H229301   4.507   0.795   6.283
 9788TIP3   OH229302   5.169   1.256   6.455
 9788TIP3    H129303   5.134   1.344   6.477
 9788TIP3    H229304   5.128   1.201   6.525
 9789TIP3   OH229305   5.292   1.834   6.973
 9789TIP3    H129306   5.342   1.905   6.928
 9789TIP3    H229307   5.361   1.789   7.024
 9790TIP3   OH229308   4.934   1.731   6.363
 9790TIP3    H129309   4.852   1.738   6.415
 9790TIP3    H229310   4.968   1.823   6.369
 9791TIP3   OH229311   5.690   1.463   6.941
 9791TIP3    H129312   5.677   1.462   7.039
 9791TIP3    H229313   5.764   1.402   6.930
 9792TIP3   OH229314   5.654   1.357   5.826
 9792TIP3    H129315   5.707   1.331   5.905
 9792TIP3    H229316   5.566   1.328   5.854
 9793TIP3   OH229317   5.929   1.997   6.995
 9793TIP3    H129318   5.851   1.938   6.991
 9793TIP3    H229319   5.910   2.059   6.922
 9794TIP3   OH229320   5.994   1.830   5.646
 9794TIP3    H129321   6.030   1.903   5.594
 9794TIP3    H229322   5.913   1.874   5.680
 9795TIP3   OH229323   5.815   1.288   6.040
 9795TIP3    H129324   5.803   1.224   6.112
 9795TIP3    H229325   5.913   1.285   6.030
 9796TIP3   OH229326   4.707   1.685   7.142
 9796TIP3    H129327   4.776   1.616   7.151
 9796TIP3    H229328   4.731   1.748   7.211
 9797TIP3   OH229329   5.018   1.337   5.827
 9797TIP3    H129330   5.033   1.245   5.798
 9797TIP3    H229331   5.000   1.324   5.923
 9798TIP3   OH229332   4.963   1.341   6.101
 9798TIP3    H129333   5.034   1.312   6.160
 9798TIP3    H229334   4.970   1.439   6.108
 9799TIP3   OH229335   4.699   1.032   6.302
 9799TIP3    H129336   4.634   1.078   6.359
 9799TIP3    H229337   4.717   1.102   6.236
 9800TIP3   OH229338   5.231   1.536   6.046
 9800TIP3    H129339   5.145   1.563   6.084
 9800TIP3    H229340   5.246   1.608   5.983
 9801TIP3   OH229341   5.439   0.589   6.425
 9801TIP3    H129342   5.490   0.673   6.418
 9801TIP3    H229343   5.434   0.579   6.521
 9802TIP3   OH229344   5.700   0.925   7.272
 9802TIP3    H129345   5.692   0.988   7.346
 9802TIP3    H229346   5.752   0.855   7.314
 9803TIP3   OH229347   4.976   1.614   6.114
 9803TIP3    H129348   4.945   1.685   6.053
 9803TIP3    H229349   4.959   1.657   6.201
 9804TIP3   OH229350   5.983   1.017   6.638
 9804TIP3    H129351   5.902   0.968   6.660
 9804TIP3    H229352   6.052   0.968   6.688
 9805TIP3   OH229353   4.694   1.243   6.106
 9805TIP3    H129354   4.766   1.308   6.116
 9805TIP3    H229355   4.737   1.185   6.039
 9806TIP3   OH229356   4.637   0.518   6.231
 9806TIP3    H129357   4.631   0.615   6.223
 9806TIP3    H229358   4.548   0.490   6.209
 9807TIP3   OH229359   5.948   1.972   6.587
 9807TIP3    H129360   5.905   2.019   6.512
 9807TIP3    H229361   6.042   1.990   6.565
 9808TIP3   OH229362   4.568   1.470   6.495
 9808TIP3    H129363   4.489   1.490   6.547
 9808TIP3    H229364   4.541   1.504   6.407
 9809TIP3   OH229365   4.726   2.000   7.564
 9809TIP3    H129366   4.805   2.004   7.622
 9809TIP3    H229367   4.698   1.908   7.574
 9810TIP3   OH229368   5.204   1.934   7.564
 9810TIP3    H129369   5.245   1.954   7.651
 9810TIP3    H229370   5.284   1.937   7.509
 9811TIP3   OH229371   5.183   1.539   5.739
 9811TIP3    H129372   5.127   1.467   5.777
 9811TIP3    H229373   5.258   1.488   5.705
 9812TIP3   OH229374   5.838   1.872   7.347
 9812TIP3    H129375   5.829   1.801   7.414
 9812TIP3    H229376   5.917   1.921   7.377
 9813TIP3   OH229377   5.620   1.580   5.651
 9813TIP3    H129378   5.661   1.514   5.710
 9813TIP3    H229379   5.676   1.577   5.572
 9814TIP3   OH229380   4.849   1.405   7.762
 9814TIP3    H129381   4.869   1.310   7.773
 9814TIP3    H229382   4.762   1.402   7.717
 9815TIP3   OH229383   4.828   1.055   5.962
 9815TIP3    H129384   4.885   1.023   6.034
 9815TIP3    H229385   4.894   1.060   5.889
 9816TIP3   OH229386   5.465   1.487   7.533
 9816TIP3    H129387   5.431   1.496   7.442
 9816TIP3    H229388   5.495   1.393   7.534
 9817TIP3   OH229389   5.338   1.257   5.769
 9817TIP3    H129390   5.341   1.268   5.866
 9817TIP3    H229391   5.342   1.158   5.762
 9818TIP3   OH229392   5.953   1.498   7.150
 9818TIP3    H129393   6.024   1.547   7.103
 9818TIP3    H229394   5.877   1.556   7.133
 9819TIP3   OH229395   4.973   1.152   7.744
 9819TIP3    H129396   5.032   1.077   7.733
 9819TIP3    H229397   4.997   1.179   7.835
 9820TIP3   OH229398   5.031   0.962   6.182
 9820TIP3    H129399   5.008   0.922   6.268
 9820TIP3    H229400   5.070   0.886   6.134
 9821TIP3   OH229401   5.306   1.056   7.408
 9821TIP3    H129402   5.220   1.104   7.404
 9821TIP3    H229403   5.348   1.082   7.323
 9822TIP3   OH229404   5.134   0.753   6.029
 9822TIP3    H129405   5.108   0.756   5.935
 9822TIP3    H229406   5.232   0.756   6.021
 9823TIP3   OH229407   5.827   1.432   7.547
 9823TIP3    H129408   5.896   1.396   7.488
 9823TIP3    H229409   5.813   1.358   7.609
 9824TIP3   OH229410   5.960   1.084   5.685
 9824TIP3    H129411   5.937   1.040   5.600
 9824TIP3    H229412   5.927   1.174   5.664
 9825TIP3   OH229413   5.395   0.833   7.527
 9825TIP3    H129414   5.343   0.774   7.468
 9825TIP3    H229415   5.368   0.920   7.489
 9826TIP3   OH229416   5.471   1.149   7.213
 9826TIP3    H129417   5.545   1.150   7.151
 9826TIP3    H229418   5.408   1.210   7.171
 9827TIP3   OH229419   6.035   1.111   7.576
 9827TIP3    H129420   6.069   1.045   7.641
 9827TIP3    H229421   6.116   1.154   7.547
 9828TIP3   OH229422   6.083   1.355   7.336
 9828TIP3    H129423   6.024   1.408   7.277
 9828TIP3    H229424   6.169   1.377   7.295
 9829TIP3   OH229425   5.289   0.954   7.759
 9829TIP3    H129426   5.220   0.895   7.791
 9829TIP3    H229427   5.334   0.904   7.689
 9830TIP3   OH229428   5.672   0.885   7.566
 9830TIP3    H129429   5.688   0.861   7.660
 9830TIP3    H229430   5.575   0.873   7.562
 9831TIP3   OH229431   4.945   1.821   5.929
 9831TIP3    H129432   5.040   1.810   5.911
 9831TIP3    H229433   4.918   1.867   5.848
 9832TIP3   OH229434   4.425   1.199   6.143
 9832TIP3    H129435   4.520   1.220   6.128
 9832TIP3    H229436   4.418   1.109   6.103
 9833TIP3   OH229437   4.333   1.819   6.557
 9833TIP3    H129438   4.273   1.752   6.517
 9833TIP3    H229439   4.380   1.762   6.622
 9834TIP3   OH229440   4.464   1.674   6.746
 9834TIP3    H129441   4.460   1.591   6.796
 9834TIP3    H229442   4.527   1.724   6.801
 9835TIP3   OH229443   6.202   2.060   6.544
 9835TIP3    H129444   6.229   2.094   6.632
 9835TIP3    H229445   6.264   2.106   6.485
 9836TIP3   OH229446   6.231   2.082   6.827
 9836TIP3    H129447   6.185   1.995   6.821
 9836TIP3    H229448   6.306   2.057   6.882
 9837TIP3   OH229449   6.280   1.758   7.402
 9837TIP3    H129450   6.203   1.767   7.462
 9837TIP3    H229451   6.318   1.848   7.404
 9838TIP3   OH229452   6.094   1.270   6.017
 9838TIP3    H129453   6.161   1.336   5.989
 9838TIP3    H229454   6.137   1.233   6.097
 9839TIP3   OH229455   6.221   1.143   6.221
 9839TIP3    H129456   6.154   1.102   6.281
 9839TIP3    H229457   6.284   1.182   6.284
 9840TIP3   OH229458   6.277   1.532   6.656
 9840TIP3    H129459   6.328   1.464   6.607
 9840TIP3    H229460   6.270   1.604   6.590
 9841TIP3   OH229461   6.106   1.832   6.850
 9841TIP3    H129462   6.034   1.873   6.900
 9841TIP3    H229463   6.058   1.785   6.779
 9842TIP3   OH229464   6.154   1.044   5.870
 9842TIP3    H129465   6.085   1.053   5.800
 9842TIP3    H229466   6.129   1.121   5.926
 9843TIP3   OH229467   6.022   0.703   5.812
 9843TIP3    H129468   6.005   0.784   5.761
 9843TIP3    H229469   5.969   0.639   5.762
 9844TIP3   OH229470   6.035   1.008   6.367
 9844TIP3    H129471   6.037   0.913   6.345
 9844TIP3    H229472   6.022   1.008   6.464
 9845TIP3   OH229473   4.657   1.072   7.116
 9845TIP3    H129474   4.658   1.040   7.023
 9845TIP3    H229475   4.754   1.074   7.136
 9846TIP3   OH229476   6.324   1.421   7.223
 9846TIP3    H129477   6.397   1.355   7.216
 9846TIP3    H229478   6.348   1.488   7.157
 9847TIP3   OH229479   6.508   1.227   7.252
 9847TIP3    H129480   6.433   1.171   7.280
 9847TIP3    H229481   6.582   1.164   7.265
 9848TIP3   OH229482   6.036   0.755   6.236
 9848TIP3    H129483   6.064   0.675   6.286
 9848TIP3    H229484   6.099   0.756   6.162
 9849TIP3   OH229485   6.191   0.888   6.766
 9849TIP3    H129486   6.276   0.913   6.724
 9849TIP3    H229487   6.206   0.926   6.855
 9850TIP3   OH229488   6.256   1.038   6.990
 9850TIP3    H129489   6.178   1.074   7.038
 9850TIP3    H229490   6.290   1.118   6.944
 9851TIP3   OH229491   4.873   0.754   7.777
 9851TIP3    H129492   4.968   0.755   7.795
 9851TIP3    H229493   4.846   0.669   7.816
 9852TIP3   OH229494   4.638   0.722   7.192
 9852TIP3    H129495   4.685   0.724   7.106
 9852TIP3    H229496   4.673   0.801   7.234
 9853TIP3   OH229497   5.785   1.930   6.200
 9853TIP3    H129498   5.836   1.916   6.117
 9853TIP3    H229499   5.840   1.996   6.246
 9854TIP3   OH229500   4.888   1.738   7.582
 9854TIP3    H129501   4.795   1.705   7.577
 9854TIP3    H229502   4.911   1.711   7.672
 9855TIP3   OH229503   5.506   2.012   7.275
 9855TIP3    H129504   5.553   2.009   7.361
 9855TIP3    H229505   5.571   2.060   7.220
 9856TIP3   OH229506   5.685   2.160   7.132
 9856TIP3    H129507   5.754   2.110   7.086
 9856TIP3    H229508   5.740   2.217   7.191
 9857TIP3   OH229509   4.738   2.015   7.176
 9857TIP3    H129510   4.652   2.043   7.139
 9857TIP3    H229511   4.749   2.080   7.246
 9858TIP3   OH229512   4.982   2.027   7.025
 9858TIP3    H129513   4.893   2.013   7.064
 9858TIP3    H229514   4.961   2.035   6.930
 9859TIP3   OH229515   5.407   2.032   6.809
 9859TIP3    H129516   5.335   2.048   6.746
 9859TIP3    H229517   5.416   2.120   6.852
 9860TIP3   OH229518   5.672   1.971   6.868
 9860TIP3    H129519   5.579   1.986   6.845
 9860TIP3    H229520   5.716   2.043   6.820
 9861TIP3   OH229521   5.880   2.160   6.779
 9861TIP3    H129522   5.865   2.244   6.731
 9861TIP3    H229523   5.905   2.099   6.707
 9862TIP3   OH229524   4.660   1.812   6.899
 9862TIP3    H129525   4.683   1.781   6.989
 9862TIP3    H229526   4.729   1.763   6.849
 9863TIP3   OH229527   4.852   1.679   6.751
 9863TIP3    H129528   4.871   1.599   6.807
 9863TIP3    H229529   4.940   1.722   6.758
 9864TIP3   OH229530   5.113   1.791   6.762
 9864TIP3    H129531   5.149   1.706   6.734
 9864TIP3    H229532   5.156   1.801   6.850
 9865TIP3   OH229533   4.439   1.589   6.291
 9865TIP3    H129534   4.354   1.553   6.259
 9865TIP3    H229535   4.432   1.681   6.259
 9866TIP3   OH229536   5.211   1.776   5.875
 9866TIP3    H129537   5.300   1.797   5.839
 9866TIP3    H229538   5.190   1.700   5.815
 9867TIP3   OH229539   5.932   1.894   5.969
 9867TIP3    H129540   5.924   1.797   5.957
 9867TIP3    H229541   5.886   1.925   5.888
 9868TIP3   OH229542   4.520   1.615   5.934
 9868TIP3    H129543   4.527   1.628   6.030
 9868TIP3    H229544   4.605   1.570   5.914
 9869TIP3   OH229545   6.156   2.037   7.157
 9869TIP3    H129546   6.079   2.006   7.106
 9869TIP3    H229547   6.137   2.133   7.160
 9870TIP3   OH229548   7.425   1.409   5.921
 9870TIP3    H129549   7.397   1.501   5.902
 9870TIP3    H229550   7.347   1.361   5.887
 9871TIP3   OH229551   7.408   1.417   6.287
 9871TIP3    H129552   7.428   1.394   6.380
 9871TIP3    H229553   7.371   1.333   6.255
 9872TIP3   OH229554   6.720   1.307   6.667
 9872TIP3    H129555   6.749   1.237   6.728
 9872TIP3    H229556   6.802   1.356   6.655
 9873TIP3   OH229557   7.668   1.714   5.985
 9873TIP3    H129558   7.651   1.645   6.049
 9873TIP3    H229559   7.697   1.788   6.041
 9874TIP3   OH229560   6.695   1.716   6.393
 9874TIP3    H129561   6.686   1.618   6.394
 9874TIP3    H229562   6.791   1.724   6.386
 9875TIP3   OH229563   6.389   0.927   6.191
 9875TIP3    H129564   6.335   1.007   6.200
 9875TIP3    H229565   6.331   0.871   6.136
 9876TIP3   OH229566   6.454   1.216   6.348
 9876TIP3    H129567   6.493   1.132   6.381
 9876TIP3    H229568   6.518   1.241   6.280
 9877TIP3   OH229569   7.318   2.176   6.002
 9877TIP3    H129570   7.362   2.104   5.951
 9877TIP3    H229571   7.308   2.135   6.089
 9878TIP3   OH229572   7.221   1.636   6.351
 9878TIP3    H129573   7.259   1.559   6.306
 9878TIP3    H229574   7.305   1.681   6.375
 9879TIP3   OH229575   7.634   1.146   6.404
 9879TIP3    H129576   7.667   1.058   6.428
 9879TIP3    H229577   7.604   1.134   6.312
 9880TIP3   OH229578   6.945   0.750   6.313
 9880TIP3    H129579   6.922   0.843   6.292
 9880TIP3    H229580   6.868   0.703   6.278
 9881TIP3   OH229581   7.630   0.917   6.022
 9881TIP3    H129582   7.688   0.866   6.083
 9881TIP3    H229583   7.684   0.913   5.942
 9882TIP3   OH229584   6.578   0.997   6.446
 9882TIP3    H129585   6.671   1.001   6.481
 9882TIP3    H229586   6.595   0.937   6.370
 9883TIP3   OH229587   7.041   1.200   6.252
 9883TIP3    H129588   7.135   1.175   6.265
 9883TIP3    H229589   7.002   1.113   6.226
 9884TIP3   OH229590   7.318   1.634   5.789
 9884TIP3    H129591   7.271   1.611   5.707
 9884TIP3    H229592   7.272   1.716   5.815
 9885TIP3   OH229593   7.077   1.555   6.576
 9885TIP3    H129594   7.013   1.621   6.612
 9885TIP3    H229595   7.115   1.603   6.500
 9886TIP3   OH229596   6.835   0.969   6.511
 9886TIP3    H129597   6.906   1.009   6.565
 9886TIP3    H229598   6.856   0.875   6.522
 9887TIP3   OH229599   6.903   1.750   6.675
 9887TIP3    H129600   6.876   1.836   6.637
 9887TIP3    H229601   6.825   1.732   6.731
 9888TIP3   OH229602   6.297   1.440   5.911
 9888TIP3    H129603   6.255   1.468   5.828
 9888TIP3    H229604   6.328   1.526   5.948
 9889TIP3   OH229605   7.737   1.957   6.150
 9889TIP3    H129606   7.648   1.947   6.191
 9889TIP3    H229607   7.727   2.044   6.106
 9890TIP3   OH229608   7.438   2.002   5.825
 9890TIP3    H129609   7.488   1.919   5.806
 9890TIP3    H229610   7.500   2.067   5.784
 9891TIP3   OH229611   7.583   1.787   5.733
 9891TIP3    H129612   7.536   1.709   5.700
 9891TIP3    H229613   7.620   1.753   5.817
 9892TIP3   OH229614   7.938   1.866   6.491
 9892TIP3    H129615   7.941   1.792   6.428
 9892TIP3    H229616   7.951   1.943   6.433
 9893TIP3   OH229617   7.254   1.267   5.750
 9893TIP3    H129618   7.172   1.316   5.730
 9893TIP3    H229619   7.296   1.260   5.662
 9894TIP3   OH229620   7.211   1.045   5.471
 9894TIP3    H129621   7.284   1.096   5.512
 9894TIP3    H229622   7.261   0.975   5.427
 9895TIP3   OH229623   8.191   1.506   6.341
 9895TIP3    H129624   8.096   1.518   6.360
 9895TIP3    H229625   8.196   1.535   6.248
 9896TIP3   OH229626   7.602   1.346   5.722
 9896TIP3    H129627   7.547   1.369   5.800
 9896TIP3    H229628   7.686   1.323   5.766
 9897TIP3   OH229629   7.917   1.381   6.475
 9897TIP3    H129630   7.938   1.422   6.561
 9897TIP3    H229631   7.821   1.393   6.473
 9898TIP3   OH229632   6.834   1.344   6.140
 9898TIP3    H129633   6.793   1.284   6.074
 9898TIP3    H229634   6.910   1.290   6.172
 9899TIP3   OH229635   6.965   1.755   6.289
 9899TIP3    H129636   6.943   1.714   6.204
 9899TIP3    H229637   7.055   1.718   6.306
 9900TIP3   OH229638   6.974   1.309   6.503
 9900TIP3    H129639   7.000   1.283   6.412
 9900TIP3    H229640   7.014   1.397   6.513
 9901TIP3   OH229641   7.496   1.951   6.272
 9901TIP3    H129642   7.486   2.031   6.328
 9901TIP3    H229643   7.481   1.878   6.335
 9902TIP3   OH229644   7.105   1.869   6.820
 9902TIP3    H129645   7.044   1.932   6.864
 9902TIP3    H229646   7.041   1.816   6.768
 9903TIP3   OH229647   7.443   1.201   5.549
 9903TIP3    H129648   7.500   1.263   5.600
 9903TIP3    H229649   7.469   1.223   5.457
 9904TIP3   OH229650   6.855   1.439   6.913
 9904TIP3    H129651   6.858   1.520   6.967
 9904TIP3    H229652   6.762   1.412   6.927
 9905TIP3   OH229653   7.186   1.881   5.826
 9905TIP3    H129654   7.266   1.935   5.840
 9905TIP3    H229655   7.125   1.943   5.785
 9906TIP3   OH229656   6.903   2.038   6.907
 9906TIP3    H129657   6.868   2.039   6.816
 9906TIP3    H229658   6.823   2.016   6.959
 9907TIP3   OH229659   6.700   1.185   5.946
 9907TIP3    H129660   6.633   1.229   5.890
 9907TIP3    H229661   6.661   1.098   5.958
 9908TIP3   OH229662   7.750   1.812   5.146
 9908TIP3    H129663   7.762   1.909   5.133
 9908TIP3    H229664   7.843   1.780   5.136
 9909TIP3   OH229665   6.481   1.571   6.852
 9909TIP3    H129666   6.414   1.549   6.784
 9909TIP3    H229667   6.519   1.483   6.874
 9910TIP3   OH229668   6.335   1.763   6.484
 9910TIP3    H129669   6.431   1.756   6.477
 9910TIP3    H229670   6.325   1.842   6.539
 9911TIP3   OH229671   8.184   2.223   6.532
 9911TIP3    H129672   8.200   2.128   6.542
 9911TIP3    H229673   8.104   2.234   6.588
 9912TIP3   OH229674   7.302   1.996   6.676
 9912TIP3    H129675   7.305   2.089   6.708
 9912TIP3    H229676   7.230   1.960   6.732
 9913TIP3   OH229677   7.069   2.129   5.628
 9913TIP3    H129678   7.020   2.110   5.545
 9913TIP3    H229679   7.034   2.216   5.653
 9914TIP3   OH229680   6.505   1.977   6.013
 9914TIP3    H129681   6.552   1.968   6.099
 9914TIP3    H229682   6.450   1.897   6.014
 9915TIP3   OH229683   7.268   2.030   5.267
 9915TIP3    H129684   7.327   1.960   5.232
 9915TIP3    H229685   7.302   2.039   5.359
 9916TIP3   OH229686   7.319   2.077   5.537
 9916TIP3    H129687   7.230   2.088   5.578
 9916TIP3    H229688   7.368   2.036   5.610
 9917TIP3   OH229689   6.685   1.754   6.841
 9917TIP3    H129690   6.736   1.735   6.923
 9917TIP3    H229691   6.612   1.689   6.847
 9918TIP3   OH229692   7.521   1.245   5.295
 9918TIP3    H129693   7.483   1.223   5.208
 9918TIP3    H229694   7.600   1.296   5.268
 9919TIP3   OH229695   7.031   1.092   6.661
 9919TIP3    H129696   6.971   1.114   6.735
 9919TIP3    H229697   7.018   1.171   6.603
 9920TIP3   OH229698   6.900   0.980   6.164
 9920TIP3    H129699   6.806   0.959   6.176
 9920TIP3    H229700   6.917   0.947   6.073
 9921TIP3   OH229701   7.386   1.069   5.887
 9921TIP3    H129702   7.338   1.140   5.840
 9921TIP3    H229703   7.452   1.041   5.820
 9922TIP3   OH229704   7.531   1.134   6.147
 9922TIP3    H129705   7.474   1.174   6.079
 9922TIP3    H229706   7.557   1.052   6.098
 9923TIP3   OH229707   6.833   1.126   6.854
 9923TIP3    H129708   6.866   1.182   6.925
 9923TIP3    H229709   6.816   1.042   6.898
 9924TIP3   OH229710   6.467   0.734   5.990
 9924TIP3    H129711   6.483   0.731   5.894
 9924TIP3    H229712   6.371   0.752   5.990
 9925TIP3   OH229713   7.488   1.339   6.534
 9925TIP3    H129714   7.533   1.262   6.492
 9925TIP3    H229715   7.563   1.370   6.590
 9926TIP3   OH229716   6.650   0.858   6.210
 9926TIP3    H129717   6.557   0.888   6.193
 9926TIP3    H229718   6.645   0.771   6.168
 9927TIP3   OH229719   6.944   0.875   5.917
 9927TIP3    H129720   7.034   0.859   5.883
 9927TIP3    H229721   6.889   0.866   5.836
 9928TIP3   OH229722   6.775   0.859   5.693
 9928TIP3    H129723   6.700   0.841   5.633
 9928TIP3    H229724   6.833   0.906   5.630
 9929TIP3   OH229725   7.891   2.565   6.638
 9929TIP3    H129726   7.891   2.591   6.544
 9929TIP3    H229727   7.955   2.627   6.677
 9930TIP3   OH229728   6.846   1.678   7.063
 9930TIP3    H129729   6.926   1.708   7.111
 9930TIP3    H229730   6.782   1.674   7.136
 9931TIP3   OH229731   7.297   1.130   6.309
 9931TIP3    H129732   7.384   1.103   6.274
 9931TIP3    H229733   7.298   1.090   6.399
 9932TIP3   OH229734   7.290   1.033   6.559
 9932TIP3    H129735   7.198   1.024   6.591
 9932TIP3    H229736   7.332   1.074   6.637
 9933TIP3   OH229737   7.023   1.416   5.701
 9933TIP3    H129738   6.952   1.350   5.690
 9933TIP3    H229739   7.005   1.449   5.792
 9934TIP3   OH229740   7.936   1.649   6.329
 9934TIP3    H129741   7.957   1.696   6.246
 9934TIP3    H229742   7.854   1.601   6.307
 9935TIP3   OH229743   7.455   0.799   5.520
 9935TIP3    H129744   7.398   0.746   5.579
 9935TIP3    H229745   7.493   0.862   5.585
 9936TIP3   OH229746   7.437   1.746   6.700
 9936TIP3    H129747   7.404   1.697   6.776
 9936TIP3    H229748   7.386   1.829   6.702
 9937TIP3   OH229749   7.561   0.989   5.684
 9937TIP3    H129750   7.659   0.999   5.691
 9937TIP3    H229751   7.537   1.066   5.629
 9938TIP3   OH229752   6.721   1.440   6.377
 9938TIP3    H129753   6.757   1.409   6.291
 9938TIP3    H229754   6.757   1.374   6.438
 9939TIP3   OH229755   7.170   1.565   5.524
 9939TIP3    H129756   7.122   1.651   5.529
 9939TIP3    H229757   7.115   1.509   5.584
 9940TIP3   OH229758   6.597   1.360   6.990
 9940TIP3    H129759   6.622   1.345   7.083
 9940TIP3    H229760   6.527   1.293   6.975
 9941TIP3   OH229761   7.331   1.489   7.010
 9941TIP3    H129762   7.269   1.439   6.954
 9941TIP3    H229763   7.413   1.440   6.997
 9942TIP3   OH229764   7.578   2.002   6.581
 9942TIP3    H129765   7.483   1.986   6.594
 9942TIP3    H229766   7.599   2.046   6.666
 9943TIP3   OH229767   7.995   1.062   5.491
 9943TIP3    H129768   7.932   1.014   5.432
 9943TIP3    H229769   7.982   1.153   5.457
 9944TIP3   OH229770   7.697   1.884   5.414
 9944TIP3    H129771   7.667   1.816   5.476
 9944TIP3    H229772   7.704   1.835   5.330
 9945TIP3   OH229773   7.685   1.513   6.254
 9945TIP3    H129774   7.591   1.488   6.255
 9945TIP3    H229775   7.724   1.436   6.208
 9946TIP3   OH229776   6.818   1.742   6.003
 9946TIP3    H129777   6.816   1.823   5.948
 9946TIP3    H229778   6.724   1.723   6.013
 9947TIP3   OH229779   6.379   1.045   5.709
 9947TIP3    H129780   6.426   1.129   5.729
 9947TIP3    H229781   6.303   1.051   5.770
 9948TIP3   OH229782   6.955   1.507   5.945
 9948TIP3    H129783   6.920   1.596   5.965
 9948TIP3    H229784   6.921   1.455   6.020
 9949TIP3   OH229785   7.087   2.085   6.471
 9949TIP3    H129786   7.129   2.157   6.420
 9949TIP3    H229787   7.164   2.048   6.518
 9950TIP3   OH229788   6.737   1.980   5.854
 9950TIP3    H129789   6.651   1.989   5.901
 9950TIP3    H229790   6.769   2.073   5.857
 9951TIP3   OH229791   7.477   1.718   6.430
 9951TIP3    H129792   7.473   1.717   6.528
 9951TIP3    H229793   7.555   1.665   6.412
 9952TIP3   OH229794   7.450   1.613   5.312
 9952TIP3    H129795   7.503   1.587   5.392
 9952TIP3    H229796   7.362   1.585   5.340
 9953TIP3   OH229797   7.720   2.255   6.485
 9953TIP3    H129798   7.645   2.193   6.476
 9953TIP3    H229799   7.705   2.315   6.409
 9954TIP3   OH229800   7.790   2.088   5.132
 9954TIP3    H129801   7.821   2.164   5.080
 9954TIP3    H229802   7.708   2.128   5.169
 9955TIP3   OH229803   7.611   1.544   5.526
 9955TIP3    H129804   7.600   1.480   5.599
 9955TIP3    H229805   7.708   1.542   5.516
 9956TIP3   OH229806   6.526   1.946   6.630
 9956TIP3    H129807   6.578   1.871   6.662
 9956TIP3    H229808   6.555   2.016   6.691
 9957TIP3   OH229809   6.816   1.592   5.313
 9957TIP3    H129810   6.829   1.500   5.285
 9957TIP3    H229811   6.796   1.581   5.408
 9958TIP3   OH229812   6.761   1.598   5.585
 9958TIP3    H129813   6.832   1.569   5.643
 9958TIP3    H229814   6.766   1.695   5.593
 9959TIP3   OH229815   6.496   1.290   5.789
 9959TIP3    H129816   6.430   1.335   5.846
 9959TIP3    H229817   6.510   1.359   5.721
 9960TIP3   OH229818   7.028   1.795   5.534
 9960TIP3    H129819   6.941   1.820   5.570
 9960TIP3    H229820   7.042   1.868   5.472
 9961TIP3   OH229821   7.234   0.845   5.911
 9961TIP3    H129822   7.284   0.930   5.907
 9961TIP3    H229823   7.233   0.829   6.006
 9962TIP3   OH229824   7.408   1.143   6.779
 9962TIP3    H129825   7.418   1.233   6.813
 9962TIP3    H229826   7.502   1.117   6.780
 9963TIP3   OH229827   6.773   1.870   5.602
 9963TIP3    H129828   6.741   1.940   5.540
 9963TIP3    H229829   6.755   1.913   5.689
 9964TIP3   OH229830   7.774   1.278   6.121
 9964TIP3    H129831   7.695   1.225   6.144
 9964TIP3    H229832   7.845   1.233   6.173
 9965TIP3   OH229833   6.489   1.498   5.594
 9965TIP3    H129834   6.556   1.568   5.603
 9965TIP3    H229835   6.534   1.442   5.527
 9966TIP3   OH229836   6.435   0.774   5.714
 9966TIP3    H129837   6.425   0.872   5.709
 9966TIP3    H229838   6.346   0.743   5.695
 9967TIP3   OH229839   7.743   2.229   6.073
 9967TIP3    H129840   7.700   2.276   5.998
 9967TIP3    H229841   7.837   2.248   6.053
 9968TIP3   OH229842   6.360   1.715   5.980
 9968TIP3    H129843   6.290   1.744   6.041
 9968TIP3    H229844   6.329   1.755   5.895
 9969TIP3   OH229845   6.516   2.257   7.054
 9969TIP3    H129846   6.603   2.255   7.099
 9969TIP3    H229847   6.495   2.162   7.051
 9970TIP3   OH229848   6.996   2.220   7.097
 9970TIP3    H129849   7.091   2.203   7.101
 9970TIP3    H229850   6.970   2.160   7.024
 9971TIP3   OH229851   6.979   1.795   5.225
 9971TIP3    H129852   6.922   1.724   5.263
 9971TIP3    H229853   7.054   1.741   5.194
 9972TIP3   OH229854   7.600   2.121   6.828
 9972TIP3    H129855   7.596   2.051   6.898
 9972TIP3    H229856   7.682   2.169   6.851
 9973TIP3   OH229857   7.416   1.836   5.137
 9973TIP3    H129858   7.456   1.770   5.197
 9973TIP3    H229859   7.474   1.833   5.059
 9974TIP3   OH229860   6.645   1.666   7.254
 9974TIP3    H129861   6.662   1.570   7.260
 9974TIP3    H229862   6.559   1.667   7.207
 9975TIP3   OH229863   6.625   1.313   5.447
 9975TIP3    H129864   6.680   1.279   5.520
 9975TIP3    H229865   6.692   1.317   5.376
 9976TIP3   OH229866   7.258   1.757   7.015
 9976TIP3    H129867   7.205   1.779   6.935
 9976TIP3    H229868   7.278   1.662   7.003
 9977TIP3   OH229869   7.137   1.514   5.254
 9977TIP3    H129870   7.138   1.525   5.351
 9977TIP3    H229871   7.138   1.416   5.248
 9978TIP3   OH229872   7.749   1.764   6.656
 9978TIP3    H129873   7.819   1.799   6.598
 9978TIP3    H229874   7.673   1.815   6.625
 9979TIP3   OH229875   6.771   1.394   7.223
 9979TIP3    H129876   6.847   1.333   7.215
 9979TIP3    H229877   6.778   1.416   7.318
 9980TIP3   OH229878   6.831   1.218   5.670
 9980TIP3    H129879   6.807   1.177   5.754
 9980TIP3    H229880   6.868   1.142   5.620
 9981TIP3   OH229881   7.093   1.311   6.894
 9981TIP3    H129882   7.009   1.362   6.891
 9981TIP3    H229883   7.138   1.338   6.812
 9982TIP3   OH229884   6.931   1.010   5.515
 9982TIP3    H129885   6.904   1.013   5.421
 9982TIP3    H229886   7.028   1.013   5.506
 9983TIP3   OH229887   7.755   1.340   5.171
 9983TIP3    H129888   7.733   1.296   5.087
 9983TIP3    H229889   7.721   1.430   5.151
 9984TIP3   OH229890   7.239   1.122   7.011
 9984TIP3    H129891   7.275   1.077   6.933
 9984TIP3    H229892   7.189   1.194   6.965
 9985TIP3   OH229893   7.273   1.416   6.715
 9985TIP3    H129894   7.335   1.382   6.648
 9985TIP3    H229895   7.212   1.469   6.660
 9986TIP3   OH229896   7.042   1.190   7.194
 9986TIP3    H129897   6.989   1.110   7.189
 9986TIP3    H229898   7.108   1.175   7.123
 9987TIP3   OH229899   6.741   2.074   5.415
 9987TIP3    H129900   6.836   2.067   5.395
 9987TIP3    H229901   6.711   2.123   5.336
 9988TIP3   OH229902   6.220   1.454   5.630
 9988TIP3    H129903   6.315   1.475   5.615
 9988TIP3    H229904   6.214   1.365   5.589
 9989TIP3   OH229905   6.136   2.067   6.044
 9989TIP3    H129906   6.069   2.005   6.007
 9989TIP3    H229907   6.180   2.008   6.110
 9990TIP3   OH229908   6.271   1.916   6.231
 9990TIP3    H129909   6.258   1.844   6.294
 9990TIP3    H229910   6.322   1.978   6.286
 9991TIP3   OH229911   7.996   2.319   6.031
 9991TIP3    H129912   8.026   2.351   6.118
 9991TIP3    H229913   8.065   2.354   5.972
 9992TIP3   OH229914   8.028   2.342   6.312
 9992TIP3    H129915   7.981   2.255   6.305
 9992TIP3    H229916   8.100   2.315   6.372
 9993TIP3   OH229917   7.891   1.530   5.502
 9993TIP3    H129918   7.960   1.594   5.476
 9993TIP3    H229919   7.930   1.493   5.584
 9994TIP3   OH229920   8.011   1.409   5.712
 9994TIP3    H129921   7.943   1.361   5.765
 9994TIP3    H229922   8.068   1.446   5.781
 9995TIP3   OH229923   8.070   1.795   6.135
 9995TIP3    H129924   8.122   1.726   6.089
 9995TIP3    H229925   8.063   1.865   6.068
 9996TIP3   OH229926   7.906   2.095   6.328
 9996TIP3    H129927   7.833   2.121   6.387
 9996TIP3    H229928   7.858   2.042   6.261
 9997TIP3   OH229929   7.949   1.301   5.357
 9997TIP3    H129930   7.880   1.309   5.287
 9997TIP3    H229931   7.925   1.379   5.412
 9998TIP3   OH229932   7.819   0.963   5.301
 9998TIP3    H129933   7.798   1.038   5.244
 9998TIP3    H229934   7.770   0.892   5.256
 9999TIP3   OH229935   7.832   1.263   5.852
 9999TIP3    H129936   7.833   1.167   5.830
 9999TIP3    H229937   7.816   1.263   5.949
10000TIP3   OH229938   6.456   1.325   6.603
10000TIP3    H129939   6.454   1.296   6.510
10000TIP3    H229940   6.553   1.327   6.620
10001TIP3   OH229941   7.833   1.011   5.721
10001TIP3    H129942   7.859   0.932   5.773
10001TIP3    H229943   7.899   1.011   5.649
10002TIP3   OH229944   7.986   1.163   6.252
10002TIP3    H129945   8.079   1.164   6.230
10002TIP3    H229946   7.986   1.194   6.344
10003TIP3   OH229947   6.664   1.006   7.273
10003TIP3    H129948   6.757   0.989   7.256
10003TIP3    H229949   6.636   0.923   7.315
10004TIP3   OH229950   6.436   0.978   6.682
10004TIP3    H129951   6.480   0.977   6.594
10004TIP3    H229952   6.467   1.061   6.718
10005TIP3   OH229953   7.583   2.185   5.687
10005TIP3    H129954   7.634   2.173   5.605
10005TIP3    H229955   7.636   2.251   5.734
10006TIP3   OH229956   6.683   1.992   7.072
10006TIP3    H129957   6.592   1.963   7.054
10006TIP3    H229958   6.693   1.969   7.165
10007TIP3   OH229959   6.861   2.023   6.622
10007TIP3    H129960   6.813   2.098   6.582
10007TIP3    H229961   6.947   2.037   6.576
10008TIP3   OH229962   7.302   2.265   6.757
10008TIP3    H129963   7.344   2.268   6.845
10008TIP3    H229964   7.369   2.314   6.704
10009TIP3   OH229965   7.480   2.415   6.613
10009TIP3    H129966   7.550   2.364   6.569
10009TIP3    H229967   7.533   2.476   6.669
10010TIP3   OH229968   6.537   2.279   6.644
10010TIP3    H129969   6.448   2.312   6.619
10010TIP3    H229970   6.545   2.315   6.733
10011TIP3   OH229971   6.774   2.258   6.503
10011TIP3    H129972   6.687   2.270   6.546
10011TIP3    H229973   6.755   2.289   6.412
10012TIP3   OH229974   7.199   2.285   6.300
10012TIP3    H129975   7.129   2.303   6.235
10012TIP3    H229976   7.210   2.373   6.341
10013TIP3   OH229977   7.468   2.225   6.352
10013TIP3    H129978   7.374   2.241   6.332
10013TIP3    H229979   7.511   2.299   6.307
10014TIP3   OH229980   7.677   2.416   6.267
10014TIP3    H129981   7.662   2.500   6.217
10014TIP3    H229982   7.702   2.355   6.194
10015TIP3   OH229983   6.449   2.072   6.389
10015TIP3    H129984   6.475   2.045   6.480
10015TIP3    H229985   6.520   2.027   6.338
10016TIP3   OH229986   6.643   1.943   6.247
10016TIP3    H129987   6.658   1.859   6.296
10016TIP3    H229988   6.734   1.979   6.241
10017TIP3   OH229989   6.910   2.037   6.249
10017TIP3    H129990   6.940   1.945   6.237
10017TIP3    H229991   6.955   2.058   6.333
10018TIP3   OH229992   6.237   1.845   5.778
10018TIP3    H129993   6.152   1.811   5.746
10018TIP3    H229994   6.226   1.939   5.759
10019TIP3   OH229995   7.008   2.031   5.361
10019TIP3    H129996   7.097   2.054   5.325
10019TIP3    H229997   6.986   1.956   5.302
10020TIP3   OH229998   7.730   2.151   5.455
10020TIP3    H129999   7.721   2.053   5.445
10020TIP3    H230000   7.681   2.182   5.376
10021TIP3   OH230001   6.313   1.870   5.418
10021TIP3    H130002   6.312   1.892   5.512
10021TIP3    H230003   6.401   1.828   5.407
10022TIP3   OH230004   7.940   2.296   6.644
10022TIP3    H130005   7.868   2.268   6.584
10022TIP3    H230006   7.927   2.393   6.642
10023TIP3   OH230007   8.474   1.962   5.924
10023TIP3    H130008   8.434   1.883   5.885
10023TIP3    H230009   8.564   1.958   5.886
10024TIP3   OH230010   8.197   1.206   5.691
10024TIP3    H130011   8.124   1.269   5.679
10024TIP3    H230012   8.168   1.130   5.639
10025TIP3   OH230013   8.277   1.460   5.834
10025TIP3    H130014   8.285   1.363   5.830
10025TIP3    H230015   8.312   1.485   5.747
10026TIP3   OH230016   8.098   1.695   5.398
10026TIP3    H130017   8.048   1.725   5.320
10026TIP3    H230018   8.122   1.782   5.437
10027TIP3   OH230019   8.294   1.807   6.302
10027TIP3    H130020   8.215   1.814   6.245
10027TIP3    H230021   8.257   1.760   6.377
10028TIP3   OH230022   8.135   2.023   5.968
10028TIP3    H130023   8.231   2.025   5.970
10028TIP3    H230024   8.113   2.098   6.026
10029TIP3   OH230025   8.272   2.227   5.494
10029TIP3    H130026   8.354   2.237   5.545
10029TIP3    H230027   8.230   2.154   5.542
10030TIP3   OH230028   8.261   0.985   5.463
10030TIP3    H130029   8.270   0.994   5.367
10030TIP3    H230030   8.165   1.003   5.474
10031TIP3   OH230031   8.172   1.294   5.195
10031TIP3    H130032   8.221   1.378   5.215
10031TIP3    H230033   8.097   1.303   5.258
10032TIP3   OH230034   8.317   2.206   6.117
10032TIP3    H130035   8.371   2.132   6.149
10032TIP3    H230036   8.348   2.279   6.171
10033TIP3   OH230037   8.278   1.539   5.261
10033TIP3    H130038   8.216   1.581   5.325
10033TIP3    H230039   8.283   1.607   5.191
10034TIP3   OH230040   8.275   1.739   5.063
10034TIP3    H130041   8.343   1.802   5.095
10034TIP3    H230042   8.307   1.721   4.972
10035TIP3   OH230043   8.238   1.031   5.184
10035TIP3    H130044   8.221   1.127   5.190
10035TIP3    H230045   8.149   0.993   5.182
10036TIP3   OH230046   8.139   1.954   5.469
10036TIP3    H130047   8.076   1.997   5.528
10036TIP3    H230048   8.131   2.009   5.388
10037TIP3   OH230049   8.277   2.478   6.516
10037TIP3    H130050   8.365   2.474   6.555
10037TIP3    H230051   8.249   2.383   6.520
10038TIP3   OH230052   8.005   1.709   5.115
10038TIP3    H130053   8.100   1.726   5.100
10038TIP3    H230054   7.996   1.618   5.079
10039TIP3   OH230055   7.933   2.323   5.531
10039TIP3    H130056   7.865   2.262   5.496
10039TIP3    H230057   7.979   2.265   5.595
10040TIP3   OH230058   8.069   2.169   5.715
10040TIP3    H130059   8.056   2.100   5.783
10040TIP3    H230060   8.120   2.234   5.767
10041TIP3   OH230061   8.250   1.594   6.072
10041TIP3    H130062   8.255   1.546   5.986
10041TIP3    H230063   8.343   1.603   6.095
10042TIP3   OH230064   8.327   2.531   6.137
10042TIP3    H130065   8.243   2.570   6.103
10042TIP3    H230066   8.318   2.556   6.230
10043TIP3   OH230067   8.586   2.514   6.008
10043TIP3    H130068   8.494   2.519   6.041
10043TIP3    H230069   8.573   2.546   5.916
10044TIP3   OH230070   8.237   2.332   5.878
10044TIP3    H130071   8.267   2.306   5.968
10044TIP3    H230072   8.309   2.290   5.825
10045TIP3   OH230073   8.423   2.197   5.735
10045TIP3    H130074   8.433   2.105   5.763
10045TIP3    H230075   8.515   2.216   5.704
10046TIP3   OH230076   8.041   2.097   5.253
10046TIP3    H130077   7.951   2.070   5.227
10046TIP3    H230078   8.031   2.193   5.254
10047TIP3   OH230079   8.113   2.137   4.920
10047TIP3    H130080   8.073   2.170   5.003
10047TIP3    H230081   8.176   2.072   4.953
10048TIP3   OH230082   1.675   2.453   7.096
10048TIP3    H130083   1.647   2.546   7.081
10048TIP3    H230084   1.594   2.407   7.069
10049TIP3   OH230085   1.650   2.461   7.463
10049TIP3    H130086   1.703   2.445   7.544
10049TIP3    H230087   1.615   2.372   7.444
10050TIP3   OH230088   1.914   2.758   7.163
10050TIP3    H130089   1.903   2.690   7.230
10050TIP3    H230090   1.947   2.833   7.215
10051TIP3   OH230091   0.944   2.764   7.564
10051TIP3    H130092   0.930   2.667   7.566
10051TIP3    H230093   1.041   2.767   7.569
10052TIP3   OH230094   0.694   2.238   7.503
10052TIP3    H130095   0.748   2.194   7.570
10052TIP3    H230096   0.760   2.286   7.452
10053TIP3   OH230097   1.565   3.220   7.177
10053TIP3    H130098   1.610   3.148   7.128
10053TIP3    H230099   1.559   3.182   7.266
10054TIP3   OH230100   1.471   2.680   7.513
10054TIP3    H130101   1.513   2.600   7.476
10054TIP3    H230102   1.552   2.723   7.548
10055TIP3   OH230103   2.477   2.002   7.515
10055TIP3    H130104   2.494   2.082   7.570
10055TIP3    H230105   2.499   2.034   7.426
10056TIP3   OH230106   1.871   2.162   7.563
10056TIP3    H130107   1.925   2.082   7.580
10056TIP3    H230108   1.851   2.151   7.468
10057TIP3   OH230109   1.249   1.846   7.525
10057TIP3    H130110   1.204   1.923   7.486
10057TIP3    H230111   1.189   1.773   7.500
10058TIP3   OH230112   1.916   1.932   7.146
10058TIP3    H130113   1.986   1.918   7.214
10058TIP3    H230114   1.969   1.967   7.073
10059TIP3   OH230115   1.297   2.243   7.428
10059TIP3    H130116   1.391   2.217   7.436
10059TIP3    H230117   1.257   2.161   7.393
10060TIP3   OH230118   2.540   2.197   7.698
10060TIP3    H130119   2.454   2.243   7.692
10060TIP3    H230120   2.591   2.256   7.756
10061TIP3   OH230121   1.566   2.678   6.965
10061TIP3    H130122   1.519   2.658   6.883
10061TIP3    H230123   1.521   2.760   6.993
10062TIP3   OH230124   2.121   1.939   7.324
10062TIP3    H130125   2.126   1.885   7.403
10062TIP3    H230126   2.177   2.015   7.348
10063TIP3   OH230127   0.561   2.481   7.085
10063TIP3    H130128   0.505   2.507   7.010
10063TIP3    H230129   0.578   2.566   7.129
10064TIP3   OH230130   1.985   3.001   7.325
10064TIP3    H130131   1.895   2.992   7.364
10064TIP3    H230132   1.978   3.088   7.281
10065TIP3   OH230133   2.275   1.895   7.701
10065TIP3    H130134   2.188   1.921   7.667
10065TIP3    H230135   2.335   1.925   7.631
10066TIP3   OH230136   1.687   3.046   7.001
10066TIP3    H130137   1.737   2.964   6.982
10066TIP3    H230138   1.748   3.112   6.960
10067TIP3   OH230139   1.831   2.831   6.910
10067TIP3    H130140   1.784   2.753   6.878
10067TIP3    H230141   1.868   2.798   6.995
10068TIP3   OH230142   2.208   2.912   7.672
10068TIP3    H130143   2.200   2.834   7.612
10068TIP3    H230144   2.193   2.986   7.610
10069TIP3   OH230145   1.501   2.304   6.929
10069TIP3    H130146   1.421   2.358   6.909
10069TIP3    H230147   1.548   2.306   6.844
10070TIP3   OH230148   1.462   2.093   6.642
10070TIP3    H130149   1.527   2.144   6.694
10070TIP3    H230150   1.521   2.029   6.597
10071TIP3   OH230151   2.406   2.546   7.517
10071TIP3    H130152   2.324   2.600   7.525
10071TIP3    H230153   2.436   2.574   7.428
10072TIP3   OH230154   1.852   2.388   6.899
10072TIP3    H130155   1.796   2.413   6.977
10072TIP3    H230156   1.936   2.365   6.944
10073TIP3   OH230157   2.076   2.453   7.789
10073TIP3    H130158   2.074   2.549   7.806
10073TIP3    H230159   1.995   2.445   7.735
10074TIP3   OH230160   1.085   2.389   7.314
10074TIP3    H130161   1.046   2.328   7.248
10074TIP3    H230162   1.160   2.336   7.349
10075TIP3   OH230163   1.221   2.805   7.462
10075TIP3    H130164   1.196   2.756   7.383
10075TIP3    H230165   1.308   2.765   7.484
10076TIP3   OH230166   1.202   2.379   7.652
10076TIP3    H130167   1.238   2.323   7.580
10076TIP3    H230168   1.277   2.434   7.674
10077TIP3   OH230169   1.744   2.993   7.446
10077TIP3    H130170   1.730   3.077   7.495
10077TIP3    H230171   1.725   2.924   7.513
10078TIP3   OH230172   1.691   2.247   6.727
10078TIP3    H130173   1.750   2.307   6.778
10078TIP3    H230174   1.718   2.270   6.635
10079TIP3   OH230175   1.435   2.925   7.000
10079TIP3    H130176   1.516   2.978   7.016
10079TIP3    H230177   1.374   2.991   6.965
10080TIP3   OH230178   2.206   1.488   6.775
10080TIP3    H130179   2.125   1.508   6.826
10080TIP3    H230180   2.219   1.572   6.726
10081TIP3   OH230181   0.954   2.229   7.116
10081TIP3    H130182   0.883   2.271   7.062
10081TIP3    H230183   0.913   2.146   7.142
10082TIP3   OH230184   2.006   2.855   6.321
10082TIP3    H130185   2.015   2.952   6.310
10082TIP3    H230186   2.099   2.826   6.310
10083TIP3   OH230187   2.447   3.260   7.714
10083TIP3    H130188   2.450   3.163   7.730
10083TIP3    H230189   2.369   3.283   7.768
10084TIP3   OH230190   1.576   3.059   7.871
10084TIP3    H130191   1.520   3.135   7.894
10084TIP3    H230192   1.509   2.986   7.867
10085TIP3   OH230193   1.315   3.172   6.805
10085TIP3    H130194   1.269   3.156   6.721
10085TIP3    H230195   1.283   3.261   6.830
10086TIP3   OH230196   0.754   3.023   7.190
10086TIP3    H130197   0.803   3.014   7.274
10086TIP3    H230198   0.704   2.938   7.189
10087TIP3   OH230199   1.516   3.074   6.444
10087TIP3    H130200   1.576   3.004   6.409
10087TIP3    H230201   1.550   3.084   6.536
10088TIP3   OH230202   1.567   3.122   6.714
10088TIP3    H130203   1.479   3.131   6.757
10088TIP3    H230204   1.619   3.084   6.786
10089TIP3   OH230205   1.765   2.291   6.470
10089TIP3    H130206   1.734   2.267   6.381
10089TIP3    H230207   1.847   2.341   6.449
10090TIP3   OH230208   1.480   1.672   6.769
10090TIP3    H130209   1.452   1.665   6.863
10090TIP3    H230210   1.440   1.590   6.734
10091TIP3   OH230211   1.161   2.029   7.328
10091TIP3    H130212   1.071   1.992   7.345
10091TIP3    H230213   1.178   1.987   7.241
10092TIP3   OH230214   1.642   2.108   7.063
10092TIP3    H130215   1.588   2.179   7.021
10092TIP3    H230216   1.695   2.077   6.988
10093TIP3   OH230217   1.797   2.134   7.299
10093TIP3    H130218   1.737   2.167   7.229
10093TIP3    H230219   1.830   2.054   7.253
10094TIP3   OH230220   1.142   1.633   6.747
10094TIP3    H130221   1.121   1.624   6.842
10094TIP3    H230222   1.066   1.688   6.717
10095TIP3   OH230223   1.818   2.406   7.671
10095TIP3    H130224   1.839   2.313   7.647
10095TIP3    H230225   1.785   2.398   7.763
10096TIP3   OH230226   1.486   1.840   7.390
10096TIP3    H130227   1.398   1.843   7.435
10096TIP3    H230228   1.545   1.856   7.464
10097TIP3   OH230229   0.942   1.881   7.373
10097TIP3    H130230   0.854   1.896   7.413
10097TIP3    H230231   0.959   1.788   7.393
10098TIP3   OH230232   1.185   1.895   7.090
10098TIP3    H130233   1.278   1.915   7.066
10098TIP3    H230234   1.134   1.922   7.010
10099TIP3   OH230235   1.971   1.909   7.617
10099TIP3    H130236   1.937   1.918   7.707
10099TIP3    H230237   1.901   1.855   7.574
10100TIP3   OH230238   1.020   1.933   6.876
10100TIP3    H130239   0.944   1.888   6.837
10100TIP3    H230240   1.069   1.960   6.796
10101TIP3   OH230241   2.157   3.605   7.804
10101TIP3    H130242   2.156   3.621   7.707
10101TIP3    H230243   2.238   3.654   7.829
10102TIP3   OH230244   1.565   2.173   7.477
10102TIP3    H130245   1.640   2.139   7.425
10102TIP3    H230246   1.590   2.148   7.567
10103TIP3   OH230247   1.114   1.640   7.398
10103TIP3    H130248   1.055   1.575   7.354
10103TIP3    H230249   1.187   1.644   7.335
10104TIP3   OH230250   1.274   2.459   6.877
10104TIP3    H130251   1.201   2.393   6.867
10104TIP3    H230252   1.255   2.493   6.968
10105TIP3   OH230253   2.176   2.696   7.506
10105TIP3    H130254   2.201   2.747   7.425
10105TIP3    H230255   2.090   2.657   7.480
10106TIP3   OH230256   1.732   1.773   6.736
10106TIP3    H130257   1.636   1.755   6.748
10106TIP3    H230258   1.742   1.866   6.766
10107TIP3   OH230259   1.801   2.019   6.844
10107TIP3    H130260   1.897   2.025   6.862
10107TIP3    H230261   1.783   2.100   6.794
10108TIP3   OH230262   0.965   2.485   7.549
10108TIP3    H130263   1.002   2.457   7.463
10108TIP3    H230264   1.030   2.444   7.610
10109TIP3   OH230265   1.417   2.608   6.697
10109TIP3    H130266   1.369   2.694   6.703
10109TIP3    H230267   1.364   2.553   6.760
10110TIP3   OH230268   1.839   3.025   7.793
10110TIP3    H130269   1.743   3.039   7.808
10110TIP3    H230270   1.878   3.084   7.860
10111TIP3   OH230271   2.242   2.111   6.681
10111TIP3    H130272   2.179   2.067   6.618
10111TIP3    H230273   2.238   2.201   6.641
10112TIP3   OH230274   2.453   2.968   7.764
10112TIP3    H130275   2.356   2.961   7.751
10112TIP3    H230276   2.482   2.935   7.676
10113TIP3   OH230277   1.938   2.929   6.587
10113TIP3    H130278   1.918   2.861   6.652
10113TIP3    H230279   1.955   2.878   6.506
10114TIP3   OH230280   1.941   2.565   7.416
10114TIP3    H130281   1.850   2.537   7.438
10114TIP3    H230282   1.975   2.483   7.375
10115TIP3   OH230283   1.066   2.784   7.174
10115TIP3    H130284   1.064   2.867   7.122
10115TIP3    H230285   0.973   2.769   7.192
10116TIP3   OH230286   0.611   2.094   6.902
10116TIP3    H130287   0.677   2.166   6.902
10116TIP3    H230288   0.555   2.125   6.975
10117TIP3   OH230289   1.204   2.550   7.120
10117TIP3    H130290   1.170   2.640   7.140
10117TIP3    H230291   1.171   2.499   7.196
10118TIP3   OH230292   1.332   3.132   7.630
10118TIP3    H130293   1.378   3.208   7.589
10118TIP3    H230294   1.405   3.083   7.670
10119TIP3   OH230295   0.984   3.027   7.030
10119TIP3    H130296   0.900   3.036   7.077
10119TIP3    H230297   1.017   3.119   7.033
10120TIP3   OH230298   1.727   2.762   7.611
10120TIP3    H130299   1.757   2.770   7.703
10120TIP3    H230300   1.805   2.719   7.572
10121TIP3   OH230301   1.699   2.656   6.490
10121TIP3    H130302   1.754   2.630   6.568
10121TIP3    H230303   1.611   2.630   6.521
10122TIP3   OH230304   1.963   3.297   7.656
10122TIP3    H130305   1.883   3.244   7.638
10122TIP3    H230306   1.957   3.364   7.585
10123TIP3   OH230307   2.039   3.132   6.309
10123TIP3    H130308   2.080   3.209   6.265
10123TIP3    H230309   1.957   3.175   6.342
10124TIP3   OH230310   1.860   2.586   6.702
10124TIP3    H130311   1.850   2.523   6.777
10124TIP3    H230312   1.958   2.586   6.693
10125TIP3   OH230313   1.064   2.637   6.489
10125TIP3    H130314   1.079   2.544   6.463
10125TIP3    H230315   1.046   2.627   6.585
10126TIP3   OH230316   1.010   2.642   6.761
10126TIP3    H130317   1.081   2.614   6.822
10126TIP3    H230318   1.015   2.740   6.770
10127TIP3   OH230319   0.748   2.330   6.958
10127TIP3    H130320   0.684   2.375   7.017
10127TIP3    H230321   0.764   2.402   6.895
10128TIP3   OH230322   1.776   1.723   7.023
10128TIP3    H130323   1.763   1.746   6.929
10128TIP3    H230324   1.816   1.805   7.060
10129TIP3   OH230325   1.275   2.838   6.708
10129TIP3    H130326   1.189   2.864   6.747
10129TIP3    H230327   1.293   2.916   6.653
10130TIP3   OH230328   1.466   1.905   7.123
10130TIP3    H130329   1.529   1.978   7.107
10130TIP3    H230330   1.469   1.897   7.221
10131TIP3   OH230331   1.613   1.634   7.231
10131TIP3    H130332   1.594   1.716   7.282
10131TIP3    H230333   1.674   1.670   7.162
10132TIP3   OH230334   1.020   2.914   6.779
10132TIP3    H130335   0.990   2.985   6.717
10132TIP3    H230336   1.004   2.957   6.866
10133TIP3   OH230337   1.138   1.634   7.027
10133TIP3    H130338   1.144   1.730   7.049
10133TIP3    H230339   1.233   1.612   7.026
10134TIP3   OH230340   2.024   2.316   7.301
10134TIP3    H130341   1.949   2.255   7.313
10134TIP3    H230342   2.096   2.270   7.349
10135TIP3   OH230343   0.741   2.545   6.768
10135TIP3    H130344   0.809   2.614   6.779
10135TIP3    H230345   0.787   2.489   6.701
10136TIP3   OH230346   0.733   1.853   6.813
10136TIP3    H130347   0.712   1.933   6.864
10136TIP3    H230348   0.680   1.787   6.861
10137TIP3   OH230349   1.998   3.275   7.249
10137TIP3    H130350   1.954   3.320   7.173
10137TIP3    H230351   2.092   3.296   7.228
10138TIP3   OH230352   0.610   2.773   7.163
10138TIP3    H130353   0.527   2.798   7.205
10138TIP3    H230354   0.592   2.803   7.072
10139TIP3   OH230355   1.227   2.840   6.400
10139TIP3    H130356   1.170   2.769   6.440
10139TIP3    H230357   1.303   2.787   6.372
10140TIP3   OH230358   1.664   2.880   6.314
10140TIP3    H130359   1.707   2.817   6.375
10140TIP3    H230360   1.724   2.878   6.237
10141TIP3   OH230361   0.874   2.355   6.624
10141TIP3    H130362   0.929   2.324   6.698
10141TIP3    H230363   0.941   2.361   6.553
10142TIP3   OH230364   1.382   2.556   6.429
10142TIP3    H130365   1.386   2.568   6.526
10142TIP3    H230366   1.382   2.458   6.424
10143TIP3   OH230367   1.981   2.781   7.771
10143TIP3    H130368   2.072   2.812   7.758
10143TIP3    H230369   1.937   2.866   7.789
10144TIP3   OH230370   1.078   2.262   6.844
10144TIP3    H130371   1.052   2.225   6.930
10144TIP3    H230372   1.115   2.183   6.798
10145TIP3   OH230373   1.181   2.054   6.685
10145TIP3    H130374   1.155   2.061   6.591
10145TIP3    H230375   1.279   2.059   6.678
10146TIP3   OH230376   2.002   2.385   6.349
10146TIP3    H130377   1.980   2.340   6.265
10146TIP3    H230378   1.969   2.476   6.328
10147TIP3   OH230379   0.989   3.118   6.591
10147TIP3    H130380   1.085   3.111   6.572
10147TIP3    H230381   0.960   3.167   6.512
10148TIP3   OH230382   0.477   2.490   6.807
10148TIP3    H130383   0.571   2.516   6.796
10148TIP3    H230384   0.474   2.403   6.763
10149TIP3   OH230385   0.369   3.112   7.221
10149TIP3    H130386   0.317   3.045   7.176
10149TIP3    H230387   0.415   3.060   7.291
10150TIP3   OH230388   0.506   2.973   7.411
10150TIP3    H130389   0.528   2.887   7.449
10150TIP3    H230390   0.563   3.033   7.463
10151TIP3   OH230391   2.254   3.368   7.206
10151TIP3    H130392   2.279   3.397   7.295
10151TIP3    H230393   2.330   3.401   7.153
10152TIP3   OH230394   2.273   3.383   7.490
10152TIP3    H130395   2.233   3.293   7.489
10152TIP3    H230396   2.354   3.364   7.540
10153TIP3   OH230397   2.139   2.572   6.682
10153TIP3    H130398   2.207   2.637   6.653
10153TIP3    H230399   2.183   2.534   6.761
10154TIP3   OH230400   2.266   2.439   6.885
10154TIP3    H130401   2.200   2.398   6.946
10154TIP3    H230402   2.332   2.477   6.947
10155TIP3   OH230403   2.321   2.834   7.316
10155TIP3    H130404   2.374   2.769   7.266
10155TIP3    H230405   2.321   2.911   7.256
10156TIP3   OH230406   2.150   3.132   7.511
10156TIP3    H130407   2.077   3.170   7.563
10156TIP3    H230408   2.103   3.084   7.440
10157TIP3   OH230409   2.204   2.347   6.532
10157TIP3    H130410   2.132   2.351   6.465
10157TIP3    H230411   2.178   2.423   6.588
10158TIP3   OH230412   2.075   2.020   6.486
10158TIP3    H130413   2.030   2.058   6.410
10158TIP3    H230414   2.050   1.925   6.478
10159TIP3   OH230415   2.079   2.298   7.033
10159TIP3    H130416   2.088   2.201   7.028
10159TIP3    H230417   2.065   2.312   7.129
10160TIP3   OH230418   2.346   2.694   7.864
10160TIP3    H130419   2.436   2.666   7.891
10160TIP3    H230420   2.360   2.787   7.842
10161TIP3   OH230421   2.551   2.523   7.921
10161TIP3    H130422   2.470   2.475   7.938
10161TIP3    H230423   2.613   2.451   7.896
10162TIP3   OH230424   2.020   1.753   6.469
10162TIP3    H130425   2.096   1.725   6.525
10162TIP3    H230426   1.948   1.695   6.498
10163TIP3   OH230427   2.076   2.012   6.927
10163TIP3    H130428   2.116   1.923   6.941
10163TIP3    H230429   2.135   2.046   6.857
10164TIP3   OH230430   2.237   2.189   7.424
10164TIP3    H130431   2.323   2.214   7.385
10164TIP3    H230432   2.250   2.225   7.515
10165TIP3   OH230433   2.303   2.334   7.663
10165TIP3    H130434   2.227   2.372   7.712
10165TIP3    H230435   2.336   2.413   7.614
10166TIP3   OH230436   2.185   1.762   6.964
10166TIP3    H130437   2.234   1.746   7.048
10166TIP3    H230438   2.124   1.685   6.964
10167TIP3   OH230439   2.264   1.698   6.596
10167TIP3    H130440   2.307   1.625   6.546
10167TIP3    H230441   2.333   1.767   6.593
10168TIP3   OH230442   1.828   3.231   6.863
10168TIP3    H130443   1.882   3.219   6.782
10168TIP3    H230444   1.882   3.294   6.914
10169TIP3   OH230445   1.092   3.075   7.786
10169TIP3    H130446   1.079   3.161   7.742
10169TIP3    H230447   1.187   3.063   7.769
10170TIP3   OH230448   1.728   3.466   7.757
10170TIP3    H130449   1.808   3.414   7.742
10170TIP3    H230450   1.740   3.496   7.848
10171TIP3   OH230451   1.013   3.312   7.672
10171TIP3    H130452   0.934   3.349   7.714
10171TIP3    H230453   0.999   3.335   7.578
10172TIP3   OH230454   1.451   3.333   7.473
10172TIP3    H130455   1.378   3.349   7.410
10172TIP3    H230456   1.462   3.422   7.513
10173TIP3   OH230457   1.717   3.261   7.521
10173TIP3    H130458   1.624   3.285   7.505
10173TIP3    H230459   1.762   3.341   7.490
10174TIP3   OH230460   1.923   3.459   7.443
10174TIP3    H130461   1.908   3.544   7.395
10174TIP3    H230462   1.951   3.400   7.370
10175TIP3   OH230463   0.696   3.113   7.555
10175TIP3    H130464   0.715   3.098   7.649
10175TIP3    H230465   0.772   3.067   7.512
10176TIP3   OH230466   0.894   2.987   7.420
10176TIP3    H130467   0.909   2.902   7.468
10176TIP3    H230468   0.985   3.023   7.417
10177TIP3   OH230469   1.158   3.079   7.425
10177TIP3    H130470   1.187   2.986   7.416
10177TIP3    H230471   1.208   3.102   7.506
10178TIP3   OH230472   1.755   1.749   7.515
10178TIP3    H130473   1.715   1.672   7.556
10178TIP3    H230474   1.822   1.708   7.456
10179TIP3   OH230475   2.257   1.613   7.417
10179TIP3    H130476   2.294   1.665   7.343
10179TIP3    H230477   2.162   1.636   7.413
10180TIP3   OH230478   2.350   1.720   7.182
10180TIP3    H130479   2.423   1.668   7.142
10180TIP3    H230480   2.385   1.811   7.166
10181TIP3   OH230481   1.400   1.509   7.372
10181TIP3    H130482   1.482   1.548   7.335
10181TIP3    H230483   1.420   1.503   7.466
10182TIP3   OH230484   1.967   1.622   7.390
10182TIP3    H130485   1.978   1.585   7.302
10182TIP3    H230486   1.954   1.541   7.444
10183TIP3   OH230487   2.001   1.549   6.957
10183TIP3    H130488   1.915   1.592   6.970
10183TIP3    H230489   1.986   1.465   7.005
10184TIP3   OH230490   0.474   2.890   6.960
10184TIP3    H130491   0.404   2.842   6.914
10184TIP3    H230492   0.465   2.979   6.920
10185TIP3   OH230493   1.413   1.653   7.035
10185TIP3    H130494   1.466   1.607   7.103
10185TIP3    H230495   1.431   1.746   7.061
10186TIP3   OH230496   1.257   3.076   6.539
10186TIP3    H130497   1.346   3.098   6.503
10186TIP3    H230498   1.235   3.001   6.479
10187TIP3   OH230499   1.976   3.195   6.632
10187TIP3    H130500   1.967   3.097   6.620
10187TIP3    H230501   1.931   3.227   6.551
10188TIP3   OH230502   0.561   2.914   6.596
10188TIP3    H130503   0.561   2.948   6.686
10188TIP3    H230504   0.651   2.873   6.588
10189TIP3   OH230505   2.190   3.329   7.813
10189TIP3    H130506   2.114   3.312   7.754
10189TIP3    H230507   2.182   3.425   7.826
10190TIP3   OH230508   3.470   2.712   6.583
10190TIP3    H130509   3.442   2.804   6.565
10190TIP3    H230510   3.391   2.663   6.554
10191TIP3   OH230511   3.472   2.709   6.965
10191TIP3    H130512   3.502   2.686   7.055
10191TIP3    H230513   3.425   2.629   6.938
10192TIP3   OH230514   2.768   2.606   7.328
10192TIP3    H130515   2.798   2.539   7.392
10192TIP3    H230516   2.841   2.669   7.330
10193TIP3   OH230517   3.711   3.014   6.649
10193TIP3    H130518   3.695   2.946   6.715
10193TIP3    H230519   3.741   3.089   6.703
10194TIP3   OH230520   2.731   3.010   7.060
10194TIP3    H130521   2.729   2.913   7.062
10194TIP3    H230522   2.827   3.027   7.054
10195TIP3   OH230523   2.447   2.218   6.839
10195TIP3    H130524   2.401   2.302   6.858
10195TIP3    H230525   2.374   2.166   6.800
10196TIP3   OH230526   2.502   2.506   7.012
10196TIP3    H130527   2.553   2.429   7.049
10196TIP3    H230528   2.566   2.545   6.952
10197TIP3   OH230529   3.363   3.479   6.665
10197TIP3    H130530   3.409   3.406   6.618
10197TIP3    H230531   3.344   3.439   6.751
10198TIP3   OH230532   3.268   2.937   7.014
10198TIP3    H130533   3.307   2.861   6.967
10198TIP3    H230534   3.350   2.983   7.040
10199TIP3   OH230535   4.280   2.260   7.011
10199TIP3    H130536   4.308   2.338   7.064
10199TIP3    H230537   4.303   2.290   6.922
10200TIP3   OH230538   3.683   2.440   7.045
10200TIP3    H130539   3.720   2.353   7.068
10200TIP3    H230540   3.647   2.423   6.956
10201TIP3   OH230541   3.019   2.098   7.011
10201TIP3    H130542   2.997   2.171   6.949
10201TIP3    H230543   2.970   2.024   6.968
10202TIP3   OH230544   3.713   2.188   6.638
10202TIP3    H130545   3.784   2.170   6.704
10202TIP3    H230546   3.764   2.231   6.568
10203TIP3   OH230547   2.650   2.300   7.119
10203TIP3    H130548   2.733   2.282   7.167
10203TIP3    H230549   2.664   2.244   7.039
10204TIP3   OH230550   3.092   2.498   6.910
10204TIP3    H130551   3.185   2.472   6.925
10204TIP3    H230552   3.052   2.413   6.880
10205TIP3   OH230553   4.350   2.464   7.183
10205TIP3    H130554   4.266   2.512   7.167
10205TIP3    H230555   4.373   2.497   7.272
10206TIP3   OH230556   3.014   2.082   7.444
10206TIP3    H130557   2.955   2.119   7.375
10206TIP3    H230558   2.962   2.102   7.524
10207TIP3   OH230559   3.363   2.934   6.452
10207TIP3    H130560   3.314   2.913   6.371
10207TIP3    H230561   3.319   3.018   6.478
10208TIP3   OH230562   3.121   2.857   7.241
10208TIP3    H130563   3.057   2.922   7.279
10208TIP3    H230564   3.160   2.908   7.168
10209TIP3   OH230565   3.931   2.194   6.807
10209TIP3    H130566   3.903   2.146   6.886
10209TIP3    H230567   3.969   2.276   6.845
10210TIP3   OH230568   2.885   2.197   7.230
10210TIP3    H130569   2.946   2.270   7.253
10210TIP3    H230570   2.934   2.157   7.155
10211TIP3   OH230571   2.948   3.048   7.338
10211TIP3    H130572   2.924   3.136   7.302
10211TIP3    H230573   2.869   3.033   7.394
10212TIP3   OH230574   2.342   2.739   6.574
10212TIP3    H130575   2.300   2.773   6.493
10212TIP3    H230576   2.373   2.823   6.615
10213TIP3   OH230577   3.782   3.258   6.814
10213TIP3    H130578   3.693   3.248   6.856
10213TIP3    H230579   3.771   3.345   6.771
10214TIP3   OH230580   4.073   2.156   7.178
10214TIP3    H130581   3.985   2.185   7.150
10214TIP3    H230582   4.131   2.189   7.107
10215TIP3   OH230583   3.369   1.800   7.161
10215TIP3    H130584   3.354   1.705   7.178
10215TIP3    H230585   3.292   1.838   7.207
10216TIP3   OH230586   3.486   3.304   6.491
10216TIP3    H130587   3.535   3.221   6.471
10216TIP3    H230588   3.547   3.369   6.449
10217TIP3   OH230589   3.628   3.088   6.396
10217TIP3    H130590   3.582   3.010   6.362
10217TIP3    H230591   3.665   3.054   6.481
10218TIP3   OH230592   4.007   3.170   7.158
10218TIP3    H130593   3.996   3.092   7.100
10218TIP3    H230594   3.991   3.244   7.096
10219TIP3   OH230595   3.299   2.561   6.417
10219TIP3    H130596   3.218   2.614   6.398
10219TIP3    H230597   3.343   2.562   6.330
10220TIP3   OH230598   3.256   2.350   6.129
10220TIP3    H130599   3.322   2.401   6.179
10220TIP3    H230600   3.314   2.286   6.083
10221TIP3   OH230601   4.202   2.802   7.000
10221TIP3    H130602   4.120   2.856   7.007
10221TIP3    H230603   4.233   2.832   6.912
10222TIP3   OH230604   3.648   2.644   6.387
10222TIP3    H130605   3.592   2.670   6.465
10222TIP3    H230606   3.733   2.626   6.432
10223TIP3   OH230607   3.882   2.686   7.301
10223TIP3    H130608   3.879   2.768   7.355
10223TIP3    H230609   3.795   2.691   7.257
10224TIP3   OH230610   2.880   2.643   6.804
10224TIP3    H130611   2.839   2.585   6.736
10224TIP3    H230612   2.957   2.589   6.833
10225TIP3   OH230613   3.009   3.054   6.956
10225TIP3    H130614   2.987   3.016   6.870
10225TIP3    H230615   3.100   3.021   6.971
10226TIP3   OH230616   3.019   2.614   7.158
10226TIP3    H130617   3.050   2.595   7.067
10226TIP3    H230618   3.059   2.701   7.178
10227TIP3   OH230619   3.543   3.251   6.937
10227TIP3    H130620   3.529   3.330   6.992
10227TIP3    H230621   3.525   3.177   6.999
10228TIP3   OH230622   3.152   3.171   7.481
10228TIP3    H130623   3.092   3.233   7.528
10228TIP3    H230624   3.086   3.119   7.431
10229TIP3   OH230625   3.488   2.504   6.213
10229TIP3    H130626   3.545   2.565   6.264
10229TIP3    H230627   3.513   2.527   6.120
10230TIP3   OH230628   2.912   2.722   7.584
10230TIP3    H130629   2.919   2.812   7.623
10230TIP3    H230630   2.815   2.708   7.591
10231TIP3   OH230631   3.234   3.180   6.484
10231TIP3    H130632   3.310   3.237   6.505
10231TIP3    H230633   3.167   3.243   6.453
10232TIP3   OH230634   2.948   3.338   7.572
10232TIP3    H130635   2.912   3.337   7.481
10232TIP3    H230636   2.868   3.317   7.625
10233TIP3   OH230637   4.005   1.747   6.263
10233TIP3    H130638   3.921   1.759   6.312
10233TIP3    H230639   4.016   1.832   6.219
10234TIP3   OH230640   2.748   2.486   6.605
10234TIP3    H130641   2.678   2.531   6.552
10234TIP3    H230642   2.705   2.401   6.624
10235TIP3   OH230643   3.802   3.110   5.810
10235TIP3    H130644   3.811   3.207   5.796
10235TIP3    H230645   3.895   3.081   5.799
10236TIP3   OH230646   2.523   2.872   7.522
10236TIP3    H130647   2.459   2.854   7.450
10236TIP3    H230648   2.563   2.784   7.538
10237TIP3   OH230649   2.386   3.065   7.155
10237TIP3    H130650   2.482   3.064   7.141
10237TIP3    H230651   2.372   3.153   7.192
10238TIP3   OH230652   4.246   3.515   7.205
10238TIP3    H130653   4.244   3.418   7.220
10238TIP3    H230654   4.163   3.541   7.251
10239TIP3   OH230655   3.351   3.299   7.341
10239TIP3    H130656   3.349   3.392   7.373
10239TIP3    H230657   3.277   3.260   7.394
10240TIP3   OH230658   3.115   3.432   6.290
10240TIP3    H130659   3.063   3.414   6.209
10240TIP3    H230660   3.078   3.518   6.319
10241TIP3   OH230661   2.547   3.283   6.671
10241TIP3    H130662   2.608   3.265   6.746
10241TIP3    H230663   2.475   3.223   6.696
10242TIP3   OH230664   3.313   3.332   5.931
10242TIP3    H130665   3.372   3.261   5.896
10242TIP3    H230666   3.346   3.341   6.023
10243TIP3   OH230667   3.365   3.379   6.200
10243TIP3    H130668   3.276   3.390   6.241
10243TIP3    H230669   3.412   3.336   6.273
10244TIP3   OH230670   4.139   2.640   7.484
10244TIP3    H130671   4.054   2.660   7.441
10244TIP3    H230672   4.148   2.545   7.464
10245TIP3   OH230673   2.740   3.043   7.510
10245TIP3    H130674   2.786   3.025   7.594
10245TIP3    H230675   2.658   2.991   7.518
10246TIP3   OH230676   3.131   1.877   7.289
10246TIP3    H130677   3.042   1.845   7.261
10246TIP3    H230678   3.104   1.958   7.336
10247TIP3   OH230679   3.659   1.994   7.479
10247TIP3    H130680   3.730   1.964   7.540
10247TIP3    H230681   3.577   1.974   7.530
10248TIP3   OH230682   3.902   2.424   7.402
10248TIP3    H130683   3.851   2.419   7.487
10248TIP3    H230684   3.878   2.511   7.368
10249TIP3   OH230685   3.559   2.551   5.956
10249TIP3    H130686   3.530   2.524   5.868
10249TIP3    H230687   3.644   2.595   5.935
10250TIP3   OH230688   3.278   1.925   6.261
10250TIP3    H130689   3.240   1.922   6.351
10250TIP3    H230690   3.241   1.841   6.226
10251TIP3   OH230691   3.063   2.392   7.308
10251TIP3    H130692   3.011   2.414   7.388
10251TIP3    H230693   3.048   2.473   7.254
10252TIP3   OH230694   2.946   2.278   6.822
10252TIP3    H130695   2.854   2.253   6.841
10252TIP3    H230696   2.958   2.238   6.733
10253TIP3   OH230697   3.438   2.365   6.552
10253TIP3    H130698   3.384   2.436   6.511
10253TIP3    H230699   3.488   2.332   6.475
10254TIP3   OH230700   3.606   2.648   7.626
10254TIP3    H130701   3.591   2.575   7.690
10254TIP3    H230702   3.702   2.666   7.644
10255TIP3   OH230703   3.593   2.393   6.789
10255TIP3    H130704   3.531   2.423   6.720
10255TIP3    H230705   3.624   2.310   6.746
10256TIP3   OH230706   2.883   2.422   7.515
10256TIP3    H130707   2.904   2.490   7.580
10256TIP3    H230708   2.873   2.341   7.569
10257TIP3   OH230709   2.943   1.897   6.222
10257TIP3    H130710   2.909   1.911   6.313
10257TIP3    H230711   2.872   1.935   6.166
10258TIP3   OH230712   2.475   1.943   7.097
10258TIP3    H130713   2.550   1.975   7.152
10258TIP3    H230714   2.518   1.912   7.016
10259TIP3   OH230715   2.444   1.924   6.614
10259TIP3    H130716   2.495   1.962   6.540
10259TIP3    H230717   2.385   1.999   6.635
10260TIP3   OH230718   3.604   2.638   7.211
10260TIP3    H130719   3.638   2.566   7.153
10260TIP3    H230720   3.574   2.585   7.288
10261TIP3   OH230721   3.276   2.102   6.883
10261TIP3    H130722   3.192   2.099   6.934
10261TIP3    H230723   3.342   2.098   6.954
10262TIP3   OH230724   2.708   2.157   6.891
10262TIP3    H130725   2.614   2.164   6.864
10262TIP3    H230726   2.730   2.065   6.868
10263TIP3   OH230727   2.977   2.153   6.581
10263TIP3    H130728   3.071   2.166   6.558
10263TIP3    H230729   2.930   2.174   6.498
10264TIP3   OH230730   3.764   2.175   7.079
10264TIP3    H130731   3.737   2.188   7.172
10264TIP3    H230732   3.694   2.113   7.049
10265TIP3   OH230733   2.820   2.183   6.363
10265TIP3    H130734   2.738   2.146   6.329
10265TIP3    H230735   2.864   2.215   6.281
10266TIP3   OH230736   3.925   3.856   7.306
10266TIP3    H130737   3.943   3.858   7.212
10266TIP3    H230738   4.005   3.903   7.338
10267TIP3   OH230739   2.913   2.968   7.721
10267TIP3    H130740   2.987   3.003   7.774
10267TIP3    H230741   2.840   2.979   7.786
10268TIP3   OH230742   3.356   2.430   6.982
10268TIP3    H130743   3.428   2.387   6.933
10268TIP3    H230744   3.362   2.387   7.070
10269TIP3   OH230745   2.879   1.916   6.860
10269TIP3    H130746   2.844   1.838   6.908
10269TIP3    H230747   2.926   1.875   6.786
10270TIP3   OH230748   3.333   2.327   7.270
10270TIP3    H130749   3.243   2.362   7.284
10270TIP3    H230750   3.390   2.388   7.321
10271TIP3   OH230751   3.072   2.715   6.365
10271TIP3    H130752   2.998   2.651   6.354
10271TIP3    H230753   3.052   2.750   6.456
10272TIP3   OH230754   3.971   2.952   6.994
10272TIP3    H130755   3.994   3.002   6.913
10272TIP3    H230756   3.885   2.910   6.969
10273TIP3   OH230757   3.528   2.027   6.231
10273TIP3    H130758   3.432   2.005   6.238
10273TIP3    H230759   3.530   2.122   6.253
10274TIP3   OH230760   3.474   3.039   7.362
10274TIP3    H130761   3.492   3.014   7.454
10274TIP3    H230762   3.427   3.124   7.371
10275TIP3   OH230763   3.591   2.279   6.332
10275TIP3    H130764   3.685   2.295   6.351
10275TIP3    H230765   3.566   2.358   6.279
10276TIP3   OH230766   2.760   2.731   7.041
10276TIP3    H130767   2.801   2.706   6.956
10276TIP3    H230768   2.805   2.673   7.104
10277TIP3   OH230769   3.212   2.864   6.183
10277TIP3    H130770   3.165   2.951   6.189
10277TIP3    H230771   3.159   2.810   6.246
10278TIP3   OH230772   2.646   2.654   7.642
10278TIP3    H130773   2.668   2.654   7.737
10278TIP3    H230774   2.566   2.599   7.638
10279TIP3   OH230775   3.367   2.774   7.671
10279TIP3    H130776   3.307   2.717   7.620
10279TIP3    H230777   3.455   2.741   7.641
10280TIP3   OH230778   3.628   3.302   7.253
10280TIP3    H130779   3.533   3.293   7.271
10280TIP3    H230780   3.657   3.348   7.335
10281TIP3   OH230781   4.257   3.224   7.248
10281TIP3    H130782   4.160   3.219   7.240
10281TIP3    H230783   4.283   3.194   7.158
10282TIP3   OH230784   3.739   3.186   6.075
10282TIP3    H130785   3.715   3.117   6.139
10282TIP3    H230786   3.753   3.136   5.993
10283TIP3   OH230787   3.736   2.815   6.911
10283TIP3    H130788   3.642   2.791   6.926
10283TIP3    H230789   3.768   2.735   6.866
10284TIP3   OH230790   2.860   3.037   6.655
10284TIP3    H130791   2.856   3.121   6.607
10284TIP3    H230792   2.781   3.044   6.710
10285TIP3   OH230793   2.425   2.346   6.367
10285TIP3    H130794   2.471   2.430   6.389
10285TIP3    H230795   2.348   2.351   6.429
10286TIP3   OH230796   3.002   2.806   6.609
10286TIP3    H130797   2.961   2.894   6.622
10286TIP3    H230798   2.966   2.757   6.685
10287TIP3   OH230799   3.132   3.389   7.139
10287TIP3    H130800   3.176   3.459   7.086
10287TIP3    H230801   3.208   3.351   7.187
10288TIP3   OH230802   2.780   3.283   6.514
10288TIP3    H130803   2.695   3.287   6.562
10288TIP3    H230804   2.809   3.376   6.520
10289TIP3   OH230805   3.520   3.019   7.094
10289TIP3    H130806   3.509   3.019   7.192
10289TIP3    H230807   3.601   2.966   7.085
10290TIP3   OH230808   3.495   2.914   5.977
10290TIP3    H130809   3.550   2.888   6.055
10290TIP3    H230810   3.408   2.887   6.008
10291TIP3   OH230811   3.768   3.554   7.141
10291TIP3    H130812   3.692   3.493   7.141
10291TIP3    H230813   3.742   3.619   7.074
10292TIP3   OH230814   3.834   3.387   5.795
10292TIP3    H130815   3.876   3.461   5.748
10292TIP3    H230816   3.754   3.431   5.829
10293TIP3   OH230817   2.856   2.162   7.656
10293TIP3    H130818   2.761   2.157   7.671
10293TIP3    H230819   2.891   2.102   7.724
10294TIP3   OH230820   3.655   2.844   6.191
10294TIP3    H130821   3.646   2.780   6.264
10294TIP3    H230822   3.753   2.845   6.181
10295TIP3   OH230823   2.861   2.892   5.975
10295TIP3    H130824   2.875   2.799   5.952
10295TIP3    H230825   2.842   2.885   6.071
10296TIP3   OH230826   2.807   2.899   6.246
10296TIP3    H130827   2.872   2.871   6.312
10296TIP3    H230828   2.809   2.997   6.256
10297TIP3   OH230829   2.540   2.591   6.452
10297TIP3    H130830   2.474   2.636   6.510
10297TIP3    H230831   2.553   2.661   6.386
10298TIP3   OH230832   3.697   2.225   7.338
10298TIP3    H130833   3.770   2.268   7.387
10298TIP3    H230834   3.677   2.147   7.394
10299TIP3   OH230835   3.573   1.978   6.511
10299TIP3    H130836   3.554   1.999   6.417
10299TIP3    H230837   3.606   2.062   6.546
10300TIP3   OH230838   3.072   3.096   6.194
10300TIP3    H130839   2.986   3.118   6.234
10300TIP3    H230840   3.087   3.176   6.141
10301TIP3   OH230841   3.262   2.160   6.612
10301TIP3    H130842   3.324   2.234   6.597
10301TIP3    H230843   3.264   2.152   6.710
10302TIP3   OH230844   3.529   2.477   7.418
10302TIP3    H130845   3.549   2.535   7.495
10302TIP3    H230846   3.586   2.400   7.438
10303TIP3   OH230847   3.403   1.886   6.715
10303TIP3    H130848   3.393   1.965   6.771
10303TIP3    H230849   3.464   1.919   6.646
10304TIP3   OH230850   2.817   3.171   6.265
10304TIP3    H130851   2.785   3.242   6.205
10304TIP3    H230852   2.799   3.211   6.353
10305TIP3   OH230853   2.911   1.886   6.507
10305TIP3    H130854   2.915   1.976   6.544
10305TIP3    H230855   3.006   1.864   6.507
10306TIP3   OH230856   4.167   2.378   7.401
10306TIP3    H130857   4.069   2.375   7.408
10306TIP3    H230858   4.180   2.337   7.314
10307TIP3   OH230859   3.821   2.571   6.787
10307TIP3    H130860   3.742   2.516   6.803
10307TIP3    H230861   3.890   2.525   6.838
10308TIP3   OH230862   2.533   2.800   6.257
10308TIP3    H130863   2.597   2.872   6.270
10308TIP3    H230864   2.582   2.746   6.191
10309TIP3   OH230865   2.489   2.080   6.388
10309TIP3    H130866   2.477   2.178   6.388
10309TIP3    H230867   2.406   2.051   6.348
10310TIP3   OH230868   3.791   3.535   6.745
10310TIP3    H130869   3.746   3.579   6.670
10310TIP3    H230870   3.884   3.554   6.721
10311TIP3   OH230871   2.865   1.798   7.263
10311TIP3    H130872   2.835   1.764   7.176
10311TIP3    H230873   2.856   1.719   7.320
10312TIP3   OH230874   2.396   2.998   6.643
10312TIP3    H130875   2.338   3.042   6.707
10312TIP3    H230876   2.377   3.049   6.562
10313TIP3   OH230877   2.556   3.555   7.729
10313TIP3    H130878   2.646   3.553   7.767
10313TIP3    H230879   2.539   3.461   7.715
10314TIP3   OH230880   3.041   3.524   7.758
10314TIP3    H130881   3.134   3.501   7.768
10314TIP3    H230882   3.014   3.461   7.687
10315TIP3   OH230883   3.023   3.095   5.885
10315TIP3    H130884   2.964   3.027   5.926
10315TIP3    H230885   3.100   3.040   5.865
10316TIP3   OH230886   3.686   3.426   7.491
10316TIP3    H130887   3.675   3.358   7.561
10316TIP3    H230888   3.761   3.479   7.525
10317TIP3   OH230889   3.458   3.136   5.800
10317TIP3    H130890   3.500   3.072   5.861
10317TIP3    H230891   3.517   3.133   5.722
10318TIP3   OH230892   2.698   2.976   7.884
10318TIP3    H130893   2.710   2.881   7.901
10318TIP3    H230894   2.604   2.978   7.854
10319TIP3   OH230895   2.671   2.613   6.111
10319TIP3    H130896   2.725   2.581   6.185
10319TIP3    H230897   2.739   2.618   6.041
10320TIP3   OH230898   3.300   3.053   7.687
10320TIP3    H130899   3.254   3.068   7.602
10320TIP3    H230900   3.328   2.959   7.681
10321TIP3   OH230901   3.179   2.814   5.914
10321TIP3    H130902   3.181   2.827   6.012
10321TIP3    H230903   3.179   2.716   5.909
10322TIP3   OH230904   3.791   3.057   7.295
10322TIP3    H130905   3.865   3.104   7.251
10322TIP3    H230906   3.718   3.120   7.283
10323TIP3   OH230907   2.803   2.694   7.877
10323TIP3    H130908   2.891   2.671   7.844
10323TIP3    H230909   2.805   2.659   7.968
10324TIP3   OH230910   2.875   2.519   6.331
10324TIP3    H130911   2.849   2.480   6.416
10324TIP3    H230912   2.912   2.442   6.283
10325TIP3   OH230913   3.149   2.580   7.562
10325TIP3    H130914   3.070   2.638   7.563
10325TIP3    H230915   3.197   2.614   7.484
10326TIP3   OH230916   2.976   2.311   6.172
10326TIP3    H130917   2.950   2.306   6.079
10326TIP3    H230918   3.074   2.315   6.165
10327TIP3   OH230919   3.665   2.985   7.695
10327TIP3    H130920   3.741   2.954   7.646
10327TIP3    H230921   3.658   2.918   7.766
10328TIP3   OH230922   3.791   2.641   5.836
10328TIP3    H130923   3.775   2.596   5.750
10328TIP3    H230924   3.760   2.732   5.812
10329TIP3   OH230925   3.272   2.370   7.687
10329TIP3    H130926   3.272   2.291   7.629
10329TIP3    H230927   3.228   2.436   7.629
10330TIP3   OH230928   3.271   2.159   7.495
10330TIP3    H130929   3.300   2.199   7.411
10330TIP3    H230930   3.178   2.135   7.475
10331TIP3   OH230931   3.297   2.691   7.368
10331TIP3    H130932   3.381   2.704   7.322
10331TIP3    H230933   3.239   2.757   7.323
10332TIP3   OH230934   3.870   2.673   7.703
10332TIP3    H130935   3.923   2.609   7.753
10332TIP3    H230936   3.926   2.748   7.693
10333TIP3   OH230937   3.925   2.914   7.481
10333TIP3    H130938   3.864   2.966   7.422
10333TIP3    H230939   4.011   2.937   7.440
10334TIP3   OH230940   3.121   2.498   7.888
10334TIP3    H130941   3.064   2.419   7.896
10334TIP3    H230942   3.175   2.474   7.810
10335TIP3   OH230943   3.401   1.920   7.560
10335TIP3    H130944   3.351   2.001   7.537
10335TIP3    H230945   3.334   1.850   7.549
10336TIP3   OH230946   3.534   2.428   7.767
10336TIP3    H130947   3.519   2.419   7.864
10336TIP3    H230948   3.446   2.401   7.735
10337TIP3   OH230949   3.761   2.374   7.625
10337TIP3    H130950   3.686   2.381   7.686
10337TIP3    H230951   3.834   2.350   7.690
10338TIP3   OH230952   3.970   2.293   7.783
10338TIP3    H130953   4.066   2.305   7.777
10338TIP3    H230954   3.960   2.197   7.808
10339TIP3   OH230955   2.973   2.268   7.938
10339TIP3    H130956   2.990   2.174   7.912
10339TIP3    H230957   3.020   2.273   8.023
10340TIP3   OH230958   3.502   1.936   7.813
10340TIP3    H130959   3.562   1.860   7.801
10340TIP3    H230960   3.455   1.932   7.728
10341TIP3   OH230961   3.577   2.155   7.964
10341TIP3    H130962   3.560   2.071   7.915
10341TIP3    H230963   3.488   2.192   7.966
10342TIP3   OH230964   2.785   3.374   6.076
10342TIP3    H130965   2.881   3.367   6.058
10342TIP3    H230966   2.757   3.425   5.998
10343TIP3   OH230967   2.264   2.758   6.289
10343TIP3    H130968   2.359   2.779   6.279
10343TIP3    H230969   2.260   2.667   6.251
10344TIP3   OH230970   2.180   3.369   6.711
10344TIP3    H130971   2.115   3.303   6.677
10344TIP3    H230972   2.229   3.315   6.777
10345TIP3   OH230973   2.332   3.226   6.891
10345TIP3    H130974   2.321   3.163   6.964
10345TIP3    H230975   2.388   3.294   6.934
10346TIP3   OH230976   4.041   3.626   6.693
10346TIP3    H130977   4.074   3.640   6.784
10346TIP3    H230978   4.115   3.658   6.638
10347TIP3   OH230979   4.085   3.633   6.964
10347TIP3    H130980   4.035   3.549   6.971
10347TIP3    H230981   4.152   3.619   7.033
10348TIP3   OH230982   4.118   3.316   7.549
10348TIP3    H130983   4.045   3.325   7.613
10348TIP3    H230984   4.160   3.404   7.553
10349TIP3   OH230985   3.931   2.835   6.171
10349TIP3    H130986   4.002   2.895   6.141
10349TIP3    H230987   3.976   2.791   6.248
10350TIP3   OH230988   4.058   2.698   6.368
10350TIP3    H130989   3.999   2.652   6.431
10350TIP3    H230990   4.136   2.720   6.423
10351TIP3   OH230991   4.117   3.089   6.805
10351TIP3    H130992   4.169   3.023   6.754
10351TIP3    H230993   4.110   3.163   6.741
10352TIP3   OH230994   3.948   3.390   6.999
10352TIP3    H130995   3.877   3.430   7.052
10352TIP3    H230996   3.898   3.343   6.929
10353TIP3   OH230997   4.006   2.623   6.005
10353TIP3    H130998   3.927   2.618   5.946
10353TIP3    H230999   3.974   2.687   6.071
10354TIP3   OH231000   3.868   2.275   5.994
10354TIP3    H131001   3.846   2.323   5.913
10354TIP3    H231002   3.844   2.183   5.970
10355TIP3   OH231003   3.878   2.551   6.521
10355TIP3    H131004   3.874   2.454   6.518
10355TIP3    H231005   3.862   2.569   6.617
10356TIP3   OH231006   2.502   2.623   7.268
10356TIP3    H131007   2.499   2.595   7.174
10356TIP3    H231008   2.599   2.626   7.283
10357TIP3   OH231009   4.168   2.979   7.374
10357TIP3    H131010   4.240   2.913   7.364
10357TIP3    H231011   4.196   3.050   7.313
10358TIP3   OH231012   4.349   2.781   7.388
10358TIP3    H131013   4.276   2.731   7.430
10358TIP3    H231014   4.424   2.719   7.403
10359TIP3   OH231015   3.814   2.007   5.964
10359TIP3    H131016   3.872   1.963   6.027
10359TIP3    H231017   3.731   1.956   5.971
10360TIP3   OH231018   3.875   2.274   6.421
10360TIP3    H131019   3.896   2.179   6.430
10360TIP3    H231020   3.883   2.289   6.326
10361TIP3   OH231021   4.033   2.439   6.909
10361TIP3    H131022   4.119   2.468   6.870
10361TIP3    H231023   4.043   2.477   6.999
10362TIP3   OH231024   4.101   2.586   7.139
10362TIP3    H131025   4.024   2.620   7.190
10362TIP3    H231026   4.133   2.668   7.095
10363TIP3   OH231027   2.712   2.307   7.878
10363TIP3    H131028   2.810   2.311   7.875
10363TIP3    H231029   2.702   2.243   7.951
10364TIP3   OH231030   4.562   2.183   7.687
10364TIP3    H131031   4.618   2.119   7.641
10364TIP3    H231032   4.526   2.238   7.613
10365TIP3   OH231033   3.988   2.031   6.447
10365TIP3    H131034   4.028   2.004   6.533
10365TIP3    H231035   3.923   1.956   6.439
10366TIP3   OH231036   2.682   2.006   7.271
10366TIP3    H131037   2.744   1.930   7.279
10366TIP3    H231038   2.744   2.080   7.263
10367TIP3   OH231039   2.485   2.276   7.345
10367TIP3    H131040   2.535   2.276   7.261
10367TIP3    H231041   2.504   2.365   7.378
10368TIP3   OH231042   4.423   2.318   7.499
10368TIP3    H131043   4.337   2.354   7.527
10368TIP3    H231044   4.392   2.248   7.439
10369TIP3   OH231045   4.097   1.955   6.088
10369TIP3    H131046   4.106   1.873   6.034
10369TIP3    H231047   4.110   2.023   6.020
10370TIP3   OH231048   2.468   1.783   6.844
10370TIP3    H131049   2.375   1.778   6.872
10370TIP3    H231050   2.463   1.841   6.766
10371TIP3   OH231051   3.628   3.488   6.351
10371TIP3    H131052   3.678   3.473   6.268
10371TIP3    H231053   3.684   3.552   6.397
10372TIP3   OH231054   2.683   1.886   7.654
10372TIP3    H131055   2.602   1.851   7.694
10372TIP3    H231056   2.642   1.937   7.582
10373TIP3   OH231057   2.727   3.293   7.741
10373TIP3    H131058   2.637   3.265   7.716
10373TIP3    H231059   2.731   3.264   7.834
10374TIP3   OH231060   2.909   3.317   7.287
10374TIP3    H131061   2.845   3.380   7.249
10374TIP3    H231062   2.990   3.345   7.239
10375TIP3   OH231063   3.352   3.567   7.419
10375TIP3    H131064   3.392   3.567   7.509
10375TIP3    H231065   3.418   3.621   7.370
10376TIP3   OH231066   3.532   3.721   7.278
10376TIP3    H131067   3.603   3.663   7.250
10376TIP3    H231068   3.580   3.778   7.343
10377TIP3   OH231069   4.325   2.081   7.376
10377TIP3    H131070   4.233   2.072   7.346
10377TIP3    H231071   4.357   1.988   7.368
10378TIP3   OH231072   2.808   3.561   7.169
10378TIP3    H131073   2.715   3.539   7.184
10378TIP3    H231074   2.804   3.582   7.074
10379TIP3   OH231075   3.246   3.586   6.961
10379TIP3    H131076   3.172   3.601   6.900
10379TIP3    H231077   3.253   3.673   7.006
10380TIP3   OH231078   3.513   3.529   7.012
10380TIP3    H131079   3.417   3.536   6.997
10380TIP3    H231080   3.544   3.610   6.970
10381TIP3   OH231081   3.711   3.746   6.906
10381TIP3    H131082   3.668   3.771   6.824
10381TIP3    H231083   3.766   3.672   6.872
10382TIP3   OH231084   2.714   3.206   6.867
10382TIP3    H131085   2.699   3.146   6.942
10382TIP3    H231086   2.734   3.289   6.913
10383TIP3   OH231087   2.974   3.360   6.907
10383TIP3    H131088   2.969   3.265   6.890
10383TIP3    H231089   3.011   3.361   6.997
10384TIP3   OH231090   3.531   1.995   7.002
10384TIP3    H131091   3.485   1.927   7.054
10384TIP3    H231092   3.600   1.944   6.956
10385TIP3   OH231093   4.051   1.876   6.903
10385TIP3    H131094   4.079   1.930   6.827
10385TIP3    H231095   3.954   1.887   6.901
10386TIP3   OH231096   4.145   1.987   6.662
10386TIP3    H131097   4.217   1.924   6.635
10386TIP3    H231098   4.195   2.061   6.698
10387TIP3   OH231099   2.777   1.704   7.016
10387TIP3    H131100   2.685   1.671   7.019
10387TIP3    H231101   2.825   1.618   7.012
10388TIP3   OH231102   2.559   1.575   6.663
10388TIP3    H131103   2.594   1.631   6.591
10388TIP3    H231104   2.536   1.641   6.731
10389TIP3   OH231105   3.221   1.737   6.897
10389TIP3    H131106   3.280   1.784   6.836
10389TIP3    H231107   3.246   1.774   6.982
10390TIP3   OH231108   3.771   1.882   6.876
10390TIP3    H131109   3.765   1.838   6.790
10390TIP3    H231110   3.757   1.806   6.937
10391TIP3   OH231111   3.801   1.812   6.443
10391TIP3    H131112   3.711   1.848   6.454
10391TIP3    H231113   3.789   1.725   6.488
10392TIP3   OH231114   2.285   3.144   6.441
10392TIP3    H131115   2.198   3.115   6.408
10392TIP3    H231116   2.275   3.240   6.434
10393TIP3   OH231117   2.684   1.734   6.432
10393TIP3    H131118   2.730   1.670   6.373
10393TIP3    H231119   2.760   1.785   6.467
10394TIP3   OH231120   3.191   1.910   6.525
10394TIP3    H131121   3.248   1.859   6.584
10394TIP3    H231122   3.216   2.001   6.552
10395TIP3   OH231123   3.053   3.331   6.025
10395TIP3    H131124   3.141   3.354   5.989
10395TIP3    H231125   3.031   3.257   5.965
10396TIP3   OH231126   3.773   3.452   6.118
10396TIP3    H131127   3.766   3.354   6.108
10396TIP3    H231128   3.726   3.482   6.038
10397TIP3   OH231129   3.024   2.008   7.874
10397TIP3    H131130   3.016   1.937   7.941
10397TIP3    H231131   3.120   2.010   7.859
10398TIP3   OH231132   2.356   3.171   6.082
10398TIP3    H131133   2.355   3.191   6.177
10398TIP3    H231134   2.445   3.129   6.071
10399TIP3   OH231135   4.054   2.017   7.799
10399TIP3    H131136   4.092   2.021   7.887
10399TIP3    H231137   4.131   2.006   7.743
10400TIP3   OH231138   4.000   3.595   7.305
10400TIP3    H131139   3.921   3.563   7.257
10400TIP3    H231140   3.975   3.688   7.320
10401TIP3   OH231141   5.261   2.963   6.075
10401TIP3    H131142   5.238   3.057   6.060
10401TIP3    H231143   5.183   2.920   6.036
10402TIP3   OH231144   5.241   2.972   6.461
10402TIP3    H131145   5.292   2.945   6.540
10402TIP3    H231146   5.223   2.888   6.418
10403TIP3   OH231147   4.561   2.861   6.821
10403TIP3    H131148   4.593   2.794   6.884
10403TIP3    H231149   4.640   2.918   6.813
10404TIP3   OH231150   5.496   3.273   6.136
10404TIP3    H131151   5.553   3.196   6.153
10404TIP3    H231152   5.537   3.339   6.194
10405TIP3   OH231153   4.534   3.271   6.541
10405TIP3    H131154   4.526   3.173   6.544
10405TIP3    H231155   4.630   3.281   6.535
10406TIP3   OH231156   4.302   2.759   6.496
10406TIP3    H131157   4.358   2.687   6.533
10406TIP3    H231158   4.365   2.808   6.441
10407TIP3   OH231159   5.158   3.732   6.154
10407TIP3    H131160   5.200   3.662   6.100
10407TIP3    H231161   5.155   3.690   6.241
10408TIP3   OH231162   5.062   3.195   6.504
10408TIP3    H131163   5.104   3.114   6.467
10408TIP3    H231164   5.145   3.244   6.524
10409TIP3   OH231165   6.078   2.514   6.500
10409TIP3    H131166   6.106   2.598   6.541
10409TIP3    H231167   6.092   2.534   6.406
10410TIP3   OH231168   5.464   2.691   6.541
10410TIP3    H131169   5.514   2.608   6.557
10410TIP3    H231170   5.440   2.680   6.447
10411TIP3   OH231171   4.809   2.355   6.503
10411TIP3    H131172   4.799   2.427   6.437
10411TIP3    H231173   4.767   2.281   6.455
10412TIP3   OH231174   5.507   2.447   6.120
10412TIP3    H131175   5.580   2.432   6.186
10412TIP3    H231176   5.560   2.481   6.045
10413TIP3   OH231177   4.451   2.555   6.604
10413TIP3    H131178   4.530   2.542   6.661
10413TIP3    H231179   4.481   2.506   6.524
10414TIP3   OH231180   4.889   2.755   6.402
10414TIP3    H131181   4.984   2.733   6.413
10414TIP3    H231182   4.854   2.671   6.367
10415TIP3   OH231183   6.151   2.722   6.671
10415TIP3    H131184   6.070   2.770   6.645
10415TIP3    H231185   6.161   2.753   6.762
10416TIP3   OH231186   4.809   2.337   6.933
10416TIP3    H131187   4.750   2.376   6.866
10416TIP3    H231188   4.758   2.356   7.015
10417TIP3   OH231189   5.151   3.186   5.941
10417TIP3    H131190   5.114   3.173   5.852
10417TIP3    H231191   5.110   3.270   5.968
10418TIP3   OH231192   4.916   3.113   6.727
10418TIP3    H131193   4.856   3.182   6.763
10418TIP3    H231194   4.960   3.162   6.654
10419TIP3   OH231195   5.717   2.451   6.295
10419TIP3    H131196   5.708   2.405   6.379
10419TIP3    H231197   5.768   2.530   6.320
10420TIP3   OH231198   4.678   2.453   6.721
10420TIP3    H131199   4.740   2.525   6.745
10420TIP3    H231200   4.728   2.412   6.647
10421TIP3   OH231201   4.744   3.309   6.826
10421TIP3    H131202   4.719   3.396   6.788
10421TIP3    H231203   4.665   3.293   6.882
10422TIP3   OH231204   4.138   2.998   6.061
10422TIP3    H131205   4.097   3.026   5.977
10422TIP3    H231206   4.170   3.083   6.098
10423TIP3   OH231207   5.580   3.520   6.308
10423TIP3    H131208   5.489   3.504   6.341
10423TIP3    H231209   5.567   3.604   6.260
10424TIP3   OH231210   5.869   2.414   6.665
10424TIP3    H131211   5.782   2.442   6.632
10424TIP3    H231212   5.929   2.447   6.594
10425TIP3   OH231213   5.162   2.053   6.645
10425TIP3    H131214   5.151   1.960   6.671
10425TIP3    H231215   5.086   2.093   6.692
10426TIP3   OH231216   5.274   3.561   5.971
10426TIP3    H131217   5.324   3.477   5.956
10426TIP3    H231218   5.338   3.625   5.933
10427TIP3   OH231219   5.417   3.345   5.884
10427TIP3    H131220   5.390   3.262   5.843
10427TIP3    H231221   5.450   3.314   5.972
10428TIP3   OH231222   5.805   3.425   6.643
10428TIP3    H131223   5.793   3.348   6.581
10428TIP3    H231224   5.789   3.500   6.582
10429TIP3   OH231225   5.093   2.819   5.902
10429TIP3    H131226   5.016   2.874   5.878
10429TIP3    H231227   5.144   2.818   5.819
10430TIP3   OH231228   5.053   2.605   5.618
10430TIP3    H131229   5.119   2.656   5.668
10430TIP3    H231230   5.112   2.542   5.571
10431TIP3   OH231231   5.997   3.067   6.496
10431TIP3    H131232   5.911   3.115   6.492
10431TIP3    H231233   6.028   3.086   6.404
10432TIP3   OH231234   5.439   2.903   5.875
10432TIP3    H131235   5.388   2.927   5.956
10432TIP3    H231236   5.524   2.877   5.917
10433TIP3   OH231237   5.677   2.941   6.786
10433TIP3    H131238   5.672   3.026   6.834
10433TIP3    H231239   5.594   2.946   6.734
10434TIP3   OH231240   4.676   2.900   6.295
10434TIP3    H131241   4.635   2.842   6.227
10434TIP3    H231242   4.754   2.848   6.323
10435TIP3   OH231243   4.804   3.309   6.441
10435TIP3    H131244   4.787   3.273   6.353
10435TIP3    H231245   4.895   3.276   6.460
10436TIP3   OH231246   4.806   2.874   6.643
10436TIP3    H131247   4.845   2.848   6.557
10436TIP3    H231248   4.854   2.957   6.664
10437TIP3   OH231249   5.332   3.511   6.421
10437TIP3    H131250   5.326   3.587   6.481
10437TIP3    H231251   5.322   3.435   6.480
10438TIP3   OH231252   4.950   3.428   6.971
10438TIP3    H131253   4.888   3.490   7.016
10438TIP3    H231254   4.886   3.374   6.920
10439TIP3   OH231255   5.281   2.763   5.701
10439TIP3    H131256   5.341   2.822   5.753
10439TIP3    H231257   5.309   2.785   5.609
10440TIP3   OH231258   4.704   2.984   7.072
10440TIP3    H131259   4.709   3.072   7.115
10440TIP3    H231260   4.609   2.964   7.084
10441TIP3   OH231261   5.024   3.442   5.978
10441TIP3    H131262   5.109   3.489   5.988
10441TIP3    H231263   4.968   3.508   5.935
10442TIP3   OH231264   4.743   3.596   7.057
10442TIP3    H131265   4.708   3.596   6.966
10442TIP3    H231266   4.663   3.574   7.110
10443TIP3   OH231267   5.799   2.001   5.749
10443TIP3    H131268   5.718   2.021   5.799
10443TIP3    H231269   5.813   2.084   5.700
10444TIP3   OH231270   4.540   2.742   6.099
10444TIP3    H131271   4.478   2.793   6.043
10444TIP3    H231272   4.502   2.654   6.093
10445TIP3   OH231273   5.598   3.368   5.298
10445TIP3    H131274   5.607   3.464   5.283
10445TIP3    H231275   5.691   3.338   5.285
10446TIP3   OH231276   4.322   3.127   7.004
10446TIP3    H131277   4.256   3.105   6.935
10446TIP3    H231278   4.360   3.040   7.028
10447TIP3   OH231279   4.178   3.321   6.634
10447TIP3    H131280   4.274   3.311   6.625
10447TIP3    H231281   4.173   3.397   6.694
10448TIP3   OH231282   6.041   3.773   6.692
10448TIP3    H131283   6.040   3.676   6.702
10448TIP3    H231284   5.957   3.796   6.738
10449TIP3   OH231285   5.147   3.557   6.827
10449TIP3    H131286   5.144   3.649   6.859
10449TIP3    H231287   5.075   3.516   6.882
10450TIP3   OH231288   4.906   3.684   5.780
10450TIP3    H131289   4.864   3.667   5.694
10450TIP3    H231290   4.876   3.774   5.801
10451TIP3   OH231291   4.344   3.536   6.165
10451TIP3    H131292   4.394   3.527   6.249
10451TIP3    H231293   4.293   3.453   6.166
10452TIP3   OH231294   5.108   3.586   5.419
10452TIP3    H131295   5.167   3.517   5.382
10452TIP3    H231296   5.144   3.596   5.509
10453TIP3   OH231297   5.159   3.636   5.689
10453TIP3    H131298   5.071   3.643   5.733
10453TIP3    H231299   5.212   3.596   5.760
10454TIP3   OH231300   5.930   2.902   6.966
10454TIP3    H131301   5.850   2.915   6.913
10454TIP3    H231302   5.946   2.806   6.955
10455TIP3   OH231303   4.526   3.310   6.991
10455TIP3    H131304   4.577   3.294   7.074
10455TIP3    H231305   4.452   3.247   7.000
10456TIP3   OH231306   4.923   2.133   6.771
10456TIP3    H131307   4.833   2.105   6.747
10456TIP3    H231308   4.902   2.213   6.824
10457TIP3   OH231309   5.463   2.250   6.971
10457TIP3    H131310   5.531   2.218   7.034
10457TIP3    H231311   5.379   2.228   7.016
10458TIP3   OH231312   5.699   2.677   6.889
10458TIP3    H131313   5.648   2.675   6.973
10458TIP3    H231314   5.676   2.764   6.851
10459TIP3   OH231315   5.358   2.806   5.445
10459TIP3    H131316   5.326   2.782   5.356
10459TIP3    H231317   5.441   2.853   5.422
10460TIP3   OH231318   5.069   2.183   5.748
10460TIP3    H131319   5.037   2.178   5.840
10460TIP3    H231320   5.033   2.099   5.713
10461TIP3   OH231321   4.854   2.651   6.793
10461TIP3    H131322   4.810   2.675   6.876
10461TIP3    H231323   4.840   2.732   6.739
10462TIP3   OH231324   4.752   2.535   6.308
10462TIP3    H131325   4.657   2.518   6.321
10462TIP3    H231326   4.765   2.497   6.218
10463TIP3   OH231327   5.229   2.616   6.033
10463TIP3    H131328   5.181   2.691   5.992
10463TIP3    H231329   5.288   2.588   5.960
10464TIP3   OH231330   5.408   2.899   7.124
10464TIP3    H131331   5.386   2.825   7.185
10464TIP3    H231332   5.502   2.911   7.143
10465TIP3   OH231333   5.377   2.636   6.282
10465TIP3    H131334   5.328   2.678   6.209
10465TIP3    H231335   5.412   2.558   6.234
10466TIP3   OH231336   4.674   2.678   7.005
10466TIP3    H131337   4.709   2.742   7.070
10466TIP3    H231338   4.668   2.596   7.058
10467TIP3   OH231339   4.725   2.155   5.713
10467TIP3    H131340   4.719   2.154   5.810
10467TIP3    H231341   4.648   2.209   5.689
10468TIP3   OH231342   4.305   2.198   6.509
10468TIP3    H131343   4.337   2.263   6.576
10468TIP3    H231344   4.376   2.132   6.524
10469TIP3   OH231345   5.392   2.895   6.699
10469TIP3    H131346   5.427   2.824   6.640
10469TIP3    H231347   5.366   2.840   6.776
10470TIP3   OH231348   5.070   2.357   6.371
10470TIP3    H131349   4.994   2.355   6.432
10470TIP3    H231350   5.146   2.355   6.432
10471TIP3   OH231351   4.513   2.407   6.381
10471TIP3    H131352   4.434   2.389   6.330
10471TIP3    H231353   4.566   2.326   6.365
10472TIP3   OH231354   4.771   2.408   6.067
10472TIP3    H131355   4.866   2.421   6.049
10472TIP3    H231356   4.728   2.431   5.982
10473TIP3   OH231357   5.565   2.432   6.575
10473TIP3    H131358   5.528   2.445   6.665
10473TIP3    H231359   5.499   2.373   6.535
10474TIP3   OH231360   4.615   2.444   5.844
10474TIP3    H131361   4.545   2.399   5.794
10474TIP3    H231362   4.668   2.482   5.771
10475TIP3   OH231363   5.732   4.122   6.791
10475TIP3    H131364   5.729   4.144   6.696
10475TIP3    H231365   5.811   4.171   6.821
10476TIP3   OH231366   4.689   3.232   7.212
10476TIP3    H131367   4.769   3.262   7.259
10476TIP3    H231368   4.625   3.231   7.285
10477TIP3   OH231369   5.152   2.679   6.462
10477TIP3    H131370   5.228   2.649   6.409
10477TIP3    H231371   5.170   2.640   6.549
10478TIP3   OH231372   4.664   2.179   6.344
10478TIP3    H131373   4.642   2.094   6.388
10478TIP3    H231374   4.723   2.149   6.272
10479TIP3   OH231375   5.128   2.578   6.764
10479TIP3    H131376   5.041   2.621   6.772
10479TIP3    H231377   5.188   2.642   6.809
10480TIP3   OH231378   4.863   2.975   5.849
10480TIP3    H131379   4.792   2.908   5.839
10480TIP3    H231380   4.846   3.007   5.941
10481TIP3   OH231381   5.762   3.210   6.481
10481TIP3    H131382   5.781   3.226   6.386
10481TIP3    H231383   5.680   3.158   6.470
10482TIP3   OH231384   5.323   2.284   5.715
10482TIP3    H131385   5.227   2.268   5.724
10482TIP3    H231386   5.334   2.378   5.740
10483TIP3   OH231387   5.263   3.289   6.850
10483TIP3    H131388   5.292   3.272   6.940
10483TIP3    H231389   5.227   3.379   6.854
10484TIP3   OH231390   5.392   2.532   5.817
10484TIP3    H131391   5.488   2.536   5.837
10484TIP3    H231392   5.377   2.614   5.766
10485TIP3   OH231393   4.553   2.986   6.528
10485TIP3    H131394   4.594   2.964   6.442
10485TIP3    H231395   4.610   2.937   6.589
10486TIP3   OH231396   5.011   3.122   5.672
10486TIP3    H131397   4.963   3.208   5.677
10486TIP3    H231398   4.957   3.067   5.733
10487TIP3   OH231399   4.439   2.917   7.142
10487TIP3    H131400   4.462   2.904   7.236
10487TIP3    H231401   4.372   2.847   7.129
10488TIP3   OH231402   5.166   3.030   7.160
10488TIP3    H131403   5.108   2.972   7.109
10488TIP3    H231404   5.254   2.996   7.133
10489TIP3   OH231405   5.425   3.555   6.744
10489TIP3    H131406   5.328   3.550   6.756
10489TIP3    H231407   5.451   3.605   6.824
10490TIP3   OH231408   5.837   2.623   5.653
10490TIP3    H131409   5.773   2.580   5.592
10490TIP3    H231410   5.833   2.714   5.614
10491TIP3   OH231411   6.055   3.485   6.732
10491TIP3    H131412   5.957   3.475   6.723
10491TIP3    H231413   6.082   3.450   6.644
10492TIP3   OH231414   5.534   3.443   5.562
10492TIP3    H131415   5.512   3.372   5.625
10492TIP3    H231416   5.548   3.394   5.479
10493TIP3   OH231417   5.535   3.065   6.428
10493TIP3    H131418   5.443   3.042   6.406
10493TIP3    H231419   5.582   3.014   6.359
10494TIP3   OH231420   4.660   3.300   6.155
10494TIP3    H131421   4.662   3.380   6.099
10494TIP3    H231422   4.566   3.282   6.161
10495TIP3   OH231423   4.229   2.601   5.854
10495TIP3    H131424   4.272   2.686   5.876
10495TIP3    H231425   4.150   2.606   5.914
10496TIP3   OH231426   4.792   3.062   6.094
10496TIP3    H131427   4.762   3.153   6.115
10496TIP3    H231428   4.761   3.013   6.173
10497TIP3   OH231429   4.928   3.642   6.621
10497TIP3    H131430   4.971   3.714   6.571
10497TIP3    H231431   5.005   3.605   6.668
10498TIP3   OH231432   4.577   3.540   6.004
10498TIP3    H131433   4.492   3.548   6.052
10498TIP3    H231434   4.610   3.632   6.008
10499TIP3   OH231435   5.318   3.278   6.578
10499TIP3    H131436   5.312   3.269   6.676
10499TIP3    H231437   5.393   3.220   6.557
10500TIP3   OH231438   5.293   3.169   5.465
10500TIP3    H131439   5.347   3.144   5.543
10500TIP3    H231440   5.205   3.143   5.496
10501TIP3   OH231441   5.564   3.812   6.635
10501TIP3    H131442   5.486   3.754   6.627
10501TIP3    H231443   5.548   3.874   6.560
10502TIP3   OH231444   5.630   3.643   5.283
10502TIP3    H131445   5.667   3.715   5.228
10502TIP3    H231446   5.551   3.688   5.317
10503TIP3   OH231447   4.650   2.421   7.149
10503TIP3    H131448   4.554   2.424   7.165
10503TIP3    H231449   4.681   2.363   7.221
10504TIP3   OH231450   5.453   3.103   5.681
10504TIP3    H131451   5.442   3.038   5.753
10504TIP3    H231452   5.551   3.099   5.670
10505TIP3   OH231453   4.366   3.503   6.781
10505TIP3    H131454   4.421   3.431   6.814
10505TIP3    H231455   4.391   3.575   6.841
10506TIP3   OH231456   4.655   3.151   5.464
10506TIP3    H131457   4.672   3.059   5.436
10506TIP3    H231458   4.636   3.138   5.559
10507TIP3   OH231459   4.601   3.155   5.738
10507TIP3    H131460   4.678   3.128   5.790
10507TIP3    H231461   4.606   3.253   5.744
10508TIP3   OH231462   4.339   2.849   5.939
10508TIP3    H131463   4.271   2.892   5.995
10508TIP3    H231464   4.352   2.918   5.871
10509TIP3   OH231465   5.486   2.488   6.834
10509TIP3    H131466   5.569   2.524   6.867
10509TIP3    H231467   5.474   2.406   6.887
10510TIP3   OH231468   5.367   2.237   5.997
10510TIP3    H131469   5.355   2.259   5.903
10510TIP3    H231470   5.407   2.319   6.033
10511TIP3   OH231471   4.867   3.350   5.684
10511TIP3    H131472   4.781   3.379   5.720
10511TIP3    H231473   4.885   3.423   5.622
10512TIP3   OH231474   5.050   2.418   6.099
10512TIP3    H131475   5.116   2.488   6.079
10512TIP3    H231476   5.061   2.409   6.197
10513TIP3   OH231477   5.324   2.732   6.907
10513TIP3    H131478   5.350   2.784   6.986
10513TIP3    H231479   5.380   2.653   6.914
10514TIP3   OH231480   5.199   2.141   6.198
10514TIP3    H131481   5.199   2.215   6.261
10514TIP3    H231482   5.261   2.176   6.129
10515TIP3   OH231483   4.611   3.428   5.752
10515TIP3    H131484   4.582   3.498   5.690
10515TIP3    H231485   4.596   3.471   5.839
10516TIP3   OH231486   4.710   2.142   5.990
10516TIP3    H131487   4.714   2.235   6.023
10516TIP3    H231488   4.806   2.119   5.998
10517TIP3   OH231489   5.967   2.635   6.888
10517TIP3    H131490   5.869   2.632   6.894
10517TIP3    H231491   5.979   2.597   6.800
10518TIP3   OH231492   5.601   2.815   6.285
10518TIP3    H131493   5.538   2.742   6.290
10518TIP3    H231494   5.682   2.778   6.325
10519TIP3   OH231495   4.330   3.057   5.743
10519TIP3    H131496   4.400   3.124   5.754
10519TIP3    H231497   4.374   3.000   5.677
10520TIP3   OH231498   4.265   2.328   5.901
10520TIP3    H131499   4.271   2.425   5.889
10520TIP3    H231500   4.190   2.307   5.844
10521TIP3   OH231501   5.584   3.790   6.224
10521TIP3    H131502   5.542   3.837   6.148
10521TIP3    H231503   5.678   3.807   6.203
10522TIP3   OH231504   4.651   2.053   6.753
10522TIP3    H131505   4.630   2.014   6.666
10522TIP3    H231506   4.654   1.974   6.811
10523TIP3   OH231507   4.202   3.274   6.131
10523TIP3    H131508   4.130   3.302   6.189
10523TIP3    H231509   4.173   3.313   6.045
10524TIP3   OH231510   4.370   3.812   7.196
10524TIP3    H131511   4.454   3.813   7.248
10524TIP3    H231512   4.347   3.718   7.199
10525TIP3   OH231513   4.837   3.777   7.248
10525TIP3    H131514   4.932   3.759   7.254
10525TIP3    H231515   4.812   3.718   7.175
10526TIP3   OH231516   4.820   3.354   5.376
10526TIP3    H131517   4.765   3.281   5.413
10526TIP3    H231518   4.896   3.303   5.342
10527TIP3   OH231519   5.475   3.686   6.983
10527TIP3    H131520   5.468   3.615   7.051
10527TIP3    H231521   5.554   3.735   7.012
10528TIP3   OH231522   5.255   3.393   5.287
10528TIP3    H131523   5.301   3.331   5.347
10528TIP3    H231524   5.312   3.392   5.208
10529TIP3   OH231525   4.488   3.221   7.403
10529TIP3    H131526   4.504   3.125   7.412
10529TIP3    H231527   4.401   3.223   7.359
10530TIP3   OH231528   4.464   2.869   5.598
10530TIP3    H131529   4.521   2.838   5.671
10530TIP3    H231530   4.531   2.875   5.526
10531TIP3   OH231531   5.095   3.306   7.177
10531TIP3    H131532   5.055   3.324   7.090
10531TIP3    H231533   5.126   3.213   7.168
10532TIP3   OH231534   4.972   3.068   5.404
10532TIP3    H131535   4.979   3.081   5.501
10532TIP3    H231536   4.975   2.970   5.399
10533TIP3   OH231537   5.590   3.317   6.789
10533TIP3    H131538   5.664   3.355   6.737
10533TIP3    H231539   5.519   3.381   6.767
10534TIP3   OH231540   4.607   2.953   7.386
10534TIP3    H131541   4.684   2.899   7.364
10534TIP3    H231542   4.633   2.987   7.474
10535TIP3   OH231543   4.671   2.775   5.817
10535TIP3    H131544   4.649   2.731   5.900
10535TIP3    H231545   4.710   2.702   5.765
10536TIP3   OH231546   4.939   2.835   7.043
10536TIP3    H131547   4.864   2.899   7.046
10536TIP3    H231548   4.993   2.871   6.969
10537TIP3   OH231549   4.774   2.569   5.660
10537TIP3    H131550   4.750   2.573   5.565
10537TIP3    H231551   4.872   2.572   5.654
10538TIP3   OH231552   5.461   3.242   7.182
10538TIP3    H131553   5.535   3.212   7.128
10538TIP3    H231554   5.456   3.173   7.251
10539TIP3   OH231555   5.594   2.898   5.324
10539TIP3    H131556   5.574   2.853   5.239
10539TIP3    H231557   5.561   2.989   5.301
10540TIP3   OH231558   5.065   2.627   7.172
10540TIP3    H131559   5.067   2.547   7.115
10540TIP3    H231560   5.022   2.693   7.114
10541TIP3   OH231561   5.067   2.414   6.984
10541TIP3    H131562   5.096   2.456   6.901
10541TIP3    H231563   4.975   2.389   6.963
10542TIP3   OH231564   5.094   2.948   6.855
10542TIP3    H131565   5.179   2.955   6.809
10542TIP3    H231566   5.040   3.015   6.808
10543TIP3   OH231567   5.678   2.916   7.235
10543TIP3    H131568   5.724   2.831   7.242
10543TIP3    H231569   5.745   2.972   7.194
10544TIP3   OH231570   5.718   3.171   6.976
10544TIP3    H131571   5.661   3.225   6.915
10544TIP3    H231572   5.805   3.189   6.935
10545TIP3   OH231573   4.944   2.738   7.403
10545TIP3    H131574   4.874   2.671   7.419
10545TIP3    H231575   4.978   2.710   7.316
10546TIP3   OH231576   5.206   2.182   7.052
10546TIP3    H131577   5.154   2.262   7.028
10546TIP3    H231578   5.138   2.112   7.041
10547TIP3   OH231579   5.326   2.680   7.264
10547TIP3    H131580   5.314   2.668   7.360
10547TIP3    H231581   5.236   2.656   7.233
10548TIP3   OH231582   5.566   2.635   7.121
10548TIP3    H131583   5.491   2.632   7.182
10548TIP3    H231584   5.640   2.601   7.176
10549TIP3   OH231585   5.796   2.572   7.270
10549TIP3    H131586   5.808   2.476   7.286
10549TIP3    H231587   5.792   2.609   7.360
10550TIP3   OH231588   4.781   2.518   7.457
10550TIP3    H131589   4.791   2.427   7.423
10550TIP3    H231590   4.818   2.508   7.547
10551TIP3   OH231591   5.287   2.177   7.313
10551TIP3    H131592   5.361   2.115   7.300
10551TIP3    H231593   5.250   2.179   7.222
10552TIP3   OH231594   5.359   2.403   7.459
10552TIP3    H131595   5.335   2.331   7.397
10552TIP3    H231596   5.281   2.462   7.453
10553TIP3   OH231597   4.581   3.632   5.566
10553TIP3    H131598   4.677   3.624   5.548
10553TIP3    H231599   4.555   3.680   5.485
10554TIP3   OH231600   4.061   3.013   5.780
10554TIP3    H131601   4.156   3.035   5.766
10554TIP3    H231602   4.056   2.923   5.741
10555TIP3   OH231603   3.975   3.627   6.196
10555TIP3    H131604   3.910   3.564   6.159
10555TIP3    H231605   4.021   3.569   6.261
10556TIP3   OH231606   4.110   3.476   6.382
10556TIP3    H131607   4.100   3.402   6.444
10556TIP3    H231608   4.163   3.537   6.437
10557TIP3   OH231609   5.835   3.886   6.181
10557TIP3    H131610   5.869   3.911   6.269
10557TIP3    H231611   5.906   3.915   6.122
10558TIP3   OH231612   5.869   3.897   6.465
10558TIP3    H131613   5.822   3.811   6.458
10558TIP3    H231614   5.944   3.869   6.520
10559TIP3   OH231615   5.916   3.573   7.039
10559TIP3    H131616   5.841   3.582   7.101
10559TIP3    H231617   5.956   3.662   7.041
10560TIP3   OH231618   5.733   3.082   5.660
10560TIP3    H131619   5.801   3.147   5.632
10560TIP3    H231620   5.775   3.046   5.742
10561TIP3   OH231621   5.861   2.956   5.870
10561TIP3    H131622   5.787   2.921   5.924
10561TIP3    H231623   5.906   3.011   5.939
10562TIP3   OH231624   5.935   3.359   6.291
10562TIP3    H131625   5.928   3.268   6.253
10562TIP3    H231626   5.885   3.408   6.225
10563TIP3   OH231627   5.745   3.649   6.487
10563TIP3    H131628   5.671   3.685   6.538
10563TIP3    H231629   5.699   3.598   6.416
10564TIP3   OH231630   5.797   2.861   5.505
10564TIP3    H131631   5.724   2.865   5.439
10564TIP3    H231632   5.770   2.935   5.564
10565TIP3   OH231633   5.667   2.533   5.459
10565TIP3    H131634   5.623   2.571   5.382
10565TIP3    H231635   5.643   2.439   5.451
10566TIP3   OH231636   5.665   2.819   6.007
10566TIP3    H131637   5.684   2.727   6.032
10566TIP3    H231638   5.670   2.864   6.094
10567TIP3   OH231639   4.298   2.882   6.752
10567TIP3    H131640   4.297   2.853   6.658
10567TIP3    H231641   4.395   2.884   6.769
10568TIP3   OH231642   5.962   3.235   6.866
10568TIP3    H131643   6.034   3.169   6.853
10568TIP3    H231644   5.980   3.298   6.795
10569TIP3   OH231645   6.147   3.039   6.880
10569TIP3    H131646   6.071   2.989   6.918
10569TIP3    H231647   6.219   2.974   6.895
10570TIP3   OH231648   5.611   2.267   5.444
10570TIP3    H131649   5.685   2.237   5.500
10570TIP3    H231650   5.538   2.208   5.469
10571TIP3   OH231651   5.662   2.517   5.898
10571TIP3    H131652   5.708   2.430   5.910
10571TIP3    H231653   5.724   2.561   5.837
10572TIP3   OH231654   5.831   2.694   6.394
10572TIP3    H131655   5.914   2.724   6.351
10572TIP3    H231656   5.843   2.737   6.481
10573TIP3   OH231657   5.901   2.845   6.626
10573TIP3    H131658   5.822   2.879   6.671
10573TIP3    H231659   5.933   2.925   6.578
10574TIP3   OH231660   4.515   2.568   7.422
10574TIP3    H131661   4.612   2.566   7.428
10574TIP3    H231662   4.493   2.481   7.462
10575TIP3   OH231663   6.352   2.437   7.183
10575TIP3    H131664   6.411   2.371   7.140
10575TIP3    H231665   6.321   2.489   7.106
10576TIP3   OH231666   5.782   2.272   5.936
10576TIP3    H131667   5.828   2.258   6.022
10576TIP3    H231668   5.719   2.197   5.937
10577TIP3   OH231669   4.462   2.258   6.735
10577TIP3    H131670   4.524   2.185   6.757
10577TIP3    H231671   4.523   2.333   6.742
10578TIP3   OH231672   4.280   2.533   6.828
10578TIP3    H131673   4.334   2.542   6.747
10578TIP3    H231674   4.298   2.616   6.873
10579TIP3   OH231675   6.220   2.573   6.988
10579TIP3    H131676   6.133   2.615   7.005
10579TIP3    H231677   6.192   2.501   6.929
10580TIP3   OH231678   5.857   2.210   5.571
10580TIP3    H131679   5.897   2.139   5.518
10580TIP3    H231680   5.925   2.280   5.567
10581TIP3   OH231681   5.421   3.745   5.838
10581TIP3    H131682   5.472   3.730   5.755
10581TIP3    H231683   5.479   3.807   5.885
10582TIP3   OH231684   4.485   2.121   7.144
10582TIP3    H131685   4.435   2.113   7.228
10582TIP3    H231686   4.416   2.156   7.085
10583TIP3   OH231687   4.524   3.547   7.224
10583TIP3    H131688   4.432   3.520   7.207
10583TIP3    H231689   4.534   3.527   7.318
10584TIP3   OH231690   4.702   3.580   6.770
10584TIP3    H131691   4.655   3.656   6.731
10584TIP3    H231692   4.789   3.592   6.726
10585TIP3   OH231693   5.145   3.824   6.909
10585TIP3    H131694   5.188   3.824   6.997
10585TIP3    H231695   5.211   3.874   6.857
10586TIP3   OH231696   5.324   3.976   6.768
10586TIP3    H131697   5.393   3.925   6.724
10586TIP3    H231698   5.378   4.032   6.828
10587TIP3   OH231699   6.120   2.337   6.868
10587TIP3    H131700   6.030   2.330   6.832
10587TIP3    H231701   6.151   2.244   6.857
10588TIP3   OH231702   4.380   3.837   6.794
10588TIP3    H131703   4.290   3.874   6.775
10588TIP3    H231704   4.394   3.873   6.882
10589TIP3   OH231705   4.615   3.814   6.652
10589TIP3    H131706   4.528   3.827   6.696
10589TIP3    H231707   4.596   3.847   6.562
10590TIP3   OH231708   5.039   3.842   6.452
10590TIP3    H131709   4.972   3.863   6.384
10590TIP3    H231710   5.052   3.930   6.494
10591TIP3   OH231711   5.309   3.785   6.507
10591TIP3    H131712   5.216   3.799   6.483
10591TIP3    H231713   5.353   3.857   6.458
10592TIP3   OH231714   5.518   3.975   6.417
10592TIP3    H131715   5.503   4.058   6.368
10592TIP3    H231716   5.544   3.913   6.345
10593TIP3   OH231717   4.289   3.628   6.541
10593TIP3    H131718   4.318   3.603   6.631
10593TIP3    H231719   4.360   3.585   6.489
10594TIP3   OH231720   4.483   3.501   6.398
10594TIP3    H131721   4.499   3.417   6.446
10594TIP3    H231722   4.574   3.538   6.393
10595TIP3   OH231723   4.749   3.595   6.401
10595TIP3    H131724   4.782   3.505   6.387
10595TIP3    H231725   4.796   3.617   6.484
10596TIP3   OH231726   5.321   2.250   6.481
10596TIP3    H131727   5.281   2.179   6.535
10596TIP3    H231728   5.399   2.205   6.442
10597TIP3   OH231729   5.847   2.133   6.393
10597TIP3    H131730   5.883   2.184   6.317
10597TIP3    H231731   5.751   2.152   6.386
10598TIP3   OH231732   5.943   2.231   6.157
10598TIP3    H131733   6.017   2.180   6.116
10598TIP3    H231734   5.976   2.323   6.142
10599TIP3   OH231735   4.565   1.957   6.503
10599TIP3    H131736   4.480   1.908   6.511
10599TIP3    H231737   4.626   1.880   6.499
10600TIP3   OH231738   4.373   1.828   6.151
10600TIP3    H131739   4.411   1.874   6.074
10600TIP3    H231740   4.291   1.877   6.165
10601TIP3   OH231741   5.011   2.002   6.388
10601TIP3    H131742   5.069   2.044   6.323
10601TIP3    H231743   5.052   2.030   6.472
10602TIP3   OH231744   5.561   2.140   6.368
10602TIP3    H131745   5.565   2.101   6.280
10602TIP3    H231746   5.549   2.059   6.424
10603TIP3   OH231747   5.594   2.062   5.930
10603TIP3    H131748   5.507   2.104   5.942
10603TIP3    H231749   5.580   1.977   5.977
10604TIP3   OH231750   4.077   3.401   5.930
10604TIP3    H131751   3.992   3.366   5.896
10604TIP3    H231752   4.066   3.495   5.910
10605TIP3   OH231753   4.477   1.983   5.923
10605TIP3    H131754   4.524   1.923   5.861
10605TIP3    H231755   4.551   2.041   5.952
10606TIP3   OH231756   4.988   2.166   6.013
10606TIP3    H131757   5.049   2.118   6.071
10606TIP3    H231758   5.011   2.258   6.039
10607TIP3   OH231759   4.849   3.590   5.513
10607TIP3    H131760   4.938   3.612   5.478
10607TIP3    H231761   4.827   3.515   5.453
10608TIP3   OH231762   5.568   3.709   5.606
10608TIP3    H131763   5.560   3.611   5.595
10608TIP3    H231764   5.523   3.740   5.525
10609TIP3   OH231765   4.782   2.237   7.389
10609TIP3    H131766   4.746   2.171   7.451
10609TIP3    H231767   4.876   2.239   7.418
10610TIP3   OH231768   5.030   2.235   7.514
10610TIP3    H131769   5.117   2.216   7.475
10610TIP3    H231770   5.023   2.166   7.584
10611TIP3   OH231771   4.155   3.427   5.569
10611TIP3    H131772   4.160   3.443   5.665
10611TIP3    H231773   4.241   3.383   5.551
10612TIP3   OH231774   5.856   2.301   7.300
10612TIP3    H131775   5.875   2.269   7.391
10612TIP3    H231776   5.945   2.295   7.259
10613TIP3   OH231777   5.793   3.852   6.795
10613TIP3    H131778   5.716   3.820   6.744
10613TIP3    H231779   5.773   3.948   6.797
10614TIP3   OH231780   7.062   3.227   5.557
10614TIP3    H131781   7.032   3.317   5.536
10614TIP3    H231782   6.985   3.175   5.526
10615TIP3   OH231783   7.063   3.225   5.940
10615TIP3    H131784   7.093   3.195   6.028
10615TIP3    H231785   7.018   3.146   5.906
10616TIP3   OH231786   6.377   3.118   6.293
10616TIP3    H131787   6.397   3.050   6.360
10616TIP3    H231788   6.452   3.178   6.302
10617TIP3   OH231789   7.306   3.527   5.621
10617TIP3    H131790   7.287   3.457   5.685
10617TIP3    H231791   7.333   3.601   5.679
10618TIP3   OH231792   6.333   3.535   6.031
10618TIP3    H131793   6.324   3.437   6.033
10618TIP3    H231794   6.430   3.541   6.024
10619TIP3   OH231795   6.039   2.737   5.815
10619TIP3    H131796   5.990   2.818   5.841
10619TIP3    H231797   5.967   2.685   5.776
10620TIP3   OH231798   6.116   3.032   5.989
10620TIP3    H131799   6.150   2.949   6.028
10620TIP3    H231800   6.161   3.034   5.904
10621TIP3   OH231801   6.956   3.992   5.639
10621TIP3    H131802   7.000   3.920   5.589
10621TIP3    H231803   6.942   3.949   5.725
10622TIP3   OH231804   6.858   3.452   5.989
10622TIP3    H131805   6.894   3.375   5.942
10622TIP3    H231806   6.943   3.496   6.012
10623TIP3   OH231807   7.871   2.771   5.985
10623TIP3    H131808   7.902   2.853   6.027
10623TIP3    H231809   7.897   2.786   5.892
10624TIP3   OH231810   7.273   2.953   6.020
10624TIP3    H131811   7.314   2.866   6.040
10624TIP3    H231812   7.240   2.937   5.929
10625TIP3   OH231813   6.612   2.611   5.984
10625TIP3    H131814   6.589   2.684   5.923
10625TIP3    H231815   6.563   2.538   5.941
10626TIP3   OH231816   7.304   2.703   5.607
10626TIP3    H131817   7.375   2.687   5.673
10626TIP3    H231818   7.357   2.738   5.533
10627TIP3   OH231819   6.241   2.810   6.094
10627TIP3    H131820   6.324   2.793   6.142
10627TIP3    H231821   6.255   2.756   6.013
10628TIP3   OH231822   6.684   3.012   5.882
10628TIP3    H131823   6.776   2.985   5.899
10628TIP3    H231824   6.644   2.927   5.852
10629TIP3   OH231825   7.947   2.979   6.157
10629TIP3    H131826   7.862   3.025   6.137
10629TIP3    H231827   7.964   3.012   6.246
10630TIP3   OH231828   6.606   2.595   6.421
10630TIP3    H131829   6.547   2.632   6.353
10630TIP3    H231830   6.553   2.613   6.502
10631TIP3   OH231831   6.954   3.448   5.426
10631TIP3    H131832   6.908   3.426   5.344
10631TIP3    H231833   6.908   3.530   5.452
10632TIP3   OH231834   6.715   3.373   6.216
10632TIP3    H131835   6.650   3.437   6.253
10632TIP3    H231836   6.752   3.422   6.141
10633TIP3   OH231837   7.513   2.706   5.780
10633TIP3    H131838   7.501   2.658   5.863
10633TIP3    H231839   7.566   2.783   5.809
10634TIP3   OH231840   6.478   2.709   6.204
10634TIP3    H131841   6.539   2.782   6.228
10634TIP3    H231842   6.527   2.669   6.129
10635TIP3   OH231843   6.541   3.565   6.315
10635TIP3    H131844   6.514   3.650   6.275
10635TIP3    H231845   6.462   3.547   6.369
10636TIP3   OH231846   5.935   3.254   5.548
10636TIP3    H131847   5.892   3.283   5.466
10636TIP3    H231848   5.967   3.338   5.586
10637TIP3   OH231849   7.376   3.772   5.790
10637TIP3    H131850   7.286   3.761   5.830
10637TIP3    H231851   7.364   3.857   5.743
10638TIP3   OH231852   7.665   2.671   6.152
10638TIP3    H131853   7.577   2.698   6.120
10638TIP3    H231854   7.725   2.703   6.081
10639TIP3   OH231855   6.962   2.313   6.135
10639TIP3    H131856   6.946   2.218   6.152
10639TIP3    H231857   6.884   2.352   6.182
10640TIP3   OH231858   7.077   3.817   5.464
10640TIP3    H131859   7.125   3.734   5.444
10640TIP3    H231860   7.139   3.882   5.422
10641TIP3   OH231861   7.219   3.602   5.370
10641TIP3    H131862   7.175   3.524   5.334
10641TIP3    H231863   7.256   3.566   5.454
10642TIP3   OH231864   7.600   3.684   6.131
10642TIP3    H131865   7.587   3.605   6.074
10642TIP3    H231866   7.582   3.757   6.069
10643TIP3   OH231867   6.892   3.077   5.391
10643TIP3    H131868   6.811   3.128   5.371
10643TIP3    H231869   6.936   3.074   5.304
10644TIP3   OH231870   6.850   2.862   5.104
10644TIP3    H131871   6.917   2.913   5.153
10644TIP3    H231872   6.908   2.798   5.058
10645TIP3   OH231873   7.795   3.321   5.978
10645TIP3    H131874   7.711   3.372   5.983
10645TIP3    H231875   7.824   3.344   5.888
10646TIP3   OH231876   7.240   3.160   5.361
10646TIP3    H131877   7.184   3.184   5.438
10646TIP3    H231878   7.323   3.135   5.405
10647TIP3   OH231879   7.474   3.198   6.274
10647TIP3    H131880   7.470   3.282   6.323
10647TIP3    H231881   7.387   3.200   6.229
10648TIP3   OH231882   6.472   3.156   5.776
10648TIP3    H131883   6.430   3.098   5.709
10648TIP3    H231884   6.548   3.102   5.806
10649TIP3   OH231885   6.604   3.573   5.925
10649TIP3    H131886   6.578   3.529   5.842
10649TIP3    H231887   6.692   3.534   5.942
10650TIP3   OH231888   6.629   3.122   6.136
10650TIP3    H131889   6.644   3.107   6.040
10650TIP3    H231890   6.656   3.215   6.148
10651TIP3   OH231891   7.135   3.766   5.910
10651TIP3    H131892   7.120   3.844   5.966
10651TIP3    H231893   7.118   3.692   5.972
10652TIP3   OH231894   6.746   3.685   6.457
10652TIP3    H131895   6.684   3.747   6.502
10652TIP3    H231896   6.681   3.631   6.406
10653TIP3   OH231897   7.080   3.017   5.187
10653TIP3    H131898   7.138   3.078   5.238
10653TIP3    H231899   7.106   3.039   5.095
10654TIP3   OH231900   6.499   3.239   6.559
10654TIP3    H131901   6.503   3.327   6.602
10654TIP3    H231902   6.404   3.218   6.570
10655TIP3   OH231903   6.824   3.694   5.463
10655TIP3    H131904   6.902   3.751   5.478
10655TIP3    H231905   6.762   3.754   5.421
10656TIP3   OH231906   6.540   3.854   6.544
10656TIP3    H131907   6.505   3.852   6.453
10656TIP3    H231908   6.460   3.831   6.597
10657TIP3   OH231909   7.595   2.257   5.236
10657TIP3    H131910   7.513   2.277   5.287
10657TIP3    H231911   7.608   2.341   5.188
10658TIP3   OH231912   6.339   2.999   5.580
10658TIP3    H131913   6.271   3.043   5.526
10658TIP3    H231914   6.296   2.914   5.599
10659TIP3   OH231915   7.394   3.625   4.784
10659TIP3    H131916   7.402   3.722   4.770
10659TIP3    H231917   7.487   3.596   4.772
10660TIP3   OH231918   6.122   3.386   6.490
10660TIP3    H131919   6.056   3.374   6.417
10660TIP3    H231920   6.154   3.294   6.501
10661TIP3   OH231921   5.971   3.598   6.097
10661TIP3    H131922   6.057   3.554   6.110
10661TIP3    H231923   5.967   3.657   6.174
10662TIP3   OH231924   7.835   4.029   6.176
10662TIP3    H131925   7.836   3.932   6.191
10662TIP3    H231926   7.752   4.052   6.224
10663TIP3   OH231927   6.943   3.813   6.315
10663TIP3    H131928   6.940   3.905   6.346
10663TIP3    H231929   6.870   3.773   6.368
10664TIP3   OH231930   6.707   3.943   5.265
10664TIP3    H131931   6.658   3.923   5.183
10664TIP3    H231932   6.671   4.030   5.289
10665TIP3   OH231933   6.142   3.792   5.650
10665TIP3    H131934   6.188   3.782   5.737
10665TIP3    H231935   6.089   3.710   5.648
10666TIP3   OH231936   6.906   3.845   4.905
10666TIP3    H131937   6.965   3.775   4.869
10666TIP3    H231938   6.940   3.854   4.997
10667TIP3   OH231939   6.957   3.892   5.175
10667TIP3    H131940   6.867   3.903   5.214
10667TIP3    H231941   7.003   3.847   5.248
10668TIP3   OH231942   7.725   3.157   6.454
10668TIP3    H131943   7.644   3.169   6.402
10668TIP3    H231944   7.742   3.062   6.443
10669TIP3   OH231945   6.324   3.569   6.480
10669TIP3    H131946   6.373   3.548   6.562
10669TIP3    H231947   6.250   3.504   6.484
10670TIP3   OH231948   6.724   2.390   6.263
10670TIP3    H131949   6.635   2.359   6.235
10670TIP3    H231950   6.697   2.472   6.310
10671TIP3   OH231951   7.256   2.506   6.458
10671TIP3    H131952   7.324   2.474   6.521
10671TIP3    H231953   7.172   2.485   6.504
10672TIP3   OH231954   7.498   2.935   6.378
10672TIP3    H131955   7.445   2.931   6.461
10672TIP3    H231956   7.471   3.021   6.339
10673TIP3   OH231957   7.157   3.063   4.932
10673TIP3    H131958   7.121   3.038   4.845
10673TIP3    H231959   7.238   3.111   4.907
10674TIP3   OH231960   6.869   2.438   5.235
10674TIP3    H131961   6.834   2.434   5.326
10674TIP3    H231962   6.829   2.356   5.199
10675TIP3   OH231963   6.658   2.902   6.285
10675TIP3    H131964   6.603   2.924   6.364
10675TIP3    H231965   6.645   2.983   6.230
10676TIP3   OH231966   6.539   2.792   5.795
10676TIP3    H131967   6.446   2.766   5.814
10676TIP3    H231968   6.550   2.751   5.707
10677TIP3   OH231969   7.030   2.878   5.525
10677TIP3    H131970   6.977   2.949   5.482
10677TIP3    H231971   7.084   2.845   5.450
10678TIP3   OH231972   7.204   3.156   6.611
10678TIP3    H131973   7.181   3.082   6.672
10678TIP3    H231974   7.298   3.167   6.631
10679TIP3   OH231975   7.187   2.906   5.762
10679TIP3    H131976   7.125   2.934   5.692
10679TIP3    H231977   7.221   2.824   5.719
10680TIP3   OH231978   6.478   2.933   6.491
10680TIP3    H131979   6.492   2.999   6.561
10680TIP3    H231980   6.462   2.852   6.542
10681TIP3   OH231981   6.524   2.413   5.200
10681TIP3    H131982   6.515   2.410   5.297
10681TIP3    H231983   6.445   2.465   5.175
10682TIP3   OH231984   6.066   2.454   6.071
10682TIP3    H131985   6.141   2.488   6.125
10682TIP3    H231986   6.109   2.425   5.989
10683TIP3   OH231987   6.038   2.437   5.589
10683TIP3    H131988   6.084   2.475   5.512
10683TIP3    H231989   5.977   2.510   5.611
10684TIP3   OH231990   7.200   3.152   6.185
10684TIP3    H131991   7.231   3.080   6.126
10684TIP3    H231992   7.168   3.098   6.261
10685TIP3   OH231993   6.868   2.614   5.857
10685TIP3    H131994   6.784   2.612   5.907
10685TIP3    H231995   6.934   2.611   5.928
10686TIP3   OH231996   6.301   2.671   5.863
10686TIP3    H131997   6.206   2.681   5.837
10686TIP3    H231998   6.320   2.578   5.841
10687TIP3   OH231999   6.568   2.665   5.554
10687TIP3    H132000   6.662   2.681   5.530
10687TIP3    H232001   6.520   2.687   5.471
10688TIP3   OH232002   7.357   2.689   6.059
10688TIP3    H132003   7.323   2.702   6.151
10688TIP3    H232004   7.291   2.628   6.024
10689TIP3   OH232005   6.413   2.699   5.333
10689TIP3    H132006   6.339   2.655   5.286
10689TIP3    H232007   6.463   2.735   5.257
10690TIP3   OH232008   7.527   4.378   6.280
10690TIP3    H132009   7.523   4.398   6.185
10690TIP3    H232010   7.608   4.425   6.307
10691TIP3   OH232011   6.485   3.489   6.699
10691TIP3    H132012   6.564   3.519   6.748
10691TIP3    H232013   6.420   3.485   6.771
10692TIP3   OH232014   6.948   2.943   5.956
10692TIP3    H132015   7.020   2.901   5.906
10692TIP3    H232016   6.954   2.899   6.043
10693TIP3   OH232017   6.473   2.428   5.835
10693TIP3    H132018   6.436   2.351   5.882
10693TIP3    H232019   6.518   2.386   5.761
10694TIP3   OH232020   6.926   2.840   6.242
10694TIP3    H132021   6.835   2.873   6.256
10694TIP3    H232022   6.981   2.902   6.294
10695TIP3   OH232023   6.663   3.229   5.340
10695TIP3    H132024   6.591   3.163   5.328
10695TIP3    H232025   6.643   3.263   5.431
10696TIP3   OH232026   7.561   3.466   5.968
10696TIP3    H132027   7.584   3.516   5.887
10696TIP3    H232028   7.477   3.422   5.943
10697TIP3   OH232029   7.120   2.541   5.201
10697TIP3    H132030   7.023   2.522   5.211
10697TIP3    H232031   7.127   2.635   5.227
10698TIP3   OH232032   7.069   3.553   6.334
10698TIP3    H132033   7.081   3.523   6.425
10698TIP3    H232034   7.021   3.637   6.344
10699TIP3   OH232035   7.189   2.789   5.306
10699TIP3    H132036   7.285   2.796   5.322
10699TIP3    H232037   7.169   2.870   5.254
10700TIP3   OH232038   6.371   3.264   6.017
10700TIP3    H132039   6.396   3.224   5.932
10700TIP3    H232040   6.378   3.190   6.079
10701TIP3   OH232041   6.807   3.379   5.162
10701TIP3    H132042   6.759   3.465   5.166
10701TIP3    H232043   6.752   3.324   5.222
10702TIP3   OH232044   6.238   3.164   6.625
10702TIP3    H132045   6.243   3.147   6.721
10702TIP3    H232046   6.162   3.108   6.599
10703TIP3   OH232047   6.960   3.287   6.649
10703TIP3    H132048   6.897   3.228   6.603
10703TIP3    H232049   7.046   3.250   6.618
10704TIP3   OH232050   7.222   3.816   6.228
10704TIP3    H132051   7.127   3.805   6.243
10704TIP3    H232052   7.248   3.863   6.310
10705TIP3   OH232053   7.631   2.880   5.140
10705TIP3    H132054   7.569   2.836   5.078
10705TIP3    H232055   7.627   2.969   5.101
10706TIP3   OH232056   7.850   3.740   6.219
10706TIP3    H132057   7.752   3.732   6.212
10706TIP3    H232058   7.876   3.708   6.130
10707TIP3   OH232059   7.337   3.698   5.051
10707TIP3    H132060   7.304   3.629   5.111
10707TIP3    H232061   7.344   3.651   4.966
10708TIP3   OH232062   7.328   3.328   5.886
10708TIP3    H132063   7.234   3.302   5.900
10708TIP3    H232064   7.361   3.248   5.841
10709TIP3   OH232065   6.455   3.556   5.639
10709TIP3    H132066   6.451   3.637   5.585
10709TIP3    H232067   6.362   3.536   5.652
10710TIP3   OH232068   6.020   2.859   5.344
10710TIP3    H132069   6.064   2.944   5.365
10710TIP3    H232070   5.943   2.863   5.405
10711TIP3   OH232071   6.594   3.322   5.584
10711TIP3    H132072   6.558   3.410   5.603
10711TIP3    H232073   6.557   3.270   5.657
10712TIP3   OH232074   6.724   3.900   6.110
10712TIP3    H132075   6.767   3.971   6.058
10712TIP3    H232076   6.801   3.862   6.156
10713TIP3   OH232077   6.374   3.794   5.492
10713TIP3    H132078   6.288   3.802   5.539
10713TIP3    H232079   6.405   3.887   5.494
10714TIP3   OH232080   7.113   3.533   6.066
10714TIP3    H132081   7.104   3.532   6.164
10714TIP3    H232082   7.190   3.475   6.054
10715TIP3   OH232083   7.088   3.427   4.949
10715TIP3    H132084   7.140   3.401   5.029
10715TIP3    H232085   6.999   3.399   4.976
10716TIP3   OH232086   7.361   4.067   6.120
10716TIP3    H132087   7.284   4.008   6.116
10716TIP3    H232088   7.342   4.129   6.046
10717TIP3   OH232089   7.427   3.900   4.769
10717TIP3    H132090   7.460   3.972   4.713
10717TIP3    H232091   7.347   3.944   4.805
10718TIP3   OH232092   6.444   2.677   6.636
10718TIP3    H132093   6.347   2.680   6.646
10718TIP3    H232094   6.469   2.616   6.707
10719TIP3   OH232095   7.248   3.360   5.166
10719TIP3    H132096   7.237   3.295   5.238
10719TIP3    H232097   7.346   3.356   5.154
10720TIP3   OH232098   6.161   3.763   6.270
10720TIP3    H132099   6.211   3.683   6.293
10720TIP3    H232100   6.196   3.826   6.335
10721TIP3   OH232101   6.455   3.406   4.950
10721TIP3    H132102   6.466   3.313   4.922
10721TIP3    H232103   6.434   3.395   5.045
10722TIP3   OH232104   6.399   3.412   5.221
10722TIP3    H132105   6.469   3.384   5.282
10722TIP3    H232106   6.402   3.510   5.229
10723TIP3   OH232107   6.134   3.105   5.426
10723TIP3    H132108   6.067   3.148   5.483
10723TIP3    H232109   6.146   3.174   5.358
10724TIP3   OH232110   7.284   2.743   6.319
10724TIP3    H132111   7.366   2.777   6.358
10724TIP3    H232112   7.269   2.661   6.372
10725TIP3   OH232113   7.166   2.491   5.484
10725TIP3    H132114   7.150   2.514   5.390
10725TIP3    H232115   7.203   2.574   5.520
10726TIP3   OH232116   6.666   3.610   5.172
10726TIP3    H132117   6.579   3.634   5.208
10726TIP3    H232118   6.678   3.680   5.106
10727TIP3   OH232119   6.854   2.672   5.585
10727TIP3    H132120   6.917   2.746   5.569
10727TIP3    H232121   6.857   2.665   5.683
10728TIP3   OH232122   7.122   2.991   6.391
10728TIP3    H132123   7.143   3.043   6.471
10728TIP3    H232124   7.175   2.910   6.403
10729TIP3   OH232125   6.996   2.399   5.688
10729TIP3    H132126   6.987   2.477   5.745
10729TIP3    H232127   7.057   2.433   5.619
10730TIP3   OH232128   6.410   3.684   5.239
10730TIP3    H132129   6.379   3.753   5.177
10730TIP3    H232130   6.392   3.727   5.326
10731TIP3   OH232131   6.509   2.398   5.476
10731TIP3    H132132   6.506   2.488   5.514
10731TIP3    H232133   6.605   2.380   5.484
10732TIP3   OH232134   7.765   2.890   6.376
10732TIP3    H132135   7.667   2.889   6.383
10732TIP3    H232136   7.776   2.849   6.289
10733TIP3   OH232137   7.413   3.086   5.761
10733TIP3    H132138   7.337   3.027   5.773
10733TIP3    H232139   7.484   3.038   5.809
10734TIP3   OH232140   6.125   3.312   5.231
10734TIP3    H132141   6.191   3.384   5.239
10734TIP3    H232142   6.171   3.257   5.164
10735TIP3   OH232143   6.071   2.590   5.363
10735TIP3    H132144   6.070   2.688   5.361
10735TIP3    H232145   5.985   2.569   5.324
10736TIP3   OH232146   7.381   4.045   5.711
10736TIP3    H132147   7.337   4.092   5.637
10736TIP3    H232148   7.475   4.063   5.688
10737TIP3   OH232149   6.460   2.309   6.237
10737TIP3    H132150   6.428   2.276   6.150
10737TIP3    H232151   6.448   2.231   6.295
10738TIP3   OH232152   5.999   3.532   5.616
10738TIP3    H132153   5.933   3.558   5.681
10738TIP3    H232154   5.963   3.572   5.534
10739TIP3   OH232155   6.153   4.070   6.690
10739TIP3    H132156   6.240   4.067   6.735
10739TIP3    H232157   6.130   3.976   6.687
10740TIP3   OH232158   6.636   4.034   6.734
10740TIP3    H132159   6.730   4.011   6.739
10740TIP3    H232160   6.607   3.975   6.662
10741TIP3   OH232161   6.617   3.610   4.863
10741TIP3    H132162   6.560   3.538   4.900
10741TIP3    H232163   6.691   3.557   4.828
10742TIP3   OH232164   7.274   3.942   6.469
10742TIP3    H132165   7.265   3.871   6.537
10742TIP3    H232166   7.351   3.991   6.500
10743TIP3   OH232167   7.053   3.651   4.775
10743TIP3    H132168   7.094   3.584   4.833
10743TIP3    H232169   7.109   3.647   4.695
10744TIP3   OH232170   6.283   3.476   6.890
10744TIP3    H132171   6.300   3.380   6.893
10744TIP3    H232172   6.196   3.479   6.844
10745TIP3   OH232173   6.261   3.127   5.083
10745TIP3    H132174   6.316   3.095   5.157
10745TIP3    H232175   6.329   3.132   5.012
10746TIP3   OH232176   6.891   3.562   6.664
10746TIP3    H132177   6.848   3.579   6.578
10746TIP3    H232178   6.920   3.469   6.655
10747TIP3   OH232179   6.776   3.327   4.892
10747TIP3    H132180   6.775   3.338   4.989
10747TIP3    H232181   6.774   3.229   4.885
10748TIP3   OH232182   7.386   3.570   6.273
10748TIP3    H132183   7.458   3.617   6.227
10748TIP3    H232184   7.311   3.630   6.257
10749TIP3   OH232185   6.404   3.216   6.875
10749TIP3    H132186   6.475   3.157   6.849
10749TIP3    H232187   6.433   3.246   6.964
10750TIP3   OH232188   6.471   3.032   5.307
10750TIP3    H132189   6.440   2.991   5.390
10750TIP3    H232190   6.505   2.954   5.258
10751TIP3   OH232191   6.743   3.101   6.540
10751TIP3    H132192   6.660   3.153   6.537
10751TIP3    H232193   6.789   3.132   6.459
10752TIP3   OH232194   6.570   2.825   5.146
10752TIP3    H132195   6.544   2.830   5.051
10752TIP3    H232196   6.667   2.829   5.138
10753TIP3   OH232197   7.258   3.500   6.670
10753TIP3    H132198   7.333   3.469   6.617
10753TIP3    H232199   7.250   3.430   6.737
10754TIP3   OH232200   7.393   3.155   4.809
10754TIP3    H132201   7.371   3.110   4.726
10754TIP3    H232202   7.359   3.245   4.788
10755TIP3   OH232203   6.864   2.885   6.658
10755TIP3    H132204   6.861   2.805   6.602
10755TIP3    H232205   6.818   2.951   6.602
10756TIP3   OH232206   6.864   2.671   6.468
10756TIP3    H132207   6.891   2.711   6.383
10756TIP3    H232208   6.770   2.648   6.450
10757TIP3   OH232209   6.893   3.209   6.344
10757TIP3    H132210   6.973   3.214   6.290
10757TIP3    H232211   6.833   3.271   6.297
10758TIP3   OH232212   7.475   3.171   6.724
10758TIP3    H132213   7.521   3.086   6.726
10758TIP3    H232214   7.543   3.229   6.684
10759TIP3   OH232215   7.515   3.427   6.461
10759TIP3    H132216   7.457   3.479   6.401
10759TIP3    H232217   7.602   3.446   6.420
10760TIP3   OH232218   6.743   2.993   6.893
10760TIP3    H132219   6.673   2.925   6.907
10760TIP3    H232220   6.773   2.971   6.803
10761TIP3   OH232221   6.996   2.434   6.535
10761TIP3    H132222   6.946   2.515   6.512
10761TIP3    H232223   6.928   2.365   6.524
10762TIP3   OH232224   7.122   2.937   6.751
10762TIP3    H132225   7.105   2.923   6.846
10762TIP3    H232226   7.033   2.913   6.716
10763TIP3   OH232227   7.361   2.891   6.607
10763TIP3    H132228   7.285   2.889   6.668
10763TIP3    H232229   7.435   2.859   6.663
10764TIP3   OH232230   7.593   2.836   6.755
10764TIP3    H132231   7.603   2.739   6.766
10764TIP3    H232232   7.588   2.867   6.848
10765TIP3   OH232233   6.580   2.775   6.944
10765TIP3    H132234   6.582   2.684   6.909
10765TIP3    H232235   6.616   2.761   7.034
10766TIP3   OH232236   7.091   2.443   6.793
10766TIP3    H132237   7.157   2.371   6.786
10766TIP3    H232238   7.050   2.439   6.704
10767TIP3   OH232239   7.157   2.659   6.950
10767TIP3    H132240   7.136   2.587   6.886
10767TIP3    H232241   7.079   2.717   6.943
10768TIP3   OH232242   6.378   3.888   5.053
10768TIP3    H132243   6.473   3.883   5.031
10768TIP3    H232244   6.347   3.936   4.974
10769TIP3   OH232245   5.856   3.270   5.265
10769TIP3    H132246   5.951   3.291   5.252
10769TIP3    H232247   5.851   3.180   5.225
10770TIP3   OH232248   5.772   3.881   5.683
10770TIP3    H132249   5.706   3.819   5.645
10770TIP3    H232250   5.817   3.823   5.748
10771TIP3   OH232251   5.907   3.732   5.867
10771TIP3    H132252   5.903   3.659   5.933
10771TIP3    H232253   5.958   3.795   5.921
10772TIP3   OH232254   7.635   4.135   5.668
10772TIP3    H132255   7.665   4.161   5.756
10772TIP3    H232256   7.704   4.171   5.610
10773TIP3   OH232257   7.669   4.153   5.950
10773TIP3    H132258   7.618   4.069   5.944
10773TIP3    H232259   7.739   4.124   6.010
10774TIP3   OH232260   7.710   3.829   6.523
10774TIP3    H132261   7.638   3.838   6.588
10774TIP3    H232262   7.752   3.918   6.528
10775TIP3   OH232263   7.528   3.341   5.143
10775TIP3    H132264   7.595   3.406   5.114
10775TIP3    H232265   7.571   3.303   5.223
10776TIP3   OH232266   7.655   3.210   5.348
10776TIP3    H132267   7.588   3.167   5.405
10776TIP3    H232268   7.718   3.247   5.413
10777TIP3   OH232269   7.711   3.603   5.780
10777TIP3    H132270   7.763   3.535   5.732
10777TIP3    H232271   7.701   3.673   5.712
10778TIP3   OH232272   7.540   3.906   5.972
10778TIP3    H132273   7.467   3.943   6.025
10778TIP3    H232274   7.491   3.857   5.902
10779TIP3   OH232275   7.593   3.118   4.992
10779TIP3    H132276   7.522   3.119   4.925
10779TIP3    H232277   7.564   3.193   5.048
10780TIP3   OH232278   7.466   2.790   4.945
10780TIP3    H132279   7.418   2.827   4.870
10780TIP3    H232280   7.441   2.695   4.938
10781TIP3   OH232281   7.469   3.067   5.493
10781TIP3    H132282   7.475   2.970   5.486
10781TIP3    H232283   7.454   3.080   5.589
10782TIP3   OH232284   6.107   3.122   6.258
10782TIP3    H132285   6.081   3.110   6.164
10782TIP3    H232286   6.205   3.131   6.250
10783TIP3   OH232287   7.758   3.492   6.351
10783TIP3    H132288   7.829   3.425   6.342
10783TIP3    H232289   7.784   3.559   6.285
10784TIP3   OH232290   7.941   3.296   6.367
10784TIP3    H132291   7.867   3.244   6.405
10784TIP3    H232292   8.015   3.233   6.380
10785TIP3   OH232293   7.406   2.524   4.932
10785TIP3    H132294   7.479   2.492   4.989
10785TIP3    H232295   7.332   2.466   4.955
10786TIP3   OH232296   7.465   2.783   5.387
10786TIP3    H132297   7.505   2.694   5.403
10786TIP3    H232298   7.524   2.814   5.316
10787TIP3   OH232299   7.625   2.956   5.883
10787TIP3    H132300   7.711   2.981   5.842
10787TIP3    H232301   7.640   2.992   5.972
10788TIP3   OH232302   7.697   3.100   6.115
10788TIP3    H132303   7.618   3.134   6.162
10788TIP3    H232304   7.729   3.181   6.069
10789TIP3   OH232305   6.313   2.827   6.919
10789TIP3    H132306   6.410   2.819   6.917
10789TIP3    H232307   6.288   2.740   6.955
10790TIP3   OH232308   8.179   2.694   6.659
10790TIP3    H132309   8.193   2.609   6.612
10790TIP3    H232310   8.128   2.744   6.592
10791TIP3   OH232311   7.574   2.533   5.424
10791TIP3    H132312   7.622   2.517   5.508
10791TIP3    H232313   7.512   2.456   5.424
10792TIP3   OH232314   6.274   2.516   6.242
10792TIP3    H132315   6.338   2.443   6.252
10792TIP3    H232316   6.334   2.593   6.238
10793TIP3   OH232317   6.079   2.791   6.323
10793TIP3    H132318   6.126   2.788   6.237
10793TIP3    H232319   6.081   2.886   6.341
10794TIP3   OH232320   8.013   2.823   6.486
10794TIP3    H132321   7.928   2.870   6.494
10794TIP3    H232322   7.988   2.756   6.420
10795TIP3   OH232323   7.654   2.466   5.059
10795TIP3    H132324   7.693   2.395   5.004
10795TIP3    H232325   7.721   2.536   5.054
10796TIP3   OH232326   6.060   2.294   5.817
10796TIP3    H132327   5.968   2.291   5.846
10796TIP3    H232328   6.056   2.354   5.740
10797TIP3   OH232329   7.223   4.000   5.327
10797TIP3    H132330   7.269   3.984   5.241
10797TIP3    H232331   7.278   4.068   5.366
10798TIP3   OH232332   6.281   2.376   6.634
10798TIP3    H132333   6.228   2.371   6.715
10798TIP3    H232334   6.216   2.415   6.572
10799TIP3   OH232335   6.320   3.807   6.711
10799TIP3    H132336   6.229   3.777   6.690
10799TIP3    H232337   6.327   3.781   6.804
10800TIP3   OH232338   6.498   3.838   6.260
10800TIP3    H132339   6.449   3.911   6.219
10800TIP3    H232340   6.584   3.851   6.214
10801TIP3   OH232341   6.942   4.080   6.396
10801TIP3    H132342   6.985   4.080   6.484
10801TIP3    H232343   7.008   4.131   6.344
10802TIP3   OH232344   7.120   4.233   6.255
10802TIP3    H132345   7.190   4.180   6.213
10802TIP3    H232346   7.174   4.288   6.316
10803TIP3   OH232347   7.915   2.592   6.355
10803TIP3    H132348   7.825   2.582   6.320
10803TIP3    H232349   7.950   2.501   6.344
10804TIP3   OH232350   6.176   4.098   6.279
10804TIP3    H132351   6.086   4.130   6.255
10804TIP3    H232352   6.179   4.125   6.371
10805TIP3   OH232353   6.412   4.074   6.140
10805TIP3    H132354   6.325   4.086   6.184
10805TIP3    H232355   6.392   4.103   6.049
10806TIP3   OH232356   6.837   4.099   5.937
10806TIP3    H132357   6.766   4.116   5.872
10806TIP3    H232358   6.847   4.188   5.978
10807TIP3   OH232359   7.105   4.041   5.990
10807TIP3    H132360   7.010   4.054   5.970
10807TIP3    H232361   7.145   4.116   5.943
10808TIP3   OH232362   7.320   4.234   5.904
10808TIP3    H132363   7.300   4.316   5.854
10808TIP3    H232364   7.341   4.171   5.832
10809TIP3   OH232365   6.086   3.889   6.028
10809TIP3    H132366   6.111   3.857   6.118
10809TIP3    H232367   6.154   3.842   5.976
10810TIP3   OH232368   6.278   3.759   5.884
10810TIP3    H132369   6.292   3.675   5.935
10810TIP3    H232370   6.370   3.792   5.879
10811TIP3   OH232371   6.548   3.853   5.886
10811TIP3    H132372   6.577   3.760   5.873
10811TIP3    H232373   6.592   3.872   5.971
10812TIP3   OH232374   7.123   2.509   5.976
10812TIP3    H132375   7.078   2.439   6.027
10812TIP3    H232376   7.194   2.460   5.930
10813TIP3   OH232377   7.644   2.389   5.877
10813TIP3    H132378   7.680   2.442   5.802
10813TIP3    H232379   7.548   2.407   5.870
10814TIP3   OH232380   7.739   2.490   5.641
10814TIP3    H132381   7.814   2.438   5.603
10814TIP3    H232382   7.773   2.581   5.627
10815TIP3   OH232383   6.370   2.217   5.989
10815TIP3    H132384   6.277   2.185   5.991
10815TIP3    H232385   6.418   2.131   5.985
10816TIP3   OH232386   6.157   2.088   5.638
10816TIP3    H132387   6.186   2.145   5.565
10816TIP3    H232388   6.129   2.153   5.706
10817TIP3   OH232389   6.815   2.248   5.870
10817TIP3    H132390   6.873   2.298   5.810
10817TIP3    H232391   6.834   2.288   5.955
10818TIP3   OH232392   7.361   2.396   5.853
10818TIP3    H132393   7.358   2.357   5.765
10818TIP3    H232394   7.348   2.317   5.910
10819TIP3   OH232395   7.390   2.319   5.417
10819TIP3    H132396   7.304   2.362   5.430
10819TIP3    H232397   7.376   2.234   5.463
10820TIP3   OH232398   5.873   3.659   5.415
10820TIP3    H132399   5.788   3.626   5.382
10820TIP3    H232400   5.863   3.753   5.393
10821TIP3   OH232401   6.274   2.246   5.400
10821TIP3    H132402   6.322   2.183   5.343
10821TIP3    H232403   6.347   2.300   5.436
10822TIP3   OH232404   6.786   2.423   5.499
10822TIP3    H132405   6.844   2.374   5.560
10822TIP3    H232406   6.808   2.515   5.525
10823TIP3   OH232407   6.646   3.846   4.999
10823TIP3    H132408   6.734   3.869   4.962
10823TIP3    H232409   6.623   3.772   4.939
10824TIP3   OH232410   7.366   3.965   5.093
10824TIP3    H132411   7.359   3.867   5.081
10824TIP3    H232412   7.318   3.996   5.013
10825TIP3   OH232413   6.577   2.500   6.883
10825TIP3    H132414   6.542   2.428   6.938
10825TIP3    H232415   6.671   2.499   6.910
10826TIP3   OH232416   6.828   2.496   7.001
10826TIP3    H132417   6.911   2.468   6.960
10826TIP3    H232418   6.815   2.425   7.068
10827TIP3   OH232419   5.950   3.682   5.055
10827TIP3    H132420   5.950   3.707   5.148
10827TIP3    H232421   6.038   3.641   5.043
10828TIP3   OH232422   7.646   2.566   6.771
10828TIP3    H132423   7.657   2.531   6.863
10828TIP3    H232424   7.737   2.558   6.736
10829TIP3   OH232425   7.590   4.109   6.279
10829TIP3    H132426   7.512   4.076   6.231
10829TIP3    H232427   7.567   4.204   6.287
10830TIP3   OH232428   8.154   3.375   5.791
10830TIP3    H132429   8.180   3.305   5.855
10830TIP3    H232430   8.232   3.432   5.795
10831TIP3   OH232431   8.124   3.789   5.518
10831TIP3    H132432   8.116   3.691   5.519
10831TIP3    H232433   8.221   3.798   5.513
10832TIP3   OH232434   7.833   2.991   5.299
10832TIP3    H132435   7.783   3.072   5.317
10832TIP3    H232436   7.763   2.934   5.262
10833TIP3   OH232437   7.894   3.277   5.476
10833TIP3    H132438   7.941   3.198   5.512
10833TIP3    H232439   7.950   3.301   5.401
10834TIP3   OH232440   8.758   4.206   5.104
10834TIP3    H132441   8.854   4.183   5.106
10834TIP3    H232442   8.741   4.219   5.199
10835TIP3   OH232443   8.659   3.698   5.475
10835TIP3    H132444   8.667   3.657   5.388
10835TIP3    H232445   8.741   3.750   5.482
10836TIP3   OH232446   8.380   2.869   5.484
10836TIP3    H132447   8.394   2.935   5.415
10836TIP3    H232448   8.346   2.794   5.432
10837TIP3   OH232449   8.040   3.070   5.578
10837TIP3    H132450   8.120   3.050   5.629
10837TIP3    H232451   8.056   3.014   5.499
10838TIP3   OH232452   8.466   3.271   5.369
10838TIP3    H132453   8.557   3.237   5.382
10838TIP3    H232454   8.422   3.188   5.340
10839TIP3   OH232455   8.404   2.860   5.916
10839TIP3    H132456   8.346   2.891   5.844
10839TIP3    H232457   8.347   2.879   5.993
10840TIP3   OH232458   8.513   3.625   5.709
10840TIP3    H132459   8.447   3.687   5.748
10840TIP3    H232460   8.553   3.679   5.639
10841TIP3   OH232461   8.266   2.970   5.703
10841TIP3    H132462   8.332   3.040   5.723
10841TIP3    H232463   8.310   2.928   5.625
10842TIP3   OH232464   8.337   3.819   5.800
10842TIP3    H132465   8.310   3.906   5.763
10842TIP3    H232466   8.258   3.801   5.856
10843TIP3   OH232467   7.731   3.511   5.035
10843TIP3    H132468   7.687   3.538   4.952
10843TIP3    H232469   7.761   3.597   5.071
10844TIP3   OH232470   8.259   3.416   5.262
10844TIP3    H132471   8.221   3.357   5.194
10844TIP3    H232472   8.336   3.363   5.293
10845TIP3   OH232473   8.392   3.829   5.411
10845TIP3    H132474   8.367   3.790   5.326
10845TIP3    H232475   8.477   3.787   5.431
10846TIP3   OH232476   8.404   3.386   5.617
10846TIP3    H132477   8.432   3.361   5.527
10846TIP3    H232478   8.446   3.473   5.633
10847TIP3   OH232479   8.539   3.941   5.949
10847TIP3    H132480   8.477   4.004   5.993
10847TIP3    H232481   8.475   3.886   5.899
10848TIP3   OH232482   8.294   3.505   6.040
10848TIP3    H132483   8.297   3.589   6.091
10848TIP3    H232484   8.202   3.478   6.058
10849TIP3   OH232485   8.626   3.990   4.975
10849TIP3    H132486   8.657   4.075   5.009
10849TIP3    H232487   8.563   4.016   4.906
10850TIP3   OH232488   8.334   4.111   6.031
10850TIP3    H132489   8.299   4.108   5.940
10850TIP3    H232490   8.254   4.089   6.084
10851TIP3   OH232491   8.136   3.255   5.062
10851TIP3    H132492   8.065   3.298   5.010
10851TIP3    H232493   8.094   3.172   5.087
10852TIP3   OH232494   7.916   3.642   5.976
10852TIP3    H132495   7.849   3.618   5.909
10852TIP3    H232496   7.953   3.554   6.002
10853TIP3   OH232497   7.769   3.835   5.605
10853TIP3    H132498   7.865   3.824   5.599
10853TIP3    H232499   7.761   3.910   5.665
10854TIP3   OH232500   8.725   4.061   5.788
10854TIP3    H132501   8.730   4.151   5.826
10854TIP3    H232502   8.659   4.019   5.848
10855TIP3   OH232503   8.503   4.197   4.751
10855TIP3    H132504   8.456   4.180   4.667
10855TIP3    H232505   8.469   4.285   4.776
10856TIP3   OH232506   7.938   4.048   5.136
10856TIP3    H132507   7.984   4.038   5.223
10856TIP3    H232508   7.884   3.967   5.135
10857TIP3   OH232509   8.769   4.160   4.684
10857TIP3    H132510   8.676   4.174   4.712
10857TIP3    H232511   8.783   4.067   4.711
10858TIP3   OH232512   8.120   3.824   5.966
10858TIP3    H132513   8.170   3.805   6.048
10858TIP3    H232514   8.047   3.760   5.972
10859TIP3   OH232515   8.506   2.633   5.772
10859TIP3    H132516   8.418   2.612   5.736
10859TIP3    H232517   8.492   2.725   5.801
10860TIP3   OH232518   8.444   3.167   5.771
10860TIP3    H132519   8.393   3.187   5.852
10860TIP3    H232520   8.426   3.248   5.717
10861TIP3   OH232521   8.334   3.050   5.277
10861TIP3    H132522   8.245   3.017   5.303
10861TIP3    H232523   8.346   3.004   5.191
10862TIP3   OH232524   8.260   3.191   5.980
10862TIP3    H132525   8.309   3.245   6.045
10862TIP3    H232526   8.252   3.106   6.028
10863TIP3   OH232527   8.307   2.632   4.676
10863TIP3    H132528   8.294   2.647   4.771
10863TIP3    H232529   8.246   2.697   4.638
10864TIP3   OH232530   7.864   2.713   5.555
10864TIP3    H132531   7.937   2.745   5.612
10864TIP3    H232532   7.908   2.677   5.478
10865TIP3   OH232533   7.834   2.694   5.076
10865TIP3    H132534   7.880   2.733   4.998
10865TIP3    H232535   7.772   2.767   5.097
10866TIP3   OH232536   8.096   2.929   5.347
10866TIP3    H132537   8.001   2.934   5.322
10866TIP3    H232538   8.119   2.836   5.333
10867TIP3   OH232539   8.374   2.924   5.034
10867TIP3    H132540   8.457   2.940   4.988
10867TIP3    H232541   8.308   2.940   4.962
10868TIP3   OH232542   8.207   2.948   4.826
10868TIP3    H132543   8.131   2.905   4.782
10868TIP3    H232544   8.255   2.983   4.748
10869TIP3   OH232545   8.282   3.749   6.186
10869TIP3    H132546   8.362   3.775   6.236
10869TIP3    H232547   8.217   3.742   6.260
10870TIP3   OH232548   8.259   2.685   5.317
10870TIP3    H132549   8.226   2.612   5.374
10870TIP3    H232550   8.311   2.636   5.253
10871TIP3   OH232551   8.712   3.093   5.784
10871TIP3    H132552   8.621   3.119   5.759
10871TIP3    H232553   8.761   3.177   5.779
10872TIP3   OH232554   8.439   3.501   4.826
10872TIP3    H132555   8.382   3.422   4.824
10872TIP3    H232556   8.441   3.523   4.922
10873TIP3   OH232557   8.814   3.773   5.856
10873TIP3    H132558   8.853   3.760   5.943
10873TIP3    H232559   8.807   3.869   5.849
10874TIP3   OH232560   8.154   3.514   5.503
10874TIP3    H132561   8.186   3.480   5.417
10874TIP3    H232562   8.186   3.448   5.565
10875TIP3   OH232563   8.566   3.628   4.620
10875TIP3    H132564   8.540   3.719   4.646
10875TIP3    H232565   8.538   3.579   4.700
10876TIP3   OH232566   8.032   3.432   6.116
10876TIP3    H132567   8.058   3.415   6.209
10876TIP3    H232568   7.966   3.362   6.101
10877TIP3   OH232569   8.761   3.546   6.134
10877TIP3    H132570   8.712   3.495   6.068
10877TIP3    H232571   8.851   3.508   6.127
10878TIP3   OH232572   8.252   3.812   5.129
10878TIP3    H132573   8.251   3.892   5.073
10878TIP3    H232574   8.157   3.793   5.135
10879TIP3   OH232575   7.816   3.116   4.832
10879TIP3    H132576   7.859   3.201   4.853
10879TIP3    H232577   7.738   3.120   4.891
10880TIP3   OH232578   8.400   3.580   5.086
10880TIP3    H132579   8.358   3.667   5.094
10880TIP3    H232580   8.350   3.528   5.151
10881TIP3   OH232581   8.519   4.152   5.596
10881TIP3    H132582   8.556   4.229   5.548
10881TIP3    H232583   8.596   4.122   5.647
10882TIP3   OH232584   8.171   4.051   4.979
10882TIP3    H132585   8.085   4.060   5.025
10882TIP3    H232586   8.203   4.144   4.981
10883TIP3   OH232587   8.236   2.938   6.122
10883TIP3    H132588   8.139   2.940   6.133
10883TIP3    H232589   8.262   2.876   6.192
10884TIP3   OH232590   7.960   4.019   5.755
10884TIP3    H132591   8.009   3.940   5.781
10884TIP3    H232592   7.990   4.081   5.823
10885TIP3   OH232593   8.247   3.663   4.437
10885TIP3    H132594   8.258   3.570   4.411
10885TIP3    H232595   8.231   3.654   4.534
10886TIP3   OH232596   8.198   3.666   4.708
10886TIP3    H132597   8.277   3.637   4.757
10886TIP3    H232598   8.202   3.764   4.720
10887TIP3   OH232599   7.930   3.362   4.913
10887TIP3    H132600   7.862   3.406   4.970
10887TIP3    H232601   7.942   3.432   4.845
10888TIP3   OH232602   8.461   3.875   4.663
10888TIP3    H132603   8.372   3.899   4.694
10888TIP3    H232604   8.483   3.954   4.610
10889TIP3   OH232605   8.202   3.941   4.725
10889TIP3    H132606   8.168   4.011   4.663
10889TIP3    H232607   8.187   3.984   4.812
10890TIP3   OH232608   8.309   2.659   4.958
10890TIP3    H132609   8.292   2.742   5.007
10890TIP3    H232610   8.395   2.680   4.919
10891TIP3   OH232611   7.923   3.568   4.718
10891TIP3    H132612   7.989   3.639   4.729
10891TIP3    H232613   7.969   3.516   4.648
10892TIP3   OH232614   7.870   2.847   4.850
10892TIP3    H132615   7.864   2.945   4.848
10892TIP3    H232616   7.786   2.822   4.809
10893TIP3   OH232617   8.239   2.569   5.725
10893TIP3    H132618   8.223   2.531   5.636
10893TIP3    H232619   8.237   2.490   5.782
10894TIP3   OH232620   7.794   3.788   5.104
10894TIP3    H132621   7.723   3.815   5.164
10894TIP3    H232622   7.762   3.828   5.019
10895TIP3   OH232623   7.951   4.329   6.176
10895TIP3    H132624   8.037   4.326   6.225
10895TIP3    H232625   7.928   4.235   6.175
10896TIP3   OH232626   8.429   4.293   6.218
10896TIP3    H132627   8.522   4.269   6.230
10896TIP3    H232628   8.403   4.232   6.146
10897TIP3   OH232629   8.409   3.864   4.349
10897TIP3    H132630   8.346   3.797   4.385
10897TIP3    H232631   8.493   3.820   4.370
10898TIP3   OH232632   8.080   3.735   6.376
10898TIP3    H132633   8.096   3.641   6.392
10898TIP3    H232634   7.993   3.734   6.331
10899TIP3   OH232635   8.064   3.384   4.566
10899TIP3    H132636   8.113   3.354   4.644
10899TIP3    H232637   8.136   3.390   4.500
10900TIP3   OH232638   8.702   3.822   6.148
10900TIP3    H132639   8.652   3.834   6.065
10900TIP3    H232640   8.718   3.724   6.148
10901TIP3   OH232641   8.574   3.576   4.358
10901TIP3    H132642   8.588   3.605   4.451
10901TIP3    H232643   8.513   3.503   4.374
10902TIP3   OH232644   8.211   3.458   6.351
10902TIP3    H132645   8.294   3.410   6.334
10902TIP3    H232646   8.229   3.494   6.440
10903TIP3   OH232647   8.263   3.285   4.797
10903TIP3    H132648   8.231   3.252   4.882
10903TIP3    H232649   8.291   3.203   4.751
10904TIP3   OH232650   8.507   3.330   6.039
10904TIP3    H132651   8.439   3.400   6.046
10904TIP3    H232652   8.566   3.369   5.971
10905TIP3   OH232653   8.353   3.076   4.632
10905TIP3    H132654   8.323   3.071   4.539
10905TIP3    H232655   8.448   3.086   4.621
10906TIP3   OH232656   8.660   3.135   6.155
10906TIP3    H132657   8.663   3.053   6.101
10906TIP3    H232658   8.604   3.193   6.100
10907TIP3   OH232659   8.668   2.913   5.978
10907TIP3    H132660   8.678   2.967   5.897
10907TIP3    H232661   8.578   2.876   5.963
10908TIP3   OH232662   8.664   3.457   5.865
10908TIP3    H132663   8.733   3.445   5.798
10908TIP3    H232664   8.607   3.523   5.821
10909TIP3   OH232665   8.462   3.280   6.334
10909TIP3    H132666   8.427   3.193   6.363
10909TIP3    H232667   8.523   3.255   6.263
10910TIP3   OH232668   8.370   3.037   6.417
10910TIP3    H132669   8.372   2.941   6.395
10910TIP3    H232670   8.412   3.034   6.506
10911TIP3   OH232671   8.164   4.146   4.538
10911TIP3    H132672   8.261   4.142   4.525
10911TIP3    H232673   8.139   4.196   4.459
10912TIP3   OH232674   7.653   3.526   4.754
10912TIP3    H132675   7.748   3.546   4.739
10912TIP3    H232676   7.646   3.437   4.713
10913TIP3   OH232677   7.569   4.138   5.168
10913TIP3    H132678   7.502   4.077   5.130
10913TIP3    H232679   7.613   4.079   5.233
10914TIP3   OH232680   7.704   3.988   5.355
10914TIP3    H132681   7.691   3.914   5.417
10914TIP3    H232682   7.755   4.049   5.412
10915TIP3   OH232683   7.890   3.398   5.726
10915TIP3    H132684   7.888   3.364   5.634
10915TIP3    H232685   7.987   3.397   5.744
10916TIP3   OH232686   8.101   3.078   6.400
10916TIP3    H132687   8.199   3.079   6.398
10916TIP3    H232688   8.085   2.995   6.447
10917TIP3   OH232689   8.064   2.779   5.734
10917TIP3    H132690   8.123   2.701   5.740
10917TIP3    H232691   8.130   2.851   5.730
10918TIP3   OH232692   7.871   3.049   5.803
10918TIP3    H132693   7.921   3.040   5.720
10918TIP3    H232694   7.906   3.132   5.838
10919TIP3   OH232695   7.855   2.549   5.303
10919TIP3    H132696   7.763   2.547   5.333
10919TIP3    H232697   7.851   2.610   5.226
10920TIP3   OH232698   8.075   2.640   6.123
10920TIP3    H132699   8.021   2.628   6.203
10920TIP3    H232700   8.009   2.672   6.060
10921TIP3   OH232701   8.114   4.067   6.197
10921TIP3    H132702   8.024   4.034   6.181
10921TIP3    H232703   8.131   4.036   6.287
10922TIP3   OH232704   8.294   4.091   5.745
10922TIP3    H132705   8.247   4.167   5.704
10922TIP3    H232706   8.380   4.103   5.701
10923TIP3   OH232707   8.728   4.324   5.889
10923TIP3    H132708   8.776   4.331   5.974
10923TIP3    H232709   8.778   4.383   5.830
10924TIP3   OH232710   8.867   4.486   5.708
10924TIP3    H132711   8.919   4.479   5.625
10924TIP3    H232712   8.912   4.561   5.752
10925TIP3   OH232713   7.970   4.360   5.762
10925TIP3    H132714   7.878   4.391   5.747
10925TIP3    H232715   7.979   4.377   5.857
10926TIP3   OH232716   8.207   4.326   5.626
10926TIP3    H132717   8.119   4.340   5.669
10926TIP3    H232718   8.189   4.356   5.534
10927TIP3   OH232719   8.605   4.363   5.430
10927TIP3    H132720   8.534   4.377   5.364
10927TIP3    H232721   8.619   4.454   5.462
10928TIP3   OH232722   8.855   4.261   5.409
10928TIP3    H132723   8.764   4.298   5.418
10928TIP3    H232724   8.909   4.338   5.437
10929TIP3   OH232725   7.882   4.144   5.516
10929TIP3    H132726   7.911   4.115   5.605
10929TIP3    H232727   7.951   4.100   5.462
10930TIP3   OH232728   8.074   4.016   5.372
10930TIP3    H132729   8.089   3.931   5.420
10930TIP3    H232730   8.165   4.051   5.366
10931TIP3   OH232731   8.342   4.110   5.374
10931TIP3    H132732   8.370   4.018   5.360
10931TIP3    H232733   8.389   4.130   5.457
10932TIP3   OH232734   8.168   2.475   5.469
10932TIP3    H132735   8.077   2.440   5.477
10932TIP3    H232736   8.218   2.391   5.465
10933TIP3   OH232737   7.954   2.345   5.116
10933TIP3    H132738   7.981   2.408   5.046
10933TIP3    H232739   7.927   2.405   5.187
10934TIP3   OH232740   7.670   3.916   4.902
10934TIP3    H132741   7.584   3.882   4.870
10934TIP3    H232742   7.660   4.010   4.879
10935TIP3   OH232743   8.067   2.505   4.891
10935TIP3    H132744   8.111   2.446   4.826
10935TIP3    H232745   8.141   2.558   4.924
10936TIP3   OH232746   8.432   4.103   4.494
10936TIP3    H132747   8.524   4.112   4.461
10936TIP3    H232748   8.404   4.030   4.434
10937TIP3   OH232749   8.379   2.764   6.372
10937TIP3    H132750   8.351   2.699   6.438
10937TIP3    H232751   8.471   2.741   6.358
10938TIP3   OH232752   7.746   3.940   4.542
10938TIP3    H132753   7.744   3.965   4.635
10938TIP3    H232754   7.834   3.899   4.532
10939TIP3   OH232755   1.311   4.264   6.738
10939TIP3    H132756   1.286   4.356   6.716
10939TIP3    H232757   1.233   4.216   6.706
10940TIP3   OH232758   1.309   4.269   7.117
10940TIP3    H132759   1.342   4.242   7.205
10940TIP3    H232760   1.267   4.187   7.086
10941TIP3   OH232761   0.640   4.145   7.442
10941TIP3    H132762   0.617   4.100   7.524
10941TIP3    H232763   0.683   4.225   7.474
10942TIP3   OH232764   1.548   4.575   6.795
10942TIP3    H132765   1.536   4.505   6.861
10942TIP3    H232766   1.576   4.650   6.850
10943TIP3   OH232767   0.585   4.557   7.148
10943TIP3    H132768   0.569   4.463   7.170
10943TIP3    H232769   0.676   4.568   7.181
10944TIP3   OH232770   0.358   4.056   7.118
10944TIP3    H132771   0.390   4.017   7.201
10944TIP3    H232772   0.418   4.130   7.107
10945TIP3   OH232773   1.108   4.494   7.165
10945TIP3    H132774   1.147   4.416   7.122
10945TIP3    H232775   1.191   4.539   7.191
10946TIP3   OH232776   2.104   3.821   7.157
10946TIP3    H132777   2.146   3.895   7.206
10946TIP3    H232778   2.135   3.838   7.067
10947TIP3   OH232779   1.520   3.998   7.196
10947TIP3    H132780   1.562   3.913   7.218
10947TIP3    H232781   1.489   3.980   7.105
10948TIP3   OH232782   0.860   3.656   7.162
10948TIP3    H132783   0.840   3.728   7.099
10948TIP3    H232784   0.813   3.582   7.118
10949TIP3   OH232785   1.552   3.747   6.783
10949TIP3    H132786   1.623   3.732   6.850
10949TIP3    H232787   1.607   3.782   6.710
10950TIP3   OH232788   0.496   3.859   7.274
10950TIP3    H132789   0.578   3.848   7.325
10950TIP3    H232790   0.520   3.815   7.190
10951TIP3   OH232791   0.936   4.055   7.047
10951TIP3    H132792   1.028   4.030   7.071
10951TIP3    H232793   0.896   3.969   7.025
10952TIP3   OH232794   2.191   4.025   7.327
10952TIP3    H132795   2.106   4.071   7.313
10952TIP3    H232796   2.208   4.043   7.420
10953TIP3   OH232797   0.853   3.629   7.593
10953TIP3    H132798   0.798   3.677   7.528
10953TIP3    H232799   0.807   3.648   7.676
10954TIP3   OH232800   1.217   4.487   6.599
10954TIP3    H132801   1.161   4.476   6.521
10954TIP3    H232802   1.193   4.575   6.632
10955TIP3   OH232803   0.960   4.421   7.395
10955TIP3    H132804   0.899   4.485   7.435
10955TIP3    H232805   0.999   4.471   7.320
10956TIP3   OH232806   1.760   3.752   6.957
10956TIP3    H132807   1.752   3.703   7.040
10956TIP3    H232808   1.815   3.828   6.984
10957TIP3   OH232809   0.732   3.753   7.382
10957TIP3    H132810   0.790   3.830   7.406
10957TIP3    H232811   0.783   3.717   7.306
10958TIP3   OH232812   0.777   4.599   7.511
10958TIP3    H132813   0.723   4.656   7.452
10958TIP3    H232814   0.706   4.561   7.566
10959TIP3   OH232815   1.631   4.817   6.963
10959TIP3    H132816   1.544   4.804   7.009
10959TIP3    H232817   1.614   4.901   6.918
10960TIP3   OH232818   1.913   3.714   7.330
10960TIP3    H132819   1.826   3.743   7.298
10960TIP3    H232820   1.973   3.749   7.260
10961TIP3   OH232821   1.211   3.354   7.309
10961TIP3    H132822   1.197   3.260   7.328
10961TIP3    H232823   1.134   3.394   7.356
10962TIP3   OH232824   1.490   4.629   6.519
10962TIP3    H132825   1.420   4.562   6.513
10962TIP3    H232826   1.513   4.621   6.614
10963TIP3   OH232827   1.849   4.728   7.308
10963TIP3    H132828   1.836   4.650   7.251
10963TIP3    H232829   1.831   4.802   7.246
10964TIP3   OH232830   1.139   4.121   6.567
10964TIP3    H132831   1.060   4.173   6.543
10964TIP3    H232832   1.188   4.118   6.482
10965TIP3   OH232833   1.098   3.908   6.280
10965TIP3    H132834   1.165   3.958   6.330
10965TIP3    H232835   1.155   3.843   6.234
10966TIP3   OH232836   2.043   4.366   7.155
10966TIP3    H132837   1.959   4.417   7.159
10966TIP3    H232838   2.073   4.388   7.064
10967TIP3   OH232839   1.488   4.202   6.539
10967TIP3    H132840   1.434   4.226   6.618
10967TIP3    H232841   1.573   4.178   6.582
10968TIP3   OH232842   1.722   4.244   7.451
10968TIP3    H132843   1.717   4.328   7.500
10968TIP3    H232844   1.635   4.245   7.405
10969TIP3   OH232845   0.724   4.198   6.951
10969TIP3    H132846   0.682   4.138   6.886
10969TIP3    H232847   0.802   4.145   6.980
10970TIP3   OH232848   0.865   4.622   7.102
10970TIP3    H132849   0.835   4.569   7.027
10970TIP3    H232850   0.954   4.583   7.118
10971TIP3   OH232851   0.905   4.164   7.305
10971TIP3    H132852   0.908   4.158   7.208
10971TIP3    H232853   0.916   4.260   7.322
10972TIP3   OH232854   1.400   4.807   7.096
10972TIP3    H132855   1.365   4.886   7.139
10972TIP3    H232856   1.371   4.734   7.155
10973TIP3   OH232857   0.993   4.729   7.633
10973TIP3    H132858   0.935   4.789   7.684
10973TIP3    H232859   0.926   4.673   7.590
10974TIP3   OH232860   1.327   4.063   6.365
10974TIP3    H132861   1.387   4.123   6.416
10974TIP3    H232862   1.354   4.086   6.272
10975TIP3   OH232863   0.729   4.262   7.715
10975TIP3    H132864   0.748   4.347   7.761
10975TIP3    H232865   0.634   4.275   7.698
10976TIP3   OH232866   0.779   4.891   7.713
10976TIP3    H132867   0.753   4.899   7.619
10976TIP3    H232868   0.698   4.856   7.754
10977TIP3   OH232869   1.843   3.302   6.412
10977TIP3    H132870   1.762   3.322   6.463
10977TIP3    H232871   1.857   3.387   6.364
10978TIP3   OH232872   0.597   4.037   6.756
10978TIP3    H132873   0.530   4.076   6.695
10978TIP3    H232874   0.554   3.955   6.781
10979TIP3   OH232875   1.642   4.668   5.957
10979TIP3    H132876   1.650   4.765   5.948
10979TIP3    H232877   1.735   4.640   5.947
10980TIP3   OH232878   2.080   5.073   7.350
10980TIP3    H132879   2.083   4.976   7.365
10980TIP3    H232880   1.999   5.096   7.401
10981TIP3   OH232881   1.191   4.857   7.488
10981TIP3    H132882   1.190   4.950   7.520
10981TIP3    H232883   1.120   4.817   7.544
10982TIP3   OH232884   0.865   4.980   6.409
10982TIP3    H132885   0.884   5.007   6.318
10982TIP3    H232886   0.910   5.049   6.463
10983TIP3   OH232887   1.150   4.883   6.091
10983TIP3    H132888   1.214   4.817   6.055
10983TIP3    H232889   1.183   4.896   6.182
10984TIP3   OH232890   1.186   4.936   6.372
10984TIP3    H132891   1.123   4.942   6.447
10984TIP3    H232892   1.267   4.929   6.426
10985TIP3   OH232893   1.973   4.203   7.631
10985TIP3    H132894   1.893   4.213   7.577
10985TIP3    H232895   1.992   4.108   7.620
10986TIP3   OH232896   0.973   3.433   7.432
10986TIP3    H132897   0.884   3.401   7.406
10986TIP3    H232898   0.947   3.516   7.479
10987TIP3   OH232899   1.510   3.557   7.621
10987TIP3    H132900   1.580   3.519   7.679
10987TIP3    H232901   1.426   3.532   7.666
10988TIP3   OH232902   1.744   3.979   7.549
10988TIP3    H132903   1.697   3.974   7.635
10988TIP3    H232904   1.719   4.066   7.515
10989TIP3   OH232905   1.403   4.107   6.108
10989TIP3    H132906   1.371   4.082   6.019
10989TIP3    H232907   1.485   4.156   6.087
10990TIP3   OH232908   1.117   3.484   6.412
10990TIP3    H132909   1.084   3.480   6.504
10990TIP3    H232910   1.078   3.401   6.377
10991TIP3   OH232911   0.905   3.946   7.461
10991TIP3    H132912   0.854   3.972   7.541
10991TIP3    H232913   0.897   4.028   7.406
10992TIP3   OH232914   0.785   3.834   6.972
10992TIP3    H132915   0.691   3.811   6.987
10992TIP3    H232916   0.799   3.794   6.884
10993TIP3   OH232917   1.277   3.921   6.700
10993TIP3    H132918   1.226   3.992   6.658
10993TIP3    H232919   1.333   3.889   6.626
10994TIP3   OH232920   1.462   4.212   7.783
10994TIP3    H132921   1.436   4.130   7.829
10994TIP3    H232922   1.557   4.215   7.802
10995TIP3   OH232923   1.434   3.949   6.939
10995TIP3    H132924   1.373   3.979   6.868
10995TIP3    H232925   1.468   3.868   6.895
10996TIP3   OH232926   0.735   3.970   7.681
10996TIP3    H132927   0.755   4.058   7.720
10996TIP3    H232928   0.656   3.944   7.729
10997TIP3   OH232929   0.774   3.456   6.376
10997TIP3    H132930   0.764   3.455   6.473
10997TIP3    H232931   0.691   3.500   6.349
10998TIP3   OH232932   0.338   3.538   7.230
10998TIP3    H132933   0.412   3.531   7.293
10998TIP3    H232934   0.346   3.458   7.177
10999TIP3   OH232935   0.309   3.530   6.798
10999TIP3    H132936   0.340   3.542   6.705
10999TIP3    H232937   0.301   3.622   6.825
11000TIP3   OH232938   1.448   4.198   7.360
11000TIP3    H132939   1.479   4.126   7.301
11000TIP3    H232940   1.416   4.144   7.436
11001TIP3   OH232941   1.115   3.660   7.033
11001TIP3    H132942   1.035   3.658   7.089
11001TIP3    H232943   1.186   3.654   7.099
11002TIP3   OH232944   0.545   3.704   7.037
11002TIP3    H132945   0.454   3.673   7.049
11002TIP3    H232946   0.593   3.619   7.023
11003TIP3   OH232947   0.816   3.709   6.730
11003TIP3    H132948   0.911   3.724   6.711
11003TIP3    H232949   0.771   3.733   6.645
11004TIP3   OH232950   1.606   3.736   7.236
11004TIP3    H132951   1.571   3.748   7.327
11004TIP3    H232952   1.540   3.673   7.200
11005TIP3   OH232953   0.658   3.748   6.506
11005TIP3    H132954   0.592   3.701   6.452
11005TIP3    H232955   0.714   3.785   6.435
11006TIP3   OH232956   1.777   5.422   7.455
11006TIP3    H132957   1.774   5.448   7.361
11006TIP3    H232958   1.855   5.471   7.487
11007TIP3   OH232959   0.738   4.495   7.847
11007TIP3    H132960   0.810   4.553   7.883
11007TIP3    H232961   0.664   4.517   7.904
11008TIP3   OH232962   1.197   3.987   7.130
11008TIP3    H132963   1.271   3.947   7.083
11008TIP3    H232964   1.203   3.945   7.218
11009TIP3   OH232965   0.716   3.477   7.012
11009TIP3    H132966   0.681   3.398   7.058
11009TIP3    H232967   0.768   3.437   6.940
11010TIP3   OH232968   1.174   3.886   7.417
11010TIP3    H132969   1.084   3.923   7.431
11010TIP3    H232970   1.231   3.947   7.467
11011TIP3   OH232971   0.908   4.276   6.512
11011TIP3    H132972   0.838   4.208   6.503
11011TIP3    H232973   0.892   4.307   6.605
11012TIP3   OH232974   1.809   4.511   7.145
11012TIP3    H132975   1.832   4.560   7.063
11012TIP3    H232976   1.725   4.467   7.120
11013TIP3   OH232977   1.368   3.588   6.374
11013TIP3    H132978   1.272   3.568   6.387
11013TIP3    H232979   1.377   3.681   6.404
11014TIP3   OH232980   1.313   4.595   7.514
11014TIP3    H132981   1.330   4.571   7.606
11014TIP3    H232982   1.273   4.683   7.521
11015TIP3   OH232983   1.438   3.834   6.481
11015TIP3    H132984   1.534   3.839   6.499
11015TIP3    H232985   1.421   3.915   6.431
11016TIP3   OH232986   0.611   4.288   7.195
11016TIP3    H132987   0.655   4.243   7.120
11016TIP3    H232988   0.618   4.223   7.269
11017TIP3   OH232989   1.052   4.425   6.333
11017TIP3    H132990   1.000   4.508   6.335
11017TIP3    H232991   1.001   4.368   6.396
11018TIP3   OH232992   1.210   4.332   7.807
11018TIP3    H132993   1.148   4.269   7.766
11018TIP3    H232994   1.297   4.294   7.780
11019TIP3   OH232995   1.473   4.851   7.409
11019TIP3    H132996   1.376   4.849   7.420
11019TIP3    H232997   1.498   4.906   7.487
11020TIP3   OH232998   1.879   3.925   6.318
11020TIP3    H132999   1.817   3.880   6.255
11020TIP3    H233000   1.876   4.014   6.278
11021TIP3   OH233001   2.099   4.787   7.395
11021TIP3    H133002   2.002   4.777   7.388
11021TIP3    H233003   2.126   4.753   7.307
11022TIP3   OH233004   1.578   4.743   6.228
11022TIP3    H133005   1.552   4.683   6.301
11022TIP3    H233006   1.589   4.684   6.152
11023TIP3   OH233007   1.577   4.373   7.063
11023TIP3    H133008   1.483   4.347   7.076
11023TIP3    H233009   1.610   4.292   7.018
11024TIP3   OH233010   0.705   4.596   6.806
11024TIP3    H133011   0.702   4.682   6.761
11024TIP3    H233012   0.623   4.597   6.857
11025TIP3   OH233013   0.270   3.909   6.531
11025TIP3    H133014   0.327   3.987   6.546
11025TIP3    H233015   0.183   3.945   6.552
11026TIP3   OH233016   0.844   4.363   6.758
11026TIP3    H133017   0.803   4.450   6.776
11026TIP3    H233018   0.810   4.311   6.833
11027TIP3   OH233019   0.979   4.946   7.286
11027TIP3    H133020   1.022   5.016   7.232
11027TIP3    H233021   1.056   4.907   7.331
11028TIP3   OH233022   0.618   4.840   6.672
11028TIP3    H133023   0.545   4.867   6.728
11028TIP3    H233024   0.666   4.926   6.665
11029TIP3   OH233025   1.358   4.574   7.246
11029TIP3    H133026   1.350   4.573   7.344
11029TIP3    H233027   1.439   4.522   7.233
11030TIP3   OH233028   1.335   4.472   6.126
11030TIP3    H133029   1.393   4.442   6.201
11030TIP3    H233030   1.249   4.444   6.160
11031TIP3   OH233031   1.610   5.111   7.295
11031TIP3    H133032   1.531   5.053   7.290
11031TIP3    H233033   1.592   5.175   7.222
11032TIP3   OH233034   1.675   4.945   5.946
11032TIP3    H133035   1.713   5.019   5.896
11032TIP3    H233036   1.595   4.988   5.981
11033TIP3   OH233037   1.495   4.386   6.329
11033TIP3    H133038   1.486   4.331   6.410
11033TIP3    H233039   1.592   4.397   6.328
11034TIP3   OH233040   0.699   4.445   6.120
11034TIP3    H133041   0.713   4.350   6.100
11034TIP3    H233042   0.676   4.440   6.216
11035TIP3   OH233043   0.651   4.464   6.394
11035TIP3    H133044   0.720   4.429   6.452
11035TIP3    H233045   0.661   4.561   6.405
11036TIP3   OH233046   0.395   4.142   6.604
11036TIP3    H133047   0.352   4.190   6.676
11036TIP3    H233048   0.410   4.214   6.539
11037TIP3   OH233049   1.531   3.795   7.495
11037TIP3    H133050   1.616   3.828   7.528
11037TIP3    H233051   1.521   3.711   7.545
11038TIP3   OH233052   1.413   3.537   6.660
11038TIP3    H133053   1.401   3.561   6.567
11038TIP3    H233054   1.453   3.618   6.698
11039TIP3   OH233055   0.913   4.665   6.334
11039TIP3    H133056   0.837   4.693   6.387
11039TIP3    H233057   0.967   4.745   6.337
11040TIP3   OH233058   1.098   3.719   6.762
11040TIP3    H133059   1.163   3.790   6.746
11040TIP3    H233060   1.105   3.709   6.860
11041TIP3   OH233061   1.370   4.034   7.562
11041TIP3    H133062   1.385   4.079   7.646
11041TIP3    H233063   1.422   3.952   7.571
11042TIP3   OH233064   1.244   3.442   6.863
11042TIP3    H133065   1.244   3.516   6.926
11042TIP3    H233066   1.306   3.477   6.794
11043TIP3   OH233067   0.648   4.743   6.418
11043TIP3    H133068   0.654   4.834   6.386
11043TIP3    H233069   0.635   4.762   6.514
11044TIP3   OH233070   0.757   3.444   6.653
11044TIP3    H133071   0.757   3.534   6.691
11044TIP3    H233072   0.853   3.423   6.661
11045TIP3   OH233073   2.012   3.939   7.549
11045TIP3    H133074   1.914   3.937   7.553
11045TIP3    H233075   2.025   3.888   7.468
11046TIP3   OH233076   1.660   4.132   6.937
11046TIP3    H133077   1.586   4.071   6.951
11046TIP3    H233078   1.733   4.086   6.985
11047TIP3   OH233079   0.390   4.365   6.448
11047TIP3    H133080   0.474   4.415   6.434
11047TIP3    H233081   0.388   4.315   6.364
11048TIP3   OH233082   0.304   3.634   6.547
11048TIP3    H133083   0.306   3.732   6.542
11048TIP3    H233084   0.265   3.610   6.462
11049TIP3   OH233085   1.629   5.090   6.890
11049TIP3    H133086   1.584   5.137   6.816
11049TIP3    H233087   1.723   5.105   6.863
11050TIP3   OH233088   0.709   3.351   7.412
11050TIP3    H133089   0.679   3.319   7.325
11050TIP3    H233090   0.695   3.271   7.468
11051TIP3   OH233091   0.865   5.098   7.879
11051TIP3    H133092   0.944   5.087   7.934
11051TIP3    H233093   0.866   5.018   7.823
11052TIP3   OH233094   0.845   4.645   6.017
11052TIP3    H133095   0.827   4.561   6.069
11052TIP3    H233096   0.931   4.618   5.974
11053TIP3   OH233097   1.524   4.994   7.639
11053TIP3    H133098   1.511   4.918   7.700
11053TIP3    H233099   1.602   5.039   7.677
11054TIP3   OH233100   1.299   4.694   5.950
11054TIP3    H133101   1.342   4.631   6.011
11054TIP3    H233102   1.360   4.693   5.873
11055TIP3   OH233103   0.510   4.176   6.265
11055TIP3    H133104   0.566   4.142   6.337
11055TIP3    H233105   0.575   4.176   6.191
11056TIP3   OH233106   1.155   4.606   7.827
11056TIP3    H133107   1.111   4.625   7.742
11056TIP3    H233108   1.180   4.511   7.818
11057TIP3   OH233109   1.011   4.369   6.067
11057TIP3    H133110   1.023   4.380   6.164
11057TIP3    H233111   1.018   4.271   6.060
11058TIP3   OH233112   1.634   4.615   7.449
11058TIP3    H133113   1.707   4.660   7.403
11058TIP3    H233114   1.561   4.680   7.434
11059TIP3   OH233115   0.718   4.077   6.482
11059TIP3    H133116   0.696   4.034   6.567
11059TIP3    H233117   0.754   4.002   6.431
11060TIP3   OH233118   0.992   4.145   7.713
11060TIP3    H133119   0.908   4.196   7.709
11060TIP3    H233120   1.038   4.175   7.632
11061TIP3   OH233121   0.819   3.872   6.324
11061TIP3    H133122   0.794   3.873   6.229
11061TIP3    H233123   0.917   3.873   6.316
11062TIP3   OH233124   1.509   4.538   7.849
11062TIP3    H133125   1.579   4.511   7.788
11062TIP3    H233126   1.503   4.462   7.909
11063TIP3   OH233127   1.640   4.200   5.986
11063TIP3    H133128   1.617   4.154   5.902
11063TIP3    H233129   1.606   4.290   5.964
11064TIP3   OH233130   1.105   3.921   7.835
11064TIP3    H133131   1.096   3.846   7.773
11064TIP3    H233132   1.050   3.991   7.794
11065TIP3   OH233133   1.104   3.723   7.638
11065TIP3    H133134   1.133   3.770   7.557
11065TIP3    H233135   1.012   3.700   7.617
11066TIP3   OH233136   1.142   4.254   7.517
11066TIP3    H133137   1.223   4.260   7.464
11066TIP3    H233138   1.082   4.316   7.470
11067TIP3   OH233139   1.733   4.208   7.891
11067TIP3    H133140   1.771   4.119   7.904
11067TIP3    H233141   1.807   4.255   7.850
11068TIP3   OH233142   1.761   4.472   7.637
11068TIP3    H133143   1.705   4.526   7.576
11068TIP3    H233144   1.850   4.491   7.597
11069TIP3   OH233145   1.245   3.487   7.667
11069TIP3    H133146   1.196   3.571   7.657
11069TIP3    H233147   1.174   3.421   7.659
11070TIP3   OH233148   1.362   3.979   7.882
11070TIP3    H133149   1.344   4.020   7.969
11070TIP3    H233150   1.271   3.949   7.859
11071TIP3   OH233151   1.620   3.936   7.783
11071TIP3    H133152   1.534   3.930   7.829
11071TIP3    H233153   1.683   3.911   7.854
11072TIP3   OH233154   1.829   3.899   7.970
11072TIP3    H133155   1.859   3.806   7.961
11072TIP3    H233156   1.821   3.906   8.068
11073TIP3   OH233157   1.272   3.331   7.899
11073TIP3    H133158   1.322   3.376   7.970
11073TIP3    H233159   1.265   3.402   7.832
11074TIP3   OH233160   1.885   5.173   6.843
11074TIP3    H133161   1.911   5.199   6.933
11074TIP3    H233162   1.944   5.223   6.786
11075TIP3   OH233163   1.921   5.195   7.123
11075TIP3    H133164   1.868   5.112   7.118
11075TIP3    H233165   1.986   5.167   7.190
11076TIP3   OH233166   1.960   4.874   7.702
11076TIP3    H133167   1.884   4.882   7.763
11076TIP3    H233168   2.000   4.963   7.706
11077TIP3   OH233169   1.777   4.387   6.319
11077TIP3    H133170   1.845   4.451   6.292
11077TIP3    H233171   1.818   4.348   6.400
11078TIP3   OH233172   1.903   4.255   6.524
11078TIP3    H133173   1.837   4.212   6.583
11078TIP3    H233174   1.968   4.291   6.587
11079TIP3   OH233175   1.960   4.648   6.957
11079TIP3    H133176   2.012   4.579   6.910
11079TIP3    H233177   1.944   4.714   6.887
11080TIP3   OH233178   1.789   4.951   7.148
11080TIP3    H133179   1.716   4.988   7.201
11080TIP3    H233180   1.741   4.902   7.078
11081TIP3   OH233181   1.841   4.162   6.169
11081TIP3    H133182   1.769   4.165   6.102
11081TIP3    H233183   1.813   4.237   6.226
11082TIP3   OH233184   1.713   3.835   6.122
11082TIP3    H133185   1.666   3.871   6.046
11082TIP3    H233186   1.689   3.740   6.115
11083TIP3   OH233187   1.717   4.112   6.670
11083TIP3    H133188   1.725   4.015   6.664
11083TIP3    H233189   1.702   4.126   6.766
11084TIP3   OH233190   2.007   4.537   7.529
11084TIP3    H133191   2.078   4.469   7.520
11084TIP3    H233192   2.032   4.601   7.461
11085TIP3   OH233193   2.190   4.341   7.545
11085TIP3    H133194   2.116   4.288   7.581
11085TIP3    H233195   2.264   4.277   7.560
11086TIP3   OH233196   1.656   3.568   6.106
11086TIP3    H133197   1.732   3.539   6.161
11086TIP3    H233198   1.584   3.510   6.133
11087TIP3   OH233199   1.712   3.826   6.563
11087TIP3    H133200   1.753   3.738   6.579
11087TIP3    H233201   1.773   3.859   6.494
11088TIP3   OH233202   1.872   4.004   7.058
11088TIP3    H133203   1.959   4.027   7.018
11088TIP3    H233204   1.888   4.035   7.149
11089TIP3   OH233205   1.943   4.146   7.292
11089TIP3    H133206   1.864   4.181   7.338
11089TIP3    H233207   1.976   4.226   7.246
11090TIP3   OH233208   2.392   3.739   7.847
11090TIP3    H133209   2.457   3.677   7.804
11090TIP3    H233210   2.369   3.797   7.771
11091TIP3   OH233211   1.821   3.577   6.601
11091TIP3    H133212   1.872   3.562   6.684
11091TIP3    H233213   1.762   3.500   6.602
11092TIP3   OH233214   0.535   3.562   7.427
11092TIP3    H133215   0.598   3.486   7.429
11092TIP3    H233216   0.596   3.636   7.407
11093TIP3   OH233217   2.266   3.878   7.646
11093TIP3    H133218   2.176   3.913   7.659
11093TIP3    H233219   2.247   3.806   7.584
11094TIP3   OH233220   1.901   3.513   6.232
11094TIP3    H133221   1.944   3.439   6.185
11094TIP3    H233222   1.970   3.582   6.232
11095TIP3   OH233223   0.330   3.360   7.010
11095TIP3    H133224   0.236   3.349   7.029
11095TIP3    H233225   0.328   3.418   6.931
11096TIP3   OH233226   1.448   5.068   6.473
11096TIP3    H133227   1.516   5.031   6.413
11096TIP3    H233228   1.500   5.087   6.552
11097TIP3   OH233229   0.745   4.912   7.431
11097TIP3    H133230   0.729   4.988   7.372
11097TIP3    H233231   0.837   4.892   7.403
11098TIP3   OH233232   1.189   5.122   7.569
11098TIP3    H133233   1.230   5.122   7.658
11098TIP3    H233234   1.254   5.176   7.519
11099TIP3   OH233235   1.367   5.280   7.431
11099TIP3    H133236   1.434   5.226   7.388
11099TIP3    H233237   1.422   5.333   7.493
11100TIP3   OH233238   2.163   3.632   7.529
11100TIP3    H133239   2.073   3.623   7.493
11100TIP3    H233240   2.197   3.540   7.517
11101TIP3   OH233241   0.662   5.139   7.289
11101TIP3    H133242   0.630   5.228   7.314
11101TIP3    H233243   0.614   5.122   7.206
11102TIP3   OH233244   1.083   5.143   7.124
11102TIP3    H133245   1.041   5.162   7.038
11102TIP3    H233246   1.097   5.232   7.161
11103TIP3   OH233247   1.352   5.084   7.170
11103TIP3    H133248   1.258   5.092   7.146
11103TIP3    H233249   1.391   5.154   7.115
11104TIP3   OH233250   1.571   5.280   7.081
11104TIP3    H133251   1.550   5.361   7.030
11104TIP3    H233252   1.590   5.215   7.009
11105TIP3   OH233253   0.533   4.803   7.047
11105TIP3    H133254   0.538   4.714   7.090
11105TIP3    H233255   0.624   4.834   7.057
11106TIP3   OH233256   0.800   4.904   7.071
11106TIP3    H133257   0.832   4.816   7.043
11106TIP3    H233258   0.855   4.916   7.150
11107TIP3   OH233259   1.365   3.551   7.144
11107TIP3    H133260   1.326   3.481   7.200
11107TIP3    H233261   1.443   3.506   7.106
11108TIP3   OH233262   1.891   3.430   7.052
11108TIP3    H133263   1.929   3.484   6.980
11108TIP3    H233264   1.796   3.453   7.047
11109TIP3   OH233265   1.987   3.536   6.818
11109TIP3    H133266   2.062   3.483   6.782
11109TIP3    H233267   2.022   3.626   6.803
11110TIP3   OH233268   0.617   3.263   7.167
11110TIP3    H133269   0.523   3.234   7.163
11110TIP3    H233270   0.663   3.176   7.162
11111TIP3   OH233271   0.432   3.123   6.823
11111TIP3    H133272   0.447   3.182   6.747
11111TIP3    H233273   0.378   3.179   6.881
11112TIP3   OH233274   1.062   3.296   7.049
11112TIP3    H133275   1.119   3.344   6.987
11112TIP3    H233276   1.092   3.330   7.134
11113TIP3   OH233277   1.604   3.442   7.031
11113TIP3    H133278   1.610   3.401   6.943
11113TIP3    H233279   1.593   3.362   7.088
11114TIP3   OH233280   1.638   3.364   6.593
11114TIP3    H133281   1.552   3.406   6.608
11114TIP3    H233282   1.625   3.278   6.640
11115TIP3   OH233283   0.524   3.288   6.587
11115TIP3    H133284   0.568   3.226   6.527
11115TIP3    H233285   0.599   3.341   6.620
11116TIP3   OH233286   1.035   3.467   6.676
11116TIP3    H133287   1.094   3.420   6.736
11116TIP3    H233288   1.056   3.560   6.702
11117TIP3   OH233289   0.878   4.897   6.126
11117TIP3    H133290   0.971   4.927   6.122
11117TIP3    H233291   0.895   4.801   6.125
11118TIP3   OH233292   1.626   5.007   6.263
11118TIP3    H133293   1.614   4.909   6.253
11118TIP3    H233294   1.572   5.040   6.188
11119TIP3   OH233295   1.934   3.643   7.955
11119TIP3    H133296   1.968   3.581   8.024
11119TIP3    H233297   2.006   3.634   7.889
11120TIP3   OH233298   1.838   5.153   7.457
11120TIP3    H133299   1.759   5.120   7.408
11120TIP3    H233300   1.816   5.249   7.462
11121TIP3   OH233301   3.109   4.525   6.219
11121TIP3    H133302   3.080   4.617   6.204
11121TIP3    H233303   3.029   4.477   6.190
11122TIP3   OH233304   3.106   4.521   6.601
11122TIP3    H133305   3.137   4.505   6.692
11122TIP3    H233306   3.061   4.438   6.580
11123TIP3   OH233307   2.403   4.421   6.970
11123TIP3    H133308   2.432   4.351   7.032
11123TIP3    H233309   2.484   4.474   6.963
11124TIP3   OH233310   3.349   4.831   6.286
11124TIP3    H133311   3.333   4.763   6.353
11124TIP3    H233312   3.377   4.907   6.340
11125TIP3   OH233313   2.373   4.832   6.696
11125TIP3    H133314   2.366   4.734   6.695
11125TIP3    H233315   2.470   4.842   6.691
11126TIP3   OH233316   2.084   4.035   6.475
11126TIP3    H133317   2.034   4.117   6.493
11126TIP3    H233318   2.013   3.979   6.441
11127TIP3   OH233319   2.141   4.321   6.652
11127TIP3    H133320   2.189   4.243   6.688
11127TIP3    H233321   2.202   4.351   6.583
11128TIP3   OH233322   2.995   5.289   6.303
11128TIP3    H133323   3.042   5.217   6.255
11128TIP3    H233324   3.000   5.257   6.394
11129TIP3   OH233325   2.903   4.752   6.650
11129TIP3    H133326   2.946   4.677   6.606
11129TIP3    H233327   2.985   4.799   6.678
11130TIP3   OH233328   3.923   4.067   6.660
11130TIP3    H133329   3.941   4.149   6.710
11130TIP3    H233330   3.934   4.095   6.569
11131TIP3   OH233331   3.322   4.249   6.684
11131TIP3    H133332   3.358   4.159   6.699
11131TIP3    H233333   3.285   4.240   6.595
11132TIP3   OH233334   2.656   3.914   6.647
11132TIP3    H133335   2.633   3.985   6.584
11132TIP3    H233336   2.608   3.839   6.605
11133TIP3   OH233337   3.348   4.004   6.273
11133TIP3    H133338   3.420   3.988   6.338
11133TIP3    H233339   3.400   4.039   6.198
11134TIP3   OH233340   2.289   4.115   6.755
11134TIP3    H133341   2.370   4.093   6.805
11134TIP3    H233342   2.302   4.058   6.676
11135TIP3   OH233343   2.727   4.313   6.549
11135TIP3    H133344   2.821   4.288   6.562
11135TIP3    H233345   2.689   4.228   6.517
11136TIP3   OH233346   3.965   4.270   6.844
11136TIP3    H133347   3.888   4.328   6.831
11136TIP3    H233348   4.012   4.315   6.917
11137TIP3   OH233349   2.651   3.893   7.082
11137TIP3    H133350   2.591   3.937   7.018
11137TIP3    H233351   2.601   3.905   7.165
11138TIP3   OH233352   3.000   4.750   6.089
11138TIP3    H133353   2.951   4.726   6.010
11138TIP3    H233354   2.955   4.832   6.116
11139TIP3   OH233355   2.756   4.671   6.879
11139TIP3    H133356   2.696   4.738   6.918
11139TIP3    H233357   2.803   4.724   6.812
11140TIP3   OH233358   3.560   4.009   6.444
11140TIP3    H133359   3.542   3.961   6.526
11140TIP3    H233360   3.610   4.086   6.476
11141TIP3   OH233361   2.522   4.010   6.867
11141TIP3    H133362   2.583   4.083   6.891
11141TIP3    H233363   2.572   3.970   6.792
11142TIP3   OH233364   2.580   4.865   6.975
11142TIP3    H133365   2.559   4.953   6.939
11142TIP3    H233366   2.502   4.851   7.033
11143TIP3   OH233367   1.980   4.556   6.212
11143TIP3    H133368   1.937   4.585   6.130
11143TIP3    H233369   2.012   4.641   6.249
11144TIP3   OH233370   3.415   5.070   6.449
11144TIP3    H133371   3.327   5.063   6.494
11144TIP3    H233372   3.407   5.159   6.409
11145TIP3   OH233373   3.007   3.616   6.799
11145TIP3    H133374   2.995   3.521   6.821
11145TIP3    H233375   2.928   3.653   6.843
11146TIP3   OH233376   3.119   5.117   6.124
11146TIP3    H133377   3.170   5.035   6.106
11146TIP3    H233378   3.179   5.183   6.083
11147TIP3   OH233379   3.265   4.902   6.033
11147TIP3    H133380   3.219   4.823   6.003
11147TIP3    H233381   3.303   4.871   6.119
11148TIP3   OH233382   3.649   4.981   6.795
11148TIP3    H133383   3.634   4.905   6.734
11148TIP3    H233384   3.625   5.057   6.739
11149TIP3   OH233385   2.935   4.377   6.054
11149TIP3    H133386   2.855   4.429   6.031
11149TIP3    H233387   2.981   4.372   5.968
11150TIP3   OH233388   2.894   4.164   5.770
11150TIP3    H133389   2.962   4.214   5.817
11150TIP3    H233390   2.950   4.100   5.721
11151TIP3   OH233391   3.838   4.614   6.638
11151TIP3    H133392   3.757   4.668   6.645
11151TIP3    H233393   3.871   4.644   6.551
11152TIP3   OH233394   3.286   4.462   6.022
11152TIP3    H133395   3.230   4.485   6.100
11152TIP3    H233396   3.370   4.438   6.067
11153TIP3   OH233397   3.517   4.492   6.941
11153TIP3    H133398   3.516   4.577   6.990
11153TIP3    H233399   3.430   4.498   6.896
11154TIP3   OH233400   2.517   4.459   6.441
11154TIP3    H133401   2.476   4.400   6.374
11154TIP3    H233402   2.593   4.405   6.472
11155TIP3   OH233403   2.645   4.871   6.590
11155TIP3    H133404   2.630   4.824   6.507
11155TIP3    H233405   2.736   4.840   6.613
11156TIP3   OH233406   2.651   4.430   6.796
11156TIP3    H133407   2.685   4.408   6.708
11156TIP3    H233408   2.695   4.515   6.816
11157TIP3   OH233409   3.177   5.065   6.577
11157TIP3    H133410   3.170   5.146   6.632
11157TIP3    H233411   3.161   4.995   6.643
11158TIP3   OH233412   2.784   4.972   7.138
11158TIP3    H133413   2.729   5.045   7.174
11158TIP3    H233414   2.721   4.926   7.080
11159TIP3   OH233415   3.123   4.319   5.853
11159TIP3    H133416   3.182   4.379   5.904
11159TIP3    H233417   3.150   4.341   5.760
11160TIP3   OH233418   2.545   4.543   7.222
11160TIP3    H133419   2.550   4.630   7.266
11160TIP3    H233420   2.450   4.522   7.234
11161TIP3   OH233421   2.868   4.996   6.121
11161TIP3    H133422   2.950   5.047   6.140
11161TIP3    H233423   2.807   5.065   6.093
11162TIP3   OH233424   2.580   5.159   7.206
11162TIP3    H133425   2.550   5.151   7.113
11162TIP3    H233426   2.501   5.134   7.257
11163TIP3   OH233427   3.639   3.558   5.899
11163TIP3    H133428   3.557   3.575   5.951
11163TIP3    H233429   3.653   3.644   5.856
11164TIP3   OH233430   2.384   4.301   6.244
11164TIP3    H133431   2.314   4.342   6.189
11164TIP3    H233432   2.347   4.214   6.262
11165TIP3   OH233433   3.443   4.927   5.443
11165TIP3    H133434   3.454   5.025   5.434
11165TIP3    H233435   3.536   4.897   5.434
11166TIP3   OH233436   2.164   4.686   7.153
11166TIP3    H133437   2.097   4.662   7.086
11166TIP3    H233438   2.201   4.599   7.179
11167TIP3   OH233439   2.016   4.881   6.777
11167TIP3    H133440   2.112   4.866   6.776
11167TIP3    H233441   2.005   4.953   6.840
11168TIP3   OH233442   3.881   5.330   6.843
11168TIP3    H133443   3.880   5.234   6.859
11168TIP3    H233444   3.798   5.356   6.890
11169TIP3   OH233445   2.922   5.136   6.955
11169TIP3    H133446   3.016   5.161   6.967
11169TIP3    H233447   2.908   5.071   7.027
11170TIP3   OH233448   2.749   5.247   5.928
11170TIP3    H133449   2.695   5.230   5.850
11170TIP3    H233450   2.718   5.335   5.958
11171TIP3   OH233451   2.187   5.092   6.314
11171TIP3    H133452   2.234   5.082   6.400
11171TIP3    H233453   2.134   5.011   6.313
11172TIP3   OH233454   2.999   5.089   5.540
11172TIP3    H133455   3.023   5.021   5.605
11172TIP3    H233456   3.001   5.166   5.599
11173TIP3   OH233457   2.992   5.188   5.820
11173TIP3    H133458   2.909   5.200   5.870
11173TIP3    H233459   3.051   5.155   5.890
11174TIP3   OH233460   3.771   4.459   7.113
11174TIP3    H133461   3.691   4.504   7.081
11174TIP3    H233462   3.739   4.369   7.125
11175TIP3   OH233463   2.364   4.874   7.145
11175TIP3    H133464   2.418   4.852   7.224
11175TIP3    H233465   2.294   4.806   7.150
11176TIP3   OH233466   2.764   3.685   6.921
11176TIP3    H133467   2.684   3.631   6.910
11176TIP3    H233468   2.730   3.761   6.972
11177TIP3   OH233469   3.298   3.804   7.122
11177TIP3    H133470   3.366   3.778   7.187
11177TIP3    H233471   3.214   3.784   7.168
11178TIP3   OH233472   3.584   4.232   7.042
11178TIP3    H133473   3.527   4.222   7.122
11178TIP3    H233474   3.546   4.316   7.006
11179TIP3   OH233475   3.207   4.371   5.604
11179TIP3    H133476   3.166   4.345   5.518
11179TIP3    H233477   3.288   4.416   5.572
11180TIP3   OH233478   2.914   3.738   5.899
11180TIP3    H133479   2.880   3.735   5.990
11180TIP3    H233480   2.873   3.657   5.863
11181TIP3   OH233481   2.700   4.207   6.944
11181TIP3    H133482   2.651   4.227   7.027
11181TIP3    H233483   2.683   4.288   6.892
11182TIP3   OH233484   2.582   4.094   6.458
11182TIP3    H133485   2.490   4.066   6.478
11182TIP3    H233486   2.595   4.051   6.370
11183TIP3   OH233487   3.074   4.178   6.188
11183TIP3    H133488   3.022   4.250   6.146
11183TIP3    H233489   3.127   4.146   6.112
11184TIP3   OH233490   3.250   4.456   7.269
11184TIP3    H133491   3.228   4.385   7.334
11184TIP3    H233492   3.344   4.472   7.292
11185TIP3   OH233493   3.231   4.207   6.427
11185TIP3    H133494   3.169   4.238   6.358
11185TIP3    H233495   3.263   4.126   6.383
11186TIP3   OH233496   2.518   4.233   7.154
11186TIP3    H133497   2.552   4.294   7.221
11186TIP3    H233498   2.506   4.151   7.206
11187TIP3   OH233499   2.568   3.714   5.863
11187TIP3    H133500   2.561   3.711   5.960
11187TIP3    H233501   2.489   3.766   5.840
11188TIP3   OH233502   2.113   3.758   6.729
11188TIP3    H133503   2.187   3.786   6.786
11188TIP3    H233504   2.157   3.717   6.653
11189TIP3   OH233505   2.081   3.737   6.251
11189TIP3    H133506   2.130   3.775   6.175
11189TIP3    H233507   2.022   3.812   6.273
11190TIP3   OH233508   3.241   4.450   6.846
11190TIP3    H133509   3.275   4.378   6.788
11190TIP3    H233510   3.212   4.398   6.923
11191TIP3   OH233511   2.913   3.915   6.520
11191TIP3    H133512   2.828   3.912   6.570
11191TIP3    H233513   2.978   3.912   6.593
11192TIP3   OH233514   2.346   3.971   6.527
11192TIP3    H133515   2.251   3.977   6.501
11192TIP3    H233516   2.369   3.878   6.508
11193TIP3   OH233517   2.613   3.968   6.217
11193TIP3    H133518   2.707   3.981   6.195
11193TIP3    H233519   2.566   3.988   6.133
11194TIP3   OH233520   3.397   3.985   6.718
11194TIP3    H133521   3.370   3.996   6.812
11194TIP3    H233522   3.327   3.924   6.686
11195TIP3   OH233523   2.456   4.002   5.995
11195TIP3    H133524   2.383   3.958   5.948
11195TIP3    H233525   2.508   4.037   5.919
11196TIP3   OH233526   3.573   5.680   6.943
11196TIP3    H133527   3.572   5.701   6.848
11196TIP3    H233528   3.653   5.726   6.973
11197TIP3   OH233529   2.527   4.793   7.361
11197TIP3    H133530   2.610   4.819   7.406
11197TIP3    H233531   2.467   4.788   7.438
11198TIP3   OH233532   2.992   4.245   6.619
11198TIP3    H133533   3.064   4.201   6.571
11198TIP3    H233534   2.997   4.203   6.707
11199TIP3   OH233535   2.516   3.733   6.495
11199TIP3    H133536   2.474   3.659   6.545
11199TIP3    H233537   2.568   3.683   6.432
11200TIP3   OH233538   2.972   4.146   6.903
11200TIP3    H133539   2.880   4.176   6.919
11200TIP3    H233540   3.025   4.207   6.957
11201TIP3   OH233541   2.707   4.532   5.999
11201TIP3    H133542   2.635   4.465   5.990
11201TIP3    H233543   2.688   4.565   6.091
11202TIP3   OH233544   3.608   4.763   6.630
11202TIP3    H133545   3.631   4.815   6.550
11202TIP3    H233546   3.522   4.724   6.606
11203TIP3   OH233547   3.164   3.841   5.868
11203TIP3    H133548   3.068   3.822   5.874
11203TIP3    H233549   3.170   3.936   5.889
11204TIP3   OH233550   3.100   4.856   7.004
11204TIP3    H133551   3.136   4.835   7.090
11204TIP3    H233552   3.134   4.948   6.991
11205TIP3   OH233553   3.232   4.091   5.969
11205TIP3    H133554   3.328   4.099   5.986
11205TIP3    H233555   3.212   4.171   5.917
11206TIP3   OH233556   2.399   4.555   6.677
11206TIP3    H133557   2.438   4.524   6.593
11206TIP3    H233558   2.441   4.495   6.741
11207TIP3   OH233559   2.848   4.679   5.814
11207TIP3    H133560   2.801   4.765   5.825
11207TIP3    H233561   2.798   4.623   5.878
11208TIP3   OH233562   2.278   4.476   7.293
11208TIP3    H133563   2.300   4.459   7.387
11208TIP3    H233564   2.213   4.406   7.276
11209TIP3   OH233565   3.008   4.584   7.312
11209TIP3    H133566   2.949   4.525   7.263
11209TIP3    H233567   3.096   4.552   7.283
11210TIP3   OH233568   3.689   4.202   5.785
11210TIP3    H133569   3.625   4.148   5.732
11210TIP3    H233570   3.660   4.290   5.750
11211TIP3   OH233571   3.897   5.038   6.886
11211TIP3    H133572   3.799   5.034   6.877
11211TIP3    H233573   3.923   5.009   6.796
11212TIP3   OH233574   3.361   5.000   5.707
11212TIP3    H133575   3.352   4.932   5.775
11212TIP3    H233576   3.386   4.949   5.628
11213TIP3   OH233577   3.374   4.630   6.546
11213TIP3    H133578   3.280   4.608   6.563
11213TIP3    H233579   3.403   4.548   6.501
11214TIP3   OH233580   2.499   4.856   6.299
11214TIP3    H133581   2.497   4.939   6.248
11214TIP3    H233582   2.405   4.839   6.314
11215TIP3   OH233583   2.061   4.161   6.005
11215TIP3    H133584   2.108   4.244   6.028
11215TIP3    H233585   1.986   4.165   6.068
11216TIP3   OH233586   2.637   4.621   6.244
11216TIP3    H133587   2.602   4.710   6.265
11216TIP3    H233588   2.604   4.570   6.320
11217TIP3   OH233589   2.757   5.206   6.758
11217TIP3    H133590   2.815   5.271   6.714
11217TIP3    H233591   2.820   5.174   6.828
11218TIP3   OH233592   2.417   5.098   6.153
11218TIP3    H133593   2.333   5.105   6.202
11218TIP3    H233594   2.449   5.191   6.158
11219TIP3   OH233595   3.154   4.826   6.732
11219TIP3    H133596   3.140   4.840   6.829
11219TIP3    H233597   3.245   4.794   6.732
11220TIP3   OH233598   3.115   4.727   5.616
11220TIP3    H133599   3.179   4.707   5.688
11220TIP3    H233600   3.034   4.691   5.655
11221TIP3   OH233601   3.413   5.366   6.788
11221TIP3    H133602   3.345   5.298   6.813
11221TIP3    H233603   3.371   5.413   6.714
11222TIP3   OH233604   3.471   5.202   5.433
11222TIP3    H133605   3.510   5.272   5.377
11222TIP3    H233606   3.392   5.251   5.465
11223TIP3   OH233607   2.491   3.980   7.299
11223TIP3    H133608   2.394   3.968   7.303
11223TIP3    H233609   2.519   3.913   7.364
11224TIP3   OH233610   3.291   4.660   5.822
11224TIP3    H133611   3.279   4.597   5.896
11224TIP3    H233612   3.389   4.659   5.814
11225TIP3   OH233613   2.216   5.076   6.941
11225TIP3    H133614   2.259   4.989   6.934
11225TIP3    H233615   2.247   5.100   7.029
11226TIP3   OH233616   2.496   4.710   5.613
11226TIP3    H133617   2.511   4.618   5.586
11226TIP3    H233618   2.478   4.699   5.709
11227TIP3   OH233619   2.443   4.713   5.884
11227TIP3    H133620   2.513   4.682   5.944
11227TIP3    H233621   2.448   4.811   5.896
11228TIP3   OH233622   2.177   4.405   6.089
11228TIP3    H133623   2.111   4.449   6.146
11228TIP3    H233624   2.191   4.475   6.022
11229TIP3   OH233625   3.361   4.034   6.992
11229TIP3    H133626   3.369   4.082   7.076
11229TIP3    H233627   3.320   3.951   7.025
11230TIP3   OH233628   3.212   3.792   6.147
11230TIP3    H133629   3.194   3.815   6.054
11230TIP3    H233630   3.247   3.876   6.183
11231TIP3   OH233631   2.708   4.910   5.830
11231TIP3    H133632   2.623   4.931   5.873
11231TIP3    H233633   2.723   4.993   5.783
11232TIP3   OH233634   2.898   3.974   6.249
11232TIP3    H133635   2.961   4.047   6.233
11232TIP3    H233636   2.901   3.966   6.347
11233TIP3   OH233637   3.169   4.295   7.058
11233TIP3    H133638   3.183   4.359   7.131
11233TIP3    H233639   3.215   4.218   7.093
11234TIP3   OH233640   3.042   3.701   6.353
11234TIP3    H133641   3.031   3.780   6.408
11234TIP3    H233642   3.103   3.735   6.283
11235TIP3   OH233643   2.454   4.986   5.904
11235TIP3    H133644   2.422   5.055   5.842
11235TIP3    H233645   2.437   5.028   5.991
11236TIP3   OH233646   2.553   3.700   6.138
11236TIP3    H133647   2.550   3.788   6.181
11236TIP3    H233648   2.649   3.680   6.148
11237TIP3   OH233649   3.458   4.384   6.422
11237TIP3    H133650   3.381   4.327   6.437
11237TIP3    H233651   3.529   4.338   6.472
11238TIP3   OH233652   2.171   4.614   5.894
11238TIP3    H133653   2.239   4.683   5.904
11238TIP3    H233654   2.216   4.558   5.827
11239TIP3   OH233655   2.116   3.892   6.025
11239TIP3    H133656   2.114   3.990   6.023
11239TIP3    H233657   2.029   3.870   5.991
11240TIP3   OH233658   3.427   5.342   6.372
11240TIP3    H133659   3.385   5.389   6.297
11240TIP3    H233660   3.521   5.362   6.353
11241TIP3   OH233661   2.042   4.834   6.281
11241TIP3    H133662   1.972   4.860   6.341
11241TIP3    H233663   2.010   4.873   6.196
11242TIP3   OH233664   2.201   5.375   7.347
11242TIP3    H133665   2.286   5.374   7.395
11242TIP3    H233666   2.179   5.280   7.350
11243TIP3   OH233667   2.678   5.337   7.397
11243TIP3    H133668   2.772   5.312   7.406
11243TIP3    H233669   2.653   5.279   7.322
11244TIP3   OH233670   2.662   4.909   5.525
11244TIP3    H133671   2.600   4.844   5.566
11244TIP3    H233672   2.739   4.852   5.515
11245TIP3   OH233673   2.328   4.778   7.555
11245TIP3    H133674   2.347   4.682   7.560
11245TIP3    H233675   2.241   4.778   7.508
11246TIP3   OH233676   2.307   4.428   5.748
11246TIP3    H133677   2.361   4.394   5.821
11246TIP3    H233678   2.375   4.432   5.677
11247TIP3   OH233679   2.935   4.857   7.336
11247TIP3    H133680   2.898   4.884   7.248
11247TIP3    H233681   2.968   4.767   7.318
11248TIP3   OH233682   2.806   4.632   5.544
11248TIP3    H133683   2.812   4.642   5.642
11248TIP3    H233684   2.815   4.535   5.538
11249TIP3   OH233685   3.432   4.861   6.930
11249TIP3    H133686   3.506   4.906   6.886
11249TIP3    H233687   3.369   4.937   6.936
11250TIP3   OH233688   2.449   4.515   7.534
11250TIP3    H133689   2.523   4.458   7.511
11250TIP3    H233690   2.475   4.545   7.624
11251TIP3   OH233691   2.513   4.334   5.968
11251TIP3    H133692   2.487   4.294   6.052
11251TIP3    H233693   2.550   4.257   5.920
11252TIP3   OH233694   2.781   4.394   7.194
11252TIP3    H133695   2.705   4.456   7.196
11252TIP3    H233696   2.833   4.429   7.117
11253TIP3   OH233697   2.615   4.127   5.809
11253TIP3    H133698   2.591   4.130   5.714
11253TIP3    H233699   2.713   4.129   5.803
11254TIP3   OH233700   3.299   4.803   7.333
11254TIP3    H133701   3.379   4.781   7.285
11254TIP3    H233702   3.298   4.735   7.404
11255TIP3   OH233703   3.435   4.462   5.473
11255TIP3    H133704   3.413   4.413   5.391
11255TIP3    H233705   3.400   4.551   5.448
11256TIP3   OH233706   2.908   4.188   7.323
11256TIP3    H133707   2.905   4.106   7.270
11256TIP3    H233708   2.861   4.252   7.266
11257TIP3   OH233709   2.909   3.974   7.130
11257TIP3    H133710   2.933   4.013   7.044
11257TIP3    H233711   2.816   3.946   7.114
11258TIP3   OH233712   2.936   4.504   7.002
11258TIP3    H133713   3.021   4.522   6.960
11258TIP3    H233714   2.879   4.572   6.961
11259TIP3   OH233715   3.512   4.470   7.371
11259TIP3    H133716   3.546   4.408   7.440
11259TIP3    H233717   3.586   4.533   7.363
11260TIP3   OH233718   3.564   4.719   7.116
11260TIP3    H133719   3.502   4.772   7.060
11260TIP3    H233720   3.649   4.750   7.078
11261TIP3   OH233721   2.782   4.298   7.553
11261TIP3    H133722   2.716   4.226   7.569
11261TIP3    H233723   2.818   4.271   7.467
11262TIP3   OH233724   3.038   3.734   7.195
11262TIP3    H133725   2.989   3.816   7.176
11262TIP3    H233726   2.966   3.667   7.190
11263TIP3   OH233727   3.173   4.236   7.408
11263TIP3    H133728   3.168   4.224   7.505
11263TIP3    H233729   3.080   4.214   7.385
11264TIP3   OH233730   3.403   4.169   7.243
11264TIP3    H133731   3.333   4.187   7.309
11264TIP3    H233732   3.478   4.151   7.304
11265TIP3   OH233733   3.621   4.121   7.397
11265TIP3    H133734   3.647   4.035   7.434
11265TIP3    H233735   3.633   4.181   7.474
11266TIP3   OH233736   2.625   4.080   7.610
11266TIP3    H133737   2.624   3.988   7.575
11266TIP3    H233738   2.661   4.064   7.699
11267TIP3   OH233739   3.138   3.746   7.452
11267TIP3    H133740   3.202   3.672   7.448
11267TIP3    H233741   3.094   3.737   7.365
11268TIP3   OH233742   3.201   3.960   7.613
11268TIP3    H133743   3.179   3.888   7.549
11268TIP3    H233744   3.122   4.017   7.607
11269TIP3   OH233745   2.422   5.189   5.715
11269TIP3    H133746   2.517   5.184   5.694
11269TIP3    H233747   2.390   5.238   5.637
11270TIP3   OH233748   1.902   4.572   5.928
11270TIP3    H133749   1.997   4.592   5.916
11270TIP3    H233750   1.897   4.482   5.889
11271TIP3   OH233751   1.819   5.185   6.346
11271TIP3    H133752   1.753   5.123   6.307
11271TIP3    H233753   1.862   5.126   6.411
11272TIP3   OH233754   1.952   5.034   6.534
11272TIP3    H133755   1.940   4.957   6.593
11272TIP3    H233756   2.001   5.093   6.593
11273TIP3   OH233757   3.679   5.436   6.331
11273TIP3    H133758   3.705   5.463   6.421
11273TIP3    H233759   3.747   5.477   6.276
11274TIP3   OH233760   3.709   5.452   6.612
11274TIP3    H133761   3.662   5.366   6.612
11274TIP3    H233762   3.783   5.430   6.670
11275TIP3   OH233763   3.759   5.131   7.186
11275TIP3    H133764   3.683   5.142   7.247
11275TIP3    H233765   3.799   5.220   7.191
11276TIP3   OH233766   3.571   4.646   5.805
11276TIP3    H133767   3.639   4.710   5.777
11276TIP3    H233768   3.614   4.605   5.883
11277TIP3   OH233769   3.702   4.498   5.996
11277TIP3    H133770   3.639   4.462   6.062
11277TIP3    H233771   3.775   4.531   6.052
11278TIP3   OH233772   3.755   4.903   6.442
11278TIP3    H133773   3.806   4.840   6.389
11278TIP3    H233774   3.746   4.979   6.381
11279TIP3   OH233775   3.582   5.202   6.639
11279TIP3    H133776   3.513   5.245   6.694
11279TIP3    H233777   3.528   5.157   6.571
11280TIP3   OH233778   3.635   4.426   5.653
11280TIP3    H133779   3.563   4.429   5.586
11280TIP3    H233780   3.606   4.502   5.709
11281TIP3   OH233781   3.516   4.084   5.617
11281TIP3    H133782   3.475   4.131   5.543
11281TIP3    H233783   3.486   3.992   5.598
11282TIP3   OH233784   3.515   4.365   6.155
11282TIP3    H133785   3.515   4.269   6.155
11282TIP3    H233786   3.500   4.385   6.251
11283TIP3   OH233787   2.139   4.443   6.902
11283TIP3    H133788   2.137   4.409   6.811
11283TIP3    H233789   2.236   4.443   6.920
11284TIP3   OH233790   3.803   4.794   7.012
11284TIP3    H133791   3.877   4.730   7.001
11284TIP3    H233792   3.828   4.866   6.951
11285TIP3   OH233793   3.986   4.598   7.019
11285TIP3    H133794   3.917   4.544   7.063
11285TIP3    H233795   4.064   4.540   7.034
11286TIP3   OH233796   3.457   3.813   5.584
11286TIP3    H133797   3.519   3.788   5.655
11286TIP3    H233798   3.373   3.769   5.611
11287TIP3   OH233799   3.507   4.081   6.056
11287TIP3    H133800   3.546   3.992   6.068
11287TIP3    H233801   3.569   4.119   5.993
11288TIP3   OH233802   3.672   4.256   6.546
11288TIP3    H133803   3.758   4.282   6.506
11288TIP3    H233804   3.683   4.299   6.633
11289TIP3   OH233805   3.730   4.401   6.779
11289TIP3    H133806   3.657   4.445   6.827
11289TIP3    H233807   3.770   4.478   6.732
11290TIP3   OH233808   2.359   4.133   7.585
11290TIP3    H133809   2.456   4.123   7.581
11290TIP3    H233810   2.334   4.044   7.618
11291TIP3   OH233811   4.166   3.969   7.286
11291TIP3    H133812   4.247   3.915   7.272
11291TIP3    H233813   4.204   4.056   7.313
11292TIP3   OH233814   3.621   3.833   6.084
11292TIP3    H133815   3.667   3.818   6.170
11292TIP3    H233816   3.557   3.758   6.085
11293TIP3   OH233817   2.317   3.814   6.906
11293TIP3    H133818   2.364   3.737   6.941
11293TIP3    H233819   2.387   3.881   6.900
11294TIP3   OH233820   2.118   4.094   6.977
11294TIP3    H133821   2.170   4.088   6.894
11294TIP3    H233822   2.154   4.174   7.017
11295TIP3   OH233823   4.024   4.153   7.131
11295TIP3    H133824   4.020   4.150   7.228
11295TIP3    H233825   4.076   4.072   7.114
11296TIP3   OH233826   3.706   3.766   5.718
11296TIP3    H133827   3.724   3.680   5.674
11296TIP3    H233828   3.773   3.820   5.676
11297TIP3   OH233829   2.102   3.594   6.479
11297TIP3    H133830   2.009   3.593   6.509
11297TIP3    H233831   2.099   3.654   6.402
11298TIP3   OH233832   3.255   5.304   5.981
11298TIP3    H133833   3.314   5.292   5.904
11298TIP3    H233834   3.308   5.364   6.038
11299TIP3   OH233835   2.320   3.733   7.316
11299TIP3    H133836   2.278   3.681   7.387
11299TIP3    H233837   2.255   3.723   7.244
11300TIP3   OH233838   2.359   5.113   7.372
11300TIP3    H133839   2.271   5.075   7.359
11300TIP3    H233840   2.382   5.083   7.461
11301TIP3   OH233841   2.542   5.137   6.922
11301TIP3    H133842   2.503   5.215   6.876
11301TIP3    H233843   2.631   5.142   6.882
11302TIP3   OH233844   2.986   5.419   7.077
11302TIP3    H133845   3.038   5.384   7.152
11302TIP3    H233846   3.055   5.436   7.011
11303TIP3   OH233847   3.170   5.537   6.907
11303TIP3    H133848   3.237   5.473   6.879
11303TIP3    H233849   3.221   5.591   6.971
11304TIP3   OH233850   2.224   5.438   6.932
11304TIP3    H133851   2.127   5.414   6.907
11304TIP3    H233852   2.239   5.366   7.002
11305TIP3   OH233853   2.455   5.372   6.798
11305TIP3    H133854   2.367   5.393   6.835
11305TIP3    H233855   2.447   5.407   6.707
11306TIP3   OH233856   2.882   5.405   6.598
11306TIP3    H133857   2.814   5.430   6.533
11306TIP3    H233858   2.896   5.490   6.646
11307TIP3   OH233859   3.151   5.342   6.636
11307TIP3    H133860   3.056   5.361   6.628
11307TIP3    H233861   3.192   5.426   6.609
11308TIP3   OH233862   3.352   5.533   6.564
11308TIP3    H133863   3.343   5.617   6.514
11308TIP3    H233864   3.381   5.470   6.495
11309TIP3   OH233865   2.138   5.192   6.698
11309TIP3    H133866   2.164   5.154   6.785
11309TIP3    H233867   2.205   5.146   6.641
11310TIP3   OH233868   2.325   5.059   6.549
11310TIP3    H133869   2.340   4.974   6.596
11310TIP3    H233870   2.416   5.094   6.545
11311TIP3   OH233871   2.590   5.152   6.551
11311TIP3    H133872   2.621   5.060   6.541
11311TIP3    H233873   2.644   5.176   6.631
11312TIP3   OH233874   3.169   3.809   6.643
11312TIP3    H133875   3.121   3.741   6.694
11312TIP3    H233876   3.235   3.757   6.595
11313TIP3   OH233877   3.688   3.696   6.546
11313TIP3    H133878   3.725   3.747   6.471
11313TIP3    H233879   3.592   3.707   6.533
11314TIP3   OH233880   3.786   3.798   6.304
11314TIP3    H133881   3.859   3.745   6.267
11314TIP3    H233882   3.819   3.889   6.292
11315TIP3   OH233883   2.411   3.523   6.626
11315TIP3    H133884   2.323   3.488   6.651
11315TIP3    H233885   2.467   3.446   6.649
11316TIP3   OH233886   2.190   3.390   6.296
11316TIP3    H133887   2.228   3.449   6.229
11316TIP3    H233888   2.172   3.452   6.369
11317TIP3   OH233889   2.858   3.552   6.530
11317TIP3    H133890   2.921   3.603   6.478
11317TIP3    H233891   2.874   3.585   6.620
11318TIP3   OH233892   3.409   3.697   6.514
11318TIP3    H133893   3.400   3.657   6.427
11318TIP3    H233894   3.395   3.619   6.573
11319TIP3   OH233895   3.435   3.622   6.080
11319TIP3    H133896   3.348   3.664   6.094
11319TIP3    H233897   3.421   3.537   6.126
11320TIP3   OH233898   1.920   4.959   6.077
11320TIP3    H133899   1.833   4.925   6.046
11320TIP3    H233900   1.907   5.054   6.061
11321TIP3   OH233901   2.319   3.551   6.061
11321TIP3    H133902   2.368   3.485   6.007
11321TIP3    H233903   2.393   3.603   6.099
11322TIP3   OH233904   2.831   3.723   6.163
11322TIP3    H133905   2.887   3.674   6.226
11322TIP3    H233906   2.854   3.815   6.189
11323TIP3   OH233907   2.690   5.145   5.661
11323TIP3    H133908   2.773   5.175   5.622
11323TIP3    H233909   2.669   5.068   5.604
11324TIP3   OH233910   3.408   5.265   5.754
11324TIP3    H133911   3.398   5.168   5.742
11324TIP3    H233912   3.366   5.298   5.672
11325TIP3   OH233913   2.623   3.814   7.549
11325TIP3    H133914   2.586   3.728   7.574
11325TIP3    H233915   2.716   3.804   7.579
11326TIP3   OH233916   2.873   3.797   7.668
11326TIP3    H133917   2.957   3.768   7.628
11326TIP3    H233918   2.859   3.727   7.736
11327TIP3   OH233919   1.994   4.985   5.719
11327TIP3    H133920   1.991   5.006   5.813
11327TIP3    H233921   2.083   4.944   5.709
11328TIP3   OH233922   3.693   3.855   7.455
11328TIP3    H133923   3.712   3.827   7.547
11328TIP3    H233924   3.782   3.855   7.415
11329TIP3   OH233925   3.637   5.410   6.946
11329TIP3    H133926   3.558   5.376   6.899
11329TIP3    H233927   3.613   5.505   6.951
11330TIP3   OH233928   4.902   4.781   5.707
11330TIP3    H133929   4.873   4.873   5.689
11330TIP3    H233930   4.825   4.733   5.673
11331TIP3   OH233931   4.903   4.779   6.087
11331TIP3    H133932   4.934   4.760   6.177
11331TIP3    H233933   4.861   4.696   6.061
11332TIP3   OH233934   4.200   4.676   6.457
11332TIP3    H133935   4.231   4.609   6.521
11332TIP3    H233936   4.275   4.738   6.458
11333TIP3   OH233937   5.146   5.085   5.773
11333TIP3    H133938   5.129   5.016   5.838
11333TIP3    H233939   5.173   5.160   5.829
11334TIP3   OH233940   4.170   5.084   6.177
11334TIP3    H133941   4.162   4.987   6.182
11334TIP3    H233942   4.267   5.095   6.171
11335TIP3   OH233943   3.944   4.576   6.123
11335TIP3    H133944   3.998   4.504   6.164
11335TIP3    H233945   4.012   4.637   6.091
11336TIP3   OH233946   4.793   5.552   5.797
11336TIP3    H133947   4.839   5.475   5.757
11336TIP3    H233948   4.807   5.537   5.892
11337TIP3   OH233949   4.697   5.006   6.138
11337TIP3    H133950   4.742   4.932   6.093
11337TIP3    H233951   4.779   5.055   6.165
11338TIP3   OH233952   5.713   4.329   6.136
11338TIP3    H133953   5.744   4.412   6.177
11338TIP3    H233954   5.735   4.344   6.043
11339TIP3   OH233955   5.110   4.508   6.171
11339TIP3    H133956   5.155   4.423   6.190
11339TIP3    H233957   5.081   4.493   6.079
11340TIP3   OH233958   4.447   4.167   6.142
11340TIP3    H133959   4.437   4.239   6.076
11340TIP3    H233960   4.406   4.093   6.092
11341TIP3   OH233961   5.144   4.262   5.757
11341TIP3    H133962   5.216   4.246   5.823
11341TIP3    H233963   5.197   4.296   5.682
11342TIP3   OH233964   4.083   4.365   6.240
11342TIP3    H133965   4.168   4.363   6.288
11342TIP3    H233966   4.075   4.272   6.213
11343TIP3   OH233967   4.526   4.568   6.035
11343TIP3    H133968   4.621   4.546   6.048
11343TIP3    H233969   4.490   4.481   6.005
11344TIP3   OH233970   5.788   4.539   6.305
11344TIP3    H133971   5.704   4.584   6.284
11344TIP3    H233972   5.795   4.559   6.399
11345TIP3   OH233973   4.447   4.152   6.569
11345TIP3    H133974   4.387   4.193   6.504
11345TIP3    H233975   4.396   4.168   6.652
11346TIP3   OH233976   4.791   5.003   5.578
11346TIP3    H133977   4.753   4.988   5.490
11346TIP3    H233978   4.749   5.088   5.603
11347TIP3   OH233979   4.552   4.928   6.364
11347TIP3    H133980   4.492   4.997   6.401
11347TIP3    H233981   4.597   4.977   6.293
11348TIP3   OH233982   5.353   4.264   5.931
11348TIP3    H133983   5.346   4.215   6.014
11348TIP3    H233984   5.407   4.341   5.957
11349TIP3   OH233985   4.316   4.271   6.357
11349TIP3    H133986   4.378   4.343   6.382
11349TIP3    H233987   4.368   4.228   6.284
11350TIP3   OH233988   4.379   5.123   6.461
11350TIP3    H133989   4.358   5.211   6.424
11350TIP3    H233990   4.300   5.109   6.518
11351TIP3   OH233991   3.775   4.813   5.699
11351TIP3    H133992   3.737   4.843   5.615
11351TIP3    H233993   3.807   4.897   5.737
11352TIP3   OH233994   5.199   5.329   5.950
11352TIP3    H133995   5.113   5.330   5.995
11352TIP3    H233996   5.197   5.414   5.902
11353TIP3   OH233997   5.506   4.231   6.304
11353TIP3    H133998   5.419   4.257   6.270
11353TIP3    H233999   5.566   4.261   6.232
11354TIP3   OH234000   4.800   3.870   6.281
11354TIP3    H134001   4.789   3.775   6.303
11354TIP3    H234002   4.723   3.908   6.330
11355TIP3   OH234003   4.919   5.374   5.618
11355TIP3    H134004   4.967   5.291   5.594
11355TIP3    H234005   4.978   5.440   5.575
11356TIP3   OH234006   5.060   5.159   5.520
11356TIP3    H134007   5.025   5.079   5.479
11356TIP3    H234008   5.096   5.123   5.604
11357TIP3   OH234009   5.445   5.240   6.283
11357TIP3    H134010   5.428   5.163   6.224
11357TIP3    H234011   5.420   5.315   6.225
11358TIP3   OH234012   4.732   4.634   5.540
11358TIP3    H134013   4.654   4.689   5.517
11358TIP3    H234014   4.779   4.630   5.455
11359TIP3   OH234015   4.692   4.413   5.263
11359TIP3    H134016   4.758   4.470   5.304
11359TIP3    H234017   4.750   4.353   5.211
11360TIP3   OH234018   5.637   4.881   6.130
11360TIP3    H134019   5.552   4.930   6.134
11360TIP3    H234020   5.665   4.903   6.038
11361TIP3   OH234021   5.081   4.717   5.511
11361TIP3    H134022   5.026   4.741   5.589
11361TIP3    H234023   5.165   4.692   5.554
11362TIP3   OH234024   5.314   4.757   6.424
11362TIP3    H134025   5.310   4.841   6.473
11362TIP3    H234026   5.228   4.759   6.379
11363TIP3   OH234027   4.314   4.715   5.933
11363TIP3    H134028   4.273   4.655   5.867
11363TIP3    H234029   4.393   4.663   5.961
11364TIP3   OH234030   4.439   5.118   6.081
11364TIP3    H134031   4.427   5.085   5.990
11364TIP3    H234032   4.531   5.089   6.100
11365TIP3   OH234033   4.445   4.689   6.278
11365TIP3    H134034   4.484   4.667   6.192
11365TIP3    H234035   4.491   4.773   6.302
11366TIP3   OH234036   4.581   5.238   6.617
11366TIP3    H134037   4.519   5.303   6.657
11366TIP3    H234038   4.519   5.187   6.561
11367TIP3   OH234039   4.918   4.575   5.338
11367TIP3    H134040   4.978   4.635   5.388
11367TIP3    H234041   4.944   4.597   5.245
11368TIP3   OH234042   4.340   4.798   6.707
11368TIP3    H134043   4.347   4.885   6.750
11368TIP3    H234044   4.246   4.778   6.723
11369TIP3   OH234045   4.665   5.254   5.613
11369TIP3    H134046   4.743   5.308   5.633
11369TIP3    H234047   4.604   5.319   5.574
11370TIP3   OH234048   4.379   5.411   6.694
11370TIP3    H134049   4.346   5.414   6.603
11370TIP3    H234050   4.299   5.389   6.746
11371TIP3   OH234051   5.437   3.815   5.386
11371TIP3    H134052   5.355   3.837   5.436
11371TIP3    H234053   5.451   3.898   5.336
11372TIP3   OH234054   4.174   4.555   5.738
11372TIP3    H134055   4.121   4.620   5.687
11372TIP3    H234056   4.146   4.473   5.695
11373TIP3   OH234057   5.236   5.182   4.935
11373TIP3    H134058   5.245   5.279   4.920
11373TIP3    H234059   5.328   5.152   4.923
11374TIP3   OH234060   3.960   4.942   6.641
11374TIP3    H134061   3.891   4.920   6.575
11374TIP3    H234062   3.997   4.854   6.664
11375TIP3   OH234063   3.815   5.135   6.271
11375TIP3    H134064   3.912   5.131   6.264
11375TIP3    H234065   3.804   5.212   6.330
11376TIP3   OH234066   5.678   5.588   6.329
11376TIP3    H134067   5.677   5.491   6.342
11376TIP3    H234068   5.593   5.612   6.374
11377TIP3   OH234069   4.785   5.361   6.478
11377TIP3    H134070   4.784   5.457   6.494
11377TIP3    H234071   4.711   5.330   6.534
11378TIP3   OH234072   4.545   5.500   5.415
11378TIP3    H134073   4.499   5.482   5.331
11378TIP3    H234074   4.511   5.588   5.440
11379TIP3   OH234075   3.982   5.350   5.802
11379TIP3    H134076   4.034   5.342   5.885
11379TIP3    H234077   3.924   5.272   5.810
11380TIP3   OH234078   4.746   5.403   5.055
11380TIP3    H134079   4.805   5.333   5.019
11380TIP3    H234080   4.780   5.411   5.147
11381TIP3   OH234081   4.797   5.450   5.325
11381TIP3    H134082   4.708   5.459   5.367
11381TIP3    H234083   4.847   5.410   5.398
11382TIP3   OH234084   5.569   4.717   6.603
11382TIP3    H134085   5.486   4.730   6.554
11382TIP3    H234086   5.584   4.622   6.591
11383TIP3   OH234087   4.164   5.125   6.628
11383TIP3    H134088   4.214   5.109   6.711
11383TIP3    H234089   4.090   5.062   6.637
11384TIP3   OH234090   4.563   3.947   6.414
11384TIP3    H134091   4.474   3.917   6.387
11384TIP3    H234092   4.538   4.028   6.462
11385TIP3   OH234093   5.099   4.062   6.608
11385TIP3    H134094   5.168   4.034   6.671
11385TIP3    H234095   5.016   4.042   6.656
11386TIP3   OH234096   5.338   4.494   6.528
11386TIP3    H134097   5.286   4.489   6.611
11386TIP3    H234098   5.312   4.580   6.491
11387TIP3   OH234099   5.000   4.622   5.086
11387TIP3    H134100   4.961   4.598   5.000
11387TIP3    H234101   5.082   4.666   5.057
11388TIP3   OH234102   4.706   3.997   5.385
11388TIP3    H134103   4.674   3.991   5.477
11388TIP3    H234104   4.670   3.913   5.350
11389TIP3   OH234105   4.493   4.467   6.430
11389TIP3    H134106   4.448   4.490   6.514
11389TIP3    H234107   4.477   4.548   6.377
11390TIP3   OH234108   4.385   4.342   5.945
11390TIP3    H134109   4.291   4.321   5.942
11390TIP3    H234110   4.411   4.309   5.856
11391TIP3   OH234111   4.868   4.432   5.673
11391TIP3    H134112   4.818   4.505   5.630
11391TIP3    H234113   4.925   4.401   5.599
11392TIP3   OH234114   5.045   4.712   6.759
11392TIP3    H134115   5.023   4.639   6.821
11392TIP3    H234116   5.138   4.727   6.781
11393TIP3   OH234117   5.025   4.462   5.913
11393TIP3    H134118   4.966   4.493   5.842
11393TIP3    H234119   5.060   4.382   5.868
11394TIP3   OH234120   4.313   4.492   6.642
11394TIP3    H134121   4.344   4.558   6.706
11394TIP3    H234122   4.308   4.411   6.697
11395TIP3   OH234123   4.363   3.968   5.350
11395TIP3    H134124   4.356   3.969   5.447
11395TIP3    H234125   4.286   4.021   5.324
11396TIP3   OH234126   3.916   4.029   6.201
11396TIP3    H134127   3.987   4.044   6.268
11396TIP3    H234128   3.957   3.965   6.141
11397TIP3   OH234129   3.907   4.034   5.768
11397TIP3    H134130   3.951   4.032   5.680
11397TIP3    H234131   3.814   4.023   5.739
11398TIP3   OH234132   5.039   4.707   6.336
11398TIP3    H134133   5.070   4.636   6.276
11398TIP3    H234134   5.007   4.654   6.412
11399TIP3   OH234135   4.707   4.175   6.009
11399TIP3    H134136   4.631   4.167   6.070
11399TIP3    H234137   4.782   4.167   6.070
11400TIP3   OH234138   4.410   4.227   5.699
11400TIP3    H134139   4.507   4.236   5.685
11400TIP3    H234140   4.372   4.248   5.612
11401TIP3   OH234141   5.202   4.248   6.210
11401TIP3    H134142   5.166   4.260   6.301
11401TIP3    H234143   5.136   4.187   6.173
11402TIP3   OH234144   4.242   4.261   5.479
11402TIP3    H134145   4.185   4.210   5.418
11402TIP3    H234146   4.302   4.302   5.413
11403TIP3   OH234147   5.371   5.933   6.427
11403TIP3    H134148   5.363   5.956   6.333
11403TIP3    H234149   5.444   5.989   6.456
11404TIP3   OH234150   4.326   5.045   6.848
11404TIP3    H134151   4.406   5.076   6.895
11404TIP3    H234152   4.262   5.045   6.922
11405TIP3   OH234153   4.789   4.499   6.102
11405TIP3    H134154   4.864   4.464   6.052
11405TIP3    H234155   4.800   4.457   6.189
11406TIP3   OH234156   4.323   3.986   5.980
11406TIP3    H134157   4.282   3.911   6.028
11406TIP3    H234158   4.376   3.941   5.914
11407TIP3   OH234159   4.765   4.396   6.398
11407TIP3    H134160   4.677   4.436   6.409
11407TIP3    H234161   4.824   4.458   6.445
11408TIP3   OH234162   4.501   4.787   5.488
11408TIP3    H134163   4.428   4.724   5.476
11408TIP3    H234164   4.483   4.821   5.579
11409TIP3   OH234165   5.403   5.022   6.119
11409TIP3    H134166   5.425   5.073   6.038
11409TIP3    H234167   5.318   4.979   6.094
11410TIP3   OH234168   4.961   4.096   5.358
11410TIP3    H134169   4.864   4.082   5.361
11410TIP3    H234170   4.971   4.192   5.376
11411TIP3   OH234171   4.897   5.106   6.485
11411TIP3    H134172   4.926   5.098   6.577
11411TIP3    H234173   4.868   5.199   6.480
11412TIP3   OH234174   5.030   4.348   5.457
11412TIP3    H134175   5.127   4.354   5.470
11412TIP3    H234176   5.011   4.427   5.402
11413TIP3   OH234177   4.182   4.789   6.165
11413TIP3    H134178   4.230   4.774   6.080
11413TIP3    H234179   4.243   4.749   6.228
11414TIP3   OH234180   4.651   4.938   5.315
11414TIP3    H134181   4.601   5.023   5.318
11414TIP3    H234182   4.596   4.882   5.373
11415TIP3   OH234183   4.077   4.730   6.778
11415TIP3    H134184   4.100   4.720   6.872
11415TIP3    H234185   4.008   4.663   6.768
11416TIP3   OH234186   4.803   4.843   6.798
11416TIP3    H134187   4.744   4.786   6.747
11416TIP3    H234188   4.891   4.811   6.769
11417TIP3   OH234189   5.076   5.347   6.391
11417TIP3    H134190   4.991   5.371   6.350
11417TIP3    H234191   5.081   5.411   6.464
11418TIP3   OH234192   5.472   4.439   5.292
11418TIP3    H134193   5.409   4.394   5.230
11418TIP3    H234194   5.469   4.528   5.250
11419TIP3   OH234195   5.694   5.299   6.370
11419TIP3    H134196   5.596   5.291   6.363
11419TIP3    H234197   5.719   5.266   6.280
11420TIP3   OH234198   5.176   5.256   5.201
11420TIP3    H134199   5.146   5.187   5.261
11420TIP3    H234200   5.186   5.209   5.116
11421TIP3   OH234201   5.172   4.886   6.035
11421TIP3    H134202   5.077   4.866   6.051
11421TIP3    H234203   5.200   4.805   5.990
11422TIP3   OH234204   4.297   5.112   5.787
11422TIP3    H134205   4.300   5.195   5.735
11422TIP3    H234206   4.203   5.102   5.801
11423TIP3   OH234207   3.866   4.419   5.498
11423TIP3    H134208   3.909   4.506   5.511
11423TIP3    H234209   3.782   4.432   5.547
11424TIP3   OH234210   4.430   4.876   5.732
11424TIP3    H134211   4.398   4.967   5.749
11424TIP3    H234212   4.398   4.830   5.812
11425TIP3   OH234213   4.577   5.455   6.257
11425TIP3    H134214   4.631   5.524   6.214
11425TIP3    H234215   4.650   5.406   6.298
11426TIP3   OH234216   4.215   5.354   5.642
11426TIP3    H134217   4.130   5.363   5.688
11426TIP3    H234218   4.248   5.447   5.647
11427TIP3   OH234219   4.949   5.072   6.216
11427TIP3    H134220   4.939   5.087   6.313
11427TIP3    H234221   5.042   5.048   6.209
11428TIP3   OH234222   4.930   4.987   5.100
11428TIP3    H134223   4.981   4.961   5.180
11428TIP3    H234224   4.841   4.955   5.124
11429TIP3   OH234225   5.192   5.618   6.261
11429TIP3    H134226   5.107   5.571   6.249
11429TIP3    H234227   5.182   5.688   6.193
11430TIP3   OH234228   5.268   5.458   4.920
11430TIP3    H134229   5.305   5.531   4.867
11430TIP3    H234230   5.188   5.502   4.954
11431TIP3   OH234231   4.293   4.230   6.788
11431TIP3    H134232   4.199   4.233   6.813
11431TIP3    H234233   4.329   4.175   6.860
11432TIP3   OH234234   5.089   4.920   5.318
11432TIP3    H134235   5.078   4.852   5.388
11432TIP3    H234236   5.186   4.915   5.305
11433TIP3   OH234237   4.003   5.318   6.418
11433TIP3    H134238   4.059   5.247   6.454
11433TIP3    H234239   4.029   5.392   6.473
11434TIP3   OH234240   4.292   4.968   5.103
11434TIP3    H134241   4.302   4.879   5.065
11434TIP3    H234242   4.274   4.949   5.197
11435TIP3   OH234243   4.236   4.969   5.379
11435TIP3    H134244   4.316   4.946   5.429
11435TIP3    H234245   4.240   5.067   5.381
11436TIP3   OH234246   3.974   4.664   5.575
11436TIP3    H134247   3.909   4.712   5.631
11436TIP3    H234248   3.990   4.732   5.506
11437TIP3   OH234249   5.125   4.299   6.469
11437TIP3    H134250   5.206   4.337   6.508
11437TIP3    H234251   5.111   4.218   6.523
11438TIP3   OH234252   5.002   4.051   5.636
11438TIP3    H134253   4.990   4.072   5.541
11438TIP3    H234254   5.043   4.133   5.669
11439TIP3   OH234255   4.504   5.164   5.323
11439TIP3    H134256   4.417   5.193   5.358
11439TIP3    H234257   4.521   5.234   5.258
11440TIP3   OH234258   4.686   4.233   5.737
11440TIP3    H134259   4.753   4.302   5.717
11440TIP3    H234260   4.699   4.223   5.834
11441TIP3   OH234261   4.962   4.547   6.543
11441TIP3    H134262   4.985   4.602   6.621
11441TIP3    H234263   5.018   4.468   6.556
11442TIP3   OH234264   4.837   3.954   5.835
11442TIP3    H134265   4.840   4.028   5.900
11442TIP3    H234266   4.897   3.989   5.766
11443TIP3   OH234267   4.248   5.242   5.389
11443TIP3    H134268   4.219   5.313   5.327
11443TIP3    H234269   4.233   5.286   5.476
11444TIP3   OH234270   4.347   3.958   5.627
11444TIP3    H134271   4.352   4.047   5.665
11444TIP3    H234272   4.442   3.933   5.634
11445TIP3   OH234273   5.604   4.449   6.521
11445TIP3    H134274   5.506   4.450   6.532
11445TIP3    H234275   5.611   4.401   6.438
11446TIP3   OH234276   5.254   4.642   5.911
11446TIP3    H134277   5.178   4.583   5.924
11446TIP3    H234278   5.325   4.595   5.959
11447TIP3   OH234279   3.966   4.870   5.381
11447TIP3    H134280   4.035   4.939   5.391
11447TIP3    H234281   4.011   4.814   5.314
11448TIP3   OH234282   3.889   4.150   5.528
11448TIP3    H134283   3.901   4.244   5.506
11448TIP3    H234284   3.845   4.117   5.448
11449TIP3   OH234285   5.224   5.589   5.855
11449TIP3    H134286   5.179   5.641   5.786
11449TIP3    H234287   5.317   5.613   5.837
11450TIP3   OH234288   4.296   3.867   6.389
11450TIP3    H134289   4.269   3.831   6.302
11450TIP3    H234290   4.288   3.788   6.447
11451TIP3   OH234291   3.834   5.077   5.767
11451TIP3    H134292   3.769   5.115   5.828
11451TIP3    H234293   3.811   5.123   5.683
11452TIP3   OH234294   3.994   5.630   6.841
11452TIP3    H134295   4.081   5.629   6.887
11452TIP3    H234296   3.974   5.535   6.840
11453TIP3   OH234297   4.475   5.591   6.887
11453TIP3    H134298   4.570   5.574   6.890
11453TIP3    H234299   4.449   5.533   6.812
11454TIP3   OH234300   4.460   5.168   5.015
11454TIP3    H134301   4.403   5.096   5.051
11454TIP3    H234302   4.534   5.115   4.979
11455TIP3   OH234303   5.109   5.505   6.624
11455TIP3    H134304   5.103   5.431   6.688
11455TIP3    H234305   5.189   5.552   6.652
11456TIP3   OH234306   4.895   5.209   4.926
11456TIP3    H134307   4.935   5.142   4.985
11456TIP3    H234308   4.951   5.205   4.846
11457TIP3   OH234309   4.126   5.036   7.042
11457TIP3    H134310   4.141   4.940   7.050
11457TIP3    H234311   4.039   5.039   6.997
11458TIP3   OH234312   4.100   4.682   5.235
11458TIP3    H134313   4.162   4.655   5.305
11458TIP3    H234314   4.162   4.687   5.159
11459TIP3   OH234315   4.733   5.121   6.816
11459TIP3    H134316   4.692   5.142   6.730
11459TIP3    H234317   4.763   5.028   6.803
11460TIP3   OH234318   4.616   4.887   5.044
11460TIP3    H134319   4.619   4.896   5.141
11460TIP3    H234320   4.616   4.789   5.035
11461TIP3   OH234321   5.228   5.124   6.421
11461TIP3    H134322   5.301   5.172   6.377
11461TIP3    H234323   5.157   5.192   6.413
11462TIP3   OH234324   4.246   4.766   7.022
11462TIP3    H134325   4.323   4.711   7.004
11462TIP3    H234326   4.269   4.801   7.111
11463TIP3   OH234327   4.307   4.589   5.453
11463TIP3    H134328   4.297   4.542   5.537
11463TIP3    H234329   4.348   4.521   5.396
11464TIP3   OH234330   4.576   4.649   6.679
11464TIP3    H134331   4.502   4.712   6.683
11464TIP3    H234332   4.630   4.685   6.604
11465TIP3   OH234333   4.412   4.382   5.304
11465TIP3    H134334   4.387   4.386   5.209
11465TIP3    H234335   4.510   4.383   5.295
11466TIP3   OH234336   5.096   5.055   6.821
11466TIP3    H134337   5.171   5.026   6.768
11466TIP3    H234338   5.093   4.987   6.891
11467TIP3   OH234339   5.232   4.713   4.961
11467TIP3    H134340   5.214   4.666   4.877
11467TIP3    H234341   5.198   4.802   4.936
11468TIP3   OH234342   4.703   4.442   6.809
11468TIP3    H134343   4.704   4.362   6.752
11468TIP3    H234344   4.659   4.508   6.751
11469TIP3   OH234345   4.705   4.227   6.619
11469TIP3    H134346   4.734   4.270   6.535
11469TIP3    H234347   4.612   4.205   6.598
11470TIP3   OH234348   4.731   4.762   6.489
11470TIP3    H134349   4.817   4.778   6.449
11470TIP3    H234350   4.675   4.830   6.446
11471TIP3   OH234351   5.313   4.729   6.872
11471TIP3    H134352   5.362   4.646   6.881
11471TIP3    H234353   5.381   4.788   6.835
11472TIP3   OH234354   5.355   4.984   6.610
11472TIP3    H134355   5.296   5.036   6.550
11472TIP3    H234356   5.442   5.005   6.569
11473TIP3   OH234357   4.582   4.552   7.040
11473TIP3    H134358   4.512   4.486   7.057
11473TIP3    H234359   4.615   4.524   6.953
11474TIP3   OH234360   4.838   3.991   6.686
11474TIP3    H134361   4.788   4.072   6.663
11474TIP3    H234362   4.769   3.922   6.674
11475TIP3   OH234363   4.964   4.494   6.902
11475TIP3    H134364   4.951   4.482   6.997
11475TIP3    H234365   4.874   4.471   6.870
11476TIP3   OH234366   5.202   4.444   6.756
11476TIP3    H134367   5.127   4.446   6.819
11476TIP3    H234368   5.276   4.414   6.813
11477TIP3   OH234369   5.435   4.387   6.906
11477TIP3    H134370   5.445   4.291   6.923
11477TIP3    H234371   5.429   4.424   6.996
11478TIP3   OH234372   4.419   4.333   7.094
11478TIP3    H134373   4.427   4.241   7.065
11478TIP3    H234374   4.451   4.326   7.186
11479TIP3   OH234375   4.931   4.001   6.944
11479TIP3    H134376   4.998   3.930   6.938
11479TIP3    H234377   4.892   3.995   6.854
11480TIP3   OH234378   4.998   4.216   7.102
11480TIP3    H134379   4.976   4.145   7.038
11480TIP3    H234380   4.919   4.275   7.095
11481TIP3   OH234381   4.218   5.446   5.201
11481TIP3    H134382   4.314   5.438   5.183
11481TIP3    H234383   4.191   5.495   5.122
11482TIP3   OH234384   3.699   4.826   5.418
11482TIP3    H134385   3.793   4.850   5.404
11482TIP3    H234386   3.696   4.737   5.378
11483TIP3   OH234387   3.612   5.438   5.834
11483TIP3    H134388   3.548   5.375   5.796
11483TIP3    H234389   3.658   5.380   5.899
11484TIP3   OH234390   3.750   5.287   6.018
11484TIP3    H134391   3.740   5.216   6.084
11484TIP3    H234392   3.802   5.351   6.070
11485TIP3   OH234393   5.479   5.684   5.819
11485TIP3    H134394   5.499   5.718   5.908
11485TIP3    H234395   5.535   5.738   5.763
11486TIP3   OH234396   5.512   5.709   6.100
11486TIP3    H134397   5.458   5.628   6.094
11486TIP3    H234398   5.579   5.679   6.163
11487TIP3   OH234399   5.554   5.386   6.675
11487TIP3    H134400   5.479   5.394   6.737
11487TIP3    H234401   5.593   5.476   6.678
11488TIP3   OH234402   5.367   4.900   5.294
11488TIP3    H134403   5.435   4.964   5.263
11488TIP3    H234404   5.412   4.861   5.372
11489TIP3   OH234405   5.496   4.768   5.498
11489TIP3    H134406   5.429   4.725   5.555
11489TIP3    H234407   5.558   4.806   5.563
11490TIP3   OH234408   5.552   5.161   5.931
11490TIP3    H134409   5.602   5.094   5.881
11490TIP3    H234410   5.545   5.234   5.866
11491TIP3   OH234411   5.378   5.462   6.126
11491TIP3    H134412   5.305   5.505   6.176
11491TIP3    H234413   5.327   5.416   6.056
11492TIP3   OH234414   5.434   4.676   5.143
11492TIP3    H134415   5.363   4.676   5.075
11492TIP3    H234416   5.403   4.752   5.197
11493TIP3   OH234417   5.303   4.350   5.099
11493TIP3    H134418   5.266   4.386   5.018
11493TIP3    H234419   5.278   4.255   5.091
11494TIP3   OH234420   5.310   4.625   5.642
11494TIP3    H134421   5.317   4.528   5.634
11494TIP3    H234422   5.295   4.637   5.739
11495TIP3   OH234423   3.937   4.692   6.389
11495TIP3    H134424   3.937   4.670   6.294
11495TIP3    H234425   4.034   4.695   6.407
11496TIP3   OH234426   5.599   5.049   6.502
11496TIP3    H134427   5.672   4.983   6.490
11496TIP3    H234428   5.620   5.115   6.434
11497TIP3   OH234429   5.786   4.853   6.513
11497TIP3    H134430   5.710   4.805   6.553
11497TIP3    H234431   5.857   4.788   6.530
11498TIP3   OH234432   5.246   4.085   5.088
11498TIP3    H134433   5.322   4.050   5.140
11498TIP3    H234434   5.175   4.022   5.105
11499TIP3   OH234435   5.307   4.341   5.538
11499TIP3    H134436   5.347   4.252   5.553
11499TIP3    H234437   5.364   4.373   5.466
11500TIP3   OH234438   5.467   4.513   6.034
11500TIP3    H134439   5.553   4.538   5.993
11500TIP3    H234440   5.481   4.550   6.123
11501TIP3   OH234441   5.537   4.659   6.264
11501TIP3    H134442   5.459   4.692   6.312
11501TIP3    H234443   5.569   4.740   6.220
11502TIP3   OH234444   4.155   4.386   7.038
11502TIP3    H134445   4.251   4.380   7.058
11502TIP3    H234446   4.120   4.310   7.089
11503TIP3   OH234447   5.990   4.252   6.820
11503TIP3    H134448   6.048   4.185   6.778
11503TIP3    H234449   5.959   4.303   6.743
11504TIP3   OH234450   5.414   4.091   5.576
11504TIP3    H134451   5.463   4.074   5.659
11504TIP3    H234452   5.354   4.013   5.574
11505TIP3   OH234453   4.115   4.076   6.383
11505TIP3    H134454   4.174   3.999   6.400
11505TIP3    H234455   4.179   4.149   6.393
11506TIP3   OH234456   3.919   4.351   6.471
11506TIP3    H134457   3.971   4.355   6.389
11506TIP3    H234458   3.937   4.439   6.509
11507TIP3   OH234459   5.858   4.388   6.625
11507TIP3    H134460   5.771   4.429   6.644
11507TIP3    H234461   5.828   4.315   6.567
11508TIP3   OH234462   5.496   4.023   5.210
11508TIP3    H134463   5.534   3.952   5.154
11508TIP3    H234464   5.562   4.094   5.202
11509TIP3   OH234465   3.900   3.847   5.972
11509TIP3    H134466   3.806   3.843   5.996
11509TIP3    H234467   3.903   3.917   5.904
11510TIP3   OH234468   5.058   5.558   5.474
11510TIP3    H134469   5.111   5.545   5.393
11510TIP3    H234470   5.112   5.621   5.524
11511TIP3   OH234471   4.123   3.931   6.793
11511TIP3    H134472   4.069   3.869   6.843
11511TIP3    H234473   4.056   3.975   6.737
11512TIP3   OH234474   4.159   5.361   6.860
11512TIP3    H134475   4.067   5.335   6.844
11512TIP3    H234476   4.170   5.341   6.954
11513TIP3   OH234477   4.344   5.394   6.406
11513TIP3    H134478   4.297   5.470   6.366
11513TIP3    H234479   4.432   5.409   6.365
11514TIP3   OH234480   4.777   5.636   6.549
11514TIP3    H134481   4.828   5.640   6.633
11514TIP3    H234482   4.837   5.686   6.489
11515TIP3   OH234483   4.954   5.791   6.412
11515TIP3    H134484   5.010   5.738   6.352
11515TIP3    H234485   5.019   5.841   6.465
11516TIP3   OH234486   5.757   4.150   6.505
11516TIP3    H134487   5.667   4.141   6.470
11516TIP3    H234488   5.790   4.057   6.494
11517TIP3   OH234489   4.011   5.648   6.432
11517TIP3    H134490   3.922   5.684   6.411
11517TIP3    H234491   4.027   5.689   6.518
11518TIP3   OH234492   4.249   5.625   6.290
11518TIP3    H134493   4.161   5.639   6.333
11518TIP3    H234494   4.233   5.659   6.200
11519TIP3   OH234495   5.187   5.800   6.055
11519TIP3    H134496   5.140   5.873   6.012
11519TIP3    H234497   5.169   5.726   5.994
11520TIP3   OH234498   3.926   5.443   6.175
11520TIP3    H134499   3.953   5.418   6.266
11520TIP3    H234500   3.999   5.400   6.125
11521TIP3   OH234501   4.120   5.314   6.033
11521TIP3    H134502   4.137   5.231   6.083
11521TIP3    H234503   4.211   5.353   6.031
11522TIP3   OH234504   4.383   5.404   6.046
11522TIP3    H134505   4.421   5.316   6.034
11522TIP3    H234506   4.434   5.434   6.124
11523TIP3   OH234507   4.956   4.064   6.115
11523TIP3    H134508   4.918   3.994   6.172
11523TIP3    H234509   5.035   4.020   6.078
11524TIP3   OH234510   5.483   3.950   6.030
11524TIP3    H134511   5.520   3.999   5.953
11524TIP3    H234512   5.387   3.967   6.020
11525TIP3   OH234513   5.580   4.047   5.793
11525TIP3    H134514   5.653   3.995   5.754
11525TIP3    H234515   5.613   4.138   5.777
11526TIP3   OH234516   4.209   3.775   6.138
11526TIP3    H134517   4.118   3.738   6.143
11526TIP3    H234518   4.261   3.692   6.136
11527TIP3   OH234519   3.994   3.642   5.787
11527TIP3    H134520   4.034   3.697   5.718
11527TIP3    H234521   3.972   3.707   5.856
11528TIP3   OH234522   4.653   3.810   6.022
11528TIP3    H134523   4.710   3.856   5.959
11528TIP3    H234524   4.686   3.844   6.107
11529TIP3   OH234525   5.197   3.954   6.005
11529TIP3    H134526   5.204   3.914   5.917
11529TIP3    H234527   5.186   3.874   6.062
11530TIP3   OH234528   5.231   3.877   5.567
11530TIP3    H134529   5.144   3.918   5.577
11530TIP3    H234530   5.218   3.792   5.614
11531TIP3   OH234531   3.713   5.218   5.570
11531TIP3    H134532   3.628   5.188   5.534
11531TIP3    H234533   3.707   5.313   5.548
11532TIP3   OH234534   4.115   3.807   5.555
11532TIP3    H134535   4.159   3.740   5.498
11532TIP3    H234536   4.193   3.857   5.587
11533TIP3   OH234537   4.624   3.980   5.652
11533TIP3    H134538   4.687   3.933   5.709
11533TIP3    H234539   4.648   4.072   5.676
11534TIP3   OH234540   4.486   5.405   5.148
11534TIP3    H134541   4.575   5.426   5.113
11534TIP3    H234542   4.465   5.328   5.090
11535TIP3   OH234543   5.207   5.523   5.243
11535TIP3    H134544   5.200   5.425   5.233
11535TIP3    H234545   5.161   5.554   5.162
11536TIP3   OH234546   4.418   4.053   7.031
11536TIP3    H134547   4.387   3.978   7.086
11536TIP3    H234548   4.513   4.055   7.058
11537TIP3   OH234549   4.668   4.052   7.148
11537TIP3    H134550   4.754   4.027   7.109
11537TIP3    H234551   4.656   3.983   7.216
11538TIP3   OH234552   3.790   5.239   5.205
11538TIP3    H134553   3.797   5.266   5.297
11538TIP3    H234554   3.878   5.197   5.189
11539TIP3   OH234555   5.493   4.115   6.937
11539TIP3    H134556   5.512   4.084   7.028
11539TIP3    H234557   5.582   4.109   6.896
11540TIP3   OH234558   5.428   5.664   6.427
11540TIP3    H134559   5.349   5.630   6.380
11540TIP3    H234560   5.406   5.759   6.432
11541TIP3   OH234561   6.697   5.040   5.197
11541TIP3    H134562   6.666   5.131   5.173
11541TIP3    H234563   6.624   4.988   5.159
11542TIP3   OH234564   6.694   5.047   5.585
11542TIP3    H134565   6.730   5.011   5.668
11542TIP3    H234566   6.655   4.968   5.545
11543TIP3   OH234567   5.996   4.934   5.942
11543TIP3    H134568   6.026   4.864   6.003
11543TIP3    H234569   6.076   4.987   5.934
11544TIP3   OH234570   6.939   5.340   5.262
11544TIP3    H134571   6.934   5.268   5.326
11544TIP3    H234572   6.981   5.411   5.314
11545TIP3   OH234573   5.971   5.346   5.668
11545TIP3    H134574   5.959   5.249   5.668
11545TIP3    H234575   6.067   5.352   5.664
11546TIP3   OH234576   5.675   4.548   5.452
11546TIP3    H134577   5.624   4.630   5.466
11546TIP3    H234578   5.607   4.492   5.411
11547TIP3   OH234579   5.736   4.836   5.626
11547TIP3    H134580   5.783   4.757   5.661
11547TIP3    H234581   5.787   4.857   5.547
11548TIP3   OH234582   6.581   5.809   5.268
11548TIP3    H134583   6.630   5.734   5.228
11548TIP3    H234584   6.586   5.791   5.363
11549TIP3   OH234585   6.497   5.266   5.624
11549TIP3    H134586   6.511   5.195   5.559
11549TIP3    H234587   6.585   5.266   5.664
11550TIP3   OH234588   7.515   4.602   5.623
11550TIP3    H134589   7.488   4.695   5.620
11550TIP3    H234590   7.544   4.590   5.531
11551TIP3   OH234591   6.911   4.765   5.656
11551TIP3    H134592   6.952   4.679   5.675
11551TIP3    H234593   6.877   4.750   5.566
11552TIP3   OH234594   6.249   4.426   5.621
11552TIP3    H134595   6.226   4.498   5.559
11552TIP3    H234596   6.201   4.352   5.578
11553TIP3   OH234597   6.941   4.520   5.244
11553TIP3    H134598   7.014   4.502   5.308
11553TIP3    H234599   6.992   4.553   5.168
11554TIP3   OH234600   5.880   4.627   5.730
11554TIP3    H134601   5.963   4.606   5.777
11554TIP3    H234602   5.892   4.571   5.650
11555TIP3   OH234603   6.320   4.826   5.525
11555TIP3    H134604   6.414   4.800   5.537
11555TIP3    H234605   6.280   4.742   5.492
11556TIP3   OH234606   6.244   4.410   6.058
11556TIP3    H134607   6.183   4.445   5.990
11556TIP3    H234608   6.191   4.426   6.139
11557TIP3   OH234609   6.586   5.260   5.068
11557TIP3    H134610   6.548   5.241   4.981
11557TIP3    H234611   6.542   5.344   5.090
11558TIP3   OH234612   6.349   5.185   5.852
11558TIP3    H134613   6.285   5.247   5.893
11558TIP3    H234614   6.390   5.241   5.783
11559TIP3   OH234615   7.151   4.520   5.417
11559TIP3    H134616   7.138   4.469   5.498
11559TIP3    H234617   7.201   4.597   5.448
11560TIP3   OH234618   6.115   4.524   5.841
11560TIP3    H134619   6.178   4.595   5.864
11560TIP3    H234620   6.163   4.483   5.765
11561TIP3   OH234621   6.178   5.377   5.952
11561TIP3    H134622   6.147   5.462   5.914
11561TIP3    H234623   6.099   5.358   6.008
11562TIP3   OH234624   5.571   5.069   5.185
11562TIP3    H134625   5.530   5.094   5.100
11562TIP3    H234626   5.602   5.154   5.220
11563TIP3   OH234627   7.007   5.577   5.430
11563TIP3    H134628   6.914   5.580   5.453
11563TIP3    H234629   7.015   5.660   5.376
11564TIP3   OH234630   7.299   4.490   5.790
11564TIP3    H134631   7.209   4.511   5.760
11564TIP3    H234632   7.354   4.519   5.715
11565TIP3   OH234633   6.599   4.127   5.774
11565TIP3    H134634   6.584   4.032   5.789
11565TIP3    H234635   6.521   4.165   5.819
11566TIP3   OH234636   6.719   5.630   5.113
11566TIP3    H134637   6.764   5.547   5.085
11566TIP3    H234638   6.777   5.695   5.066
11567TIP3   OH234639   6.853   5.415   5.009
11567TIP3    H134640   6.824   5.337   4.960
11567TIP3    H234641   6.886   5.377   5.092
11568TIP3   OH234642   7.233   5.497   5.771
11568TIP3    H134643   7.224   5.421   5.710
11568TIP3    H234644   7.215   5.573   5.713
11569TIP3   OH234645   6.531   4.894   5.028
11569TIP3    H134646   6.450   4.944   5.006
11569TIP3    H234647   6.573   4.885   4.941
11570TIP3   OH234648   6.488   4.672   4.751
11570TIP3    H134649   6.559   4.728   4.788
11570TIP3    H234650   6.542   4.610   4.698
11571TIP3   OH234651   7.436   5.138   5.620
11571TIP3    H134652   7.349   5.185   5.623
11571TIP3    H234653   7.463   5.161   5.528
11572TIP3   OH234654   6.877   4.976   4.999
11572TIP3    H134655   6.821   4.999   5.077
11572TIP3    H234656   6.960   4.949   5.042
11573TIP3   OH234657   7.110   5.015   5.911
11573TIP3    H134658   7.103   5.099   5.958
11573TIP3    H234659   7.024   5.013   5.864
11574TIP3   OH234660   6.108   4.972   5.416
11574TIP3    H134661   6.063   4.914   5.349
11574TIP3    H234662   6.183   4.916   5.444
11575TIP3   OH234663   6.242   5.392   5.561
11575TIP3    H134664   6.212   5.354   5.477
11575TIP3    H234665   6.329   5.347   5.574
11576TIP3   OH234666   6.248   4.939   5.773
11576TIP3    H134667   6.276   4.916   5.682
11576TIP3    H234668   6.289   5.026   5.787
11577TIP3   OH234669   6.388   5.513   6.078
11577TIP3    H134670   6.328   5.566   6.134
11577TIP3    H234671   6.324   5.450   6.039
11578TIP3   OH234672   6.716   4.831   4.825
11578TIP3    H134673   6.774   4.892   4.875
11578TIP3    H234674   6.742   4.852   4.732
11579TIP3   OH234675   6.138   5.056   6.195
11579TIP3    H134676   6.140   5.142   6.240
11579TIP3    H234677   6.043   5.034   6.206
11580TIP3   OH234678   6.461   5.513   5.105
11580TIP3    H134679   6.537   5.572   5.117
11580TIP3    H234680   6.398   5.569   5.057
11581TIP3   OH234681   6.175   5.668   6.184
11581TIP3    H134682   6.137   5.663   6.094
11581TIP3    H234683   6.098   5.644   6.240
11582TIP3   OH234684   7.233   4.071   4.874
11582TIP3    H134685   7.150   4.092   4.923
11582TIP3    H234686   7.247   4.154   4.824
11583TIP3   OH234687   5.971   4.815   5.226
11583TIP3    H134688   5.907   4.859   5.166
11583TIP3    H234689   5.936   4.726   5.230
11584TIP3   OH234690   7.031   5.440   4.423
11584TIP3    H134691   7.040   5.537   4.406
11584TIP3    H234692   7.124   5.411   4.410
11585TIP3   OH234693   5.757   5.198   6.126
11585TIP3    H134694   5.688   5.178   6.060
11585TIP3    H234695   5.792   5.110   6.148
11586TIP3   OH234696   5.608   5.391   5.760
11586TIP3    H134697   5.704   5.392   5.754
11586TIP3    H234698   5.590   5.472   5.811
11587TIP3   OH234699   7.474   5.831   5.808
11587TIP3    H134700   7.472   5.737   5.835
11587TIP3    H234701   7.396   5.866   5.856
11588TIP3   OH234702   6.568   5.651   5.916
11588TIP3    H134703   6.561   5.733   5.971
11588TIP3    H234704   6.506   5.592   5.966
11589TIP3   OH234705   6.342   5.755   4.903
11589TIP3    H134706   6.297   5.736   4.819
11589TIP3    H234707   6.309   5.844   4.926
11590TIP3   OH234708   5.778   5.607   5.286
11590TIP3    H134709   5.823   5.596   5.373
11590TIP3    H234710   5.724   5.525   5.284
11591TIP3   OH234711   6.542   5.659   4.541
11591TIP3    H134712   6.601   5.589   4.505
11591TIP3    H234713   6.577   5.668   4.633
11592TIP3   OH234714   6.593   5.708   4.811
11592TIP3    H134715   6.505   5.716   4.853
11592TIP3    H234716   6.644   5.667   4.882
11593TIP3   OH234717   7.366   4.974   6.092
11593TIP3    H134718   7.282   4.991   6.046
11593TIP3    H234719   7.378   4.879   6.073
11594TIP3   OH234720   5.960   5.382   6.116
11594TIP3    H134721   6.009   5.363   6.199
11594TIP3    H234722   5.886   5.317   6.122
11595TIP3   OH234723   6.360   4.205   5.899
11595TIP3    H134724   6.272   4.173   5.871
11595TIP3    H234725   6.333   4.285   5.948
11596TIP3   OH234726   6.893   4.321   6.095
11596TIP3    H134727   6.961   4.290   6.159
11596TIP3    H234728   6.809   4.299   6.141
11597TIP3   OH234729   7.142   4.754   6.021
11597TIP3    H134730   7.085   4.747   6.101
11597TIP3    H234731   7.109   4.836   5.979
11598TIP3   OH234732   6.799   4.880   4.574
11598TIP3    H134733   6.757   4.854   4.490
11598TIP3    H234734   6.879   4.926   4.542
11599TIP3   OH234735   6.508   4.249   4.873
11599TIP3    H134736   6.470   4.247   4.963
11599TIP3    H234737   6.465   4.170   4.835
11600TIP3   OH234738   6.294   4.718   5.922
11600TIP3    H134739   6.240   4.738   6.001
11600TIP3    H234740   6.278   4.799   5.868
11601TIP3   OH234741   6.175   4.607   5.433
11601TIP3    H134742   6.083   4.581   5.450
11601TIP3    H234743   6.188   4.567   5.344
11602TIP3   OH234744   6.667   4.694   5.163
11602TIP3    H134745   6.615   4.764   5.118
11602TIP3    H234746   6.721   4.659   5.088
11603TIP3   OH234747   6.841   4.971   6.248
11603TIP3    H134748   6.817   4.897   6.309
11603TIP3    H234749   6.936   4.981   6.270
11604TIP3   OH234750   6.824   4.721   5.398
11604TIP3    H134751   6.761   4.748   5.327
11604TIP3    H234752   6.858   4.640   5.354
11605TIP3   OH234753   6.112   4.748   6.127
11605TIP3    H134754   6.133   4.811   6.198
11605TIP3    H234755   6.099   4.665   6.177
11606TIP3   OH234756   6.164   4.228   4.837
11606TIP3    H134757   6.150   4.226   4.933
11606TIP3    H234758   6.085   4.278   4.807
11607TIP3   OH234759   5.703   4.271   5.710
11607TIP3    H134760   5.781   4.301   5.761
11607TIP3    H234761   5.740   4.238   5.627
11608TIP3   OH234762   5.676   4.252   5.230
11608TIP3    H134763   5.719   4.289   5.150
11608TIP3    H234764   5.613   4.324   5.248
11609TIP3   OH234765   6.837   4.963   5.822
11609TIP3    H134766   6.868   4.891   5.762
11609TIP3    H234767   6.804   4.910   5.897
11610TIP3   OH234768   6.506   4.430   5.495
11610TIP3    H134769   6.422   4.427   5.544
11610TIP3    H234770   6.571   4.425   5.567
11611TIP3   OH234771   5.937   4.484   5.502
11611TIP3    H134772   5.843   4.492   5.474
11611TIP3    H234773   5.959   4.392   5.479
11612TIP3   OH234774   6.206   4.483   5.191
11612TIP3    H134775   6.299   4.495   5.165
11612TIP3    H234776   6.156   4.503   5.107
11613TIP3   OH234777   6.997   4.503   5.698
11613TIP3    H134778   6.961   4.516   5.789
11613TIP3    H234779   6.931   4.441   5.662
11614TIP3   OH234780   6.050   4.516   4.970
11614TIP3    H134781   5.980   4.467   4.922
11614TIP3    H234782   6.101   4.551   4.895
11615TIP3   OH234783   7.164   6.187   5.905
11615TIP3    H134784   7.155   6.210   5.810
11615TIP3    H234785   7.227   6.254   5.935
11616TIP3   OH234786   6.123   5.304   6.336
11616TIP3    H134787   6.201   5.333   6.386
11616TIP3    H234788   6.057   5.299   6.408
11617TIP3   OH234789   6.585   4.758   5.594
11617TIP3    H134790   6.655   4.714   5.542
11617TIP3    H234791   6.591   4.712   5.680
11618TIP3   OH234792   6.110   4.243   5.472
11618TIP3    H134793   6.073   4.165   5.519
11618TIP3    H234794   6.152   4.202   5.395
11619TIP3   OH234795   6.563   4.655   5.878
11619TIP3    H134796   6.472   4.687   5.893
11619TIP3    H234797   6.618   4.716   5.930
11620TIP3   OH234798   6.298   5.045   4.978
11620TIP3    H134799   6.227   4.978   4.966
11620TIP3    H234800   6.279   5.078   5.069
11621TIP3   OH234801   7.200   5.280   5.606
11621TIP3    H134802   7.224   5.329   5.524
11621TIP3    H234803   7.116   5.235   5.579
11622TIP3   OH234804   6.758   4.352   4.846
11622TIP3    H134805   6.661   4.333   4.849
11622TIP3    H234806   6.762   4.449   4.862
11623TIP3   OH234807   6.667   5.354   5.985
11623TIP3    H134808   6.721   5.313   6.053
11623TIP3    H234809   6.677   5.447   6.002
11624TIP3   OH234810   6.826   4.605   4.946
11624TIP3    H134811   6.922   4.612   4.956
11624TIP3    H234812   6.804   4.683   4.891
11625TIP3   OH234813   5.997   5.072   5.652
11625TIP3    H134814   6.030   5.039   5.566
11625TIP3    H234815   6.026   5.003   5.713
11626TIP3   OH234816   6.447   5.195   4.803
11626TIP3    H134817   6.398   5.280   4.806
11626TIP3    H234818   6.391   5.139   4.861
11627TIP3   OH234819   5.874   4.984   6.264
11627TIP3    H134820   5.887   4.968   6.359
11627TIP3    H234821   5.802   4.921   6.244
11628TIP3   OH234822   6.598   5.101   6.286
11628TIP3    H134823   6.535   5.042   6.241
11628TIP3    H234824   6.683   5.064   6.255
11629TIP3   OH234825   6.842   5.607   5.875
11629TIP3    H134826   6.764   5.622   5.931
11629TIP3    H234827   6.906   5.662   5.925
11630TIP3   OH234828   7.269   4.695   4.777
11630TIP3    H134829   7.207   4.650   4.715
11630TIP3    H234830   7.265   4.785   4.737
11631TIP3   OH234831   7.485   5.543   5.862
11631TIP3    H134832   7.387   5.543   5.849
11631TIP3    H234833   7.513   5.518   5.771
11632TIP3   OH234834   6.974   5.512   4.688
11632TIP3    H134835   6.941   5.441   4.745
11632TIP3    H234836   6.982   5.468   4.601
11633TIP3   OH234837   6.973   5.144   5.513
11633TIP3    H134838   6.882   5.124   5.540
11633TIP3    H234839   7.000   5.060   5.471
11634TIP3   OH234840   6.094   5.373   5.286
11634TIP3    H134841   6.093   5.452   5.228
11634TIP3    H234842   6.000   5.349   5.286
11635TIP3   OH234843   5.659   4.673   4.983
11635TIP3    H134844   5.702   4.759   5.003
11635TIP3    H234845   5.580   4.677   5.042
11636TIP3   OH234846   6.231   5.137   5.225
11636TIP3    H134847   6.196   5.226   5.244
11636TIP3    H234848   6.192   5.084   5.296
11637TIP3   OH234849   6.012   5.609   5.130
11637TIP3    H134850   5.926   5.618   5.176
11637TIP3    H234851   6.044   5.702   5.133
11638TIP3   OH234852   6.725   5.243   4.587
11638TIP3    H134853   6.776   5.217   4.667
11638TIP3    H234854   6.637   5.212   4.610
11639TIP3   OH234855   7.064   5.715   4.407
11639TIP3    H134856   7.097   5.786   4.349
11639TIP3    H234857   6.984   5.759   4.442
11640TIP3   OH234858   6.082   4.493   6.272
11640TIP3    H134859   5.985   4.495   6.283
11640TIP3    H234860   6.108   4.431   6.342
11641TIP3   OH234861   6.885   5.180   4.808
11641TIP3    H134862   6.874   5.110   4.875
11641TIP3    H234863   6.982   5.173   4.792
11642TIP3   OH234864   5.805   5.576   5.902
11642TIP3    H134865   5.852   5.499   5.937
11642TIP3    H234866   5.820   5.641   5.972
11643TIP3   OH234867   6.090   5.220   4.587
11643TIP3    H134868   6.103   5.129   4.557
11643TIP3    H234869   6.068   5.207   4.682
11644TIP3   OH234870   6.034   5.226   4.861
11644TIP3    H134871   6.110   5.198   4.914
11644TIP3    H234872   6.040   5.324   4.867
11645TIP3   OH234873   5.772   4.920   5.063
11645TIP3    H134874   5.704   4.964   5.119
11645TIP3    H234875   5.784   4.988   4.994
11646TIP3   OH234876   6.922   4.558   5.958
11646TIP3    H134877   7.004   4.589   6.001
11646TIP3    H234878   6.903   4.475   6.009
11647TIP3   OH234879   6.801   4.305   5.122
11647TIP3    H134880   6.785   4.325   5.028
11647TIP3    H234881   6.838   4.390   5.155
11648TIP3   OH234882   6.304   5.424   4.812
11648TIP3    H134883   6.215   5.451   4.845
11648TIP3    H234884   6.317   5.489   4.742
11649TIP3   OH234885   6.493   4.486   5.223
11649TIP3    H134886   6.555   4.560   5.205
11649TIP3    H234887   6.495   4.481   5.321
11650TIP3   OH234888   6.760   4.805   6.029
11650TIP3    H134889   6.781   4.856   6.109
11650TIP3    H234890   6.812   4.724   6.041
11651TIP3   OH234891   6.634   4.214   5.326
11651TIP3    H134892   6.621   4.295   5.379
11651TIP3    H234893   6.694   4.247   5.256
11652TIP3   OH234894   6.047   5.499   4.876
11652TIP3    H134895   6.016   5.568   4.813
11652TIP3    H234896   6.030   5.543   4.962
11653TIP3   OH234897   6.144   4.213   5.115
11653TIP3    H134898   6.142   4.304   5.150
11653TIP3    H234899   6.240   4.194   5.121
11654TIP3   OH234900   7.404   4.705   5.994
11654TIP3    H134901   7.308   4.711   6.012
11654TIP3    H234902   7.399   4.661   5.907
11655TIP3   OH234903   7.051   4.896   5.399
11655TIP3    H134904   6.974   4.838   5.408
11655TIP3    H234905   7.121   4.846   5.447
11656TIP3   OH234906   5.763   5.127   4.867
11656TIP3    H134907   5.832   5.195   4.875
11656TIP3    H234908   5.807   5.069   4.800
11657TIP3   OH234909   5.706   4.403   5.006
11657TIP3    H134910   5.705   4.501   5.000
11657TIP3    H234911   5.632   4.380   4.949
11658TIP3   OH234912   7.026   5.828   5.331
11658TIP3    H134913   6.976   5.892   5.276
11658TIP3    H234914   7.117   5.863   5.318
11659TIP3   OH234915   6.096   4.125   5.874
11659TIP3    H134916   6.064   4.090   5.788
11659TIP3    H234917   6.085   4.047   5.933
11660TIP3   OH234918   5.636   5.346   5.255
11660TIP3    H134919   5.565   5.373   5.315
11660TIP3    H234920   5.604   5.385   5.170
11661TIP3   OH234921   5.790   5.885   6.326
11661TIP3    H134922   5.877   5.880   6.371
11661TIP3    H234923   5.765   5.791   6.324
11662TIP3   OH234924   6.276   5.847   6.374
11662TIP3    H134925   6.370   5.822   6.375
11662TIP3    H234926   6.244   5.790   6.301
11663TIP3   OH234927   6.255   5.424   4.503
11663TIP3    H134928   6.199   5.350   4.537
11663TIP3    H234929   6.329   5.375   4.463
11664TIP3   OH234930   6.917   5.751   6.104
11664TIP3    H134931   6.907   5.684   6.176
11664TIP3    H234932   6.993   5.804   6.136
11665TIP3   OH234933   6.691   5.466   4.412
11665TIP3    H134934   6.732   5.399   4.469
11665TIP3    H234935   6.745   5.463   4.331
11666TIP3   OH234936   5.922   5.292   6.528
11666TIP3    H134937   5.937   5.196   6.534
11666TIP3    H234938   5.834   5.295   6.483
11667TIP3   OH234939   5.898   4.942   4.721
11667TIP3    H134940   5.954   4.906   4.791
11667TIP3    H234941   5.964   4.945   4.647
11668TIP3   OH234942   6.526   5.376   6.298
11668TIP3    H134943   6.493   5.390   6.208
11668TIP3    H234944   6.559   5.284   6.294
11669TIP3   OH234945   6.412   5.142   4.532
11669TIP3    H134946   6.413   5.151   4.629
11669TIP3    H234947   6.414   5.044   4.524
11670TIP3   OH234948   7.023   5.385   5.917
11670TIP3    H134949   7.095   5.427   5.867
11670TIP3    H234950   6.947   5.438   5.889
11671TIP3   OH234951   6.042   5.030   6.510
11671TIP3    H134952   6.112   4.967   6.488
11671TIP3    H234953   6.069   5.060   6.599
11672TIP3   OH234954   6.110   4.845   4.945
11672TIP3    H134955   6.079   4.797   5.023
11672TIP3    H234956   6.146   4.771   4.890
11673TIP3   OH234957   6.378   4.914   6.176
11673TIP3    H134958   6.297   4.969   6.173
11673TIP3    H234959   6.426   4.945   6.096
11674TIP3   OH234960   6.207   4.641   4.783
11674TIP3    H134961   6.180   4.642   4.689
11674TIP3    H234962   6.305   4.642   4.775
11675TIP3   OH234963   6.895   5.313   6.306
11675TIP3    H134964   6.972   5.282   6.256
11675TIP3    H234965   6.887   5.245   6.375
11676TIP3   OH234966   7.032   4.970   4.447
11676TIP3    H134967   7.009   4.924   4.364
11676TIP3    H234968   6.998   5.060   4.425
11677TIP3   OH234969   6.501   4.699   6.296
11677TIP3    H134970   6.499   4.619   6.239
11677TIP3    H234971   6.455   4.765   6.239
11678TIP3   OH234972   6.502   4.486   6.105
11678TIP3    H134973   6.528   4.525   6.019
11678TIP3    H234974   6.408   4.462   6.087
11679TIP3   OH234975   6.528   5.019   5.979
11679TIP3    H134976   6.611   5.027   5.930
11679TIP3    H234977   6.472   5.086   5.934
11680TIP3   OH234978   7.108   4.987   6.359
11680TIP3    H134979   7.154   4.902   6.369
11680TIP3    H234980   7.176   5.043   6.319
11681TIP3   OH234981   7.155   5.240   6.100
11681TIP3    H134982   7.097   5.294   6.041
11681TIP3    H234983   7.242   5.258   6.058
11682TIP3   OH234984   6.379   4.808   6.529
11682TIP3    H134985   6.310   4.740   6.544
11682TIP3    H234986   6.411   4.784   6.440
11683TIP3   OH234987   6.634   4.248   6.172
11683TIP3    H134988   6.583   4.329   6.149
11683TIP3    H234989   6.565   4.179   6.161
11684TIP3   OH234990   6.759   4.752   6.388
11684TIP3    H134991   6.743   4.736   6.483
11684TIP3    H234992   6.670   4.728   6.354
11685TIP3   OH234993   6.999   4.704   6.245
11685TIP3    H134994   6.922   4.702   6.306
11685TIP3    H234995   7.071   4.669   6.301
11686TIP3   OH234996   7.236   4.644   6.392
11686TIP3    H134997   7.244   4.548   6.409
11686TIP3    H234998   7.227   4.681   6.483
11687TIP3   OH234999   6.218   4.590   6.581
11687TIP3    H135000   6.219   4.498   6.547
11687TIP3    H235001   6.254   4.575   6.671
11688TIP3   OH235002   6.729   4.259   6.429
11688TIP3    H135003   6.794   4.186   6.423
11688TIP3    H235004   6.688   4.253   6.341
11689TIP3   OH235005   6.796   4.474   6.587
11689TIP3    H135006   6.774   4.402   6.524
11689TIP3    H235007   6.716   4.531   6.581
11690TIP3   OH235008   6.015   5.703   4.690
11690TIP3    H135009   6.111   5.696   4.670
11690TIP3    H235010   5.986   5.751   4.610
11691TIP3   OH235011   5.495   5.082   4.905
11691TIP3    H135012   5.589   5.104   4.889
11691TIP3    H235013   5.488   4.993   4.865
11692TIP3   OH235014   5.410   5.697   5.318
11692TIP3    H135015   5.343   5.635   5.281
11692TIP3    H235016   5.454   5.638   5.384
11693TIP3   OH235017   5.544   5.547   5.506
11693TIP3    H135018   5.530   5.473   5.567
11693TIP3    H235019   5.594   5.608   5.563
11694TIP3   OH235020   7.276   5.938   5.309
11694TIP3    H135021   7.295   5.979   5.396
11694TIP3    H235022   7.325   5.997   5.249
11695TIP3   OH235023   7.300   5.966   5.590
11695TIP3    H135024   7.262   5.876   5.585
11695TIP3    H235025   7.376   5.950   5.648
11696TIP3   OH235026   7.351   5.644   6.165
11696TIP3    H135027   7.275   5.654   6.226
11696TIP3    H235028   7.390   5.733   6.167
11697TIP3   OH235029   7.164   5.156   4.780
11697TIP3    H135030   7.231   5.221   4.750
11697TIP3    H235031   7.209   5.118   4.859
11698TIP3   OH235032   7.293   5.024   4.984
11698TIP3    H135033   7.225   4.981   5.041
11698TIP3    H235034   7.354   5.062   5.049
11699TIP3   OH235035   7.347   5.417   5.416
11699TIP3    H135036   7.396   5.350   5.365
11699TIP3    H235037   7.346   5.493   5.354
11700TIP3   OH235038   7.164   5.718   5.614
11700TIP3    H135039   7.083   5.766   5.635
11700TIP3    H235040   7.134   5.666   5.536
11701TIP3   OH235041   7.230   4.932   4.630
11701TIP3    H135042   7.160   4.933   4.562
11701TIP3    H235043   7.200   5.008   4.684
11702TIP3   OH235044   7.104   4.604   4.583
11702TIP3    H135045   7.055   4.643   4.509
11702TIP3    H235046   7.078   4.510   4.575
11703TIP3   OH235047   7.107   4.881   5.130
11703TIP3    H135048   7.111   4.784   5.119
11703TIP3    H235049   7.092   4.891   5.226
11704TIP3   OH235050   5.731   4.952   5.878
11704TIP3    H135051   5.729   4.921   5.785
11704TIP3    H235052   5.828   4.954   5.894
11705TIP3   OH235053   7.402   5.297   5.988
11705TIP3    H135054   7.466   5.231   5.956
11705TIP3    H235055   7.418   5.372   5.927
11706TIP3   OH235056   7.591   5.087   5.988
11706TIP3    H135057   7.514   5.044   6.032
11706TIP3    H235058   7.644   5.118   6.062
11707TIP3   OH235059   7.044   4.339   4.571
11707TIP3    H135060   7.113   4.304   4.630
11707TIP3    H235061   6.967   4.282   4.589
11708TIP3   OH235062   7.105   4.599   5.025
11708TIP3    H135063   7.144   4.509   5.040
11708TIP3    H235064   7.161   4.629   4.952
11709TIP3   OH235065   7.267   4.764   5.519
11709TIP3    H135066   7.350   4.796   5.478
11709TIP3    H235067   7.274   4.809   5.606
11710TIP3   OH235068   7.320   4.910   5.743
11710TIP3    H135069   7.249   4.949   5.797
11710TIP3    H235070   7.368   4.989   5.711
11711TIP3   OH235071   5.951   4.642   6.557
11711TIP3    H135072   6.049   4.633   6.555
11711TIP3    H235073   5.926   4.555   6.593
11712TIP3   OH235074   7.778   4.506   6.298
11712TIP3    H135075   7.839   4.435   6.269
11712TIP3    H235076   7.769   4.558   6.217
11713TIP3   OH235077   7.211   4.347   5.063
11713TIP3    H135078   7.257   4.329   5.147
11713TIP3    H235079   7.149   4.271   5.060
11714TIP3   OH235080   5.911   4.333   5.884
11714TIP3    H135081   5.972   4.257   5.891
11714TIP3    H235082   5.974   4.406   5.875
11715TIP3   OH235083   5.713   4.606   5.955
11715TIP3    H135084   5.761   4.599   5.871
11715TIP3    H235085   5.742   4.693   5.986
11716TIP3   OH235086   7.665   4.656   6.085
11716TIP3    H135087   7.581   4.694   6.122
11716TIP3    H235088   7.626   4.574   6.046
11717TIP3   OH235089   7.294   4.279   4.700
11717TIP3    H135090   7.329   4.209   4.641
11717TIP3    H235091   7.358   4.351   4.688
11718TIP3   OH235092   5.697   4.115   5.461
11718TIP3    H135093   5.603   4.106   5.482
11718TIP3    H235094   5.694   4.170   5.380
11719TIP3   OH235095   6.854   5.811   4.963
11719TIP3    H135096   6.906   5.802   4.881
11719TIP3    H235097   6.906   5.877   5.012
11720TIP3   OH235098   5.920   4.196   6.273
11720TIP3    H135099   5.866   4.184   6.353
11720TIP3    H235100   5.853   4.228   6.210
11721TIP3   OH235101   5.957   5.620   6.350
11721TIP3    H135102   5.865   5.592   6.329
11721TIP3    H235103   5.963   5.594   6.443
11722TIP3   OH235104   6.129   5.648   5.900
11722TIP3    H135105   6.075   5.716   5.857
11722TIP3    H235106   6.217   5.675   5.871
11723TIP3   OH235107   6.589   5.897   6.031
11723TIP3    H135108   6.638   5.905   6.116
11723TIP3    H235109   6.656   5.926   5.965
11724TIP3   OH235110   7.558   4.408   5.995
11724TIP3    H135111   7.466   4.400   5.963
11724TIP3    H235112   7.588   4.315   5.985
11725TIP3   OH235113   5.814   5.912   5.916
11725TIP3    H135114   5.724   5.943   5.891
11725TIP3    H235115   5.815   5.938   6.009
11726TIP3   OH235116   6.048   5.878   5.773
11726TIP3    H135117   5.962   5.894   5.819
11726TIP3    H235118   6.028   5.915   5.684
11727TIP3   OH235119   6.464   5.875   5.565
11727TIP3    H135120   6.406   5.936   5.518
11727TIP3    H235121   6.534   5.933   5.599
11728TIP3   OH235122   5.725   5.704   5.664
11728TIP3    H135123   5.750   5.674   5.754
11728TIP3    H235124   5.793   5.657   5.611
11729TIP3   OH235125   5.912   5.570   5.520
11729TIP3    H135126   5.930   5.487   5.570
11729TIP3    H235127   6.003   5.604   5.506
11730TIP3   OH235128   6.173   5.666   5.509
11730TIP3    H135129   6.212   5.576   5.506
11730TIP3    H235130   6.206   5.698   5.593
11731TIP3   OH235131   6.762   4.324   5.618
11731TIP3    H135132   6.715   4.254   5.666
11731TIP3    H235133   6.827   4.274   5.566
11732TIP3   OH235134   7.282   4.212   5.521
11732TIP3    H135135   7.316   4.258   5.441
11732TIP3    H235136   7.185   4.220   5.509
11733TIP3   OH235137   7.376   4.302   5.281
11733TIP3    H135138   7.449   4.251   5.239
11733TIP3    H235139   7.408   4.394   5.265
11734TIP3   OH235140   6.007   4.031   5.627
11734TIP3    H135141   5.914   3.999   5.629
11734TIP3    H235142   6.054   3.946   5.623
11735TIP3   OH235143   5.797   3.902   5.275
11735TIP3    H135144   5.825   3.958   5.201
11735TIP3    H235145   5.768   3.968   5.340
11736TIP3   OH235146   6.453   4.062   5.507
11736TIP3    H135147   6.511   4.112   5.447
11736TIP3    H235148   6.473   4.102   5.592
11737TIP3   OH235149   7.002   4.211   5.489
11737TIP3    H135150   6.993   4.172   5.401
11737TIP3    H235151   6.987   4.132   5.546
11738TIP3   OH235152   7.028   4.134   5.054
11738TIP3    H135153   6.940   4.176   5.065
11738TIP3    H235154   7.012   4.049   5.100
11739TIP3   OH235155   5.511   5.474   5.054
11739TIP3    H135156   5.426   5.439   5.021
11739TIP3    H235157   5.499   5.567   5.031
11740TIP3   OH235158   5.911   4.057   5.040
11740TIP3    H135159   5.958   3.996   4.981
11740TIP3    H235160   5.984   4.112   5.074
11741TIP3   OH235161   6.421   4.237   5.137
11741TIP3    H135162   6.480   4.187   5.196
11741TIP3    H235163   6.446   4.329   5.162
11742TIP3   OH235164   6.283   5.661   4.636
11742TIP3    H135165   6.371   5.684   4.600
11742TIP3    H235166   6.261   5.586   4.577
11743TIP3   OH235167   7.002   5.780   4.731
11743TIP3    H135168   6.995   5.682   4.719
11743TIP3    H235169   6.956   5.811   4.651
11744TIP3   OH235170   6.214   4.317   6.522
11744TIP3    H135171   6.179   4.243   6.574
11744TIP3    H235172   6.309   4.314   6.548
11745TIP3   OH235173   6.466   4.311   6.638
11745TIP3    H135174   6.549   4.282   6.597
11745TIP3    H235175   6.451   4.241   6.705
11746TIP3   OH235176   5.588   5.499   4.692
11746TIP3    H135177   5.589   5.518   4.787
11746TIP3    H235178   5.675   5.455   4.678
11747TIP3   OH235179   7.289   4.372   6.425
11747TIP3    H135180   7.306   4.340   6.516
11747TIP3    H235181   7.378   4.366   6.385
11748TIP3   OH235182   7.233   5.922   5.918
11748TIP3    H135183   7.148   5.889   5.887
11748TIP3    H235184   7.217   6.019   5.915
11749TIP3   OH235185   8.493   5.298   4.682
11749TIP3    H135186   8.465   5.390   4.664
11749TIP3    H235187   8.414   5.249   4.656
11750TIP3   OH235188   8.489   5.295   5.064
11750TIP3    H135189   8.520   5.279   5.155
11750TIP3    H235190   8.450   5.209   5.041
11751TIP3   OH235191   7.792   5.199   5.426
11751TIP3    H135192   7.822   5.130   5.489
11751TIP3    H235193   7.874   5.248   5.411
11752TIP3   OH235194   8.734   5.594   4.746
11752TIP3    H135195   8.722   5.529   4.816
11752TIP3    H235196   8.766   5.672   4.796
11753TIP3   OH235197   7.767   5.601   5.153
11753TIP3    H135198   7.757   5.504   5.155
11753TIP3    H235199   7.864   5.610   5.146
11754TIP3   OH235200   7.471   4.804   4.939
11754TIP3    H135201   7.420   4.886   4.953
11754TIP3    H235202   7.402   4.749   4.897
11755TIP3   OH235203   7.530   5.092   5.114
11755TIP3    H135204   7.579   5.013   5.146
11755TIP3    H235205   7.585   5.120   5.039
11756TIP3   OH235206   8.367   6.075   4.750
11756TIP3    H135207   8.422   6.012   4.700
11756TIP3    H235208   8.377   6.042   4.840
11757TIP3   OH235209   8.292   5.521   5.113
11757TIP3    H135210   8.332   5.443   5.070
11757TIP3    H235211   8.375   5.567   5.138
11758TIP3   OH235212   8.698   5.044   5.143
11758TIP3    H135213   8.710   4.950   5.172
11758TIP3    H235214   8.655   5.027   5.057
11759TIP3   OH235215   8.039   4.681   5.112
11759TIP3    H135216   8.025   4.754   5.047
11759TIP3    H235217   7.994   4.608   5.065
11760TIP3   OH235218   8.729   4.773   4.744
11760TIP3    H135219   8.792   4.716   4.791
11760TIP3    H235220   8.789   4.822   4.686
11761TIP3   OH235221   7.674   4.882   5.218
11761TIP3    H135222   7.759   4.864   5.263
11761TIP3    H235223   7.686   4.828   5.137
11762TIP3   OH235224   8.117   5.081   5.012
11762TIP3    H135225   8.211   5.056   5.023
11762TIP3    H235226   8.079   4.997   4.978
11763TIP3   OH235227   8.038   4.668   5.547
11763TIP3    H135228   7.980   4.706   5.478
11763TIP3    H235229   7.975   4.622   5.605
11764TIP3   OH235230   8.392   5.521   4.544
11764TIP3    H135231   8.338   5.498   4.467
11764TIP3    H235232   8.345   5.602   4.574
11765TIP3   OH235233   8.147   5.441   5.337
11765TIP3    H135234   8.085   5.509   5.373
11765TIP3    H235235   8.190   5.490   5.264
11766TIP3   OH235236   7.910   4.779   5.330
11766TIP3    H135237   7.972   4.853   5.350
11766TIP3    H235238   7.956   4.740   5.252
11767TIP3   OH235239   7.977   5.636   5.436
11767TIP3    H135240   7.950   5.722   5.397
11767TIP3    H235241   7.897   5.618   5.491
11768TIP3   OH235242   7.367   5.325   4.672
11768TIP3    H135243   7.324   5.351   4.588
11768TIP3    H235244   7.397   5.412   4.707
11769TIP3   OH235245   8.806   5.840   4.909
11769TIP3    H135246   8.719   5.828   4.953
11769TIP3    H235247   8.794   5.928   4.870
11770TIP3   OH235248   8.388   4.377   5.259
11770TIP3    H135249   8.371   4.282   5.276
11770TIP3    H235250   8.310   4.417   5.304
11771TIP3   OH235251   8.510   5.892   4.587
11771TIP3    H135252   8.561   5.811   4.567
11771TIP3    H235253   8.568   5.959   4.545
11772TIP3   OH235254   8.646   5.667   4.493
11772TIP3    H135255   8.577   5.598   4.484
11772TIP3    H235256   8.691   5.638   4.576
11773TIP3   OH235257   9.028   5.750   5.273
11773TIP3    H135258   9.037   5.674   5.212
11773TIP3    H235259   9.031   5.825   5.210
11774TIP3   OH235260   8.323   5.146   4.513
11774TIP3    H135261   8.241   5.198   4.497
11774TIP3    H235262   8.364   5.147   4.426
11775TIP3   OH235263   8.280   4.935   4.227
11775TIP3    H135264   8.347   4.985   4.277
11775TIP3    H235265   8.338   4.871   4.180
11776TIP3   OH235266   8.666   5.228   4.486
11776TIP3    H135267   8.610   5.258   4.562
11776TIP3    H235268   8.739   5.185   4.535
11777TIP3   OH235269   8.889   5.250   5.393
11777TIP3    H135270   8.905   5.336   5.434
11777TIP3    H235271   8.803   5.266   5.352
11778TIP3   OH235272   7.906   5.228   4.902
11778TIP3    H135273   7.863   5.170   4.835
11778TIP3    H235274   7.981   5.173   4.931
11779TIP3   OH235275   8.036   5.640   5.051
11779TIP3    H135276   8.014   5.600   4.965
11779TIP3    H235277   8.126   5.604   5.068
11780TIP3   OH235278   8.040   5.200   5.256
11780TIP3    H135279   8.073   5.177   5.167
11780TIP3    H235280   8.085   5.285   5.274
11781TIP3   OH235281   8.570   5.837   5.036
11781TIP3    H135282   8.552   5.920   5.084
11781TIP3    H235283   8.547   5.767   5.100
11782TIP3   OH235284   8.177   5.768   5.575
11782TIP3    H135285   8.107   5.821   5.620
11782TIP3    H235286   8.120   5.708   5.523
11783TIP3   OH235287   8.514   5.081   4.311
11783TIP3    H135288   8.568   5.146   4.362
11783TIP3    H235289   8.540   5.105   4.218
11784TIP3   OH235290   7.935   5.309   5.689
11784TIP3    H135291   7.938   5.400   5.727
11784TIP3    H235292   7.839   5.293   5.692
11785TIP3   OH235293   8.263   5.762   4.587
11785TIP3    H135294   8.339   5.821   4.606
11785TIP3    H235295   8.193   5.825   4.563
11786TIP3   OH235296   7.961   5.920   5.666
11786TIP3    H135297   7.928   5.917   5.574
11786TIP3    H235298   7.884   5.886   5.717
11787TIP3   OH235299   7.771   5.072   4.707
11787TIP3    H135300   7.703   5.116   4.651
11787TIP3    H235301   7.732   4.984   4.717
11788TIP3   OH235302   8.825   5.696   3.907
11788TIP3    H135303   8.820   5.790   3.883
11788TIP3    H235304   8.913   5.672   3.873
11789TIP3   OH235305   7.549   5.457   5.614
11789TIP3    H135306   7.484   5.437   5.544
11789TIP3    H235307   7.588   5.369   5.633
11790TIP3   OH235308   7.404   5.646   5.255
11790TIP3    H135309   7.500   5.649   5.243
11790TIP3    H235310   7.387   5.731   5.298
11791TIP3   OH235311   8.374   5.892   5.432
11791TIP3    H135312   8.414   5.940   5.506
11791TIP3    H235313   8.301   5.843   5.477
11792TIP3   OH235314   8.134   6.034   4.370
11792TIP3    H135315   8.106   5.987   4.289
11792TIP3    H235316   8.052   6.077   4.397
11793TIP3   OH235317   7.578   5.863   4.773
11793TIP3    H135318   7.622   5.852   4.860
11793TIP3    H235319   7.518   5.785   4.774
11794TIP3   OH235320   8.349   5.928   4.034
11794TIP3    H135321   8.398   5.854   3.991
11794TIP3    H235322   8.378   5.919   4.127
11795TIP3   OH235323   8.391   5.958   4.304
11795TIP3    H135324   8.304   5.972   4.347
11795TIP3    H235325   8.441   5.915   4.375
11796TIP3   OH235326   7.758   5.634   5.598
11796TIP3    H135327   7.800   5.626   5.686
11796TIP3    H235328   7.681   5.574   5.607
11797TIP3   OH235329   8.156   4.458   5.387
11797TIP3    H135330   8.067   4.429   5.359
11797TIP3    H235331   8.136   4.546   5.423
11798TIP3   OH235332   8.660   4.595   5.567
11798TIP3    H135333   8.725   4.553   5.628
11798TIP3    H235334   8.575   4.571   5.611
11799TIP3   OH235335   8.963   5.003   5.510
11799TIP3    H135336   8.900   5.005   5.585
11799TIP3    H235337   8.939   5.085   5.461
11800TIP3   OH235338   8.580   5.131   4.052
11800TIP3    H135339   8.568   5.102   3.959
11800TIP3    H235340   8.647   5.200   4.042
11801TIP3   OH235341   8.312   4.510   4.361
11801TIP3    H135342   8.275   4.506   4.451
11801TIP3    H235343   8.269   4.430   4.323
11802TIP3   OH235344   8.087   4.978   5.402
11802TIP3    H135345   8.040   5.007   5.483
11802TIP3    H235346   8.075   5.057   5.345
11803TIP3   OH235347   7.971   4.863   4.921
11803TIP3    H135348   7.878   4.836   4.938
11803TIP3    H235349   7.985   4.822   4.833
11804TIP3   OH235350   8.464   4.951   4.647
11804TIP3    H135351   8.408   5.021   4.607
11804TIP3    H235352   8.517   4.922   4.572
11805TIP3   OH235353   8.627   5.227   5.728
11805TIP3    H135354   8.618   5.150   5.788
11805TIP3    H235355   8.723   5.244   5.730
11806TIP3   OH235356   8.605   4.981   4.887
11806TIP3    H135357   8.548   4.998   4.810
11806TIP3    H235358   8.641   4.894   4.859
11807TIP3   OH235359   7.906   5.022   5.608
11807TIP3    H135360   7.947   5.090   5.665
11807TIP3    H235361   7.908   4.943   5.662
11808TIP3   OH235362   7.960   4.485   4.323
11808TIP3    H135363   7.949   4.482   4.421
11808TIP3    H235364   7.880   4.535   4.298
11809TIP3   OH235365   7.499   4.527   5.199
11809TIP3    H135366   7.579   4.558   5.246
11809TIP3    H235367   7.533   4.496   5.113
11810TIP3   OH235368   7.473   4.509   4.715
11810TIP3    H135369   7.517   4.546   4.636
11810TIP3    H235370   7.410   4.581   4.734
11811TIP3   OH235371   8.606   5.232   5.312
11811TIP3    H135372   8.648   5.165   5.252
11811TIP3    H235373   8.589   5.176   5.390
11812TIP3   OH235374   8.292   4.706   4.980
11812TIP3    H135375   8.219   4.689   5.041
11812TIP3    H235376   8.369   4.667   5.027
11813TIP3   OH235377   7.732   4.740   4.990
11813TIP3    H135378   7.638   4.748   4.961
11813TIP3    H235379   7.755   4.649   4.964
11814TIP3   OH235380   8.000   4.736   4.680
11814TIP3    H135381   8.094   4.751   4.658
11814TIP3    H235382   7.954   4.758   4.595
11815TIP3   OH235383   8.712   4.776   5.175
11815TIP3    H135384   8.703   4.783   5.272
11815TIP3    H235385   8.791   4.720   5.166
11816TIP3   OH235386   7.846   4.771   4.458
11816TIP3    H135387   7.772   4.726   4.412
11816TIP3    H235388   7.896   4.805   4.381
11817TIP3   OH235389   7.922   5.556   5.827
11817TIP3    H135390   7.997   5.597   5.873
11817TIP3    H235391   7.853   5.562   5.896
11818TIP3   OH235392   8.385   5.016   5.081
11818TIP3    H135393   8.448   4.969   5.025
11818TIP3    H235394   8.391   4.966   5.165
11819TIP3   OH235395   7.906   4.500   4.957
11819TIP3    H135396   7.870   4.421   5.004
11819TIP3    H235397   7.953   4.460   4.884
11820TIP3   OH235398   8.359   4.906   5.375
11820TIP3    H135399   8.271   4.948   5.382
11820TIP3    H235400   8.418   4.971   5.420
11821TIP3   OH235401   8.097   5.300   4.464
11821TIP3    H135402   8.025   5.234   4.452
11821TIP3    H235403   8.076   5.334   4.554
11822TIP3   OH235404   8.991   5.550   5.086
11822TIP3    H135405   9.015   5.547   4.993
11822TIP3    H235406   8.906   5.502   5.084
11823TIP3   OH235407   8.561   4.612   4.317
11823TIP3    H135408   8.467   4.585   4.331
11823TIP3    H235409   8.561   4.706   4.341
11824TIP3   OH235410   8.484   5.602   5.471
11824TIP3    H135411   8.545   5.581   5.544
11824TIP3    H235412   8.476   5.699   5.476
11825TIP3   OH235413   8.650   4.866   4.411
11825TIP3    H135414   8.734   4.911   4.425
11825TIP3    H235415   8.598   4.937   4.369
11826TIP3   OH235416   7.789   5.324   5.137
11826TIP3    H135417   7.826   5.295   5.051
11826TIP3    H235418   7.829   5.260   5.198
11827TIP3   OH235419   8.240   5.449   4.284
11827TIP3    H135420   8.193   5.536   4.289
11827TIP3    H235421   8.184   5.396   4.344
11828TIP3   OH235422   7.667   5.243   5.751
11828TIP3    H135423   7.688   5.214   5.841
11828TIP3    H235424   7.596   5.181   5.726
11829TIP3   OH235425   8.389   5.349   5.768
11829TIP3    H135426   8.336   5.299   5.704
11829TIP3    H235427   8.480   5.323   5.739
11830TIP3   OH235428   8.654   5.856   5.378
11830TIP3    H135429   8.564   5.886   5.358
11830TIP3    H235430   8.680   5.914   5.451
11831TIP3   OH235431   8.743   5.774   4.167
11831TIP3    H135432   8.760   5.722   4.248
11831TIP3    H235433   8.783   5.720   4.096
11832TIP3   OH235434   8.756   5.402   5.012
11832TIP3    H135435   8.662   5.382   5.026
11832TIP3    H235436   8.789   5.315   4.981
11833TIP3   OH235437   7.888   5.626   4.763
11833TIP3    H135438   7.884   5.708   4.709
11833TIP3    H235439   7.795   5.608   4.777
11834TIP3   OH235440   7.454   4.930   4.470
11834TIP3    H135441   7.497   5.016   4.490
11834TIP3    H235442   7.375   4.934   4.529
11835TIP3   OH235443   8.026   5.392   4.707
11835TIP3    H135444   7.990   5.481   4.726
11835TIP3    H235445   7.990   5.341   4.781
11836TIP3   OH235446   8.160   5.970   5.231
11836TIP3    H135447   8.200   6.040   5.177
11836TIP3    H235448   8.238   5.933   5.276
11837TIP3   OH235449   7.810   5.865   4.616
11837TIP3    H135450   7.724   5.874   4.661
11837TIP3    H235451   7.841   5.958   4.616
11838TIP3   OH235452   8.541   5.603   5.195
11838TIP3    H135453   8.529   5.595   5.292
11838TIP3    H235454   8.631   5.567   5.185
11839TIP3   OH235455   8.503   5.490   4.086
11839TIP3    H135456   8.561   5.467   4.162
11839TIP3    H235457   8.416   5.475   4.124
11840TIP3   OH235458   8.678   5.417   4.287
11840TIP3    H135459   8.666   5.354   4.361
11840TIP3    H235460   8.749   5.473   4.321
11841TIP3   OH235461   7.599   5.832   5.389
11841TIP3    H135462   7.652   5.761   5.429
11841TIP3    H235463   7.613   5.905   5.451
11842TIP3   OH235464   7.890   5.475   4.073
11842TIP3    H135465   7.899   5.382   4.046
11842TIP3    H235466   7.869   5.466   4.168
11843TIP3   OH235467   7.834   5.482   4.343
11843TIP3    H135468   7.900   5.455   4.409
11843TIP3    H235469   7.836   5.580   4.352
11844TIP3   OH235470   7.568   5.178   4.550
11844TIP3    H135471   7.500   5.221   4.607
11844TIP3    H235472   7.578   5.246   4.482
11845TIP3   OH235473   8.717   4.834   5.449
11845TIP3    H135474   8.804   4.856   5.485
11845TIP3    H235475   8.694   4.750   5.495
11846TIP3   OH235476   8.576   4.577   4.613
11846TIP3    H135477   8.578   4.590   4.518
11846TIP3    H235478   8.625   4.653   4.649
11847TIP3   OH235479   8.100   5.680   4.295
11847TIP3    H135480   8.012   5.704   4.331
11847TIP3    H235481   8.109   5.747   4.226
11848TIP3   OH235482   8.282   4.747   4.709
11848TIP3    H135483   8.350   4.816   4.696
11848TIP3    H235484   8.287   4.734   4.806
11849TIP3   OH235485   8.550   5.059   5.515
11849TIP3    H135486   8.574   5.110   5.595
11849TIP3    H235487   8.611   4.983   5.518
11850TIP3   OH235488   8.423   4.461   4.808
11850TIP3    H135489   8.451   4.513   4.886
11850TIP3    H235490   8.478   4.503   4.738
11851TIP3   OH235491   7.845   5.753   4.364
11851TIP3    H135492   7.814   5.823   4.300
11851TIP3    H235493   7.824   5.796   4.450
11852TIP3   OH235494   7.942   4.469   4.600
11852TIP3    H135495   7.939   4.559   4.638
11852TIP3    H235496   8.038   4.451   4.608
11853TIP3   OH235497   8.840   5.142   4.920
11853TIP3    H135498   8.753   5.103   4.896
11853TIP3    H235499   8.856   5.094   5.004
11854TIP3   OH235500   7.559   5.382   4.355
11854TIP3    H135501   7.621   5.457   4.361
11854TIP3    H235502   7.605   5.329   4.287
11855TIP3   OH235503   7.503   4.660   4.488
11855TIP3    H135504   7.500   4.758   4.486
11855TIP3    H235505   7.421   4.637   4.443
11856TIP3   OH235506   8.828   6.116   4.839
11856TIP3    H135507   8.781   6.163   4.766
11856TIP3    H235508   8.917   6.111   4.803
11857TIP3   OH235509   7.890   4.383   5.363
11857TIP3    H135510   7.861   4.349   5.276
11857TIP3    H235511   7.880   4.303   5.419
11858TIP3   OH235512   7.429   5.598   4.740
11858TIP3    H135513   7.361   5.628   4.802
11858TIP3    H235514   7.398   5.640   4.657
11859TIP3   OH235515   8.063   6.145   5.789
11859TIP3    H135516   8.088   6.075   5.852
11859TIP3    H235517   8.001   6.091   5.735
11860TIP3   OH235518   8.051   5.680   3.987
11860TIP3    H135519   7.993   5.608   4.022
11860TIP3    H235520   8.125   5.626   3.953
11861TIP3   OH235521   8.474   5.725   3.898
11861TIP3    H135522   8.531   5.671   3.955
11861TIP3    H235523   8.523   5.725   3.813
11862TIP3   OH235524   7.716   5.542   6.010
11862TIP3    H135525   7.724   5.446   6.022
11862TIP3    H235526   7.629   5.549   5.966
11863TIP3   OH235527   7.697   5.199   4.206
11863TIP3    H135528   7.749   5.165   4.281
11863TIP3    H235529   7.765   5.204   4.136
11864TIP3   OH235530   8.311   5.611   5.775
11864TIP3    H135531   8.285   5.614   5.681
11864TIP3    H235532   8.359   5.526   5.779
11865TIP3   OH235533   8.205   5.396   4.013
11865TIP3    H135534   8.206   5.409   4.110
11865TIP3    H235535   8.201   5.298   4.007
11866TIP3   OH235536   8.795   5.629   5.347
11866TIP3    H135537   8.878   5.670   5.316
11866TIP3    H235538   8.739   5.709   5.357
11867TIP3   OH235539   7.835   5.249   6.000
11867TIP3    H135540   7.925   5.235   5.966
11867TIP3    H235541   7.855   5.292   6.087
11868TIP3   OH235542   7.906   5.102   4.432
11868TIP3    H135543   7.873   5.062   4.513
11868TIP3    H235544   7.939   5.025   4.382
11869TIP3   OH235545   8.165   5.159   5.652
11869TIP3    H135546   8.095   5.228   5.657
11869TIP3    H235547   8.221   5.194   5.579
11870TIP3   OH235548   8.002   4.896   4.269
11870TIP3    H135549   7.976   4.900   4.175
11870TIP3    H235550   8.099   4.900   4.262
11871TIP3   OH235551   8.656   5.540   5.725
11871TIP3    H135552   8.745   5.551   5.687
11871TIP3    H235553   8.673   5.469   5.789
11872TIP3   OH235554   8.282   4.951   5.787
11872TIP3    H135555   8.298   4.874   5.727
11872TIP3    H235556   8.250   5.019   5.724
11873TIP3   OH235557   8.299   4.742   5.594
11873TIP3    H135558   8.330   4.785   5.511
11873TIP3    H235559   8.205   4.723   5.573
11874TIP3   OH235560   8.322   5.275   5.470
11874TIP3    H135561   8.409   5.281   5.427
11874TIP3    H235562   8.270   5.342   5.420
11875TIP3   OH235563   8.895   5.261   5.774
11875TIP3    H135564   8.930   5.171   5.783
11875TIP3    H235565   8.965   5.316   5.812
11876TIP3   OH235566   8.893   5.503   5.562
11876TIP3    H135567   8.848   5.555   5.492
11876TIP3    H235568   8.985   5.505   5.533
11877TIP3   OH235569   8.169   5.063   6.016
11877TIP3    H135570   8.092   5.006   6.019
11877TIP3    H235571   8.208   5.039   5.929
11878TIP3   OH235572   8.421   4.503   5.661
11878TIP3    H135573   8.370   4.584   5.639
11878TIP3    H235574   8.353   4.433   5.649
11879TIP3   OH235575   8.556   5.003   5.865
11879TIP3    H135576   8.571   4.988   5.960
11879TIP3    H235577   8.462   4.978   5.856
11880TIP3   OH235578   8.798   4.963   5.729
11880TIP3    H135579   8.718   4.963   5.785
11880TIP3    H235580   8.863   4.923   5.791
11881TIP3   OH235581   8.991   4.875   5.897
11881TIP3    H135582   9.056   4.814   5.935
11881TIP3    H235583   8.988   4.947   5.963
11882TIP3   OH235584   7.969   4.833   6.057
11882TIP3    H135585   8.019   4.751   6.037
11882TIP3    H235586   8.013   4.858   6.142
11883TIP3   OH235587   8.522   4.512   5.914
11883TIP3    H135588   8.581   4.435   5.913
11883TIP3    H235589   8.483   4.508   5.825
11884TIP3   OH235590   8.580   4.719   6.082
11884TIP3    H135591   8.561   4.652   6.012
11884TIP3    H235592   8.507   4.783   6.070
11885TIP3   OH235593   7.815   5.958   4.183
11885TIP3    H135594   7.908   5.956   4.155
11885TIP3    H235595   7.777   6.003   4.105
11886TIP3   OH235596   7.290   5.339   4.392
11886TIP3    H135597   7.385   5.359   4.377
11886TIP3    H235598   7.282   5.251   4.350
11887TIP3   OH235599   7.207   5.952   4.804
11887TIP3    H135600   7.139   5.892   4.767
11887TIP3    H235601   7.250   5.894   4.870
11888TIP3   OH235602   7.343   5.802   4.990
11888TIP3    H135603   7.324   5.732   5.054
11888TIP3    H235604   7.393   5.864   5.046
11889TIP3   OH235605   8.995   5.958   5.085
11889TIP3    H135606   8.932   6.004   5.143
11889TIP3    H235607   8.934   5.912   5.023
11890TIP3   OH235608   8.879   5.104   4.611
11890TIP3    H135609   8.967   5.061   4.620
11890TIP3    H235610   8.880   5.155   4.694
11891TIP3   OH235611   7.526   5.205   5.367
11891TIP3    H135612   7.524   5.176   5.273
11891TIP3    H235613   7.624   5.212   5.381
11892TIP3   OH235614   7.707   4.590   5.378
11892TIP3    H135615   7.767   4.513   5.378
11892TIP3    H235616   7.769   4.663   5.360
11893TIP3   OH235617   7.516   4.862   5.451
11893TIP3    H135618   7.562   4.852   5.365
11893TIP3    H235619   7.532   4.956   5.469
11894TIP3   OH235620   7.493   4.375   4.949
11894TIP3    H135621   7.398   4.363   4.969
11894TIP3    H235622   7.489   4.429   4.867
11895TIP3   OH235623   8.643   6.082   4.447
11895TIP3    H135624   8.696   6.062   4.366
11895TIP3    H235625   8.708   6.132   4.499
11896TIP3   OH235626   7.717   4.465   5.764
11896TIP3    H135627   7.661   4.439   5.839
11896TIP3    H235628   7.650   4.502   5.703
11897TIP3   OH235629   7.752   5.856   5.831
11897TIP3    H135630   7.657   5.855   5.809
11897TIP3    H235631   7.748   5.878   5.925
11898TIP3   OH235632   7.934   5.908   5.384
11898TIP3    H135633   7.881   5.980   5.345
11898TIP3    H235634   8.019   5.926   5.338
11899TIP3   OH235635   7.609   6.167   5.411
11899TIP3    H135636   7.518   6.193   5.386
11899TIP3    H235637   7.621   6.221   5.491
11900TIP3   OH235638   7.844   6.142   5.265
11900TIP3    H135639   7.758   6.155   5.310
11900TIP3    H235640   7.826   6.177   5.176
11901TIP3   OH235641   8.262   6.166   5.055
11901TIP3    H135642   8.191   6.187   4.991
11901TIP3    H235643   8.278   6.255   5.094
11902TIP3   OH235644   8.524   6.099   5.119
11902TIP3    H135645   8.434   6.124   5.090
11902TIP3    H235646   8.576   6.173   5.083
11903TIP3   OH235647   8.663   6.300   4.996
11903TIP3    H135648   8.710   6.383   5.012
11903TIP3    H235649   8.732   6.242   4.960
11904TIP3   OH235650   7.521   5.958   5.147
11904TIP3    H135651   7.545   5.932   5.239
11904TIP3    H235652   7.593   5.913   5.098
11905TIP3   OH235653   7.714   5.827   5.007
11905TIP3    H135654   7.729   5.744   5.058
11905TIP3    H235655   7.805   5.864   5.002
11906TIP3   OH235656   7.979   5.923   5.009
11906TIP3    H135657   8.012   5.832   4.999
11906TIP3    H235658   8.022   5.947   5.093
11907TIP3   OH235659   8.510   4.549   5.057
11907TIP3    H135660   8.495   4.495   5.137
11907TIP3    H235661   8.607   4.541   5.045
11908TIP3   OH235662   7.803   4.289   5.116
11908TIP3    H135663   7.710   4.257   5.116
11908TIP3    H235664   7.851   4.203   5.110
11909TIP3   OH235665   7.597   4.158   4.763
11909TIP3    H135666   7.621   4.215   4.688
11909TIP3    H235667   7.563   4.223   4.827
11910TIP3   OH235668   8.248   4.320   4.995
11910TIP3    H135669   8.302   4.368   4.929
11910TIP3    H235670   8.278   4.360   5.078
11911TIP3   OH235671   8.760   4.451   4.976
11911TIP3    H135672   8.785   4.427   4.886
11911TIP3    H235673   8.760   4.363   5.020
11912TIP3   OH235674   7.308   5.732   4.540
11912TIP3    H135675   7.223   5.698   4.507
11912TIP3    H235676   7.297   5.825   4.517
11913TIP3   OH235677   7.707   4.316   4.525
11913TIP3    H135678   7.755   4.253   4.467
11913TIP3    H235679   7.781   4.370   4.561
11914TIP3   OH235680   8.219   4.495   4.622
11914TIP3    H135681   8.279   4.449   4.683
11914TIP3    H235682   8.240   4.587   4.648
11915TIP3   OH235683   8.085   5.912   4.126
11915TIP3    H135684   8.169   5.941   4.084
11915TIP3    H235685   8.059   5.842   4.062
11916TIP3   OH235686   8.786   6.035   4.225
11916TIP3    H135687   8.780   5.939   4.206
11916TIP3    H235688   8.763   6.074   4.138
11917TIP3   OH235689   8.005   4.565   6.024
11917TIP3    H135690   7.980   4.482   6.069
11917TIP3    H235691   8.102   4.564   6.041
11918TIP3   OH235692   8.261   4.565   6.121
11918TIP3    H135693   8.348   4.542   6.086
11918TIP3    H235694   8.251   4.497   6.191
11919TIP3   OH235695   7.382   5.753   4.178
11919TIP3    H135696   7.380   5.781   4.271
11919TIP3    H235697   7.471   5.712   4.170
11920TIP3   OH235698   0.948   6.086   6.370
11920TIP3    H135699   0.912   6.176   6.377
11920TIP3    H235700   0.875   6.041   6.323
11921TIP3   OH235701   0.962   6.069   6.743
11921TIP3    H135702   0.989   6.045   6.833
11921TIP3    H235703   0.913   5.989   6.716
11922TIP3   OH235704   1.188   6.387   6.436
11922TIP3    H135705   1.179   6.319   6.504
11922TIP3    H235706   1.218   6.463   6.489
11923TIP3   OH235707   0.892   6.871   6.434
11923TIP3    H135708   0.937   6.787   6.415
11923TIP3    H235709   0.834   6.847   6.509
11924TIP3   OH235710   0.773   6.277   6.812
11924TIP3    H135711   0.809   6.205   6.758
11924TIP3    H235712   0.854   6.330   6.828
11925TIP3   OH235713   1.762   5.628   6.797
11925TIP3    H135714   1.784   5.714   6.840
11925TIP3    H235715   1.778   5.649   6.704
11926TIP3   OH235716   1.157   5.811   6.836
11926TIP3    H135717   1.200   5.725   6.854
11926TIP3    H235718   1.125   5.796   6.745
11927TIP3   OH235719   1.188   5.564   6.420
11927TIP3    H135720   1.258   5.547   6.487
11927TIP3    H235721   1.243   5.597   6.346
11928TIP3   OH235722   1.825   5.839   6.963
11928TIP3    H135723   1.739   5.886   6.951
11928TIP3    H235724   1.848   5.867   7.053
11929TIP3   OH235725   0.809   6.318   6.252
11929TIP3    H135726   0.810   6.264   6.171
11929TIP3    H235727   0.883   6.379   6.235
11930TIP3   OH235728   1.395   5.567   6.593
11930TIP3    H135729   1.397   5.506   6.668
11930TIP3    H235730   1.450   5.641   6.625
11931TIP3   OH235731   1.257   6.627   6.598
11931TIP3    H135732   1.167   6.620   6.638
11931TIP3    H235733   1.252   6.717   6.558
11932TIP3   OH235734   1.550   5.535   6.967
11932TIP3    H135735   1.461   5.557   6.934
11932TIP3    H235736   1.608   5.563   6.892
11933TIP3   OH235737   0.856   5.169   6.931
11933TIP3    H135738   0.870   5.072   6.930
11933TIP3    H235739   0.804   5.179   7.011
11934TIP3   OH235740   0.955   6.655   6.258
11934TIP3    H135741   1.007   6.574   6.238
11934TIP3    H235742   1.017   6.724   6.226
11935TIP3   OH235743   1.080   6.426   6.186
11935TIP3    H135744   1.114   6.360   6.122
11935TIP3    H235745   1.133   6.407   6.267
11936TIP3   OH235746   1.484   6.540   6.949
11936TIP3    H135747   1.474   6.464   6.888
11936TIP3    H235748   1.468   6.616   6.888
11937TIP3   OH235749   0.775   5.962   6.200
11937TIP3    H135750   0.696   5.905   6.220
11937TIP3    H235751   0.804   5.930   6.113
11938TIP3   OH235752   0.751   5.726   5.918
11938TIP3    H135753   0.825   5.776   5.959
11938TIP3    H235754   0.802   5.658   5.869
11939TIP3   OH235755   1.681   6.180   6.792
11939TIP3    H135756   1.597   6.232   6.796
11939TIP3    H235757   1.711   6.205   6.702
11940TIP3   OH235758   1.126   6.017   6.174
11940TIP3    H135759   1.073   6.040   6.254
11940TIP3    H235760   1.211   5.990   6.217
11941TIP3   OH235761   1.360   6.057   7.088
11941TIP3    H135762   1.358   6.139   7.141
11941TIP3    H235763   1.274   6.064   7.042
11942TIP3   OH235764   1.014   6.621   6.713
11942TIP3    H135765   0.993   6.708   6.754
11942TIP3    H235766   1.001   6.557   6.785
11943TIP3   OH235767   0.965   5.876   6.002
11943TIP3    H135768   1.022   5.936   6.056
11943TIP3    H235769   0.994   5.900   5.910
11944TIP3   OH235770   1.480   5.115   6.050
11944TIP3    H135771   1.398   5.135   6.101
11944TIP3    H235772   1.493   5.199   6.002
11945TIP3   OH235773   1.281   6.485   5.601
11945TIP3    H135774   1.290   6.581   5.583
11945TIP3    H235775   1.374   6.455   5.587
11946TIP3   OH235776   1.728   6.885   6.995
11946TIP3    H135777   1.723   6.788   7.009
11946TIP3    H235778   1.645   6.913   7.038
11947TIP3   OH235779   0.787   6.702   5.716
11947TIP3    H135780   0.850   6.634   5.685
11947TIP3    H235781   0.809   6.710   5.810
11948TIP3   OH235782   0.836   6.753   5.995
11948TIP3    H135783   0.774   6.756   6.070
11948TIP3    H235784   0.919   6.731   6.042
11949TIP3   OH235785   1.612   6.016   7.269
11949TIP3    H135786   1.531   6.029   7.219
11949TIP3    H235787   1.628   5.920   7.256
11950TIP3   OH235788   1.149   5.368   7.271
11950TIP3    H135789   1.219   5.338   7.333
11950TIP3    H235790   1.067   5.345   7.318
11951TIP3   OH235791   1.382   5.794   7.190
11951TIP3    H135792   1.332   5.789   7.275
11951TIP3    H235793   1.357   5.882   7.155
11952TIP3   OH235794   1.041   5.927   5.749
11952TIP3    H135795   1.006   5.899   5.662
11952TIP3    H235796   1.125   5.968   5.721
11953TIP3   OH235797   0.742   5.311   6.031
11953TIP3    H135798   0.723   5.317   6.128
11953TIP3    H235799   0.741   5.215   6.023
11954TIP3   OH235800   0.920   5.745   6.339
11954TIP3    H135801   0.863   5.814   6.300
11954TIP3    H235802   0.968   5.710   6.262
11955TIP3   OH235803   1.112   6.005   7.411
11955TIP3    H135804   1.086   5.935   7.475
11955TIP3    H235805   1.206   6.016   7.434
11956TIP3   OH235806   1.072   5.765   6.576
11956TIP3    H135807   1.011   5.792   6.504
11956TIP3    H235808   1.107   5.683   6.534
11957TIP3   OH235809   1.078   6.010   7.000
11957TIP3    H135810   1.114   5.941   6.939
11957TIP3    H235811   1.052   5.952   7.075
11958TIP3   OH235812   0.767   5.483   6.661
11958TIP3    H135813   0.674   5.478   6.691
11958TIP3    H235814   0.818   5.467   6.742
11959TIP3   OH235815   1.243   5.548   6.878
11959TIP3    H135816   1.203   5.559   6.967
11959TIP3    H235817   1.182   5.483   6.838
11960TIP3   OH235818   1.419   7.231   7.054
11960TIP3    H135819   1.407   7.250   6.959
11960TIP3    H235820   1.444   7.320   7.086
11961TIP3   OH235821   0.846   5.798   6.769
11961TIP3    H135822   0.910   5.754   6.711
11961TIP3    H235823   0.858   5.750   6.853
11962TIP3   OH235824   0.836   5.683   7.056
11962TIP3    H135825   0.770   5.756   7.050
11962TIP3    H235826   0.908   5.729   7.102
11963TIP3   OH235827   1.448   6.325   6.781
11963TIP3    H135828   1.473   6.376   6.701
11963TIP3    H235829   1.363   6.282   6.754
11964TIP3   OH235830   1.002   5.403   6.012
11964TIP3    H135831   0.905   5.392   6.020
11964TIP3    H235832   1.017   5.495   6.041
11965TIP3   OH235833   0.940   6.412   7.147
11965TIP3    H135834   0.970   6.403   7.238
11965TIP3    H235835   0.886   6.494   7.151
11966TIP3   OH235836   1.075   5.647   6.118
11966TIP3    H135837   1.171   5.651   6.138
11966TIP3    H235838   1.061   5.728   6.066
11967TIP3   OH235839   0.687   6.238   5.978
11967TIP3    H135840   0.623   6.311   5.986
11967TIP3    H235841   0.644   6.169   6.031
11968TIP3   OH235842   0.894   6.124   7.527
11968TIP3    H135843   0.838   6.064   7.476
11968TIP3    H235844   0.981   6.106   7.487
11969TIP3   OH235845   1.109   6.664   7.043
11969TIP3    H135846   1.013   6.665   7.052
11969TIP3    H235847   1.136   6.718   7.120
11970TIP3   OH235848   1.516   5.739   5.955
11970TIP3    H135849   1.453   5.695   5.893
11970TIP3    H235850   1.514   5.829   5.914
11971TIP3   OH235851   1.736   6.593   7.036
11971TIP3    H135852   1.638   6.591   7.027
11971TIP3    H235853   1.762   6.565   6.946
11972TIP3   OH235854   1.211   6.556   5.861
11972TIP3    H135855   1.197   6.478   5.916
11972TIP3    H235856   1.230   6.517   5.774
11973TIP3   OH235857   1.217   6.186   6.697
11973TIP3    H135858   1.123   6.159   6.710
11973TIP3    H235859   1.252   6.106   6.653
11974TIP3   OH235860   1.012   6.390   6.883
11974TIP3    H135861   0.999   6.397   6.980
11974TIP3    H235862   1.097   6.344   6.877
11975TIP3   OH235863   0.980   6.286   5.764
11975TIP3    H135864   1.025   6.262   5.848
11975TIP3    H235865   0.891   6.252   5.780
11976TIP3   OH235866   1.256   6.911   6.922
11976TIP3    H135867   1.174   6.857   6.917
11976TIP3    H235868   1.235   6.984   6.860
11977TIP3   OH235869   1.314   6.759   5.584
11977TIP3    H135870   1.353   6.831   5.532
11977TIP3    H235871   1.233   6.805   5.616
11978TIP3   OH235872   1.137   6.227   5.995
11978TIP3    H135873   1.127   6.151   6.056
11978TIP3    H235874   1.232   6.217   5.971
11979TIP3   OH235875   1.163   5.608   7.139
11979TIP3    H135876   1.250   5.640   7.168
11979TIP3    H235877   1.154   5.524   7.188
11980TIP3   OH235878   1.058   5.349   6.297
11980TIP3    H135879   1.039   5.376   6.205
11980TIP3    H235880   1.092   5.431   6.336
11981TIP3   OH235881   0.734   5.544   6.396
11981TIP3    H135882   0.806   5.609   6.387
11981TIP3    H235883   0.736   5.527   6.493
11982TIP3   OH235884   1.015   5.845   7.204
11982TIP3    H135885   1.045   5.899   7.280
11982TIP3    H235886   1.071   5.765   7.212
11983TIP3   OH235887   0.886   5.262   6.507
11983TIP3    H135888   0.882   5.341   6.564
11983TIP3    H235889   0.947   5.292   6.436
11984TIP3   OH235890   1.648   5.748   7.186
11984TIP3    H135891   1.550   5.748   7.195
11984TIP3    H235892   1.656   5.706   7.100
11985TIP3   OH235893   1.300   5.944   6.575
11985TIP3    H135894   1.223   5.885   6.587
11985TIP3    H235895   1.371   5.896   6.623
11986TIP3   OH235896   1.270   6.894   6.525
11986TIP3    H135897   1.228   6.944   6.451
11986TIP3    H235898   1.364   6.916   6.505
11987TIP3   OH235899   1.154   6.803   7.275
11987TIP3    H135900   1.146   6.738   7.349
11987TIP3    H235901   1.237   6.850   7.299
11988TIP3   OH235902   0.939   6.509   5.590
11988TIP3    H135903   0.984   6.445   5.648
11988TIP3    H235904   0.997   6.509   5.511
11989TIP3   OH235905   0.672   6.190   5.704
11989TIP3    H135906   0.670   6.200   5.801
11989TIP3    H235907   0.668   6.092   5.696
11990TIP3   OH235908   1.266   6.431   7.082
11990TIP3    H135909   1.344   6.473   7.040
11990TIP3    H235910   1.199   6.500   7.068
11991TIP3   OH235911   0.490   5.699   6.008
11991TIP3    H135912   0.467   5.695   5.913
11991TIP3    H235913   0.587   5.700   6.001
11992TIP3   OH235914   1.134   6.359   7.486
11992TIP3    H135915   1.212   6.337   7.433
11992TIP3    H235916   1.135   6.287   7.552
11993TIP3   OH235917   1.274   6.014   5.626
11993TIP3    H135918   1.257   5.969   5.541
11993TIP3    H235919   1.243   6.104   5.602
11994TIP3   OH235920   0.718   5.484   7.212
11994TIP3    H135921   0.770   5.547   7.157
11994TIP3    H235922   0.671   5.546   7.271
11995TIP3   OH235923   0.831   6.125   7.106
11995TIP3    H135924   0.923   6.104   7.078
11995TIP3    H235925   0.817   6.208   7.057
11996TIP3   OH235926   1.372   6.021   7.524
11996TIP3    H135927   1.422   5.941   7.542
11996TIP3    H235928   1.440   6.082   7.493
11997TIP3   OH235929   1.399   6.281   7.262
11997TIP3    H135930   1.341   6.337   7.206
11997TIP3    H235931   1.487   6.304   7.225
11998TIP3   OH235932   0.891   5.295   7.339
11998TIP3    H135933   0.831   5.365   7.306
11998TIP3    H235934   0.835   5.216   7.325
11999TIP3   OH235935   1.012   5.802   7.570
11999TIP3    H135936   1.041   5.795   7.663
11999TIP3    H235937   0.929   5.751   7.572
12000TIP3   OH235938   1.251   5.741   7.420
12000TIP3    H135939   1.178   5.739   7.484
12000TIP3    H235940   1.327   5.712   7.475
12001TIP3   OH235941   1.481   5.688   7.570
12001TIP3    H135942   1.491   5.592   7.587
12001TIP3    H235943   1.472   5.725   7.660
12002TIP3   OH235944   0.987   5.310   7.597
12002TIP3    H135945   1.045   5.232   7.600
12002TIP3    H235946   0.945   5.298   7.509
12003TIP3   OH235947   1.058   5.525   7.743
12003TIP3    H135948   1.040   5.444   7.690
12003TIP3    H235949   0.968   5.563   7.750
12004TIP3   OH235950   1.522   6.989   6.482
12004TIP3    H135951   1.547   7.024   6.569
12004TIP3    H235952   1.583   7.036   6.423
12005TIP3   OH235953   1.549   7.008   6.762
12005TIP3    H135954   1.511   6.917   6.760
12005TIP3    H235955   1.628   6.993   6.816
12006TIP3   OH235956   1.603   6.687   7.331
12006TIP3    H135957   1.525   6.705   7.387
12006TIP3    H235958   1.647   6.775   7.330
12007TIP3   OH235959   1.410   6.203   5.957
12007TIP3    H135960   1.478   6.266   5.925
12007TIP3    H235961   1.456   6.164   6.035
12008TIP3   OH235962   1.539   6.070   6.160
12008TIP3    H135963   1.475   6.026   6.220
12008TIP3    H235964   1.606   6.105   6.222
12009TIP3   OH235965   1.595   6.460   6.592
12009TIP3    H135966   1.648   6.396   6.541
12009TIP3    H235967   1.591   6.537   6.531
12010TIP3   OH235968   1.431   6.754   6.784
12010TIP3    H135969   1.362   6.804   6.833
12010TIP3    H235970   1.378   6.712   6.713
12011TIP3   OH235971   1.478   5.977   5.807
12011TIP3    H135972   1.406   5.979   5.739
12011TIP3    H235973   1.450   6.053   5.862
12012TIP3   OH235974   1.347   5.651   5.762
12012TIP3    H135975   1.308   5.686   5.681
12012TIP3    H235976   1.323   5.555   5.754
12013TIP3   OH235977   1.353   5.925   6.306
12013TIP3    H135978   1.362   5.828   6.300
12013TIP3    H235979   1.339   5.938   6.403
12014TIP3   OH235980   1.643   6.351   7.164
12014TIP3    H135981   1.716   6.285   7.154
12014TIP3    H235982   1.670   6.421   7.103
12015TIP3   OH235983   1.826   6.153   7.176
12015TIP3    H135984   1.753   6.103   7.217
12015TIP3    H235985   1.901   6.091   7.192
12016TIP3   OH235986   1.293   5.384   5.748
12016TIP3    H135987   1.370   5.354   5.801
12016TIP3    H235988   1.222   5.322   5.772
12017TIP3   OH235989   1.350   5.640   6.200
12017TIP3    H135990   1.390   5.551   6.216
12017TIP3    H235991   1.410   5.671   6.130
12018TIP3   OH235992   1.513   5.814   6.697
12018TIP3    H135993   1.599   5.840   6.657
12018TIP3    H235994   1.526   5.852   6.787
12019TIP3   OH235995   1.579   5.961   6.928
12019TIP3    H135996   1.501   5.996   6.977
12019TIP3    H235997   1.611   6.042   6.883
12020TIP3   OH235998   2.033   5.551   7.484
12020TIP3    H135999   2.092   5.485   7.442
12020TIP3    H236000   2.002   5.603   7.406
12021TIP3   OH236001   1.458   5.389   6.241
12021TIP3    H136002   1.505   5.373   6.325
12021TIP3    H236003   1.397   5.312   6.240
12022TIP3   OH236004   1.904   5.687   7.286
12022TIP3    H136005   1.823   5.732   7.314
12022TIP3    H236006   1.865   5.617   7.229
12023TIP3   OH236007   1.539   5.326   5.871
12023TIP3    H136008   1.579   5.253   5.819
12023TIP3    H236009   1.608   5.395   5.867
12024TIP3   OH236010   1.102   6.844   6.139
12024TIP3    H136011   1.157   6.844   6.057
12024TIP3    H236012   1.142   6.918   6.188
12025TIP3   OH236013   1.030   7.067   7.005
12025TIP3    H136014   1.107   7.018   7.035
12025TIP3    H236015   1.039   7.150   7.055
12026TIP3   OH236016   1.804   5.451   7.163
12026TIP3    H136017   1.711   5.444   7.134
12026TIP3    H236018   1.832   5.357   7.158
12027TIP3   OH236019   0.972   6.894   6.782
12027TIP3    H136020   0.902   6.927   6.840
12027TIP3    H236021   1.023   6.975   6.770
12028TIP3   OH236022   1.206   7.089   6.717
12028TIP3    H136023   1.182   7.170   6.667
12028TIP3    H236024   1.224   7.025   6.645
12029TIP3   OH236025   1.017   5.362   6.790
12029TIP3    H136026   0.964   5.291   6.830
12029TIP3    H236027   1.082   5.310   6.738
12030TIP3   OH236028   1.530   5.253   6.698
12030TIP3    H136029   1.559   5.296   6.615
12030TIP3    H236030   1.433   5.253   6.688
12031TIP3   OH236031   1.625   5.351   6.458
12031TIP3    H136032   1.696   5.297   6.418
12031TIP3    H236033   1.660   5.442   6.440
12032TIP3   OH236034   0.710   5.105   6.691
12032TIP3    H136035   0.761   5.141   6.617
12032TIP3    H236036   0.765   5.133   6.767
12033TIP3   OH236037   1.258   5.240   6.672
12033TIP3    H136038   1.253   5.218   6.578
12033TIP3    H236039   1.222   5.155   6.706
12034TIP3   OH236040   1.272   5.176   6.227
12034TIP3    H136041   1.189   5.222   6.249
12034TIP3    H236042   1.266   5.099   6.288
12035TIP3   OH236043   0.711   5.283   6.295
12035TIP3    H136044   0.748   5.242   6.375
12035TIP3    H236045   0.695   5.374   6.329
12036TIP3   OH236046   1.247   6.824   5.907
12036TIP3    H136047   1.238   6.727   5.892
12036TIP3    H236048   1.207   6.859   5.825
12037TIP3   OH236049   1.539   5.417   7.601
12037TIP3    H136050   1.557   5.385   7.693
12037TIP3    H236051   1.628   5.410   7.560
12038TIP3   OH236052   1.480   6.964   7.085
12038TIP3    H136053   1.403   6.929   7.036
12038TIP3    H236054   1.464   7.061   7.072
12039TIP3   OH236055   2.742   6.339   5.859
12039TIP3    H136056   2.715   6.431   5.841
12039TIP3    H236057   2.664   6.291   5.826
12040TIP3   OH236058   2.741   6.341   6.241
12040TIP3    H136059   2.774   6.317   6.329
12040TIP3    H236060   2.701   6.258   6.211
12041TIP3   OH236061   2.041   6.239   6.606
12041TIP3    H136062   2.079   6.172   6.666
12041TIP3    H236063   2.118   6.297   6.592
12042TIP3   OH236064   2.985   6.643   5.924
12042TIP3    H136065   2.973   6.576   5.992
12042TIP3    H236066   3.016   6.719   5.975
12043TIP3   OH236067   2.012   6.644   6.329
12043TIP3    H136068   2.006   6.547   6.332
12043TIP3    H236069   2.109   6.655   6.323
12044TIP3   OH236070   1.720   5.847   6.114
12044TIP3    H136071   1.673   5.931   6.130
12044TIP3    H236072   1.649   5.794   6.074
12045TIP3   OH236073   1.777   6.134   6.287
12045TIP3    H136074   1.827   6.058   6.323
12045TIP3    H236075   1.839   6.171   6.222
12046TIP3   OH236076   2.634   7.104   5.938
12046TIP3    H136077   2.679   7.032   5.889
12046TIP3    H236078   2.630   7.068   6.028
12047TIP3   OH236079   2.540   6.565   6.290
12047TIP3    H136080   2.582   6.490   6.245
12047TIP3    H236081   2.623   6.613   6.316
12048TIP3   OH236082   3.552   5.888   6.285
12048TIP3    H136083   3.583   5.969   6.330
12048TIP3    H236084   3.579   5.906   6.193
12049TIP3   OH236085   2.948   6.067   6.322
12049TIP3    H136086   2.994   5.984   6.343
12049TIP3    H236087   2.921   6.050   6.230
12050TIP3   OH236088   2.294   5.723   6.292
12050TIP3    H136089   2.275   5.797   6.231
12050TIP3    H236090   2.245   5.652   6.244
12051TIP3   OH236091   2.986   5.817   5.907
12051TIP3    H136092   3.057   5.803   5.975
12051TIP3    H236093   3.039   5.854   5.834
12052TIP3   OH236094   1.925   5.929   6.394
12052TIP3    H136095   2.008   5.909   6.442
12052TIP3    H236096   1.939   5.873   6.314
12053TIP3   OH236097   2.365   6.125   6.187
12053TIP3    H136098   2.460   6.101   6.198
12053TIP3    H236099   2.327   6.041   6.154
12054TIP3   OH236100   3.627   6.093   6.457
12054TIP3    H136101   3.543   6.141   6.439
12054TIP3    H236102   3.646   6.125   6.547
12055TIP3   OH236103   2.632   6.560   5.729
12055TIP3    H136104   2.592   6.546   5.642
12055TIP3    H236105   2.590   6.644   5.756
12056TIP3   OH236106   2.393   6.485   6.515
12056TIP3    H136107   2.333   6.554   6.552
12056TIP3    H236108   2.437   6.535   6.443
12057TIP3   OH236109   3.193   5.822   6.082
12057TIP3    H136110   3.184   5.778   6.168
12057TIP3    H236111   3.248   5.899   6.106
12058TIP3   OH236112   2.156   5.822   6.508
12058TIP3    H136113   2.219   5.891   6.540
12058TIP3    H236114   2.207   5.786   6.433
12059TIP3   OH236115   2.222   6.681   6.613
12059TIP3    H136116   2.198   6.768   6.574
12059TIP3    H236117   2.142   6.666   6.668
12060TIP3   OH236118   1.613   6.370   5.850
12060TIP3    H136119   1.577   6.398   5.764
12060TIP3    H236120   1.646   6.455   5.886
12061TIP3   OH236121   3.054   6.885   6.087
12061TIP3    H136122   2.965   6.878   6.127
12061TIP3    H236123   3.047   6.973   6.043
12062TIP3   OH236124   3.347   5.787   6.448
12062TIP3    H136125   3.261   5.820   6.419
12062TIP3    H236126   3.408   5.821   6.380
12063TIP3   OH236127   2.638   5.426   6.430
12063TIP3    H136128   2.636   5.330   6.452
12063TIP3    H236129   2.566   5.459   6.487
12064TIP3   OH236130   2.756   6.931   5.762
12064TIP3    H136131   2.807   6.849   5.741
12064TIP3    H236132   2.818   6.997   5.722
12065TIP3   OH236133   2.900   6.716   5.672
12065TIP3    H136134   2.864   6.636   5.632
12065TIP3    H236135   2.937   6.681   5.756
12066TIP3   OH236136   3.281   6.798   6.434
12066TIP3    H136137   3.270   6.721   6.373
12066TIP3    H236138   3.264   6.873   6.373
12067TIP3   OH236139   2.572   6.191   5.690
12067TIP3    H136140   2.493   6.245   5.670
12067TIP3    H236141   2.620   6.192   5.605
12068TIP3   OH236142   2.532   5.976   5.406
12068TIP3    H136143   2.598   6.029   5.455
12068TIP3    H236144   2.592   5.916   5.358
12069TIP3   OH236145   3.476   6.434   6.277
12069TIP3    H136146   3.394   6.487   6.283
12069TIP3    H236147   3.507   6.460   6.188
12070TIP3   OH236148   2.921   6.273   5.662
12070TIP3    H136149   2.867   6.298   5.741
12070TIP3    H236150   3.005   6.250   5.705
12071TIP3   OH236151   3.156   6.313   6.577
12071TIP3    H136152   3.156   6.395   6.630
12071TIP3    H236153   3.071   6.323   6.529
12072TIP3   OH236154   2.152   6.272   6.081
12072TIP3    H136155   2.112   6.214   6.012
12072TIP3    H236156   2.230   6.219   6.109
12073TIP3   OH236157   2.281   6.680   6.229
12073TIP3    H136158   2.264   6.645   6.141
12073TIP3    H236159   2.372   6.648   6.247
12074TIP3   OH236160   2.290   6.242   6.435
12074TIP3    H136161   2.323   6.221   6.345
12074TIP3    H236162   2.333   6.328   6.453
12075TIP3   OH236163   2.814   6.881   6.210
12075TIP3    H136164   2.801   6.963   6.261
12075TIP3    H236165   2.798   6.810   6.275
12076TIP3   OH236166   2.428   6.800   6.758
12076TIP3    H136167   2.368   6.862   6.804
12076TIP3    H236168   2.363   6.747   6.707
12077TIP3   OH236169   2.762   6.131   5.488
12077TIP3    H136170   2.820   6.192   5.540
12077TIP3    H236171   2.788   6.154   5.396
12078TIP3   OH236172   2.183   6.350   6.863
12078TIP3    H136173   2.189   6.440   6.902
12078TIP3    H236174   2.086   6.335   6.873
12079TIP3   OH236175   2.505   6.812   5.764
12079TIP3    H136176   2.586   6.864   5.777
12079TIP3    H236177   2.445   6.876   5.724
12080TIP3   OH236178   2.222   6.968   6.844
12080TIP3    H136179   2.187   6.971   6.753
12080TIP3    H236180   2.142   6.945   6.896
12081TIP3   OH236181   3.272   5.371   5.534
12081TIP3    H136182   3.196   5.401   5.587
12081TIP3    H236183   3.293   5.453   5.484
12082TIP3   OH236184   2.020   6.114   5.883
12082TIP3    H136185   1.954   6.160   5.827
12082TIP3    H236186   1.978   6.028   5.895
12083TIP3   OH236187   3.076   6.740   5.085
12083TIP3    H136188   3.084   6.837   5.070
12083TIP3    H236189   3.169   6.711   5.073
12084TIP3   OH236190   1.799   6.497   6.793
12084TIP3    H136191   1.735   6.478   6.722
12084TIP3    H236192   1.838   6.409   6.812
12085TIP3   OH236193   1.655   6.690   6.426
12085TIP3    H136194   1.751   6.688   6.415
12085TIP3    H236195   1.645   6.771   6.479
12086TIP3   OH236196   3.521   7.143   6.480
12086TIP3    H136197   3.518   7.047   6.497
12086TIP3    H236198   3.437   7.171   6.525
12087TIP3   OH236199   2.625   6.929   6.613
12087TIP3    H136200   2.624   7.021   6.646
12087TIP3    H236201   2.554   6.889   6.669
12088TIP3   OH236202   2.386   7.057   5.567
12088TIP3    H136203   2.341   7.041   5.482
12088TIP3    H236204   2.355   7.146   5.592
12089TIP3   OH236205   1.823   6.907   5.951
12089TIP3    H136206   1.873   6.899   6.035
12089TIP3    H236207   1.765   6.829   5.958
12090TIP3   OH236208   2.586   6.959   5.205
12090TIP3    H136209   2.646   6.890   5.169
12090TIP3    H236210   2.622   6.970   5.296
12091TIP3   OH236211   2.637   7.007   5.475
12091TIP3    H136212   2.549   7.017   5.518
12091TIP3    H236213   2.690   6.971   5.548
12092TIP3   OH236214   3.409   6.273   6.756
12092TIP3    H136215   3.328   6.286   6.705
12092TIP3    H236216   3.425   6.177   6.745
12093TIP3   OH236217   2.005   6.680   6.778
12093TIP3    H136218   2.054   6.666   6.861
12093TIP3    H236219   1.930   6.618   6.787
12094TIP3   OH236220   2.399   5.517   6.561
12094TIP3    H136221   2.308   5.479   6.552
12094TIP3    H236222   2.389   5.598   6.509
12095TIP3   OH236223   2.943   5.620   6.760
12095TIP3    H136224   3.016   5.590   6.818
12095TIP3    H236225   2.864   5.596   6.812
12096TIP3   OH236226   3.172   6.047   6.672
12096TIP3    H136227   3.126   6.045   6.759
12096TIP3    H236228   3.154   6.138   6.640
12097TIP3   OH236229   2.836   6.176   5.232
12097TIP3    H136230   2.803   6.154   5.143
12097TIP3    H236231   2.918   6.225   5.210
12098TIP3   OH236232   2.556   5.549   5.538
12098TIP3    H136233   2.519   5.549   5.628
12098TIP3    H236234   2.509   5.471   5.501
12099TIP3   OH236235   2.336   6.017   6.584
12099TIP3    H136236   2.289   6.043   6.666
12099TIP3    H236237   2.322   6.097   6.529
12100TIP3   OH236238   2.223   5.903   6.100
12100TIP3    H136239   2.129   5.880   6.116
12100TIP3    H236240   2.235   5.864   6.010
12101TIP3   OH236241   2.710   5.992   5.823
12101TIP3    H136242   2.659   6.064   5.781
12101TIP3    H236243   2.766   5.962   5.748
12102TIP3   OH236244   2.886   6.269   6.907
12102TIP3    H136245   2.866   6.197   6.970
12102TIP3    H236246   2.979   6.287   6.929
12103TIP3   OH236247   2.865   6.020   6.063
12103TIP3    H136248   2.808   6.052   5.991
12103TIP3    H236249   2.900   5.939   6.019
12104TIP3   OH236250   2.153   6.058   6.792
12104TIP3    H136251   2.187   6.127   6.851
12104TIP3    H236252   2.085   6.015   6.845
12105TIP3   OH236253   2.207   5.528   5.501
12105TIP3    H136254   2.196   5.526   5.598
12105TIP3    H236255   2.129   5.580   5.475
12106TIP3   OH236256   1.749   5.574   6.371
12106TIP3    H136257   1.825   5.606   6.423
12106TIP3    H236258   1.789   5.541   6.289
12107TIP3   OH236259   1.719   5.552   5.891
12107TIP3    H136260   1.765   5.590   5.813
12107TIP3    H236261   1.659   5.626   5.911
12108TIP3   OH236262   2.870   6.266   6.485
12108TIP3    H136263   2.906   6.195   6.427
12108TIP3    H236264   2.846   6.213   6.564
12109TIP3   OH236265   2.549   5.729   6.154
12109TIP3    H136266   2.469   5.728   6.209
12109TIP3    H236267   2.620   5.726   6.220
12110TIP3   OH236268   1.981   5.785   6.167
12110TIP3    H136269   1.887   5.793   6.139
12110TIP3    H236270   2.003   5.693   6.142
12111TIP3   OH236271   2.250   5.780   5.855
12111TIP3    H136272   2.344   5.798   5.833
12111TIP3    H236273   2.203   5.803   5.772
12112TIP3   OH236274   3.039   5.807   6.359
12112TIP3    H136275   3.008   5.818   6.452
12112TIP3    H236276   2.975   5.744   6.325
12113TIP3   OH236277   2.095   5.814   5.633
12113TIP3    H136278   2.023   5.770   5.584
12113TIP3    H236279   2.146   5.852   5.558
12114TIP3   OH236280   3.210   7.493   6.580
12114TIP3    H136281   3.210   7.520   6.486
12114TIP3    H236282   3.289   7.540   6.613
12115TIP3   OH236283   2.168   6.600   7.000
12115TIP3    H136284   2.248   6.632   7.046
12115TIP3    H236285   2.103   6.605   7.073
12116TIP3   OH236286   2.631   6.054   6.250
12116TIP3    H136287   2.707   6.023   6.197
12116TIP3    H236288   2.650   6.016   6.338
12117TIP3   OH236289   2.155   5.545   6.136
12117TIP3    H136290   2.119   5.466   6.181
12117TIP3    H236291   2.202   5.506   6.061
12118TIP3   OH236292   2.611   5.951   6.559
12118TIP3    H136293   2.525   5.996   6.563
12118TIP3    H236294   2.672   6.016   6.600
12119TIP3   OH236295   2.344   6.344   5.639
12119TIP3    H136296   2.271   6.280   5.628
12119TIP3    H236297   2.325   6.379   5.730
12120TIP3   OH236298   3.244   6.581   6.268
12120TIP3    H136299   3.269   6.632   6.187
12120TIP3    H236300   3.159   6.540   6.241
12121TIP3   OH236301   2.800   5.663   5.486
12121TIP3    H136302   2.706   5.644   5.506
12121TIP3    H236303   2.813   5.754   5.521
12122TIP3   OH236304   2.736   6.659   6.640
12122TIP3    H136305   2.776   6.647   6.727
12122TIP3    H236306   2.705   6.751   6.642
12123TIP3   OH236307   2.872   5.901   5.604
12123TIP3    H136308   2.968   5.909   5.622
12123TIP3    H236309   2.853   5.983   5.553
12124TIP3   OH236310   2.034   6.363   6.316
12124TIP3    H136311   2.073   6.339   6.229
12124TIP3    H236312   2.082   6.304   6.375
12125TIP3   OH236313   2.489   6.494   5.461
12125TIP3    H136314   2.441   6.580   5.465
12125TIP3    H236315   2.435   6.440   5.522
12126TIP3   OH236316   1.919   6.281   6.928
12126TIP3    H136317   1.936   6.272   7.024
12126TIP3    H236318   1.843   6.222   6.915
12127TIP3   OH236319   2.645   6.401   6.949
12127TIP3    H136320   2.589   6.344   6.895
12127TIP3    H236321   2.734   6.369   6.922
12128TIP3   OH236322   2.902   6.917   6.537
12128TIP3    H136323   2.805   6.923   6.548
12128TIP3    H236324   2.932   6.972   6.612
12129TIP3   OH236325   3.311   5.997   5.443
12129TIP3    H136326   3.249   5.953   5.380
12129TIP3    H236327   3.309   6.086   5.402
12130TIP3   OH236328   3.531   6.851   6.523
12130TIP3    H136329   3.433   6.847   6.515
12130TIP3    H236330   3.557   6.822   6.433
12131TIP3   OH236331   3.013   6.815   5.349
12131TIP3    H136332   2.988   6.744   5.411
12131TIP3    H236333   3.027   6.767   5.265
12132TIP3   OH236334   3.009   6.444   6.186
12132TIP3    H136335   2.915   6.420   6.199
12132TIP3    H236336   3.043   6.364   6.141
12133TIP3   OH236337   2.139   6.671   5.940
12133TIP3    H136338   2.140   6.753   5.886
12133TIP3    H236339   2.044   6.657   5.951
12134TIP3   OH236340   1.702   5.975   5.645
12134TIP3    H136341   1.747   6.060   5.665
12134TIP3    H236342   1.625   5.980   5.706
12135TIP3   OH236343   2.273   6.435   5.883
12135TIP3    H136344   2.240   6.525   5.901
12135TIP3    H236345   2.237   6.386   5.960
12136TIP3   OH236346   2.407   7.014   6.409
12136TIP3    H136347   2.448   7.088   6.359
12136TIP3    H236348   2.484   6.980   6.457
12137TIP3   OH236349   2.057   6.910   5.792
12137TIP3    H136350   1.971   6.920   5.838
12137TIP3    H236351   2.090   7.003   5.795
12138TIP3   OH236352   2.792   6.647   6.370
12138TIP3    H136353   2.783   6.645   6.468
12138TIP3    H236354   2.876   6.601   6.358
12139TIP3   OH236355   2.770   6.540   5.252
12139TIP3    H136356   2.823   6.515   5.331
12139TIP3    H236357   2.681   6.517   5.282
12140TIP3   OH236358   3.042   7.180   6.417
12140TIP3    H136359   2.960   7.127   6.407
12140TIP3    H236360   3.029   7.247   6.346
12141TIP3   OH236361   3.109   7.016   5.071
12141TIP3    H136362   3.146   7.088   5.018
12141TIP3    H236363   3.029   7.061   5.105
12142TIP3   OH236364   2.930   6.474   5.468
12142TIP3    H136365   2.921   6.408   5.540
12142TIP3    H236366   3.027   6.472   5.455
12143TIP3   OH236367   1.844   6.876   6.568
12143TIP3    H136368   1.901   6.807   6.605
12143TIP3    H236369   1.870   6.953   6.621
12144TIP3   OH236370   2.135   6.522   5.251
12144TIP3    H136371   2.149   6.430   5.224
12144TIP3    H236372   2.115   6.511   5.346
12145TIP3   OH236373   2.080   6.527   5.524
12145TIP3    H136374   2.154   6.503   5.581
12145TIP3    H236375   2.082   6.625   5.529
12146TIP3   OH236376   1.815   6.220   5.727
12146TIP3    H136377   1.749   6.266   5.784
12146TIP3    H236378   1.829   6.289   5.659
12147TIP3   OH236379   2.965   5.856   6.619
12147TIP3    H136380   3.046   5.897   6.653
12147TIP3    H236381   2.957   5.776   6.675
12148TIP3   OH236382   2.853   5.607   5.782
12148TIP3    H136383   2.836   5.637   5.692
12148TIP3    H236384   2.890   5.688   5.824
12149TIP3   OH236385   2.346   6.723   5.471
12149TIP3    H136386   2.259   6.750   5.507
12149TIP3    H236387   2.364   6.798   5.412
12150TIP3   OH236388   2.533   5.788   5.884
12150TIP3    H136389   2.597   5.861   5.867
12150TIP3    H236390   2.540   5.780   5.982
12151TIP3   OH236391   2.805   6.104   6.695
12151TIP3    H136392   2.828   6.159   6.772
12151TIP3    H236393   2.863   6.027   6.707
12152TIP3   OH236394   2.678   5.513   5.985
12152TIP3    H136395   2.675   5.587   6.049
12152TIP3    H236396   2.740   5.549   5.918
12153TIP3   OH236397   2.089   6.799   5.540
12153TIP3    H136398   2.060   6.869   5.477
12153TIP3    H236399   2.074   6.843   5.626
12154TIP3   OH236400   2.191   5.514   5.778
12154TIP3    H136401   2.188   5.605   5.814
12154TIP3    H236402   2.287   5.497   5.786
12155TIP3   OH236403   3.442   6.008   6.676
12155TIP3    H136404   3.344   6.003   6.679
12155TIP3    H236405   3.458   5.966   6.590
12156TIP3   OH236406   3.094   6.201   6.062
12156TIP3    H136407   3.020   6.140   6.076
12156TIP3    H236408   3.168   6.156   6.110
12157TIP3   OH236409   1.807   6.428   5.532
12157TIP3    H136410   1.873   6.499   5.541
12157TIP3    H236411   1.853   6.374   5.464
12158TIP3   OH236412   1.751   5.705   5.667
12158TIP3    H136413   1.752   5.803   5.663
12158TIP3    H236414   1.670   5.684   5.618
12159TIP3   OH236415   3.064   7.156   6.010
12159TIP3    H136416   3.021   7.203   5.935
12159TIP3    H236417   3.158   7.175   5.990
12160TIP3   OH236418   2.139   5.425   6.541
12160TIP3    H136419   2.110   5.394   6.452
12160TIP3    H236420   2.130   5.343   6.594
12161TIP3   OH236421   1.676   6.637   5.918
12161TIP3    H136422   1.609   6.674   5.977
12161TIP3    H236423   1.652   6.681   5.833
12162TIP3   OH236424   1.836   7.170   6.990
12162TIP3    H136425   1.924   7.175   7.032
12162TIP3    H236426   1.819   7.075   6.987
12163TIP3   OH236427   2.320   7.148   7.034
12163TIP3    H136428   2.414   7.126   7.042
12163TIP3    H236429   2.293   7.090   6.960
12164TIP3   OH236430   2.298   6.726   5.162
12164TIP3    H136431   2.243   6.654   5.200
12164TIP3    H236432   2.374   6.675   5.128
12165TIP3   OH236433   2.956   7.056   6.769
12165TIP3    H136434   2.948   6.987   6.839
12165TIP3    H236435   3.034   7.107   6.798
12166TIP3   OH236436   2.734   6.765   5.074
12166TIP3    H136437   2.780   6.704   5.133
12166TIP3    H236438   2.790   6.765   4.994
12167TIP3   OH236439   1.966   6.593   7.192
12167TIP3    H136440   1.981   6.497   7.197
12167TIP3    H236441   1.879   6.597   7.147
12168TIP3   OH236442   1.943   6.242   5.385
12168TIP3    H136443   2.000   6.212   5.458
12168TIP3    H236444   2.009   6.247   5.313
12169TIP3   OH236445   2.570   6.677   6.966
12169TIP3    H136446   2.535   6.697   6.878
12169TIP3    H236447   2.605   6.586   6.955
12170TIP3   OH236448   2.453   6.441   5.192
12170TIP3    H136449   2.457   6.454   5.289
12170TIP3    H236450   2.453   6.343   5.186
12171TIP3   OH236451   3.064   6.687   6.569
12171TIP3    H136452   3.142   6.729   6.527
12171TIP3    H236453   2.997   6.758   6.556
12172TIP3   OH236454   2.085   6.323   7.175
12172TIP3    H136455   2.166   6.278   7.148
12172TIP3    H236456   2.111   6.359   7.262
12173TIP3   OH236457   2.149   6.147   5.605
12173TIP3    H136458   2.124   6.105   5.689
12173TIP3    H236459   2.187   6.071   5.555
12174TIP3   OH236460   2.421   6.208   6.831
12174TIP3    H136461   2.347   6.271   6.835
12174TIP3    H236462   2.474   6.243   6.756
12175TIP3   OH236463   2.252   5.940   5.447
12175TIP3    H136464   2.226   5.947   5.353
12175TIP3    H236465   2.350   5.945   5.439
12176TIP3   OH236466   2.935   6.610   6.967
12176TIP3    H136467   3.020   6.593   6.925
12176TIP3    H236468   2.935   6.547   7.041
12177TIP3   OH236469   3.072   6.270   5.112
12177TIP3    H136470   3.052   6.226   5.027
12177TIP3    H236471   3.040   6.360   5.090
12178TIP3   OH236472   2.535   5.997   6.962
12178TIP3    H136473   2.540   5.921   6.901
12178TIP3    H236474   2.498   6.067   6.904
12179TIP3   OH236475   2.526   5.779   6.759
12179TIP3    H136476   2.586   5.827   6.698
12179TIP3    H236477   2.447   5.777   6.704
12180TIP3   OH236478   2.572   6.318   6.638
12180TIP3    H136479   2.659   6.334   6.598
12180TIP3    H236480   2.517   6.386   6.595
12181TIP3   OH236481   3.154   6.288   7.022
12181TIP3    H136482   3.205   6.205   7.031
12181TIP3    H236483   3.221   6.349   6.990
12182TIP3   OH236484   3.195   6.539   6.753
12182TIP3    H136485   3.137   6.594   6.696
12182TIP3    H236486   3.283   6.562   6.715
12183TIP3   OH236487   2.417   6.112   7.192
12183TIP3    H136488   2.350   6.043   7.205
12183TIP3    H236489   2.455   6.086   7.105
12184TIP3   OH236490   2.678   5.551   6.834
12184TIP3    H136491   2.621   5.627   6.808
12184TIP3    H236492   2.617   5.476   6.823
12185TIP3   OH236493   2.804   6.053   7.053
12185TIP3    H136494   2.804   6.042   7.149
12185TIP3    H236495   2.712   6.028   7.031
12186TIP3   OH236496   3.043   6.003   6.905
12186TIP3    H136497   2.970   6.003   6.969
12186TIP3    H236498   3.118   5.972   6.960
12187TIP3   OH236499   3.268   5.943   7.056
12187TIP3    H136500   3.284   5.847   7.072
12187TIP3    H236501   3.267   5.980   7.147
12188TIP3   OH236502   2.260   5.888   7.246
12188TIP3    H136503   2.282   5.796   7.223
12188TIP3    H236504   2.297   5.891   7.337
12189TIP3   OH236505   2.759   5.562   7.098
12189TIP3    H136506   2.837   5.501   7.099
12189TIP3    H236507   2.732   5.552   7.004
12190TIP3   OH236508   2.837   5.774   7.253
12190TIP3    H136509   2.817   5.702   7.190
12190TIP3    H236510   2.758   5.831   7.244
12191TIP3   OH236511   2.059   7.000   5.351
12191TIP3    H136512   2.155   6.996   5.333
12191TIP3    H236513   2.031   7.052   5.274
12192TIP3   OH236514   1.539   6.384   5.569
12192TIP3    H136515   1.633   6.406   5.554
12192TIP3    H236516   1.534   6.295   5.527
12193TIP3   OH236517   1.453   6.995   5.983
12193TIP3    H136518   1.387   6.934   5.945
12193TIP3    H236519   1.498   6.937   6.048
12194TIP3   OH236520   1.591   6.844   6.168
12194TIP3    H136521   1.580   6.774   6.234
12194TIP3    H236522   1.642   6.909   6.220
12195TIP3   OH236523   3.318   7.246   5.969
12195TIP3    H136524   3.342   7.279   6.058
12195TIP3    H236525   3.378   7.295   5.912
12196TIP3   OH236526   3.346   7.267   6.250
12196TIP3    H136527   3.304   7.179   6.247
12196TIP3    H236528   3.420   7.249   6.309
12197TIP3   OH236529   3.392   6.944   6.824
12197TIP3    H136530   3.318   6.954   6.888
12197TIP3    H236531   3.434   7.032   6.827
12198TIP3   OH236532   3.209   6.457   5.443
12198TIP3    H136533   3.276   6.522   5.413
12198TIP3    H236534   3.253   6.420   5.522
12199TIP3   OH236535   3.337   6.325   5.647
12199TIP3    H136536   3.271   6.284   5.707
12199TIP3    H236537   3.403   6.362   5.709
12200TIP3   OH236538   3.390   6.717   6.078
12200TIP3    H136539   3.444   6.652   6.029
12200TIP3    H236540   3.386   6.792   6.015
12201TIP3   OH236541   3.221   7.017   6.274
12201TIP3    H136542   3.150   7.061   6.325
12201TIP3    H236543   3.171   6.971   6.204
12202TIP3   OH236544   3.274   6.233   5.294
12202TIP3    H136545   3.203   6.236   5.226
12202TIP3    H236546   3.247   6.309   5.349
12203TIP3   OH236547   3.144   5.907   5.249
12203TIP3    H136548   3.104   5.947   5.171
12203TIP3    H236549   3.119   5.813   5.237
12204TIP3   OH236550   3.149   6.183   5.794
12204TIP3    H136551   3.160   6.087   5.789
12204TIP3    H236552   3.136   6.198   5.890
12205TIP3   OH236553   1.776   6.252   6.542
12205TIP3    H136554   1.774   6.223   6.448
12205TIP3    H236555   1.874   6.256   6.557
12206TIP3   OH236556   3.439   6.607   6.649
12206TIP3    H136557   3.512   6.541   6.640
12206TIP3    H236558   3.468   6.678   6.589
12207TIP3   OH236559   3.623   6.410   6.663
12207TIP3    H136560   3.550   6.360   6.706
12207TIP3    H236561   3.697   6.347   6.679
12208TIP3   OH236562   3.090   5.641   5.238
12208TIP3    H136563   3.172   5.614   5.284
12208TIP3    H236564   3.025   5.574   5.265
12209TIP3   OH236565   3.146   5.898   5.687
12209TIP3    H136566   3.187   5.809   5.702
12209TIP3    H236567   3.204   5.932   5.618
12210TIP3   OH236568   3.307   6.072   6.182
12210TIP3    H136569   3.393   6.096   6.142
12210TIP3    H236570   3.322   6.108   6.272
12211TIP3   OH236571   3.376   6.215   6.414
12211TIP3    H136572   3.300   6.251   6.463
12211TIP3    H236573   3.410   6.296   6.369
12212TIP3   OH236574   1.994   5.941   7.212
12212TIP3    H136575   2.092   5.937   7.223
12212TIP3    H236576   1.968   5.857   7.253
12213TIP3   OH236577   3.829   5.808   6.971
12213TIP3    H136578   3.889   5.742   6.929
12213TIP3    H236579   3.800   5.861   6.893
12214TIP3   OH236580   3.254   5.648   5.726
12214TIP3    H136581   3.305   5.634   5.808
12214TIP3    H236582   3.195   5.570   5.727
12215TIP3   OH236583   1.956   5.634   6.547
12215TIP3    H136584   2.017   5.558   6.551
12215TIP3    H236585   2.020   5.709   6.541
12216TIP3   OH236586   1.759   5.907   6.619
12216TIP3    H136587   1.809   5.902   6.535
12216TIP3    H236588   1.781   5.997   6.647
12217TIP3   OH236589   3.699   5.945   6.775
12217TIP3    H136590   3.613   5.986   6.797
12217TIP3    H236591   3.668   5.872   6.718
12218TIP3   OH236592   3.335   5.582   5.359
12218TIP3    H136593   3.376   5.512   5.304
12218TIP3    H236594   3.403   5.652   5.356
12219TIP3   OH236595   1.743   5.413   6.122
12219TIP3    H136596   1.649   5.407   6.148
12219TIP3    H236597   1.738   5.471   6.042
12220TIP3   OH236598   2.900   7.114   5.625
12220TIP3    H136599   2.952   7.104   5.543
12220TIP3    H236600   2.951   7.181   5.673
12221TIP3   OH236601   1.968   5.519   6.946
12221TIP3    H136602   1.906   5.493   7.017
12221TIP3    H236603   1.900   5.543   6.877
12222TIP3   OH236604   2.004   6.913   7.008
12222TIP3    H136605   1.911   6.889   6.993
12222TIP3    H236606   2.012   6.905   7.104
12223TIP3   OH236607   2.180   6.951   6.557
12223TIP3    H136608   2.133   7.028   6.519
12223TIP3    H236609   2.267   6.965   6.513
12224TIP3   OH236610   2.625   7.194   6.694
12224TIP3    H136611   2.666   7.195   6.783
12224TIP3    H236612   2.691   7.246   6.643
12225TIP3   OH236613   2.805   7.347   6.556
12225TIP3    H136614   2.877   7.298   6.514
12225TIP3    H236615   2.855   7.405   6.617
12226TIP3   OH236616   3.598   5.707   6.655
12226TIP3    H136617   3.506   5.695   6.626
12226TIP3    H236618   3.631   5.614   6.646
12227TIP3   OH236619   1.856   7.204   6.587
12227TIP3    H136620   1.767   7.239   6.561
12227TIP3    H236621   1.873   7.259   6.665
12228TIP3   OH236622   2.091   7.184   6.440
12228TIP3    H136623   2.004   7.198   6.485
12228TIP3    H236624   2.073   7.220   6.351
12229TIP3   OH236625   2.518   7.214   6.238
12229TIP3    H136626   2.449   7.235   6.172
12229TIP3    H236627   2.531   7.301   6.281
12230TIP3   OH236628   2.787   7.152   6.289
12230TIP3    H136629   2.693   7.172   6.270
12230TIP3    H236630   2.832   7.228   6.248
12231TIP3   OH236631   2.992   7.344   6.204
12231TIP3    H136632   2.979   7.430   6.157
12231TIP3    H236633   3.020   7.286   6.130
12232TIP3   OH236634   1.766   7.001   6.325
12232TIP3    H136635   1.793   6.977   6.416
12232TIP3    H236636   1.839   6.958   6.275
12233TIP3   OH236637   1.962   6.873   6.184
12233TIP3    H136638   1.978   6.790   6.234
12233TIP3    H236639   2.052   6.911   6.180
12234TIP3   OH236640   2.226   6.967   6.189
12234TIP3    H136641   2.260   6.876   6.177
12234TIP3    H236642   2.273   6.991   6.271
12235TIP3   OH236643   2.798   5.621   6.267
12235TIP3    H136644   2.760   5.550   6.321
12235TIP3    H236645   2.877   5.579   6.229
12236TIP3   OH236646   3.324   5.497   6.173
12236TIP3    H136647   3.362   5.553   6.102
12236TIP3    H236648   3.231   5.527   6.174
12237TIP3   OH236649   3.420   5.605   5.941
12237TIP3    H136650   3.494   5.553   5.904
12237TIP3    H236651   3.455   5.696   5.927
12238TIP3   OH236652   2.052   5.333   6.293
12238TIP3    H136653   1.960   5.301   6.295
12238TIP3    H236654   2.100   5.247   6.288
12239TIP3   OH236655   1.837   5.204   5.937
12239TIP3    H136656   1.868   5.261   5.865
12239TIP3    H236657   1.811   5.269   6.005
12240TIP3   OH236658   2.497   5.366   6.173
12240TIP3    H136659   2.551   5.417   6.110
12240TIP3    H236660   2.533   5.398   6.258
12241TIP3   OH236661   3.035   5.512   6.158
12241TIP3    H136662   3.046   5.471   6.071
12241TIP3    H236663   3.025   5.432   6.215
12242TIP3   OH236664   3.066   5.434   5.712
12242TIP3    H136665   2.987   5.485   5.738
12242TIP3    H236666   3.054   5.352   5.764
12243TIP3   OH236667   1.555   6.776   5.720
12243TIP3    H136668   1.470   6.744   5.684
12243TIP3    H236669   1.547   6.870   5.700
12244TIP3   OH236670   1.956   5.362   5.701
12244TIP3    H136671   2.004   5.299   5.644
12244TIP3    H236672   2.029   5.416   5.737
12245TIP3   OH236673   2.468   5.538   5.800
12245TIP3    H136674   2.528   5.493   5.862
12245TIP3    H236675   2.488   5.631   5.824
12246TIP3   OH236676   2.328   6.961   5.301
12246TIP3    H136677   2.416   6.984   5.265
12246TIP3    H236678   2.306   6.887   5.240
12247TIP3   OH236679   3.047   7.081   5.393
12247TIP3    H136680   3.038   6.984   5.381
12247TIP3    H236681   3.001   7.114   5.313
12248TIP3   OH236682   2.270   5.608   7.173
12248TIP3    H136683   2.236   5.547   7.241
12248TIP3    H236684   2.364   5.611   7.202
12249TIP3   OH236685   2.510   5.607   7.295
12249TIP3    H136686   2.598   5.585   7.259
12249TIP3    H236687   2.502   5.539   7.365
12250TIP3   OH236688   1.630   6.795   5.355
12250TIP3    H136689   1.635   6.826   5.447
12250TIP3    H236690   1.719   6.755   5.341
12251TIP3   OH236691   3.334   5.674   7.087
12251TIP3    H136692   3.352   5.639   7.177
12251TIP3    H236693   3.422   5.666   7.046
12252TIP3   OH236694   3.274   7.226   6.577
12252TIP3    H136695   3.193   7.195   6.530
12252TIP3    H236696   3.255   7.321   6.584
12253TIP3   OH236697   4.542   6.601   5.339
12253TIP3    H136698   4.510   6.692   5.328
12253TIP3    H236699   4.463   6.550   5.314
12254TIP3   OH236700   4.538   6.595   5.728
12254TIP3    H136701   4.572   6.572   5.817
12254TIP3    H236702   4.497   6.511   5.702
12255TIP3   OH236703   3.836   6.492   6.093
12255TIP3    H136704   3.866   6.423   6.156
12255TIP3    H236705   3.915   6.548   6.089
12256TIP3   OH236706   4.779   6.908   5.405
12256TIP3    H136707   4.766   6.836   5.469
12256TIP3    H236708   4.808   6.980   5.463
12257TIP3   OH236709   3.808   6.901   5.815
12257TIP3    H136710   3.800   6.804   5.817
12257TIP3    H236711   3.905   6.911   5.814
12258TIP3   OH236712   3.515   6.103   5.601
12258TIP3    H136713   3.470   6.187   5.618
12258TIP3    H236714   3.443   6.052   5.560
12259TIP3   OH236715   3.573   6.391   5.775
12259TIP3    H136716   3.623   6.314   5.811
12259TIP3    H236717   3.636   6.426   5.710
12260TIP3   OH236718   4.432   7.360   5.423
12260TIP3    H136719   4.479   7.288   5.378
12260TIP3    H236720   4.425   7.326   5.513
12261TIP3   OH236721   4.337   6.823   5.774
12261TIP3    H136722   4.377   6.745   5.733
12261TIP3    H236723   4.420   6.869   5.800
12262TIP3   OH236724   5.354   6.144   5.772
12262TIP3    H136725   5.381   6.228   5.814
12262TIP3    H236726   5.373   6.163   5.679
12263TIP3   OH236727   4.753   6.326   5.806
12263TIP3    H136728   4.791   6.240   5.829
12263TIP3    H236729   4.718   6.308   5.717
12264TIP3   OH236730   4.086   5.984   5.773
12264TIP3    H136731   4.068   6.056   5.710
12264TIP3    H236732   4.039   5.910   5.729
12265TIP3   OH236733   4.782   6.075   5.393
12265TIP3    H136734   4.852   6.058   5.460
12265TIP3    H236735   4.837   6.110   5.321
12266TIP3   OH236736   3.721   6.186   5.879
12266TIP3    H136737   3.804   6.167   5.928
12266TIP3    H236738   3.736   6.130   5.800
12267TIP3   OH236739   4.162   6.383   5.673
12267TIP3    H136740   4.256   6.358   5.687
12267TIP3    H236741   4.123   6.299   5.642
12268TIP3   OH236742   5.428   6.357   5.940
12268TIP3    H136743   5.342   6.400   5.917
12268TIP3    H236744   5.420   6.360   6.037
12269TIP3   OH236745   4.083   5.968   6.208
12269TIP3    H136746   4.023   6.005   6.141
12269TIP3    H236747   4.032   5.986   6.289
12270TIP3   OH236748   4.446   6.837   5.201
12270TIP3    H136749   4.388   6.799   5.133
12270TIP3    H236750   4.390   6.912   5.232
12271TIP3   OH236751   4.191   6.743   6.001
12271TIP3    H136752   4.129   6.809   6.040
12271TIP3    H236753   4.232   6.794   5.929
12272TIP3   OH236754   4.990   6.079   5.567
12272TIP3    H136755   4.974   6.030   5.649
12272TIP3    H236756   5.042   6.155   5.599
12273TIP3   OH236757   3.954   6.083   5.992
12273TIP3    H136758   4.017   6.154   6.016
12273TIP3    H236759   4.003   6.042   5.917
12274TIP3   OH236760   4.018   6.937   6.099
12274TIP3    H136761   3.993   7.025   6.063
12274TIP3    H236762   3.939   6.920   6.155
12275TIP3   OH236763   3.412   6.627   5.336
12275TIP3    H136764   3.371   6.655   5.252
12275TIP3    H236765   3.443   6.712   5.373
12276TIP3   OH236766   4.851   7.140   5.568
12276TIP3    H136767   4.763   7.134   5.612
12276TIP3    H236768   4.845   7.230   5.529
12277TIP3   OH236769   5.141   6.061   5.946
12277TIP3    H136770   5.051   6.074   5.911
12277TIP3    H236771   5.198   6.080   5.869
12278TIP3   OH236772   4.419   5.695   5.893
12278TIP3    H136773   4.447   5.611   5.933
12278TIP3    H236774   4.350   5.724   5.956
12279TIP3   OH236775   4.557   7.184   5.246
12279TIP3    H136776   4.615   7.106   5.238
12279TIP3    H236777   4.616   7.253   5.207
12280TIP3   OH236778   4.702   6.914   5.137
12280TIP3    H136779   4.609   6.894   5.163
12280TIP3    H236780   4.744   6.916   5.226
12281TIP3   OH236781   5.079   7.053   5.922
12281TIP3    H136782   5.066   6.977   5.862
12281TIP3    H236783   5.059   7.129   5.863
12282TIP3   OH236784   4.370   6.450   5.177
12282TIP3    H136785   4.287   6.499   5.157
12282TIP3    H236786   4.411   6.442   5.089
12283TIP3   OH236787   4.328   6.233   4.893
12283TIP3    H136788   4.396   6.283   4.941
12283TIP3    H236789   4.384   6.169   4.845
12284TIP3   OH236790   5.280   6.700   5.767
12284TIP3    H136791   5.193   6.747   5.773
12284TIP3    H236792   5.303   6.720   5.674
12285TIP3   OH236793   4.719   6.533   5.143
12285TIP3    H136794   4.661   6.557   5.219
12285TIP3    H236795   4.799   6.504   5.192
12286TIP3   OH236796   4.952   6.573   6.059
12286TIP3    H136797   4.947   6.655   6.110
12286TIP3    H236798   4.864   6.574   6.015
12287TIP3   OH236799   3.951   6.530   5.565
12287TIP3    H136800   3.909   6.471   5.498
12287TIP3    H236801   4.027   6.475   5.595
12288TIP3   OH236802   4.081   6.943   5.713
12288TIP3    H136803   4.059   6.899   5.630
12288TIP3    H236804   4.170   6.907   5.732
12289TIP3   OH236805   4.085   6.501   5.919
12289TIP3    H136806   4.119   6.477   5.831
12289TIP3    H236807   4.129   6.586   5.939
12290TIP3   OH236808   4.613   7.137   5.696
12290TIP3    H136809   4.600   7.218   5.748
12290TIP3    H236810   4.596   7.066   5.761
12291TIP3   OH236811   4.224   7.056   6.244
12291TIP3    H136812   4.165   7.118   6.291
12291TIP3    H236813   4.159   7.003   6.194
12292TIP3   OH236814   4.557   6.388   4.974
12292TIP3    H136815   4.614   6.447   5.027
12292TIP3    H236816   4.585   6.411   4.882
12293TIP3   OH236817   3.979   6.614   6.345
12293TIP3    H136818   3.983   6.701   6.389
12293TIP3    H236819   3.884   6.593   6.357
12294TIP3   OH236820   4.302   7.066   5.251
12294TIP3    H136821   4.378   7.124   5.267
12294TIP3    H236822   4.238   7.125   5.210
12295TIP3   OH236823   4.018   7.224   6.332
12295TIP3    H136824   3.981   7.224   6.242
12295TIP3    H236825   3.939   7.202   6.386
12296TIP3   OH236826   5.074   5.630   5.024
12296TIP3    H136827   4.992   5.649   5.074
12296TIP3    H236828   5.086   5.713   4.974
12297TIP3   OH236829   3.817   6.373   5.369
12297TIP3    H136830   3.748   6.416   5.314
12297TIP3    H236831   3.778   6.285   5.383
12298TIP3   OH236832   4.873   6.998   4.576
12298TIP3    H136833   4.879   7.095   4.558
12298TIP3    H236834   4.966   6.971   4.559
12299TIP3   OH236835   3.596   6.756   6.279
12299TIP3    H136836   3.531   6.733   6.209
12299TIP3    H236837   3.634   6.669   6.302
12300TIP3   OH236838   3.451   6.948   5.911
12300TIP3    H136839   3.547   6.944   5.903
12300TIP3    H236840   3.439   7.028   5.965
12301TIP3   OH236841   5.323   7.405   5.979
12301TIP3    H136842   5.313   7.309   5.981
12301TIP3    H236843   5.235   7.432   6.014
12302TIP3   OH236844   4.420   7.186   6.100
12302TIP3    H136845   4.419   7.279   6.133
12302TIP3    H236846   4.349   7.146   6.156
12303TIP3   OH236847   4.184   7.315   5.053
12303TIP3    H136848   4.136   7.297   4.969
12303TIP3    H236849   4.150   7.403   5.078
12304TIP3   OH236850   3.620   7.164   5.438
12304TIP3    H136851   3.668   7.155   5.523
12304TIP3    H236852   3.563   7.086   5.441
12305TIP3   OH236853   4.382   7.217   4.692
12305TIP3    H136854   4.441   7.148   4.656
12305TIP3    H236855   4.417   7.227   4.783
12306TIP3   OH236856   4.434   7.263   4.963
12306TIP3    H136857   4.344   7.274   5.001
12306TIP3    H236858   4.483   7.229   5.040
12307TIP3   OH236859   5.207   6.533   6.238
12307TIP3    H136860   5.122   6.545   6.193
12307TIP3    H236861   5.221   6.437   6.227
12308TIP3   OH236862   3.801   6.938   6.264
12308TIP3    H136863   3.850   6.924   6.348
12308TIP3    H236864   3.727   6.875   6.273
12309TIP3   OH236865   4.198   5.762   6.056
12309TIP3    H136866   4.109   5.732   6.026
12309TIP3    H236867   4.173   5.844   6.103
12310TIP3   OH236868   4.733   5.903   6.261
12310TIP3    H136869   4.803   5.843   6.294
12310TIP3    H236870   4.652   5.852   6.280
12311TIP3   OH236871   4.982   6.314   6.171
12311TIP3    H136872   4.926   6.306   6.251
12311TIP3    H236873   4.948   6.395   6.129
12312TIP3   OH236874   4.639   6.444   4.721
12312TIP3    H136875   4.598   6.410   4.639
12312TIP3    H236876   4.716   6.491   4.684
12313TIP3   OH236877   4.346   5.811   5.023
12313TIP3    H136878   4.312   5.807   5.114
12313TIP3    H236879   4.307   5.728   4.988
12314TIP3   OH236880   4.132   6.278   6.070
12314TIP3    H136881   4.082   6.300   6.151
12314TIP3    H236882   4.116   6.359   6.016
12315TIP3   OH236883   4.016   6.165   5.583
12315TIP3    H136884   3.924   6.138   5.602
12315TIP3    H236885   4.029   6.123   5.495
12316TIP3   OH236886   4.508   6.251   5.313
12316TIP3    H136887   4.455   6.321   5.268
12316TIP3    H236888   4.561   6.216   5.238
12317TIP3   OH236889   4.681   6.528   6.398
12317TIP3    H136890   4.659   6.454   6.459
12317TIP3    H236891   4.776   6.539   6.419
12318TIP3   OH236892   4.665   6.278   5.548
12318TIP3    H136893   4.602   6.303   5.478
12318TIP3    H236894   4.699   6.196   5.507
12319TIP3   OH236895   3.951   6.306   6.278
12319TIP3    H136896   3.982   6.369   6.345
12319TIP3    H236897   3.942   6.224   6.330
12320TIP3   OH236898   4.001   5.785   4.987
12320TIP3    H136899   3.994   5.782   5.084
12320TIP3    H236900   3.922   5.838   4.963
12321TIP3   OH236901   3.546   5.827   5.858
12321TIP3    H136902   3.619   5.862   5.914
12321TIP3    H236903   3.592   5.798   5.778
12322TIP3   OH236904   3.514   5.809   5.378
12322TIP3    H136905   3.561   5.845   5.300
12322TIP3    H236906   3.455   5.884   5.397
12323TIP3   OH236907   4.676   6.524   5.971
12323TIP3    H136908   4.709   6.452   5.912
12323TIP3    H236909   4.645   6.471   6.048
12324TIP3   OH236910   4.344   5.994   5.645
12324TIP3    H136911   4.265   5.985   5.701
12324TIP3    H236912   4.416   5.974   5.708
12325TIP3   OH236913   3.778   6.042   5.652
12325TIP3    H136914   3.684   6.048   5.624
12325TIP3    H236915   3.803   5.951   5.629
12326TIP3   OH236916   4.045   6.037   5.342
12326TIP3    H136917   4.140   6.051   5.322
12326TIP3    H236918   4.000   6.059   5.257
12327TIP3   OH236919   4.837   6.063   5.847
12327TIP3    H136920   4.804   6.074   5.939
12327TIP3    H236921   4.774   5.997   5.813
12328TIP3   OH236922   3.890   6.073   5.119
12328TIP3    H136923   3.818   6.027   5.071
12328TIP3    H236924   3.942   6.109   5.044
12329TIP3   OH236925   5.007   7.749   6.065
12329TIP3    H136926   5.006   7.772   5.971
12329TIP3    H236927   5.085   7.798   6.096
12330TIP3   OH236928   3.964   6.860   6.486
12330TIP3    H136929   4.043   6.891   6.535
12330TIP3    H236930   3.899   6.861   6.559
12331TIP3   OH236931   4.427   6.318   5.745
12331TIP3    H136932   4.495   6.269   5.696
12331TIP3    H236933   4.428   6.273   5.832
12332TIP3   OH236934   3.947   5.803   5.620
12332TIP3    H136935   3.914   5.724   5.669
12332TIP3    H236936   4.004   5.763   5.553
12333TIP3   OH236937   4.403   6.217   6.023
12333TIP3    H136938   4.313   6.248   6.045
12333TIP3    H236939   4.460   6.273   6.079
12334TIP3   OH236940   4.140   6.601   5.127
12334TIP3    H136941   4.068   6.536   5.114
12334TIP3    H236942   4.119   6.635   5.218
12335TIP3   OH236943   5.041   6.835   5.756
12335TIP3    H136944   5.065   6.886   5.676
12335TIP3    H236945   4.955   6.794   5.730
12336TIP3   OH236946   4.597   5.913   4.988
12336TIP3    H136947   4.501   5.893   4.999
12336TIP3    H236948   4.603   6.007   5.015
12337TIP3   OH236949   4.540   6.921   6.123
12337TIP3    H136950   4.564   6.899   6.214
12337TIP3    H236951   4.500   7.009   6.132
12338TIP3   OH236952   4.666   6.161   5.095
12338TIP3    H136953   4.763   6.165   5.110
12338TIP3    H236954   4.649   6.240   5.040
12339TIP3   OH236955   3.832   6.622   5.801
12339TIP3    H136956   3.871   6.594   5.716
12339TIP3    H236957   3.876   6.563   5.864
12340TIP3   OH236958   4.288   6.751   4.952
12340TIP3    H136959   4.239   6.837   4.954
12340TIP3    H236960   4.230   6.696   5.009
12341TIP3   OH236961   3.714   6.545   6.416
12341TIP3    H136962   3.736   6.532   6.511
12341TIP3    H236963   3.646   6.477   6.402
12342TIP3   OH236964   4.439   6.659   6.435
12342TIP3    H136965   4.380   6.599   6.387
12342TIP3    H236966   4.527   6.623   6.407
12343TIP3   OH236967   4.698   7.178   6.018
12343TIP3    H136968   4.602   7.178   6.033
12343TIP3    H236969   4.729   7.229   6.095
12344TIP3   OH236970   5.104   6.233   4.939
12344TIP3    H136971   5.039   6.194   4.875
12344TIP3    H236972   5.131   6.310   4.888
12345TIP3   OH236973   5.330   7.106   6.012
12345TIP3    H136974   5.232   7.105   6.003
12345TIP3    H236975   5.354   7.078   5.920
12346TIP3   OH236976   4.812   7.076   4.839
12346TIP3    H136977   4.767   7.011   4.894
12346TIP3    H236978   4.821   7.032   4.752
12347TIP3   OH236979   4.806   6.701   5.670
12347TIP3    H136980   4.713   6.676   5.686
12347TIP3    H236981   4.839   6.619   5.628
12348TIP3   OH236982   3.933   6.927   5.424
12348TIP3    H136983   3.930   7.009   5.372
12348TIP3    H236984   3.840   6.911   5.440
12349TIP3   OH236985   3.498   6.232   5.131
12349TIP3    H136986   3.543   6.316   5.152
12349TIP3    H236987   3.421   6.236   5.192
12350TIP3   OH236988   4.073   6.694   5.371
12350TIP3    H136989   4.035   6.782   5.389
12350TIP3    H236990   4.037   6.642   5.445
12351TIP3   OH236991   4.203   7.272   5.896
12351TIP3    H136992   4.247   7.343   5.846
12351TIP3    H236993   4.278   7.235   5.946
12352TIP3   OH236994   3.853   7.166   5.279
12352TIP3    H136995   3.767   7.175   5.325
12352TIP3    H236996   3.885   7.259   5.282
12353TIP3   OH236997   4.590   6.904   5.855
12353TIP3    H136998   4.578   6.905   5.953
12353TIP3    H236999   4.671   6.853   5.846
12354TIP3   OH237000   4.564   6.797   4.739
12354TIP3    H137001   4.606   6.755   4.816
12354TIP3    H237002   4.470   6.776   4.756
12355TIP3   OH237003   4.840   7.437   5.903
12355TIP3    H137004   4.759   7.382   5.897
12355TIP3    H237005   4.823   7.503   5.832
12356TIP3   OH237006   4.903   7.272   4.558
12356TIP3    H137007   4.941   7.343   4.503
12356TIP3    H237008   4.824   7.319   4.590
12357TIP3   OH237009   3.925   6.050   6.424
12357TIP3    H137010   3.828   6.051   6.437
12357TIP3    H237011   3.954   5.991   6.495
12358TIP3   OH237012   4.801   6.722   4.959
12358TIP3    H137013   4.758   6.649   5.010
12358TIP3    H237014   4.771   6.797   5.016
12359TIP3   OH237015   3.642   7.133   6.054
12359TIP3    H137016   3.696   7.060   6.090
12359TIP3    H237017   3.665   7.204   6.115
12360TIP3   OH237018   3.935   6.777   4.738
12360TIP3    H137019   3.943   6.684   4.710
12360TIP3    H237020   3.912   6.767   4.832
12361TIP3   OH237021   3.877   6.784   5.009
12361TIP3    H137022   3.946   6.758   5.070
12361TIP3    H237023   3.879   6.882   5.016
12362TIP3   OH237024   3.611   6.477   5.213
12362TIP3    H137025   3.545   6.522   5.270
12362TIP3    H237026   3.624   6.546   5.146
12363TIP3   OH237027   4.763   6.121   6.106
12363TIP3    H137028   4.847   6.148   6.147
12363TIP3    H237029   4.741   6.041   6.161
12364TIP3   OH237030   4.643   5.864   5.271
12364TIP3    H137031   4.630   5.887   5.177
12364TIP3    H237032   4.681   5.946   5.308
12365TIP3   OH237033   4.144   6.981   4.959
12365TIP3    H137034   4.057   7.005   4.994
12365TIP3    H237035   4.158   7.054   4.896
12366TIP3   OH237036   4.328   6.047   5.374
12366TIP3    H137037   4.394   6.118   5.359
12366TIP3    H237038   4.334   6.036   5.471
12367TIP3   OH237039   4.601   6.363   6.178
12367TIP3    H137040   4.624   6.412   6.259
12367TIP3    H237041   4.653   6.281   6.188
12368TIP3   OH237042   4.474   5.768   5.473
12368TIP3    H137043   4.481   5.838   5.541
12368TIP3    H237044   4.534   5.804   5.404
12369TIP3   OH237045   3.888   7.056   5.027
12369TIP3    H137046   3.857   7.125   4.964
12369TIP3    H237047   3.871   7.099   5.113
12370TIP3   OH237048   3.986   5.771   5.263
12370TIP3    H137049   3.985   5.860   5.302
12370TIP3    H237050   4.082   5.751   5.272
12371TIP3   OH237051   5.245   6.262   6.152
12371TIP3    H137052   5.148   6.268   6.170
12371TIP3    H237053   5.240   6.201   6.076
12372TIP3   OH237054   4.892   6.457   5.545
12372TIP3    H137055   4.815   6.399   5.560
12372TIP3    H237056   4.963   6.410   5.595
12373TIP3   OH237057   3.603   6.684   5.019
12373TIP3    H137058   3.669   6.756   5.027
12373TIP3    H237059   3.649   6.630   4.951
12374TIP3   OH237060   3.547   5.962   5.154
12374TIP3    H137061   3.549   6.060   5.150
12374TIP3    H237062   3.467   5.942   5.105
12375TIP3   OH237063   4.861   7.412   5.497
12375TIP3    H137064   4.817   7.459   5.422
12375TIP3    H237065   4.954   7.441   5.479
12376TIP3   OH237066   3.932   5.683   6.026
12376TIP3    H137067   3.905   5.648   5.939
12376TIP3    H237068   3.925   5.604   6.084
12377TIP3   OH237069   3.473   6.897   5.404
12377TIP3    H137070   3.406   6.930   5.465
12377TIP3    H237071   3.444   6.940   5.320
12378TIP3   OH237072   3.634   7.446   6.475
12378TIP3    H137073   3.718   7.448   6.525
12378TIP3    H237074   3.613   7.351   6.478
12379TIP3   OH237075   4.117   7.409   6.521
12379TIP3    H137076   4.210   7.382   6.529
12379TIP3    H237077   4.088   7.349   6.449
12380TIP3   OH237078   4.095   6.982   4.650
12380TIP3    H137079   4.039   6.910   4.687
12380TIP3    H237080   4.169   6.931   4.613
12381TIP3   OH237081   4.757   7.309   6.251
12381TIP3    H137082   4.746   7.243   6.323
12381TIP3    H237083   4.830   7.365   6.285
12382TIP3   OH237084   4.529   7.024   4.562
12382TIP3    H137085   4.580   6.963   4.618
12382TIP3    H237086   4.580   7.025   4.478
12383TIP3   OH237087   3.763   6.848   6.677
12383TIP3    H137088   3.777   6.752   6.684
12383TIP3    H237089   3.675   6.851   6.634
12384TIP3   OH237090   3.740   6.499   4.871
12384TIP3    H137091   3.795   6.467   4.944
12384TIP3    H237092   3.807   6.503   4.800
12385TIP3   OH237093   4.371   6.934   6.451
12385TIP3    H137094   4.328   6.952   6.365
12385TIP3    H237095   4.400   6.841   6.442
12386TIP3   OH237096   4.259   6.700   4.681
12386TIP3    H137097   4.252   6.710   4.778
12386TIP3    H237098   4.255   6.602   4.673
12387TIP3   OH237099   4.862   6.942   6.058
12387TIP3    H137100   4.937   6.988   6.015
12387TIP3    H237101   4.791   7.008   6.045
12388TIP3   OH237102   3.882   6.581   6.660
12388TIP3    H137103   3.959   6.528   6.638
12388TIP3    H237104   3.907   6.616   6.748
12389TIP3   OH237105   3.949   6.404   5.094
12389TIP3    H137106   3.920   6.363   5.176
12389TIP3    H237107   3.984   6.327   5.043
12390TIP3   OH237108   4.215   6.466   6.321
12390TIP3    H137109   4.138   6.527   6.322
12390TIP3    H237110   4.267   6.501   6.245
12391TIP3   OH237111   4.048   6.198   4.933
12391TIP3    H137112   4.022   6.202   4.839
12391TIP3    H237113   4.145   6.200   4.926
12392TIP3   OH237114   4.734   6.870   6.456
12392TIP3    H137115   4.812   6.842   6.407
12392TIP3    H237116   4.727   6.803   6.526
12393TIP3   OH237117   4.892   6.552   4.631
12393TIP3    H137118   4.890   6.488   4.557
12393TIP3    H237119   4.848   6.628   4.585
12394TIP3   OH237120   4.339   6.256   6.447
12394TIP3    H137121   4.341   6.176   6.390
12394TIP3    H237122   4.295   6.321   6.389
12395TIP3   OH237123   4.341   6.046   6.255
12395TIP3    H137124   4.372   6.079   6.169
12395TIP3    H237125   4.249   6.021   6.236
12396TIP3   OH237126   4.367   6.577   6.130
12396TIP3    H137127   4.452   6.585   6.084
12396TIP3    H237128   4.312   6.644   6.083
12397TIP3   OH237129   4.950   6.545   6.510
12397TIP3    H137130   4.993   6.458   6.514
12397TIP3    H237131   5.020   6.601   6.474
12398TIP3   OH237132   4.991   6.798   6.246
12398TIP3    H137133   4.933   6.852   6.187
12398TIP3    H237134   5.079   6.819   6.205
12399TIP3   OH237135   4.217   6.366   6.678
12399TIP3    H137136   4.149   6.298   6.693
12399TIP3    H237137   4.252   6.340   6.591
12400TIP3   OH237138   4.472   5.804   6.323
12400TIP3    H137139   4.425   5.886   6.299
12400TIP3    H237140   4.404   5.735   6.310
12401TIP3   OH237141   4.598   6.310   6.538
12401TIP3    H137142   4.585   6.295   6.634
12401TIP3    H237143   4.509   6.284   6.506
12402TIP3   OH237144   4.842   6.267   6.396
12402TIP3    H137145   4.764   6.259   6.454
12402TIP3    H237146   4.912   6.225   6.450
12403TIP3   OH237147   5.082   6.204   6.544
12403TIP3    H137148   5.088   6.107   6.558
12403TIP3    H237149   5.069   6.239   6.634
12404TIP3   OH237150   4.056   6.147   6.732
12404TIP3    H137151   4.062   6.055   6.698
12404TIP3    H237152   4.094   6.135   6.822
12405TIP3   OH237153   4.565   5.814   6.582
12405TIP3    H137154   4.634   5.745   6.575
12405TIP3    H237155   4.531   5.813   6.490
12406TIP3   OH237156   4.635   6.030   6.739
12406TIP3    H137157   4.616   5.958   6.674
12406TIP3    H237158   4.556   6.087   6.730
12407TIP3   OH237159   3.856   7.258   4.839
12407TIP3    H137160   3.951   7.253   4.819
12407TIP3    H237161   3.825   7.308   4.761
12408TIP3   OH237162   3.335   6.641   5.055
12408TIP3    H137163   3.430   6.663   5.040
12408TIP3    H237164   3.329   6.552   5.013
12409TIP3   OH237165   3.252   7.253   5.469
12409TIP3    H137166   3.184   7.192   5.432
12409TIP3    H237167   3.295   7.194   5.535
12410TIP3   OH237168   3.387   7.102   5.655
12410TIP3    H137169   3.374   7.031   5.720
12410TIP3    H237170   3.438   7.165   5.710
12411TIP3   OH237171   5.104   7.519   5.449
12411TIP3    H137172   5.162   7.540   5.524
12411TIP3    H237173   5.168   7.498   5.378
12412TIP3   OH237174   5.141   7.526   5.744
12412TIP3    H137175   5.101   7.438   5.735
12412TIP3    H237176   5.233   7.501   5.764
12413TIP3   OH237177   5.191   7.199   6.313
12413TIP3    H137178   5.116   7.209   6.375
12413TIP3    H237179   5.230   7.288   6.315
12414TIP3   OH237180   5.112   6.584   5.099
12414TIP3    H137181   5.056   6.542   5.168
12414TIP3    H237182   5.181   6.626   5.155
12415TIP3   OH237183   5.190   6.975   5.570
12415TIP3    H137184   5.241   6.917   5.511
12415TIP3    H237185   5.159   7.046   5.512
12416TIP3   OH237186   5.015   7.269   5.764
12416TIP3    H137187   4.947   7.320   5.813
12416TIP3    H237188   4.963   7.229   5.692
12417TIP3   OH237189   4.940   6.170   4.731
12417TIP3    H137190   4.899   6.194   4.647
12417TIP3    H237191   4.919   6.073   4.732
12418TIP3   OH237192   4.947   6.440   5.275
12418TIP3    H137193   4.955   6.343   5.271
12418TIP3    H237194   4.934   6.454   5.372
12419TIP3   OH237195   3.572   6.512   6.027
12419TIP3    H137196   3.571   6.480   5.935
12419TIP3    H237197   3.669   6.513   6.044
12420TIP3   OH237198   5.235   6.863   6.138
12420TIP3    H137199   5.308   6.798   6.126
12420TIP3    H237200   5.259   6.934   6.076
12421TIP3   OH237201   5.424   6.668   6.148
12421TIP3    H137202   5.347   6.621   6.187
12421TIP3    H237203   5.494   6.602   6.166
12422TIP3   OH237204   4.883   5.906   4.730
12422TIP3    H137205   4.959   5.866   4.778
12422TIP3    H237206   4.811   5.841   4.744
12423TIP3   OH237207   4.944   6.154   5.173
12423TIP3    H137208   4.981   6.065   5.191
12423TIP3    H237209   5.004   6.181   5.101
12424TIP3   OH237210   5.104   6.328   5.669
12424TIP3    H137211   5.191   6.353   5.631
12424TIP3    H237212   5.117   6.363   5.759
12425TIP3   OH237213   5.175   6.474   5.899
12425TIP3    H137214   5.097   6.504   5.950
12425TIP3    H237215   5.206   6.557   5.859
12426TIP3   OH237216   3.789   6.197   6.699
12426TIP3    H137217   3.887   6.192   6.703
12426TIP3    H237218   3.766   6.111   6.740
12427TIP3   OH237219   5.635   6.071   6.457
12427TIP3    H137220   5.687   6.001   6.413
12427TIP3    H237221   5.598   6.120   6.380
12428TIP3   OH237222   5.050   5.905   5.213
12428TIP3    H137223   5.098   5.889   5.296
12428TIP3    H237224   4.990   5.828   5.211
12429TIP3   OH237225   3.749   5.892   6.034
12429TIP3    H137226   3.810   5.816   6.042
12429TIP3    H237227   3.813   5.966   6.026
12430TIP3   OH237228   3.552   6.164   6.103
12430TIP3    H137229   3.604   6.160   6.020
12430TIP3    H237230   3.582   6.248   6.141
12431TIP3   OH237231   5.496   6.202   6.263
12431TIP3    H137232   5.410   6.244   6.283
12431TIP3    H237233   5.464   6.129   6.205
12432TIP3   OH237234   5.133   5.838   4.844
12432TIP3    H137235   5.170   5.765   4.791
12432TIP3    H237236   5.204   5.905   4.839
12433TIP3   OH237237   3.537   5.664   5.603
12433TIP3    H137238   3.445   5.665   5.632
12433TIP3    H237239   3.536   5.725   5.527
12434TIP3   OH237240   4.699   7.368   5.114
12434TIP3    H137241   4.749   7.364   5.029
12434TIP3    H237242   4.748   7.438   5.161
12435TIP3   OH237243   3.758   5.750   6.421
12435TIP3    H137244   3.706   5.742   6.503
12435TIP3    H237245   3.690   5.786   6.360
12436TIP3   OH237246   3.799   7.173   6.497
12436TIP3    H137247   3.705   7.149   6.482
12436TIP3    H237248   3.807   7.160   6.592
12437TIP3   OH237249   3.976   7.207   6.044
12437TIP3    H137250   3.928   7.283   6.006
12437TIP3    H237251   4.062   7.222   6.000
12438TIP3   OH237252   4.418   7.454   6.178
12438TIP3    H137253   4.459   7.451   6.267
12438TIP3    H237254   4.485   7.506   6.129
12439TIP3   OH237255   4.598   7.606   6.037
12439TIP3    H137256   4.671   7.554   6.000
12439TIP3    H237257   4.647   7.662   6.101
12440TIP3   OH237258   5.399   5.966   6.141
12440TIP3    H137259   5.307   5.953   6.108
12440TIP3    H237260   5.431   5.873   6.133
12441TIP3   OH237261   3.653   7.466   6.068
12441TIP3    H137262   3.562   7.498   6.047
12441TIP3    H237263   3.664   7.504   6.156
12442TIP3   OH237264   3.889   7.444   5.927
12442TIP3    H137265   3.802   7.456   5.972
12442TIP3    H237266   3.869   7.476   5.837
12443TIP3   OH237267   4.316   7.474   5.724
12443TIP3    H137268   4.244   7.491   5.660
12443TIP3    H237269   4.326   7.562   5.765
12444TIP3   OH237270   4.584   7.408   5.774
12444TIP3    H137271   4.491   7.429   5.755
12444TIP3    H237272   4.630   7.484   5.734
12445TIP3   OH237273   4.786   7.602   5.689
12445TIP3    H137274   4.775   7.688   5.642
12445TIP3    H237275   4.819   7.544   5.617
12446TIP3   OH237276   3.564   7.258   5.813
12446TIP3    H137277   3.590   7.232   5.904
12446TIP3    H237278   3.636   7.214   5.763
12447TIP3   OH237279   3.758   7.129   5.671
12447TIP3    H137280   3.773   7.046   5.721
12447TIP3    H237281   3.849   7.166   5.667
12448TIP3   OH237282   4.025   7.224   5.675
12448TIP3    H137283   4.055   7.132   5.664
12448TIP3    H237284   4.070   7.246   5.759
12449TIP3   OH237285   4.591   5.877   5.749
12449TIP3    H137286   4.548   5.814   5.810
12449TIP3    H237287   4.670   5.829   5.721
12450TIP3   OH237288   5.124   5.759   5.665
12450TIP3    H137289   5.157   5.813   5.589
12450TIP3    H237290   5.028   5.775   5.661
12451TIP3   OH237291   5.217   5.864   5.428
12451TIP3    H137292   5.291   5.812   5.389
12451TIP3    H237293   5.251   5.955   5.413
12452TIP3   OH237294   3.848   5.589   5.776
12452TIP3    H137295   3.756   5.556   5.779
12452TIP3    H237296   3.898   5.505   5.772
12453TIP3   OH237297   3.636   5.459   5.428
12453TIP3    H137298   3.663   5.514   5.353
12453TIP3    H237299   3.609   5.526   5.494
12454TIP3   OH237300   4.290   5.624   5.660
12454TIP3    H137301   4.347   5.671   5.598
12454TIP3    H237302   4.327   5.652   5.746
12455TIP3   OH237303   4.841   5.767   5.643
12455TIP3    H137304   4.836   5.724   5.557
12455TIP3    H237305   4.826   5.690   5.704
12456TIP3   OH237306   4.868   5.692   5.204
12456TIP3    H137307   4.781   5.733   5.218
12456TIP3    H237308   4.855   5.606   5.250
12457TIP3   OH237309   3.352   7.032   5.204
12457TIP3    H137310   3.266   6.999   5.171
12457TIP3    H237311   3.342   7.126   5.184
12458TIP3   OH237312   3.753   5.618   5.187
12458TIP3    H137313   3.801   5.555   5.131
12458TIP3    H237314   3.826   5.672   5.224
12459TIP3   OH237315   4.264   5.796   5.287
12459TIP3    H137316   4.323   5.748   5.347
12459TIP3    H237317   4.286   5.888   5.313
12460TIP3   OH237318   4.124   7.218   4.788
12460TIP3    H137319   4.211   7.242   4.750
12460TIP3    H237320   4.101   7.144   4.727
12461TIP3   OH237321   4.843   7.343   4.882
12461TIP3    H137322   4.838   7.245   4.867
12461TIP3    H237323   4.800   7.376   4.800
12462TIP3   OH237324   4.056   5.871   6.668
12462TIP3    H137325   4.021   5.800   6.724
12462TIP3    H237326   4.150   5.870   6.695
12463TIP3   OH237327   4.306   5.869   6.786
12463TIP3    H137328   4.389   5.843   6.743
12463TIP3    H237329   4.295   5.797   6.852
12464TIP3   OH237330   3.427   7.054   4.842
12464TIP3    H137331   3.428   7.081   4.935
12464TIP3    H237332   3.515   7.013   4.830
12465TIP3   OH237333   5.134   5.933   6.576
12465TIP3    H137334   5.150   5.899   6.667
12465TIP3    H237335   5.222   5.921   6.535
12466TIP3   OH237336   5.068   7.480   6.069
12466TIP3    H137337   4.991   7.449   6.017
12466TIP3    H237338   5.050   7.576   6.072
12467TIP3   OH237339   6.334   6.852   4.834
12467TIP3    H137340   6.306   6.944   4.814
12467TIP3    H237341   6.258   6.804   4.796
12468TIP3   OH237342   6.337   6.854   5.213
12468TIP3    H137343   6.365   6.828   5.302
12468TIP3    H237344   6.297   6.772   5.178
12469TIP3   OH237345   5.636   6.736   5.569
12469TIP3    H137346   5.673   6.679   5.639
12469TIP3    H237347   5.681   6.820   5.582
12470TIP3   OH237348   6.579   7.156   4.896
12470TIP3    H137349   6.565   7.090   4.965
12470TIP3    H237350   6.609   7.233   4.948
12471TIP3   OH237351   5.660   7.133   5.381
12471TIP3    H137352   5.604   7.068   5.336
12471TIP3    H237353   5.712   7.170   5.307
12472TIP3   OH237354   5.315   6.360   5.085
12472TIP3    H137355   5.270   6.444   5.104
12472TIP3    H237356   5.240   6.300   5.071
12473TIP3   OH237357   5.360   6.643   5.247
12473TIP3    H137358   5.411   6.569   5.288
12473TIP3    H237359   5.431   6.692   5.202
12474TIP3   OH237360   6.229   7.620   4.912
12474TIP3    H137361   6.274   7.548   4.863
12474TIP3    H237362   6.214   7.579   4.998
12475TIP3   OH237363   6.132   7.068   5.255
12475TIP3    H137364   6.181   6.997   5.212
12475TIP3    H237365   6.208   7.120   5.289
12476TIP3   OH237366   7.155   6.400   5.255
12476TIP3    H137367   7.179   6.483   5.300
12476TIP3    H237368   7.174   6.423   5.162
12477TIP3   OH237369   6.538   6.578   5.296
12477TIP3    H137370   6.587   6.495   5.314
12477TIP3    H237371   6.512   6.564   5.203
12478TIP3   OH237372   5.882   6.241   5.261
12478TIP3    H137373   5.864   6.312   5.196
12478TIP3    H237374   5.837   6.166   5.216
12479TIP3   OH237375   6.579   6.334   4.882
12479TIP3    H137376   6.651   6.317   4.947
12479TIP3    H237377   6.631   6.367   4.807
12480TIP3   OH237378   5.517   6.445   5.365
12480TIP3    H137379   5.599   6.423   5.414
12480TIP3    H237380   5.530   6.388   5.286
12481TIP3   OH237381   5.953   6.633   5.181
12481TIP3    H137382   6.049   6.612   5.180
12481TIP3    H237383   5.916   6.553   5.138
12482TIP3   OH237384   7.222   6.607   5.426
12482TIP3    H137385   7.137   6.653   5.407
12482TIP3    H237386   7.221   6.613   5.523
12483TIP3   OH237387   5.881   6.227   5.696
12483TIP3    H137388   5.819   6.258   5.627
12483TIP3    H237389   5.827   6.239   5.776
12484TIP3   OH237390   6.223   7.072   4.703
12484TIP3    H137391   6.186   7.059   4.615
12484TIP3    H237392   6.182   7.157   4.729
12485TIP3   OH237393   6.787   6.335   5.057
12485TIP3    H137394   6.774   6.291   5.142
12485TIP3    H237395   6.841   6.412   5.082
12486TIP3   OH237396   5.753   6.341   5.479
12486TIP3    H137397   5.819   6.411   5.499
12486TIP3    H237398   5.797   6.297   5.403
12487TIP3   OH237399   5.830   7.162   5.601
12487TIP3    H137400   5.800   7.198   5.512
12487TIP3    H237401   5.744   7.182   5.650
12488TIP3   OH237402   5.178   6.861   4.819
12488TIP3    H137403   5.161   6.899   4.731
12488TIP3    H237404   5.216   6.940   4.864
12489TIP3   OH237405   6.645   7.397   5.057
12489TIP3    H137406   6.555   7.390   5.098
12489TIP3    H237407   6.639   7.484   5.013
12490TIP3   OH237408   6.963   6.324   5.448
12490TIP3    H137409   6.871   6.316   5.418
12490TIP3    H237410   7.011   6.339   5.364
12491TIP3   OH237411   6.228   5.950   5.396
12491TIP3    H137412   6.225   5.854   5.414
12491TIP3    H237413   6.152   5.981   5.449
12492TIP3   OH237414   6.350   7.444   4.738
12492TIP3    H137415   6.399   7.362   4.716
12492TIP3    H237416   6.411   7.510   4.696
12493TIP3   OH237417   6.491   7.229   4.645
12493TIP3    H137418   6.460   7.149   4.601
12493TIP3    H237419   6.528   7.194   4.729
12494TIP3   OH237420   6.858   7.313   5.406
12494TIP3    H137421   6.856   7.238   5.343
12494TIP3    H237422   6.852   7.390   5.346
12495TIP3   OH237423   6.166   6.706   4.665
12495TIP3    H137424   6.087   6.759   4.643
12495TIP3    H237425   6.212   6.703   4.579
12496TIP3   OH237426   6.125   6.489   4.381
12496TIP3    H137427   6.192   6.542   4.427
12496TIP3    H237428   6.183   6.427   4.333
12497TIP3   OH237429   7.073   6.953   5.252
12497TIP3    H137430   6.988   7.003   5.259
12497TIP3    H237431   7.098   6.974   5.159
12498TIP3   OH237432   6.513   6.787   4.636
12498TIP3    H137433   6.459   6.812   4.715
12498TIP3    H237434   6.598   6.764   4.679
12499TIP3   OH237435   6.751   6.819   5.545
12499TIP3    H137436   6.749   6.901   5.598
12499TIP3    H237437   6.663   6.825   5.501
12500TIP3   OH237438   5.748   6.783   5.054
12500TIP3    H137439   5.705   6.728   4.985
12500TIP3    H237440   5.824   6.727   5.081
12501TIP3   OH237441   5.870   7.185   5.200
12501TIP3    H137442   5.860   7.164   5.106
12501TIP3    H237443   5.962   7.157   5.218
12502TIP3   OH237444   5.907   6.789   5.405
12502TIP3    H137445   5.927   6.726   5.332
12502TIP3    H237446   5.913   6.872   5.355
12503TIP3   OH237447   6.407   7.394   5.185
12503TIP3    H137448   6.391   7.477   5.234
12503TIP3    H237449   6.389   7.325   5.250
12504TIP3   OH237450   6.018   7.312   5.742
12504TIP3    H137451   5.960   7.378   5.787
12504TIP3    H237452   5.954   7.274   5.679
12505TIP3   OH237453   6.353   6.646   4.461
12505TIP3    H137454   6.412   6.707   4.512
12505TIP3    H237455   6.379   6.668   4.368
12506TIP3   OH237456   5.780   6.912   5.792
12506TIP3    H137457   5.779   6.975   5.869
12506TIP3    H237458   5.699   6.862   5.815
12507TIP3   OH237459   6.098   7.324   4.739
12507TIP3    H137460   6.178   7.378   4.751
12507TIP3    H237461   6.037   7.386   4.698
12508TIP3   OH237462   5.816   7.482   5.822
12508TIP3    H137463   5.785   7.485   5.728
12508TIP3    H237464   5.734   7.456   5.870
12509TIP3   OH237465   6.871   5.886   4.512
12509TIP3    H137466   6.788   5.907   4.560
12509TIP3    H237467   6.885   5.968   4.461
12510TIP3   OH237468   5.611   6.629   4.861
12510TIP3    H137469   5.547   6.673   4.801
12510TIP3    H237470   5.575   6.541   4.867
12511TIP3   OH237471   6.668   7.254   4.061
12511TIP3    H137472   6.676   7.350   4.043
12511TIP3    H237473   6.760   7.224   4.047
12512TIP3   OH237474   5.393   7.008   5.769
12512TIP3    H137475   5.326   6.997   5.698
12512TIP3    H237476   5.428   6.918   5.780
12513TIP3   OH237477   6.218   7.440   5.589
12513TIP3    H137478   6.219   7.533   5.620
12513TIP3    H237479   6.146   7.403   5.643
12514TIP3   OH237480   5.979   7.570   4.540
12514TIP3    H137481   5.934   7.553   4.455
12514TIP3    H237482   5.946   7.659   4.565
12515TIP3   OH237483   5.428   7.418   4.913
12515TIP3    H137484   5.428   7.428   5.010
12515TIP3    H237485   5.353   7.358   4.903
12516TIP3   OH237486   6.179   7.473   4.179
12516TIP3    H137487   6.238   7.403   4.142
12516TIP3    H237488   6.215   7.482   4.270
12517TIP3   OH237489   6.230   7.521   4.449
12517TIP3    H137490   6.142   7.530   4.491
12517TIP3    H237491   6.282   7.483   4.522
12518TIP3   OH237492   7.016   6.793   5.720
12518TIP3    H137493   6.936   6.807   5.668
12518TIP3    H237494   7.031   6.697   5.707
12519TIP3   OH237495   5.617   7.173   5.756
12519TIP3    H137496   5.639   7.177   5.851
12519TIP3    H237497   5.524   7.142   5.757
12520TIP3   OH237498   5.997   6.017   5.540
12520TIP3    H137499   5.909   5.986   5.511
12520TIP3    H237500   5.970   6.100   5.585
12521TIP3   OH237501   6.527   6.153   5.733
12521TIP3    H137502   6.598   6.087   5.749
12521TIP3    H237503   6.449   6.108   5.769
12522TIP3   OH237504   6.767   6.562   5.650
12522TIP3    H137505   6.716   6.564   5.734
12522TIP3    H237506   6.749   6.649   5.611
12523TIP3   OH237507   6.430   6.690   4.206
12523TIP3    H137508   6.395   6.668   4.117
12523TIP3    H237509   6.511   6.739   4.181
12524TIP3   OH237510   6.141   6.067   4.509
12524TIP3    H137511   6.107   6.063   4.600
12524TIP3    H237512   6.103   5.984   4.473
12525TIP3   OH237513   5.930   6.547   5.557
12525TIP3    H137514   5.873   6.560   5.636
12525TIP3    H237515   5.918   6.631   5.508
12526TIP3   OH237516   5.813   6.421   5.070
12526TIP3    H137517   5.721   6.394   5.087
12526TIP3    H237518   5.827   6.381   4.981
12527TIP3   OH237519   6.303   6.505   4.798
12527TIP3    H137520   6.252   6.577   4.755
12527TIP3    H237521   6.359   6.474   4.724
12528TIP3   OH237522   6.480   6.788   5.892
12528TIP3    H137523   6.461   6.711   5.949
12528TIP3    H237524   6.576   6.793   5.900
12529TIP3   OH237525   6.458   6.534   5.036
12529TIP3    H137526   6.399   6.564   4.964
12529TIP3    H237527   6.493   6.453   4.993
12530TIP3   OH237528   5.762   6.572   5.777
12530TIP3    H137529   5.737   6.624   5.854
12530TIP3    H237530   5.745   6.482   5.810
12531TIP3   OH237531   5.797   6.041   4.474
12531TIP3    H137532   5.789   6.039   4.571
12531TIP3    H237533   5.718   6.092   4.449
12532TIP3   OH237534   5.340   6.090   5.342
12532TIP3    H137535   5.418   6.117   5.396
12532TIP3    H237536   5.379   6.049   5.263
12533TIP3   OH237537   5.317   6.058   4.867
12533TIP3    H137538   5.358   6.098   4.787
12533TIP3    H237539   5.255   6.130   4.891
12534TIP3   OH237540   6.481   6.781   5.462
12534TIP3    H137541   6.508   6.707   5.403
12534TIP3    H237542   6.435   6.733   5.533
12535TIP3   OH237543   6.142   6.244   5.131
12535TIP3    H137544   6.061   6.240   5.186
12535TIP3    H237545   6.212   6.238   5.198
12536TIP3   OH237546   5.576   6.298   5.140
12536TIP3    H137547   5.483   6.305   5.109
12536TIP3    H237548   5.600   6.206   5.117
12537TIP3   OH237549   5.842   6.296   4.827
12537TIP3    H137550   5.936   6.308   4.806
12537TIP3    H237551   5.797   6.317   4.742
12538TIP3   OH237552   6.629   6.317   5.337
12538TIP3    H137553   6.592   6.331   5.426
12538TIP3    H237554   6.565   6.256   5.298
12539TIP3   OH237555   5.684   6.330   4.604
12539TIP3    H137556   5.618   6.282   4.552
12539TIP3    H237557   5.739   6.368   4.532
12540TIP3   OH237558   5.771   7.105   5.983
12540TIP3    H137559   5.844   7.149   6.033
12540TIP3    H237560   5.700   7.109   6.050
12541TIP3   OH237561   6.224   6.569   5.226
12541TIP3    H137562   6.296   6.536   5.170
12541TIP3    H237563   6.239   6.522   5.309
12542TIP3   OH237564   5.746   6.059   5.108
12542TIP3    H137565   5.711   5.980   5.155
12542TIP3    H237566   5.794   6.018   5.034
12543TIP3   OH237567   6.198   6.458   5.523
12543TIP3    H137568   6.110   6.500   5.527
12543TIP3    H237569   6.257   6.523   5.566
12544TIP3   OH237570   5.935   6.857   4.613
12544TIP3    H137571   5.861   6.794   4.601
12544TIP3    H237572   5.917   6.891   4.704
12545TIP3   OH237573   6.837   7.092   5.241
12545TIP3    H137574   6.860   7.142   5.159
12545TIP3    H237575   6.752   7.051   5.216
12546TIP3   OH237576   6.395   6.168   4.481
12546TIP3    H137577   6.298   6.151   4.485
12546TIP3    H237578   6.403   6.263   4.500
12547TIP3   OH237579   6.308   7.168   5.633
12547TIP3    H137580   6.378   7.173   5.700
12547TIP3    H237581   6.292   7.261   5.612
12548TIP3   OH237582   6.463   6.419   4.581
12548TIP3    H137583   6.560   6.425   4.594
12548TIP3    H237584   6.444   6.498   4.527
12549TIP3   OH237585   5.608   6.846   5.283
12549TIP3    H137586   5.658   6.836   5.198
12549TIP3    H237587   5.659   6.791   5.343
12550TIP3   OH237588   6.083   7.007   4.437
12550TIP3    H137589   6.034   7.093   4.440
12550TIP3    H237590   6.028   6.953   4.497
12551TIP3   OH237591   5.533   6.782   5.891
12551TIP3    H137592   5.536   6.781   5.989
12551TIP3    H237593   5.450   6.733   5.875
12552TIP3   OH237594   6.236   6.911   5.920
12552TIP3    H137595   6.198   6.829   5.885
12552TIP3    H237596   6.331   6.896   5.895
12553TIP3   OH237597   6.487   7.419   5.507
12553TIP3    H137598   6.391   7.433   5.514
12553TIP3    H237599   6.517   7.474   5.582
12554TIP3   OH237600   6.906   6.510   4.415
12554TIP3    H137601   6.843   6.465   4.353
12554TIP3    H237602   6.902   6.599   4.375
12555TIP3   OH237603   7.110   7.328   5.502
12555TIP3    H137604   7.018   7.348   5.474
12555TIP3    H237605   7.153   7.332   5.413
12556TIP3   OH237606   6.608   7.328   4.325
12556TIP3    H137607   6.579   7.256   4.383
12556TIP3    H237608   6.620   7.283   4.238
12557TIP3   OH237609   6.601   6.957   5.162
12557TIP3    H137610   6.507   6.931   5.173
12557TIP3    H237611   6.635   6.878   5.116
12558TIP3   OH237612   5.730   7.184   4.913
12558TIP3    H137613   5.731   7.263   4.856
12558TIP3    H237614   5.636   7.178   4.934
12559TIP3   OH237615   5.288   6.492   4.620
12559TIP3    H137616   5.351   6.564   4.642
12559TIP3    H237617   5.206   6.542   4.613
12560TIP3   OH237618   5.865   6.947   4.857
12560TIP3    H137619   5.832   7.038   4.872
12560TIP3    H237620   5.829   6.900   4.934
12561TIP3   OH237621   6.002   7.528   5.394
12561TIP3    H137622   6.033   7.596   5.331
12561TIP3    H237623   6.086   7.497   5.431
12562TIP3   OH237624   5.657   7.422   4.762
12562TIP3    H137625   5.572   7.427   4.812
12562TIP3    H237626   5.685   7.516   4.767
12563TIP3   OH237627   6.382   7.159   5.347
12563TIP3    H137628   6.380   7.146   5.443
12563TIP3    H237629   6.464   7.113   5.322
12564TIP3   OH237630   6.362   7.054   4.226
12564TIP3    H137631   6.414   7.029   4.305
12564TIP3    H237632   6.272   7.030   4.255
12565TIP3   OH237633   6.613   7.707   5.407
12565TIP3    H137634   6.542   7.649   5.374
12565TIP3    H237635   6.622   7.769   5.331
12566TIP3   OH237636   6.701   7.529   4.044
12566TIP3    H137637   6.737   7.601   3.989
12566TIP3    H237638   6.621   7.574   4.078
12567TIP3   OH237639   5.717   6.309   5.908
12567TIP3    H137640   5.620   6.313   5.920
12567TIP3    H237641   5.741   6.246   5.978
12568TIP3   OH237642   6.522   6.990   4.444
12568TIP3    H137643   6.513   6.922   4.513
12568TIP3    H237644   6.619   6.986   4.429
12569TIP3   OH237645   5.422   7.392   5.615
12569TIP3    H137646   5.433   7.341   5.534
12569TIP3    H237647   5.499   7.450   5.612
12570TIP3   OH237648   5.727   7.036   4.225
12570TIP3    H137649   5.742   6.945   4.196
12570TIP3    H237650   5.707   7.023   4.320
12571TIP3   OH237651   5.671   7.039   4.500
12571TIP3    H137652   5.748   7.017   4.554
12571TIP3    H237653   5.673   7.138   4.503
12572TIP3   OH237654   5.407   6.732   4.700
12572TIP3    H137655   5.343   6.780   4.755
12572TIP3    H237656   5.425   6.799   4.631
12573TIP3   OH237657   6.547   6.390   5.598
12573TIP3    H137658   6.638   6.417   5.620
12573TIP3    H237659   6.537   6.307   5.651
12574TIP3   OH237660   6.438   6.121   4.759
12574TIP3    H137661   6.424   6.142   4.665
12574TIP3    H237662   6.476   6.204   4.793
12575TIP3   OH237663   5.938   7.235   4.446
12575TIP3    H137664   5.851   7.264   4.481
12575TIP3    H237665   5.955   7.306   4.383
12576TIP3   OH237666   6.125   6.302   4.859
12576TIP3    H137667   6.190   6.374   4.841
12576TIP3    H237668   6.132   6.295   4.957
12577TIP3   OH237669   6.384   6.618   5.669
12577TIP3    H137670   6.425   6.666   5.744
12577TIP3    H237671   6.443   6.540   5.660
12578TIP3   OH237672   6.270   6.026   4.960
12578TIP3    H137673   6.265   6.103   5.019
12578TIP3    H237674   6.331   6.060   4.891
12579TIP3   OH237675   5.680   7.311   4.512
12579TIP3    H137676   5.652   7.383   4.450
12579TIP3    H237677   5.668   7.355   4.599
12580TIP3   OH237678   5.782   6.028   4.751
12580TIP3    H137679   5.782   6.118   4.788
12580TIP3    H237680   5.878   6.008   4.759
12581TIP3   OH237681   7.034   6.523   5.639
12581TIP3    H137682   6.937   6.527   5.652
12581TIP3    H237683   7.037   6.458   5.567
12582TIP3   OH237684   6.687   6.714   5.037
12582TIP3    H137685   6.612   6.654   5.048
12582TIP3    H237686   6.759   6.667   5.084
12583TIP3   OH237687   5.397   6.941   4.505
12583TIP3    H137688   5.461   7.013   4.516
12583TIP3    H237689   5.446   6.889   4.438
12584TIP3   OH237690   5.337   6.218   4.648
12584TIP3    H137691   5.336   6.315   4.640
12584TIP3    H237692   5.274   6.191   4.579
12585TIP3   OH237693   6.657   7.668   4.984
12585TIP3    H137694   6.615   7.716   4.909
12585TIP3    H237695   6.751   7.688   4.965
12586TIP3   OH237696   5.732   5.940   5.511
12586TIP3    H137697   5.702   5.905   5.425
12586TIP3    H237698   5.722   5.862   5.569
12587TIP3   OH237699   5.262   7.117   4.882
12587TIP3    H137700   5.233   7.167   4.960
12587TIP3    H237701   5.235   7.177   4.808
12588TIP3   OH237702   5.429   7.698   5.961
12588TIP3    H137703   5.514   7.694   6.009
12588TIP3    H237704   5.402   7.604   5.960
12589TIP3   OH237705   5.917   7.652   6.017
12589TIP3    H137706   6.011   7.641   5.997
12589TIP3    H237707   5.878   7.601   5.943
12590TIP3   OH237708   5.891   7.240   4.137
12590TIP3    H137709   5.838   7.165   4.173
12590TIP3    H237710   5.966   7.192   4.096
12591TIP3   OH237711   6.531   7.549   5.744
12591TIP3    H137712   6.528   7.484   5.818
12591TIP3    H237713   6.610   7.602   5.764
12592TIP3   OH237714   6.326   7.280   4.048
12592TIP3    H137715   6.375   7.217   4.104
12592TIP3    H237716   6.378   7.279   3.965
12593TIP3   OH237717   5.560   7.105   6.162
12593TIP3    H137718   5.571   7.009   6.169
12593TIP3    H237719   5.471   7.112   6.120
12594TIP3   OH237720   5.535   6.753   4.361
12594TIP3    H137721   5.596   6.725   4.432
12594TIP3    H237722   5.599   6.759   4.286
12595TIP3   OH237723   6.169   7.192   5.939
12595TIP3    H137724   6.133   7.219   5.852
12595TIP3    H237725   6.203   7.102   5.921
12596TIP3   OH237726   6.045   6.953   4.167
12596TIP3    H137727   6.049   6.965   4.264
12596TIP3    H237728   6.046   6.855   4.162
12597TIP3   OH237729   6.649   7.203   5.545
12597TIP3    H137730   6.728   7.237   5.498
12597TIP3    H237731   6.586   7.275   5.524
12598TIP3   OH237732   5.684   6.841   6.145
12598TIP3    H137733   5.749   6.770   6.139
12598TIP3    H237734   5.705   6.877   6.234
12599TIP3   OH237735   5.739   6.660   4.578
12599TIP3    H137736   5.720   6.615   4.662
12599TIP3    H237737   5.779   6.588   4.525
12600TIP3   OH237738   5.845   6.455   4.421
12600TIP3    H137739   5.820   6.459   4.327
12600TIP3    H237740   5.943   6.457   4.414
12601TIP3   OH237741   6.528   7.123   5.947
12601TIP3    H137742   6.607   7.109   5.893
12601TIP3    H237743   6.537   7.053   6.014
12602TIP3   OH237744   6.667   6.782   4.085
12602TIP3    H137745   6.646   6.738   4.000
12602TIP3    H237746   6.634   6.873   4.064
12603TIP3   OH237747   6.131   6.506   5.930
12603TIP3    H137748   6.147   6.414   5.900
12603TIP3    H237749   6.092   6.541   5.849
12604TIP3   OH237750   6.140   6.296   5.746
12604TIP3    H137751   6.170   6.334   5.661
12604TIP3    H237752   6.046   6.273   5.725
12605TIP3   OH237753   6.755   6.794   6.009
12605TIP3    H137754   6.791   6.708   5.979
12605TIP3    H237755   6.819   6.856   5.971
12606TIP3   OH237756   6.774   7.038   5.715
12606TIP3    H137757   6.719   7.097   5.657
12606TIP3    H237758   6.863   7.056   5.676
12607TIP3   OH237759   6.015   6.621   6.158
12607TIP3    H137760   5.945   6.555   6.180
12607TIP3    H237761   6.049   6.585   6.074
12608TIP3   OH237762   6.266   6.058   5.815
12608TIP3    H137763   6.223   6.142   5.789
12608TIP3    H237764   6.195   5.994   5.798
12609TIP3   OH237765   6.392   6.568   6.028
12609TIP3    H137766   6.383   6.552   6.124
12609TIP3    H237767   6.304   6.540   5.997
12610TIP3   OH237768   6.640   6.536   5.888
12610TIP3    H137769   6.563   6.516   5.943
12610TIP3    H237770   6.713   6.496   5.941
12611TIP3   OH237771   6.857   6.469   6.045
12611TIP3    H137772   6.875   6.372   6.049
12611TIP3    H237773   6.865   6.493   6.139
12612TIP3   OH237774   5.857   6.404   6.217
12612TIP3    H137775   5.856   6.312   6.184
12612TIP3    H237776   5.891   6.389   6.308
12613TIP3   OH237777   6.367   6.069   6.070
12613TIP3    H137778   6.439   6.004   6.058
12613TIP3    H237779   6.327   6.067   5.980
12614TIP3   OH237780   6.430   6.285   6.229
12614TIP3    H137781   6.411   6.213   6.165
12614TIP3    H237782   6.351   6.342   6.220
12615TIP3   OH237783   5.652   7.514   4.325
12615TIP3    H137784   5.747   7.508   4.307
12615TIP3    H237785   5.624   7.566   4.246
12616TIP3   OH237786   5.131   6.891   4.542
12616TIP3    H137787   5.225   6.917   4.526
12616TIP3    H237788   5.127   6.805   4.494
12617TIP3   OH237789   5.054   7.506   4.967
12617TIP3    H137790   4.990   7.441   4.931
12617TIP3    H237791   5.099   7.456   5.038
12618TIP3   OH237792   6.912   7.755   4.944
12618TIP3    H137793   6.931   7.788   5.034
12618TIP3    H237794   6.967   7.813   4.890
12619TIP3   OH237795   6.945   7.773   5.222
12619TIP3    H137796   6.910   7.681   5.226
12619TIP3    H237797   7.028   7.759   5.272
12620TIP3   OH237798   6.801   6.970   4.417
12620TIP3    H137799   6.867   7.036   4.386
12620TIP3    H237800   6.847   6.932   4.496
12621TIP3   OH237801   6.930   6.837   4.621
12621TIP3    H137802   6.863   6.796   4.679
12621TIP3    H237803   6.993   6.876   4.685
12622TIP3   OH237804   6.972   7.224   5.043
12622TIP3    H137805   7.029   7.165   4.991
12622TIP3    H237806   6.972   7.306   4.989
12623TIP3   OH237807   6.810   7.528   5.246
12623TIP3    H137808   6.742   7.574   5.299
12623TIP3    H237809   6.757   7.486   5.175
12624TIP3   OH237810   6.867   6.746   4.268
12624TIP3    H137811   6.796   6.747   4.199
12624TIP3    H237812   6.838   6.822   4.321
12625TIP3   OH237813   6.739   6.419   4.222
12625TIP3    H137814   6.696   6.459   4.145
12625TIP3    H237815   6.713   6.325   4.211
12626TIP3   OH237816   6.742   6.696   4.767
12626TIP3    H137817   6.750   6.600   4.760
12626TIP3    H237818   6.729   6.709   4.864
12627TIP3   OH237819   5.369   6.761   5.509
12627TIP3    H137820   5.361   6.734   5.416
12627TIP3    H237821   5.466   6.758   5.521
12628TIP3   OH237822   7.014   7.094   5.608
12628TIP3    H137823   7.101   7.059   5.631
12628TIP3    H237824   7.040   7.178   5.563
12629TIP3   OH237825   7.240   6.940   5.671
12629TIP3    H137826   7.157   6.889   5.688
12629TIP3    H237827   7.302   6.863   5.667
12630TIP3   OH237828   6.681   6.153   4.208
12630TIP3    H137829   6.753   6.120   4.264
12630TIP3    H237830   6.606   6.094   4.228
12631TIP3   OH237831   6.740   6.412   4.662
12631TIP3    H137832   6.780   6.323   4.676
12631TIP3    H237833   6.797   6.445   4.590
12632TIP3   OH237834   6.900   6.583   5.156
12632TIP3    H137835   6.986   6.610   5.115
12632TIP3    H237836   6.915   6.619   5.246
12633TIP3   OH237837   6.972   6.731   5.386
12633TIP3    H137838   6.893   6.762   5.433
12633TIP3    H237839   7.003   6.813   5.342
12634TIP3   OH237840   5.591   6.459   6.199
12634TIP3    H137841   5.688   6.446   6.195
12634TIP3    H237842   5.562   6.371   6.230
12635TIP3   OH237843   6.849   6.162   4.699
12635TIP3    H137844   6.896   6.145   4.783
12635TIP3    H237845   6.787   6.085   4.697
12636TIP3   OH237846   5.548   6.148   5.517
12636TIP3    H137847   5.608   6.071   5.526
12636TIP3    H237848   5.612   6.221   5.511
12637TIP3   OH237849   5.352   6.421   5.592
12637TIP3    H137850   5.400   6.415   5.507
12637TIP3    H237851   5.374   6.511   5.621
12638TIP3   OH237852   7.292   6.462   5.749
12638TIP3    H137853   7.205   6.496   5.775
12638TIP3    H237854   7.268   6.380   5.703
12639TIP3   OH237855   6.930   6.094   4.335
12639TIP3    H137856   6.967   6.024   4.277
12639TIP3    H237857   6.995   6.166   4.326
12640TIP3   OH237858   5.335   5.927   5.101
12640TIP3    H137859   5.240   5.918   5.122
12640TIP3    H237860   5.332   5.980   5.019
12641TIP3   OH237861   6.492   7.627   4.599
12641TIP3    H137862   6.544   7.616   4.516
12641TIP3    H237863   6.543   7.693   4.647
12642TIP3   OH237864   5.557   6.008   5.908
12642TIP3    H137865   5.504   5.996   5.989
12642TIP3    H237866   5.489   6.044   5.847
12643TIP3   OH237867   5.599   7.420   5.988
12643TIP3    H137868   5.504   7.408   5.964
12643TIP3    H237869   5.594   7.414   6.084
12644TIP3   OH237870   5.776   7.468   5.543
12644TIP3    H137871   5.724   7.537   5.496
12644TIP3    H237872   5.861   7.480   5.496
12645TIP3   OH237873   6.221   7.707   5.671
12645TIP3    H137874   6.257   7.713   5.762
12645TIP3    H237875   6.290   7.758   5.622
12646TIP3   OH237876   6.414   7.856   5.543
12646TIP3    H137877   6.474   7.799   5.491
12646TIP3    H237878   6.457   7.943   5.531
12647TIP3   OH237879   7.180   6.223   5.626
12647TIP3    H137880   7.096   6.229   5.576
12647TIP3    H237881   7.207   6.130   5.610
12648TIP3   OH237882   5.453   7.730   5.551
12648TIP3    H137883   5.365   7.764   5.525
12648TIP3    H237884   5.449   7.744   5.646
12649TIP3   OH237885   5.689   7.700   5.412
12649TIP3    H137886   5.603   7.715   5.457
12649TIP3    H237887   5.668   7.730   5.322
12650TIP3   OH237888   6.110   7.727   5.210
12650TIP3    H137889   6.040   7.743   5.144
12650TIP3    H237890   6.120   7.816   5.249
12651TIP3   OH237891   6.377   7.664   5.265
12651TIP3    H137892   6.285   7.685   5.241
12651TIP3    H237893   6.426   7.734   5.219
12652TIP3   OH237894   6.579   7.854   5.177
12652TIP3    H137895   6.564   7.938   5.128
12652TIP3    H237896   6.612   7.796   5.106
12653TIP3   OH237897   5.839   7.505   5.144
12653TIP3    H137898   5.836   7.410   5.128
12653TIP3    H237899   5.851   7.507   5.240
12654TIP3   OH237900   6.394   6.139   5.246
12654TIP3    H137901   6.348   6.067   5.295
12654TIP3    H237902   6.467   6.092   5.202
12655TIP3   OH237903   6.918   6.012   5.153
12655TIP3    H137904   6.955   6.065   5.079
12655TIP3    H237905   6.824   6.036   5.149
12656TIP3   OH237906   7.014   6.117   4.917
12656TIP3    H137907   7.087   6.066   4.876
12656TIP3    H237908   7.046   6.209   4.902
12657TIP3   OH237909   5.643   5.847   5.264
12657TIP3    H137910   5.551   5.813   5.266
12657TIP3    H237911   5.692   5.761   5.260
12658TIP3   OH237912   5.432   5.716   4.912
12658TIP3    H137913   5.462   5.772   4.839
12658TIP3    H237914   5.405   5.782   4.980
12659TIP3   OH237915   6.088   5.879   5.146
12659TIP3    H137916   6.144   5.925   5.081
12659TIP3    H237917   6.120   5.916   5.229
12660TIP3   OH237918   6.631   6.029   5.125
12660TIP3    H137919   6.634   5.994   5.035
12660TIP3    H237920   6.614   5.947   5.177
12661TIP3   OH237921   6.665   5.949   4.691
12661TIP3    H137922   6.578   5.991   4.702
12661TIP3    H237923   6.649   5.863   4.736
12662TIP3   OH237924   5.149   7.292   4.696
12662TIP3    H137925   5.064   7.260   4.661
12662TIP3    H237926   5.141   7.386   4.669
12663TIP3   OH237927   5.549   5.875   4.674
12663TIP3    H137928   5.596   5.811   4.618
12663TIP3    H237929   5.623   5.928   4.710
12664TIP3   OH237930   6.059   6.052   4.774
12664TIP3    H137931   6.120   6.003   4.832
12664TIP3    H237932   6.082   6.144   4.799
12665TIP3   OH237933   5.920   7.475   4.274
12665TIP3    H137934   6.008   7.498   4.238
12665TIP3    H237935   5.898   7.400   4.214
12666TIP3   OH237936   6.640   7.595   4.367
12666TIP3    H137937   6.632   7.497   4.356
12666TIP3    H237938   6.594   7.626   4.287
12667TIP3   OH237939   5.852   6.133   6.159
12667TIP3    H137940   5.815   6.060   6.211
12667TIP3    H237941   5.946   6.128   6.186
12668TIP3   OH237942   6.104   6.126   6.276
12668TIP3    H137943   6.186   6.096   6.234
12668TIP3    H237944   6.089   6.056   6.342
12669TIP3   OH237945   5.222   7.305   4.330
12669TIP3    H137946   5.229   7.339   4.421
12669TIP3    H237947   5.312   7.267   4.315
12670TIP3   OH237948   6.928   6.210   6.074
12670TIP3    H137949   6.946   6.161   6.157
12670TIP3    H237950   6.998   6.177   6.016
12671TIP3   OH237951   8.122   7.102   4.333
12671TIP3    H137952   8.089   7.191   4.310
12671TIP3    H237953   8.055   7.049   4.286
12672TIP3   OH237954   8.092   7.114   4.714
12672TIP3    H137955   8.152   7.060   4.766
12672TIP3    H237956   8.072   7.056   4.639
12673TIP3   OH237957   7.428   6.980   5.038
12673TIP3    H137958   7.454   6.919   5.109
12673TIP3    H237959   7.485   7.055   5.058
12674TIP3   OH237960   7.400   7.416   4.787
12674TIP3    H137961   7.392   7.318   4.789
12674TIP3    H237962   7.497   7.425   4.784
12675TIP3   OH237963   7.109   6.617   4.575
12675TIP3    H137964   7.060   6.700   4.591
12675TIP3    H237965   7.038   6.565   4.533
12676TIP3   OH237966   7.167   6.906   4.749
12676TIP3    H137967   7.217   6.829   4.784
12676TIP3    H237968   7.224   6.935   4.677
12677TIP3   OH237969   7.913   7.322   4.732
12677TIP3    H137970   7.977   7.249   4.714
12677TIP3    H237971   7.971   7.389   4.771
12678TIP3   OH237972   8.353   6.825   4.758
12678TIP3    H137973   8.377   6.731   4.774
12678TIP3    H237974   8.311   6.817   4.670
12679TIP3   OH237975   7.678   6.498   4.748
12679TIP3    H137976   7.657   6.570   4.685
12679TIP3    H237977   7.631   6.423   4.703
12680TIP3   OH237978   8.384   6.538   4.374
12680TIP3    H137979   8.458   6.566   4.432
12680TIP3    H237980   8.386   6.605   4.304
12681TIP3   OH237981   7.311   6.698   4.853
12681TIP3    H137982   7.394   6.682   4.901
12681TIP3    H237983   7.326   6.642   4.774
12682TIP3   OH237984   7.755   6.895   4.639
12682TIP3    H137985   7.848   6.868   4.654
12682TIP3    H237986   7.715   6.811   4.609
12683TIP3   OH237987   7.674   6.479   5.182
12683TIP3    H137988   7.615   6.518   5.115
12683TIP3    H237989   7.623   6.498   5.264
12684TIP3   OH237990   7.999   7.313   4.199
12684TIP3    H137991   7.964   7.302   4.110
12684TIP3    H237992   7.971   7.404   4.219
12685TIP3   OH237993   7.779   7.246   4.959
12685TIP3    H137994   7.702   7.306   4.957
12685TIP3    H237995   7.831   7.278   4.881
12686TIP3   OH237996   8.586   6.565   4.562
12686TIP3    H137997   8.554   6.566   4.654
12686TIP3    H237998   8.639   6.646   4.558
12687TIP3   OH237999   7.547   6.596   4.966
12687TIP3    H138000   7.608   6.669   4.990
12687TIP3    H238001   7.595   6.556   4.890
12688TIP3   OH238002   7.004   7.139   4.310
12688TIP3    H138003   6.963   7.165   4.225
12688TIP3    H238004   7.034   7.226   4.344
12689TIP3   OH238005   8.028   6.204   4.899
12689TIP3    H138006   8.015   6.108   4.913
12689TIP3    H238007   7.949   6.239   4.947
12690TIP3   OH238008   8.235   7.478   4.149
12690TIP3    H138009   8.206   7.402   4.097
12690TIP3    H238010   8.310   7.440   4.197
12691TIP3   OH238011   7.961   6.963   4.159
12691TIP3    H138012   7.883   7.015   4.132
12691TIP3    H238013   8.009   6.955   4.073
12692TIP3   OH238014   7.910   6.752   3.870
12692TIP3    H138015   7.979   6.813   3.904
12692TIP3    H238016   7.968   6.673   3.854
12693TIP3   OH238017   8.302   7.029   4.135
12693TIP3    H138018   8.252   7.051   4.216
12693TIP3    H238019   8.390   7.006   4.171
12694TIP3   OH238020   7.539   7.041   4.541
12694TIP3    H138021   7.498   6.984   4.472
12694TIP3    H238022   7.618   6.988   4.566
12695TIP3   OH238023   7.675   7.453   4.688
12695TIP3    H138024   7.642   7.422   4.601
12695TIP3    H238025   7.760   7.404   4.694
12696TIP3   OH238026   7.692   6.996   4.888
12696TIP3    H138027   7.713   6.978   4.794
12696TIP3    H238028   7.729   7.085   4.903
12697TIP3   OH238029   8.122   6.920   3.945
12697TIP3    H138030   8.200   6.941   4.000
12697TIP3    H238031   8.160   6.932   3.855
12698TIP3   OH238032   7.523   7.116   5.268
12698TIP3    H138033   7.502   7.211   5.255
12698TIP3    H238034   7.442   7.089   5.317
12699TIP3   OH238035   7.898   7.584   4.222
12699TIP3    H138036   7.948   7.657   4.259
12699TIP3    H238037   7.828   7.629   4.172
12700TIP3   OH238038   8.665   6.164   4.016
12700TIP3    H138039   8.569   6.153   4.016
12700TIP3    H238040   8.681   6.218   3.938
12701TIP3   OH238041   7.407   6.884   4.345
12701TIP3    H138042   7.343   6.932   4.288
12701TIP3    H238043   7.363   6.799   4.354
12702TIP3   OH238044   7.165   7.259   5.240
12702TIP3    H138045   7.097   7.242   5.172
12702TIP3    H238046   7.198   7.171   5.261
12703TIP3   OH238047   7.042   7.458   4.893
12703TIP3    H138048   7.137   7.466   4.876
12703TIP3    H238049   7.020   7.544   4.933
12704TIP3   OH238050   7.733   7.843   4.037
12704TIP3    H138051   7.718   7.801   3.951
12704TIP3    H238052   7.806   7.905   4.020
12705TIP3   OH238053   7.211   7.678   4.409
12705TIP3    H138054   7.257   7.668   4.495
12705TIP3    H238055   7.153   7.600   4.411
12706TIP3   OH238056   7.419   7.362   5.256
12706TIP3    H138057   7.441   7.456   5.270
12706TIP3    H238058   7.321   7.363   5.249
12707TIP3   OH238059   7.793   6.276   5.025
12707TIP3    H138060   7.703   6.245   4.998
12707TIP3    H238061   7.768   6.357   5.072
12708TIP3   OH238062   8.309   6.391   5.202
12708TIP3    H138063   8.377   6.387   5.271
12708TIP3    H238064   8.227   6.367   5.251
12709TIP3   OH238065   8.227   6.963   3.696
12709TIP3    H138066   8.190   6.910   3.622
12709TIP3    H238067   8.308   6.998   3.657
12710TIP3   OH238068   7.947   6.281   3.995
12710TIP3    H138069   7.908   6.311   4.078
12710TIP3    H238070   7.888   6.207   3.971
12711TIP3   OH238071   7.731   6.785   5.047
12711TIP3    H138072   7.673   6.805   5.124
12711TIP3    H238073   7.712   6.863   4.990
12712TIP3   OH238074   7.610   6.675   4.556
12712TIP3    H138075   7.516   6.652   4.572
12712TIP3    H238076   7.623   6.636   4.467
12713TIP3   OH238077   8.097   6.762   4.286
12713TIP3    H138078   8.042   6.831   4.243
12713TIP3    H238079   8.154   6.734   4.210
12714TIP3   OH238080   8.240   6.788   4.516
12714TIP3    H138081   8.184   6.822   4.442
12714TIP3    H238082   8.264   6.703   4.477
12715TIP3   OH238083   7.545   6.807   5.246
12715TIP3    H138084   7.571   6.878   5.307
12715TIP3    H238085   7.532   6.731   5.306
12716TIP3   OH238086   7.590   6.294   3.962
12716TIP3    H138087   7.579   6.295   4.059
12716TIP3    H238088   7.515   6.351   3.935
12717TIP3   OH238089   7.136   6.341   4.833
12717TIP3    H138090   7.213   6.374   4.885
12717TIP3    H238091   7.175   6.312   4.749
12718TIP3   OH238092   7.109   6.324   4.353
12718TIP3    H138093   7.153   6.361   4.273
12718TIP3    H238094   7.047   6.396   4.372
12719TIP3   OH238095   7.925   6.481   4.622
12719TIP3    H138096   7.841   6.491   4.671
12719TIP3    H238097   7.989   6.511   4.687
12720TIP3   OH238098   7.369   6.556   4.625
12720TIP3    H138099   7.275   6.566   4.598
12720TIP3    H238100   7.388   6.463   4.602
12721TIP3   OH238101   7.642   6.552   4.313
12721TIP3    H138102   7.734   6.568   4.286
12721TIP3    H238103   7.590   6.573   4.231
12722TIP3   OH238104   8.391   6.557   4.794
12722TIP3    H138105   8.368   6.573   4.888
12722TIP3    H238106   8.324   6.489   4.771
12723TIP3   OH238107   7.485   6.580   4.094
12723TIP3    H138108   7.412   6.540   4.044
12723TIP3    H238109   7.536   6.620   4.020
12724TIP3   OH238110   8.012   6.809   4.709
12724TIP3    H138111   8.094   6.789   4.663
12724TIP3    H238112   8.028   6.778   4.800
12725TIP3   OH238113   7.547   6.312   4.595
12725TIP3    H138114   7.507   6.235   4.641
12725TIP3    H238115   7.572   6.275   4.510
12726TIP3   OH238116   7.994   6.718   4.999
12726TIP3    H138117   7.901   6.746   5.010
12726TIP3    H238118   8.039   6.765   5.070
12727TIP3   OH238119   7.733   7.118   4.098
12727TIP3    H138120   7.661   7.051   4.087
12727TIP3    H238121   7.715   7.150   4.190
12728TIP3   OH238122   8.262   6.671   4.089
12728TIP3    H138123   8.354   6.685   4.062
12728TIP3    H238124   8.220   6.647   4.004
12729TIP3   OH238125   7.433   7.141   4.779
12729TIP3    H138126   7.466   7.108   4.693
12729TIP3    H238127   7.456   7.068   4.839
12730TIP3   OH238128   7.877   7.263   3.914
12730TIP3    H138129   7.829   7.349   3.924
12730TIP3    H238130   7.825   7.207   3.977
12731TIP3   OH238131   7.292   7.029   5.402
12731TIP3    H138132   7.274   7.004   5.495
12731TIP3    H238133   7.216   6.987   5.357
12732TIP3   OH238134   7.527   7.443   4.407
12732TIP3    H138135   7.525   7.523   4.351
12732TIP3    H238136   7.433   7.422   4.413
12733TIP3   OH238137   7.092   6.745   4.108
12733TIP3    H138138   7.135   6.831   4.127
12733TIP3    H238139   7.014   6.750   4.166
12734TIP3   OH238140   7.660   7.205   4.344
12734TIP3    H138141   7.628   7.296   4.364
12734TIP3    H238142   7.625   7.156   4.420
12735TIP3   OH238143   7.446   7.675   4.253
12735TIP3    H138144   7.360   7.687   4.298
12735TIP3    H238145   7.480   7.767   4.253
12736TIP3   OH238146   8.080   7.313   3.699
12736TIP3    H138147   8.155   7.278   3.750
12736TIP3    H238148   8.005   7.279   3.751
12737TIP3   OH238149   7.515   6.559   5.401
12737TIP3    H138150   7.418   6.568   5.411
12737TIP3    H238151   7.537   6.494   5.469
12738TIP3   OH238152   8.328   7.228   3.947
12738TIP3    H138153   8.284   7.170   4.013
12738TIP3    H238154   8.407   7.173   3.932
12739TIP3   OH238155   7.242   7.658   5.043
12739TIP3    H138156   7.247   7.567   5.075
12739TIP3    H238157   7.215   7.700   5.127
12740TIP3   OH238158   7.517   7.294   3.712
12740TIP3    H138159   7.538   7.203   3.684
12740TIP3    H238160   7.500   7.281   3.807
12741TIP3   OH238161   7.469   7.296   3.984
12741TIP3    H138162   7.543   7.271   4.041
12741TIP3    H238163   7.471   7.395   3.991
12742TIP3   OH238164   7.205   6.991   4.188
12742TIP3    H138165   7.137   7.036   4.244
12742TIP3    H238166   7.217   7.059   4.119
12743TIP3   OH238167   8.342   6.622   5.055
12743TIP3    H138168   8.353   6.681   5.131
12743TIP3    H238169   8.316   6.540   5.102
12744TIP3   OH238170   7.735   7.492   3.942
12744TIP3    H138171   7.645   7.513   3.975
12744TIP3    H238172   7.746   7.568   3.882
12745TIP3   OH238173   7.933   6.547   4.347
12745TIP3    H138174   7.991   6.624   4.326
12745TIP3    H238175   7.936   6.543   4.444
12746TIP3   OH238176   7.478   7.569   4.000
12746TIP3    H138177   7.445   7.639   3.939
12746TIP3    H238178   7.464   7.612   4.087
12747TIP3   OH238179   7.575   6.285   4.241
12747TIP3    H138180   7.573   6.378   4.271
12747TIP3    H238181   7.672   6.269   4.242
12748TIP3   OH238182   8.512   6.923   4.519
12748TIP3    H138183   8.416   6.921   4.527
12748TIP3    H238184   8.539   6.959   4.605
12749TIP3   OH238185   7.195   7.198   3.994
12749TIP3    H138186   7.261   7.269   4.001
12749TIP3    H238187   7.240   7.142   3.926
12750TIP3   OH238188   7.139   6.474   4.127
12750TIP3    H138189   7.140   6.572   4.124
12750TIP3    H238190   7.058   6.454   4.078
12751TIP3   OH238191   7.531   6.195   4.997
12751TIP3    H138192   7.497   6.162   4.911
12751TIP3    H238193   7.519   6.117   5.055
12752TIP3   OH238194   7.066   7.410   4.378
12752TIP3    H138195   6.998   7.443   4.439
12752TIP3    H238196   7.037   7.453   4.294
12753TIP3   OH238197   7.686   7.489   3.623
12753TIP3    H138198   7.626   7.421   3.661
12753TIP3    H238199   7.760   7.432   3.597
12754TIP3   OH238200   7.330   7.012   3.849
12754TIP3    H138201   7.388   6.982   3.921
12754TIP3    H238202   7.396   7.018   3.776
12755TIP3   OH238203   7.813   7.202   3.650
12755TIP3    H138204   7.823   7.212   3.747
12755TIP3    H238205   7.830   7.105   3.641
12756TIP3   OH238206   7.540   6.918   4.067
12756TIP3    H138207   7.513   6.874   4.149
12756TIP3    H238208   7.578   6.843   4.016
12757TIP3   OH238209   7.800   6.978   5.296
12757TIP3    H138210   7.739   7.049   5.323
12757TIP3    H238211   7.823   7.007   5.207
12758TIP3   OH238212   7.638   6.711   3.908
12758TIP3    H138213   7.615   6.718   3.814
12758TIP3    H238214   7.737   6.717   3.902
12759TIP3   OH238215   7.907   6.767   5.449
12759TIP3    H138216   7.927   6.697   5.385
12759TIP3    H238217   7.874   6.839   5.391
12760TIP3   OH238218   7.936   6.545   5.226
12760TIP3    H138219   7.959   6.584   5.140
12760TIP3    H238220   7.840   6.527   5.213
12761TIP3   OH238221   8.072   6.318   5.311
12761TIP3    H138222   8.021   6.399   5.290
12761TIP3    H238223   8.004   6.249   5.302
12762TIP3   OH238224   7.648   6.655   5.719
12762TIP3    H138225   7.653   6.588   5.649
12762TIP3    H238226   7.678   6.603   5.795
12763TIP3   OH238227   7.440   7.778   3.819
12763TIP3    H138228   7.535   7.762   3.806
12763TIP3    H238229   7.418   7.821   3.733
12764TIP3   OH238230   6.927   7.152   4.030
12764TIP3    H138231   7.022   7.173   4.014
12764TIP3    H238232   6.919   7.065   3.985
12765TIP3   OH238233   6.844   7.768   4.442
12765TIP3    H138234   6.777   7.706   4.405
12765TIP3    H238235   6.888   7.710   4.507
12766TIP3   OH238236   6.980   7.617   4.628
12766TIP3    H138237   6.963   7.546   4.692
12766TIP3    H238238   7.029   7.681   4.683
12767TIP3   OH238239   8.529   6.671   3.716
12767TIP3    H138240   8.493   6.719   3.641
12767TIP3    H238241   8.505   6.580   3.693
12768TIP3   OH238242   8.538   6.946   4.247
12768TIP3    H138243   8.547   6.851   4.226
12768TIP3    H238244   8.542   6.946   4.345
12769TIP3   OH238245   7.162   7.019   5.000
12769TIP3    H138246   7.154   6.990   4.907
12769TIP3    H238247   7.260   7.015   5.010
12770TIP3   OH238248   8.491   6.397   3.692
12770TIP3    H138249   8.522   6.396   3.783
12770TIP3    H238250   8.400   6.362   3.703
12771TIP3   OH238251   8.552   6.676   4.165
12771TIP3    H138252   8.584   6.584   4.176
12771TIP3    H238253   8.589   6.699   4.078
12772TIP3   OH238254   7.381   6.710   5.675
12772TIP3    H138255   7.478   6.701   5.683
12772TIP3    H238256   7.353   6.623   5.712
12773TIP3   OH238257   8.615   6.410   4.219
12773TIP3    H138258   8.698   6.396   4.269
12773TIP3    H238259   8.599   6.320   4.185
12774TIP3   OH238260   7.345   6.404   5.003
12774TIP3    H138261   7.408   6.330   5.014
12774TIP3    H238262   7.407   6.479   4.997
12775TIP3   OH238263   7.146   6.677   5.078
12775TIP3    H138264   7.195   6.673   4.993
12775TIP3    H238265   7.175   6.763   5.112
12776TIP3   OH238266   7.131   6.183   4.581
12776TIP3    H138267   7.037   6.177   4.606
12776TIP3    H238268   7.127   6.240   4.502
12777TIP3   OH238269   7.349   6.254   5.392
12777TIP3    H138270   7.300   6.259   5.476
12777TIP3    H238271   7.286   6.298   5.332
12778TIP3   OH238272   7.158   7.769   4.790
12778TIP3    H138273   7.189   7.750   4.881
12778TIP3    H238274   7.229   7.725   4.738
12779TIP3   OH238275   7.343   7.639   4.642
12779TIP3    H138276   7.360   7.555   4.691
12779TIP3    H238277   7.434   7.673   4.629
12780TIP3   OH238278   7.603   7.718   4.639
12780TIP3    H138279   7.644   7.629   4.644
12780TIP3    H238280   7.628   7.757   4.724
12781TIP3   OH238281   8.205   6.358   4.740
12781TIP3    H138282   8.129   6.325   4.793
12781TIP3    H238283   8.252   6.274   4.724
12782TIP3   OH238284   8.735   6.270   4.635
12782TIP3    H138285   8.766   6.322   4.559
12782TIP3    H238286   8.647   6.307   4.650
12783TIP3   OH238287   8.829   6.373   4.390
12783TIP3    H138288   8.901   6.315   4.361
12783TIP3    H238289   8.871   6.460   4.389
12784TIP3   OH238290   7.440   6.102   4.749
12784TIP3    H138291   7.347   6.071   4.751
12784TIP3    H238292   7.487   6.016   4.745
12785TIP3   OH238293   7.235   5.973   4.401
12785TIP3    H138294   7.259   6.030   4.325
12785TIP3    H238295   7.201   6.038   4.465
12786TIP3   OH238296   7.890   6.144   4.628
12786TIP3    H138297   7.919   6.233   4.604
12786TIP3    H238298   7.881   6.155   4.724
12787TIP3   OH238299   8.408   6.213   4.213
12787TIP3    H138300   8.361   6.195   4.129
12787TIP3    H238301   8.421   6.120   4.245
12788TIP3   OH238302   6.944   7.545   4.178
12788TIP3    H138303   6.859   7.511   4.145
12788TIP3    H238304   6.934   7.639   4.156
12789TIP3   OH238305   7.344   6.129   4.164
12789TIP3    H138306   7.392   6.069   4.104
12789TIP3    H238307   7.417   6.184   4.198
12790TIP3   OH238308   7.848   6.306   4.262
12790TIP3    H138309   7.882   6.256   4.337
12790TIP3    H238310   7.882   6.396   4.282
12791TIP3   OH238311   7.707   7.718   3.780
12791TIP3    H138312   7.775   7.775   3.737
12791TIP3    H238313   7.696   7.648   3.712
12792TIP3   OH238314   7.643   6.385   5.625
12792TIP3    H138315   7.611   6.356   5.713
12792TIP3    H238316   7.740   6.382   5.642
12793TIP3   OH238317   7.897   6.367   5.741
12793TIP3    H138318   7.956   6.290   5.757
12793TIP3    H238319   7.831   6.354   5.813
12794TIP3   OH238320   7.021   7.569   3.816
12794TIP3    H138321   7.022   7.592   3.910
12794TIP3    H238322   7.109   7.527   3.804
12795TIP3   OH238323   1.386   7.427   6.416
12795TIP3    H138324   1.411   7.510   6.463
12795TIP3    H238325   1.424   7.444   6.328
12796TIP3   OH238326   0.823   7.346   6.050
12796TIP3    H138327   0.883   7.359   6.126
12796TIP3    H238328   0.869   7.398   5.982
12797TIP3   OH238329   1.450   7.628   6.589
12797TIP3    H138330   1.420   7.717   6.566
12797TIP3    H238331   1.452   7.635   6.687
12798TIP3   OH238332   1.021   7.393   6.239
12798TIP3    H138333   1.047   7.308   6.276
12798TIP3    H238334   1.097   7.450   6.256
12799TIP3   OH238335   1.190   7.347   6.596
12799TIP3    H138336   1.111   7.387   6.559
12799TIP3    H238337   1.257   7.366   6.526
12800TIP3   OH238338   1.122   6.931   5.683
12800TIP3    H138339   1.042   6.953   5.736
12800TIP3    H238340   1.136   7.014   5.634
12801TIP3   OH238341   1.156   7.554   5.588
12801TIP3    H138342   1.090   7.513   5.528
12801TIP3    H238343   1.152   7.645   5.551
12802TIP3   OH238344   1.261   7.535   6.810
12802TIP3    H138345   1.166   7.536   6.828
12802TIP3    H238346   1.264   7.481   6.729
12803TIP3   OH238347   0.919   7.741   6.221
12803TIP3    H138348   0.875   7.655   6.218
12803TIP3    H238349   1.007   7.717   6.258
12804TIP3   OH238350   0.926   7.825   5.253
12804TIP3    H138351   0.876   7.782   5.180
12804TIP3    H238352   0.915   7.918   5.231
12805TIP3   OH238353   1.052   8.006   5.591
12805TIP3    H138354   1.125   8.066   5.566
12805TIP3    H238355   1.089   7.966   5.672
12806TIP3   OH238356   1.176   7.881   5.794
12806TIP3    H138357   1.119   7.834   5.859
12806TIP3    H238358   1.250   7.914   5.849
12807TIP3   OH238359   1.117   7.786   5.442
12807TIP3    H138360   1.046   7.790   5.375
12807TIP3    H238361   1.089   7.862   5.498
12808TIP3   OH238362   0.980   7.466   5.400
12808TIP3    H138363   0.939   7.511   5.325
12808TIP3    H238364   0.962   7.372   5.378
12809TIP3   OH238365   1.013   7.734   5.955
12809TIP3    H138366   0.995   7.641   5.931
12809TIP3    H238367   0.979   7.741   6.045
12810TIP3   OH238368   0.943   7.197   5.377
12810TIP3    H138369   1.022   7.176   5.432
12810TIP3    H238370   0.876   7.136   5.414
12811TIP3   OH238371   0.994   7.460   5.858
12811TIP3    H138372   1.034   7.371   5.863
12811TIP3    H238373   1.031   7.492   5.774
12812TIP3   OH238374   1.150   7.645   6.335
12812TIP3    H138375   1.236   7.670   6.292
12812TIP3    H238376   1.169   7.667   6.426
12813TIP3   OH238377   1.728   7.384   7.113
12813TIP3    H138378   1.754   7.306   7.059
12813TIP3    H238379   1.680   7.434   7.044
12814TIP3   OH238380   1.104   7.203   5.872
12814TIP3    H138381   1.149   7.192   5.957
12814TIP3    H238382   1.040   7.129   5.875
12815TIP3   OH238383   1.616   7.447   6.867
12815TIP3    H138384   1.555   7.515   6.901
12815TIP3    H238385   1.553   7.381   6.832
12816TIP3   OH238386   1.181   7.141   5.508
12816TIP3    H138387   1.224   7.071   5.457
12816TIP3    H238388   1.247   7.213   5.508
12817TIP3   OH238389   1.436   7.257   6.778
12817TIP3    H138390   1.343   7.246   6.751
12817TIP3    H238391   1.468   7.164   6.774
12818TIP3   OH238392   1.184   7.056   6.329
12818TIP3    H138393   1.221   7.106   6.253
12818TIP3    H238394   1.089   7.078   6.321
12819TIP3   OH238395   1.262   7.162   6.094
12819TIP3    H138396   1.334   7.109   6.053
12819TIP3    H238397   1.298   7.253   6.077
12820TIP3   OH238398   0.924   7.101   6.295
12820TIP3    H138399   0.857   7.098   6.225
12820TIP3    H238400   0.903   7.020   6.347
12821TIP3   OH238401   0.922   6.986   5.866
12821TIP3    H138402   0.833   7.020   5.847
12821TIP3    H238403   0.901   6.904   5.914
12822TIP3   OH238404   2.382   8.139   5.505
12822TIP3    H138405   2.347   8.227   5.480
12822TIP3    H238406   2.309   8.084   5.470
12823TIP3   OH238407   2.381   8.153   5.877
12823TIP3    H138408   2.414   8.132   5.966
12823TIP3    H238409   2.339   8.070   5.851
12824TIP3   OH238410   1.693   8.056   6.243
12824TIP3    H138411   1.710   7.985   6.308
12824TIP3    H238412   1.781   8.071   6.204
12825TIP3   OH238413   2.598   8.458   5.568
12825TIP3    H138414   2.597   8.385   5.633
12825TIP3    H238415   2.650   8.525   5.614
12826TIP3   OH238416   1.734   8.373   6.064
12826TIP3    H138417   1.672   8.328   6.005
12826TIP3    H238418   1.805   8.401   6.001
12827TIP3   OH238419   1.359   7.654   5.751
12827TIP3    H138420   1.322   7.743   5.771
12827TIP3    H238421   1.281   7.612   5.711
12828TIP3   OH238422   1.417   7.942   5.905
12828TIP3    H138423   1.462   7.873   5.958
12828TIP3    H238424   1.491   8.004   5.887
12829TIP3   OH238425   2.194   8.371   5.919
12829TIP3    H138426   2.242   8.293   5.884
12829TIP3    H238427   2.272   8.423   5.947
12830TIP3   OH238428   3.192   7.701   5.925
12830TIP3    H138429   3.220   7.784   5.969
12830TIP3    H238430   3.211   7.722   5.832
12831TIP3   OH238431   2.590   7.881   5.958
12831TIP3    H138432   2.633   7.796   5.979
12831TIP3    H238433   2.559   7.864   5.867
12832TIP3   OH238434   1.929   7.541   5.923
12832TIP3    H138435   1.909   7.615   5.861
12832TIP3    H238436   1.880   7.469   5.878
12833TIP3   OH238437   2.624   7.633   5.545
12833TIP3    H138438   2.695   7.617   5.611
12833TIP3    H238439   2.676   7.668   5.471
12834TIP3   OH238440   1.559   7.740   6.034
12834TIP3    H138441   1.643   7.723   6.080
12834TIP3    H238442   1.573   7.690   5.951
12835TIP3   OH238443   2.000   7.941   5.828
12835TIP3    H138444   2.095   7.917   5.838
12835TIP3    H238445   1.962   7.857   5.794
12836TIP3   OH238446   3.265   7.910   6.094
12836TIP3    H138447   3.181   7.957   6.075
12836TIP3    H238448   3.280   7.937   6.186
12837TIP3   OH238449   1.925   7.523   6.357
12837TIP3    H138450   1.865   7.561   6.291
12837TIP3    H238451   1.874   7.540   6.439
12838TIP3   OH238452   2.264   8.341   5.363
12838TIP3    H138453   2.215   8.339   5.279
12838TIP3    H238454   2.283   8.436   5.374
12839TIP3   OH238455   2.034   8.308   6.156
12839TIP3    H138456   1.985   8.382   6.198
12839TIP3    H238457   2.070   8.355   6.078
12840TIP3   OH238458   2.832   7.635   5.720
12840TIP3    H138459   2.815   7.594   5.805
12840TIP3    H238460   2.884   7.714   5.745
12841TIP3   OH238461   1.795   7.638   6.143
12841TIP3    H138462   1.856   7.712   6.166
12841TIP3    H238463   1.845   7.599   6.067
12842TIP3   OH238464   1.263   8.154   5.498
12842TIP3    H138465   1.222   8.170   5.410
12842TIP3    H238466   1.275   8.246   5.525
12843TIP3   OH238467   2.985   7.597   6.089
12843TIP3    H138468   2.898   7.630   6.060
12843TIP3    H238469   3.044   7.632   6.019
12844TIP3   OH238470   2.280   7.244   6.071
12844TIP3    H138471   2.265   7.149   6.089
12844TIP3    H238472   2.203   7.283   6.119
12845TIP3   OH238473   2.628   8.468   5.288
12845TIP3    H138474   2.589   8.388   5.248
12845TIP3    H238475   2.638   8.443   5.382
12846TIP3   OH238476   2.917   8.612   6.075
12846TIP3    H138477   2.900   8.534   6.019
12846TIP3    H238478   2.928   8.683   6.008
12847TIP3   OH238479   2.213   8.001   5.332
12847TIP3    H138480   2.131   8.053   5.315
12847TIP3    H238481   2.256   8.002   5.245
12848TIP3   OH238482   2.170   7.790   5.044
12848TIP3    H138483   2.236   7.843   5.092
12848TIP3    H238484   2.229   7.728   4.997
12849TIP3   OH238485   3.117   8.250   5.915
12849TIP3    H138486   3.033   8.300   5.922
12849TIP3    H238487   3.145   8.277   5.824
12850TIP3   OH238488   2.560   8.082   5.305
12850TIP3    H138489   2.504   8.103   5.384
12850TIP3    H238490   2.644   8.057   5.348
12851TIP3   OH238491   2.792   8.126   6.211
12851TIP3    H138492   2.795   8.206   6.269
12851TIP3    H238493   2.705   8.140   6.168
12852TIP3   OH238494   1.800   8.089   5.705
12852TIP3    H138495   1.755   8.028   5.643
12852TIP3    H238496   1.873   8.034   5.740
12853TIP3   OH238497   1.935   8.463   5.906
12853TIP3    H138498   1.899   8.457   5.816
12853TIP3    H238499   2.031   8.447   5.894
12854TIP3   OH238500   1.921   8.065   6.074
12854TIP3    H138501   1.955   8.041   5.986
12854TIP3    H238502   1.965   8.152   6.091
12855TIP3   OH238503   2.397   7.946   5.127
12855TIP3    H138504   2.456   8.006   5.177
12855TIP3    H238505   2.426   7.963   5.034
12856TIP3   OH238506   2.914   7.187   5.174
12856TIP3    H138507   2.833   7.209   5.224
12856TIP3    H238508   2.929   7.270   5.124
12857TIP3   OH238509   1.660   7.927   5.518
12857TIP3    H138510   1.595   7.972   5.461
12857TIP3    H238511   1.613   7.846   5.540
12858TIP3   OH238512   3.051   8.089   6.390
12858TIP3    H138513   2.963   8.106   6.352
12858TIP3    H238514   3.060   7.992   6.378
12859TIP3   OH238515   2.042   7.318   6.202
12859TIP3    H138516   1.953   7.290   6.174
12859TIP3    H238517   2.018   7.401   6.247
12860TIP3   OH238518   2.577   7.432   6.395
12860TIP3    H138519   2.646   7.409   6.460
12860TIP3    H238520   2.493   7.415   6.443
12861TIP3   OH238521   2.814   7.866   6.311
12861TIP3    H138522   2.764   7.861   6.395
12861TIP3    H238523   2.791   7.955   6.278
12862TIP3   OH238524   2.476   7.975   4.871
12862TIP3    H138525   2.444   7.956   4.781
12862TIP3    H238526   2.532   8.052   4.854
12863TIP3   OH238527   2.187   7.368   5.173
12863TIP3    H138528   2.153   7.365   5.264
12863TIP3    H238529   2.147   7.286   5.138
12864TIP3   OH238530   1.971   7.838   6.218
12864TIP3    H138531   1.933   7.866   6.303
12864TIP3    H238532   1.957   7.919   6.164
12865TIP3   OH238533   1.858   7.721   5.733
12865TIP3    H138534   1.765   7.698   5.752
12865TIP3    H238535   1.869   7.680   5.645
12866TIP3   OH238536   2.350   7.804   5.461
12866TIP3    H138537   2.296   7.874   5.419
12866TIP3    H238538   2.405   7.773   5.387
12867TIP3   OH238539   2.521   8.080   6.527
12867TIP3    H138540   2.510   8.016   6.599
12867TIP3    H238541   2.606   8.122   6.550
12868TIP3   OH238542   2.504   7.834   5.700
12868TIP3    H138543   2.444   7.866   5.630
12868TIP3    H238544   2.538   7.754   5.656
12869TIP3   OH238545   1.792   7.864   6.435
12869TIP3    H138546   1.836   7.908   6.509
12869TIP3    H238547   1.774   7.776   6.473
12870TIP3   OH238548   1.841   7.341   5.138
12870TIP3    H138549   1.833   7.341   5.235
12870TIP3    H238550   1.765   7.397   5.113
12871TIP3   OH238551   1.389   7.381   6.013
12871TIP3    H138552   1.462   7.420   6.065
12871TIP3    H238553   1.429   7.365   5.927
12872TIP3   OH238554   1.356   7.366   5.527
12872TIP3    H138555   1.402   7.405   5.450
12872TIP3    H238556   1.296   7.440   5.549
12873TIP3   OH238557   2.509   8.081   6.120
12873TIP3    H138558   2.546   8.009   6.064
12873TIP3    H238559   2.484   8.029   6.199
12874TIP3   OH238560   2.185   7.541   5.794
12874TIP3    H138561   2.104   7.542   5.847
12874TIP3    H238562   2.254   7.543   5.862
12875TIP3   OH238563   1.619   7.601   5.804
12875TIP3    H138564   1.525   7.610   5.775
12875TIP3    H238565   1.641   7.510   5.777
12876TIP3   OH238566   1.887   7.593   5.492
12876TIP3    H138567   1.981   7.611   5.470
12876TIP3    H238568   1.840   7.617   5.409
12877TIP3   OH238569   2.678   7.618   5.993
12877TIP3    H138570   2.648   7.632   6.086
12877TIP3    H238571   2.608   7.559   5.960
12878TIP3   OH238572   1.733   7.626   5.269
12878TIP3    H138573   1.660   7.585   5.220
12878TIP3    H238574   1.784   7.666   5.196
12879TIP3   OH238575   2.267   7.871   5.890
12879TIP3    H138576   2.343   7.835   5.841
12879TIP3    H238577   2.278   7.830   5.978
12880TIP3   OH238578   1.790   7.360   5.771
12880TIP3    H138579   1.756   7.281   5.817
12880TIP3    H238580   1.839   7.322   5.697
12881TIP3   OH238581   2.244   7.767   6.185
12881TIP3    H138582   2.156   7.808   6.196
12881TIP3    H238583   2.303   7.828   6.232
12882TIP3   OH238584   1.983   8.144   5.284
12882TIP3    H138585   1.905   8.087   5.271
12882TIP3    H238586   1.959   8.189   5.369
12883TIP3   OH238587   2.884   8.392   5.909
12883TIP3    H138588   2.909   8.441   5.828
12883TIP3    H238589   2.798   8.352   5.883
12884TIP3   OH238590   2.439   7.470   5.140
12884TIP3    H138591   2.342   7.454   5.148
12884TIP3    H238592   2.449   7.565   5.164
12885TIP3   OH238593   2.413   8.475   6.269
12885TIP3    H138594   2.454   8.436   6.348
12885TIP3    H238595   2.337   8.522   6.310
12886TIP3   OH238596   2.509   7.719   5.243
12886TIP3    H138597   2.605   7.726   5.258
12886TIP3    H238598   2.489   7.799   5.191
12887TIP3   OH238599   1.640   8.117   5.932
12887TIP3    H138600   1.701   8.121   5.856
12887TIP3    H238601   1.700   8.100   6.006
12888TIP3   OH238602   2.093   8.330   5.118
12888TIP3    H138603   2.052   8.400   5.173
12888TIP3    H238604   2.057   8.251   5.164
12889TIP3   OH238605   2.271   8.194   6.583
12889TIP3    H138606   2.253   8.194   6.488
12889TIP3    H238607   2.368   8.183   6.582
12890TIP3   OH238608   2.949   7.811   5.079
12890TIP3    H138609   2.888   7.767   5.016
12890TIP3    H238610   2.946   7.901   5.038
12891TIP3   OH238611   3.169   8.657   6.167
12891TIP3    H138612   3.072   8.662   6.149
12891TIP3    H238613   3.199   8.641   6.074
12892TIP3   OH238614   2.646   8.264   5.811
12892TIP3    H138615   2.554   8.238   5.834
12892TIP3    H238616   2.679   8.180   5.775
12893TIP3   OH238617   1.341   7.788   5.282
12893TIP3    H138618   1.385   7.874   5.301
12893TIP3    H238619   1.263   7.794   5.342
12894TIP3   OH238620   1.913   8.264   5.522
12894TIP3    H138621   1.872   8.345   5.554
12894TIP3    H238622   1.885   8.201   5.591
12895TIP3   OH238623   2.437   8.461   5.997
12895TIP3    H138624   2.427   8.469   6.094
12895TIP3    H238625   2.525   8.422   5.991
12896TIP3   OH238626   2.438   8.286   4.859
12896TIP3    H138627   2.470   8.279   4.951
12896TIP3    H238628   2.359   8.342   4.870
12897TIP3   OH238629   1.770   7.601   6.577
12897TIP3    H138630   1.675   7.596   6.592
12897TIP3    H238631   1.804   7.544   6.649
12898TIP3   OH238632   2.562   8.266   5.105
12898TIP3    H138633   2.561   8.195   5.173
12898TIP3    H238634   2.659   8.272   5.088
12899TIP3   OH238635   1.756   8.288   4.936
12899TIP3    H138636   1.795   8.202   4.910
12899TIP3    H238637   1.789   8.299   5.025
12900TIP3   OH238638   1.461   8.030   5.359
12900TIP3    H138639   1.395   8.068   5.422
12900TIP3    H238640   1.465   8.104   5.294
12901TIP3   OH238641   2.607   7.667   6.252
12901TIP3    H138642   2.680   7.712   6.297
12901TIP3    H238643   2.592   7.589   6.309
12902TIP3   OH238644   2.485   7.421   5.422
12902TIP3    H138645   2.470   7.444   5.328
12902TIP3    H238646   2.523   7.504   5.458
12903TIP3   OH238647   2.171   7.602   5.523
12903TIP3    H138648   2.235   7.674   5.505
12903TIP3    H238649   2.176   7.594   5.620
12904TIP3   OH238650   2.436   7.916   6.326
12904TIP3    H138651   2.459   7.977   6.400
12904TIP3    H238652   2.495   7.841   6.344
12905TIP3   OH238653   2.315   7.327   5.624
12905TIP3    H138654   2.308   7.403   5.684
12905TIP3    H238655   2.376   7.363   5.556
12906TIP3   OH238656   1.827   7.328   5.415
12906TIP3    H138657   1.825   7.419   5.450
12906TIP3    H238658   1.923   7.311   5.423
12907TIP3   OH238659   3.080   7.819   6.310
12907TIP3    H138660   2.982   7.820   6.318
12907TIP3    H238661   3.090   7.781   6.222
12908TIP3   OH238662   2.732   8.015   5.700
12908TIP3    H138663   2.656   7.956   5.714
12908TIP3    H238664   2.804   7.968   5.749
12909TIP3   OH238665   1.451   8.246   5.176
12909TIP3    H138666   1.474   8.340   5.166
12909TIP3    H238667   1.505   8.204   5.106
12910TIP3   OH238668   1.389   7.519   5.302
12910TIP3    H138669   1.394   7.617   5.301
12910TIP3    H238670   1.302   7.505   5.263
12911TIP3   OH238671   1.776   7.241   6.175
12911TIP3    H138672   1.746   7.207   6.088
12911TIP3    H238673   1.765   7.162   6.233
12912TIP3   OH238674   1.576   8.049   5.024
12912TIP3    H138675   1.626   8.016   5.100
12912TIP3    H238676   1.648   8.053   4.958
12913TIP3   OH238677   2.031   8.229   4.842
12913TIP3    H138678   2.069   8.246   4.929
12913TIP3    H238679   2.060   8.137   4.825
12914TIP3   OH238680   2.702   8.483   6.201
12914TIP3    H138681   2.761   8.552   6.164
12914TIP3    H238682   2.620   8.533   6.214
12915TIP3   OH238683   1.781   7.959   5.241
12915TIP3    H138684   1.754   7.917   5.325
12915TIP3    H238685   1.820   7.884   5.192
12916TIP3   OH238686   2.053   8.012   6.461
12916TIP3    H138687   2.062   8.087   6.522
12916TIP3    H238688   2.109   8.046   6.387
12917TIP3   OH238689   1.890   7.754   5.086
12917TIP3    H138690   1.864   7.756   4.991
12917TIP3    H238691   1.988   7.759   5.078
12918TIP3   OH238692   2.570   8.394   6.556
12918TIP3    H138693   2.617   8.478   6.561
12918TIP3    H238694   2.562   8.370   6.650
12919TIP3   OH238695   2.713   8.093   4.743
12919TIP3    H138696   2.687   8.041   4.664
12919TIP3    H238697   2.690   8.183   4.711
12920TIP3   OH238698   2.189   7.810   6.583
12920TIP3    H138699   2.189   7.728   6.529
12920TIP3    H238700   2.144   7.873   6.523
12921TIP3   OH238701   2.185   7.596   6.402
12921TIP3    H138702   2.212   7.641   6.320
12921TIP3    H238703   2.090   7.576   6.384
12922TIP3   OH238704   2.210   8.139   6.284
12922TIP3    H138705   2.293   8.147   6.235
12922TIP3    H238706   2.153   8.205   6.238
12923TIP3   OH238707   2.804   8.095   6.635
12923TIP3    H138708   2.863   8.019   6.644
12923TIP3    H238709   2.867   8.168   6.623
12924TIP3   OH238710   2.841   8.340   6.383
12924TIP3    H138711   2.776   8.395   6.333
12924TIP3    H238712   2.925   8.374   6.346
12925TIP3   OH238713   2.052   7.912   6.802
12925TIP3    H138714   1.992   7.835   6.812
12925TIP3    H238715   2.093   7.894   6.715
12926TIP3   OH238716   2.315   7.362   6.475
12926TIP3    H138717   2.267   7.444   6.450
12926TIP3    H238718   2.245   7.295   6.462
12927TIP3   OH238719   2.450   7.863   6.679
12927TIP3    H138720   2.428   7.845   6.772
12927TIP3    H238721   2.361   7.847   6.639
12928TIP3   OH238722   2.679   7.802   6.534
12928TIP3    H138723   2.606   7.820   6.596
12928TIP3    H238724   2.753   7.781   6.595
12929TIP3   OH238725   2.905   7.751   6.692
12929TIP3    H138726   2.922   7.656   6.704
12929TIP3    H238727   2.905   7.784   6.784
12930TIP3   OH238728   1.893   7.702   6.881
12930TIP3    H138729   1.881   7.617   6.834
12930TIP3    H238730   1.942   7.672   6.960
12931TIP3   OH238731   2.408   7.367   6.733
12931TIP3    H138732   2.477   7.297   6.723
12931TIP3    H238733   2.369   7.365   6.643
12932TIP3   OH238734   2.480   7.582   6.889
12932TIP3    H138735   2.461   7.509   6.826
12932TIP3    H238736   2.401   7.640   6.876
12933TIP3   OH238737   1.186   8.154   5.206
12933TIP3    H138738   1.269   8.196   5.177
12933TIP3    H238739   1.178   8.078   5.145
12934TIP3   OH238740   2.838   8.266   5.086
12934TIP3    H138741   2.909   8.325   5.053
12934TIP3    H238742   2.883   8.226   5.164
12935TIP3   OH238743   2.971   8.136   5.284
12935TIP3    H138744   2.909   8.095   5.347
12935TIP3    H238745   3.041   8.172   5.342
12936TIP3   OH238746   3.012   8.526   5.712
12936TIP3    H138747   3.078   8.473   5.663
12936TIP3    H238748   3.014   8.612   5.666
12937TIP3   OH238749   2.909   8.047   4.929
12937TIP3    H138750   2.839   8.052   4.860
12937TIP3    H238751   2.882   8.122   4.986
12938TIP3   OH238752   2.785   7.719   4.885
12938TIP3    H138753   2.737   7.762   4.813
12938TIP3    H238754   2.758   7.625   4.872
12939TIP3   OH238755   2.787   7.995   5.433
12939TIP3    H138756   2.796   7.899   5.425
12939TIP3    H238757   2.774   8.007   5.530
12940TIP3   OH238758   1.416   8.037   6.180
12940TIP3    H138759   1.416   8.049   6.084
12940TIP3    H238760   1.507   8.066   6.204
12941TIP3   OH238761   3.082   8.422   6.292
12941TIP3    H138762   3.152   8.355   6.280
12941TIP3    H238763   3.105   8.489   6.226
12942TIP3   OH238764   3.266   8.225   6.297
12942TIP3    H138765   3.191   8.178   6.341
12942TIP3    H238766   3.338   8.161   6.316
12943TIP3   OH238767   2.727   7.453   4.868
12943TIP3    H138768   2.800   7.423   4.926
12943TIP3    H238769   2.653   7.395   4.894
12944TIP3   OH238770   2.784   7.713   5.325
12944TIP3    H138771   2.825   7.624   5.339
12944TIP3    H238772   2.842   7.746   5.254
12945TIP3   OH238773   2.945   7.884   5.820
12945TIP3    H138774   3.031   7.910   5.780
12945TIP3    H238775   2.957   7.923   5.909
12946TIP3   OH238776   3.013   8.029   6.050
12946TIP3    H138777   2.937   8.063   6.102
12946TIP3    H238778   3.046   8.112   6.008
12947TIP3   OH238779   3.460   7.619   6.605
12947TIP3    H138780   3.524   7.556   6.565
12947TIP3    H238781   3.435   7.676   6.530
12948TIP3   OH238782   2.893   7.463   5.362
12948TIP3    H138783   2.941   7.447   5.446
12948TIP3    H238784   2.832   7.386   5.362
12949TIP3   OH238785   1.590   7.449   6.191
12949TIP3    H138786   1.654   7.375   6.196
12949TIP3    H238787   1.650   7.524   6.179
12950TIP3   OH238788   1.393   7.743   6.260
12950TIP3    H138789   1.444   7.727   6.178
12950TIP3    H238790   1.404   7.840   6.266
12951TIP3   OH238791   3.338   7.763   6.410
12951TIP3    H138792   3.254   7.805   6.440
12951TIP3    H238793   3.302   7.692   6.355
12952TIP3   OH238794   2.973   7.396   4.997
12952TIP3    H138795   3.013   7.326   4.942
12952TIP3    H238796   3.039   7.468   4.992
12953TIP3   OH238797   1.378   7.220   5.753
12953TIP3    H138798   1.286   7.221   5.783
12953TIP3    H238799   1.375   7.283   5.677
12954TIP3   OH238800   1.600   7.301   6.555
12954TIP3    H138801   1.550   7.298   6.638
12954TIP3    H238802   1.534   7.340   6.495
12955TIP3   OH238803   3.237   7.524   6.292
12955TIP3    H138804   3.146   7.519   6.258
12955TIP3    H238805   3.266   7.431   6.281
12956TIP3   OH238806   2.440   7.439   5.910
12956TIP3    H138807   2.397   7.369   5.962
12956TIP3    H238808   2.515   7.391   5.868
12957TIP3   OH238809   2.962   7.315   5.815
12957TIP3    H138810   2.999   7.369   5.741
12957TIP3    H238811   2.868   7.339   5.811
12958TIP3   OH238812   3.058   7.417   5.579
12958TIP3    H138813   3.132   7.367   5.540
12958TIP3    H238814   3.091   7.509   5.566
12959TIP3   OH238815   1.689   7.147   5.927
12959TIP3    H138816   1.596   7.116   5.929
12959TIP3    H238817   1.737   7.061   5.923
12960TIP3   OH238818   1.474   7.017   5.575
12960TIP3    H138819   1.506   7.075   5.502
12960TIP3    H238820   1.446   7.083   5.641
12961TIP3   OH238821   2.134   7.177   5.809
12961TIP3    H138822   2.189   7.228   5.747
12961TIP3    H238823   2.157   7.219   5.893
12962TIP3   OH238824   2.677   7.326   5.792
12962TIP3    H138825   2.678   7.289   5.703
12962TIP3    H238826   2.664   7.246   5.847
12963TIP3   OH238827   2.709   7.250   5.354
12963TIP3    H138828   2.623   7.294   5.368
12963TIP3    H238829   2.694   7.165   5.400
12964TIP3   OH238830   1.593   7.174   5.340
12964TIP3    H138831   1.643   7.114   5.281
12964TIP3    H238832   1.665   7.230   5.375
12965TIP3   OH238833   2.105   7.352   5.438
12965TIP3    H138834   2.167   7.307   5.498
12965TIP3    H238835   2.125   7.445   5.462
12966TIP3   OH238836   1.909   7.430   6.794
12966TIP3    H138837   1.852   7.386   6.859
12966TIP3    H238838   1.998   7.422   6.836
12967TIP3   OH238839   2.152   7.413   6.930
12967TIP3    H138840   2.237   7.394   6.888
12967TIP3    H238841   2.144   7.340   6.994
12968TIP3   OH238842   2.973   7.484   6.726
12968TIP3    H138843   2.992   7.454   6.818
12968TIP3    H238844   3.062   7.481   6.686
12969TIP3   OH238845   4.177   8.395   4.994
12969TIP3    H138846   4.143   8.483   4.966
12969TIP3    H238847   4.106   8.341   4.956
12970TIP3   OH238848   4.181   8.411   5.356
12970TIP3    H138849   4.206   8.384   5.446
12970TIP3    H238850   4.135   8.333   5.323
12971TIP3   OH238851   3.476   8.307   5.727
12971TIP3    H138852   3.510   8.242   5.791
12971TIP3    H238853   3.544   8.376   5.731
12972TIP3   OH238854   4.395   8.715   5.053
12972TIP3    H138855   4.395   8.643   5.117
12972TIP3    H238856   4.447   8.783   5.099
12973TIP3   OH238857   3.512   8.644   5.544
12973TIP3    H138858   3.467   8.573   5.496
12973TIP3    H238859   3.588   8.664   5.486
12974TIP3   OH238860   3.154   7.915   5.238
12974TIP3    H138861   3.111   8.001   5.255
12974TIP3    H238862   3.081   7.867   5.196
12975TIP3   OH238863   3.206   8.204   5.410
12975TIP3    H138864   3.258   8.128   5.445
12975TIP3    H238865   3.277   8.259   5.371
12976TIP3   OH238866   3.989   8.624   5.412
12976TIP3    H138867   4.037   8.552   5.368
12976TIP3    H238868   4.067   8.679   5.438
12977TIP3   OH238869   4.981   7.957   5.409
12977TIP3    H138870   5.016   8.037   5.453
12977TIP3    H238871   5.012   7.971   5.318
12978TIP3   OH238872   4.386   8.138   5.449
12978TIP3    H138873   4.431   8.053   5.465
12978TIP3    H238874   4.355   8.125   5.357
12979TIP3   OH238875   3.727   7.799   5.410
12979TIP3    H138876   3.705   7.871   5.347
12979TIP3    H238877   3.679   7.725   5.367
12980TIP3   OH238878   4.418   7.891   5.032
12980TIP3    H138879   4.490   7.877   5.098
12980TIP3    H238880   4.471   7.925   4.957
12981TIP3   OH238881   3.357   8.000   5.518
12981TIP3    H138882   3.440   7.980   5.565
12981TIP3    H238883   3.370   7.946   5.437
12982TIP3   OH238884   3.797   8.197   5.311
12982TIP3    H138885   3.891   8.172   5.321
12982TIP3    H238886   3.757   8.113   5.278
12983TIP3   OH238887   5.059   8.161   5.583
12983TIP3    H138888   4.977   8.211   5.565
12983TIP3    H238889   5.085   8.198   5.669
12984TIP3   OH238890   3.722   7.783   5.846
12984TIP3    H138891   3.661   7.818   5.779
12984TIP3    H238892   3.667   7.797   5.927
12985TIP3   OH238893   4.063   8.596   4.849
12985TIP3    H138894   4.011   8.592   4.766
12985TIP3    H238895   4.076   8.692   4.861
12986TIP3   OH238896   3.832   8.557   5.648
12986TIP3    H138897   3.762   8.619   5.676
12986TIP3    H238898   3.865   8.603   5.567
12987TIP3   OH238899   4.625   7.895   5.207
12987TIP3    H138900   4.635   7.838   5.283
12987TIP3    H238901   4.683   7.970   5.230
12988TIP3   OH238902   3.593   7.896   5.629
12988TIP3    H138903   3.654   7.970   5.651
12988TIP3    H238904   3.641   7.856   5.553
12989TIP3   OH238905   3.658   8.776   5.746
12989TIP3    H138906   3.616   8.771   5.658
12989TIP3    H238907   3.577   8.770   5.802
12990TIP3   OH238908   3.051   8.407   4.983
12990TIP3    H138909   3.017   8.423   4.892
12990TIP3    H238910   3.067   8.499   5.010
12991TIP3   OH238911   4.778   7.858   5.577
12991TIP3    H138912   4.692   7.886   5.540
12991TIP3    H238913   4.842   7.891   5.509
12992TIP3   OH238914   4.077   7.500   5.561
12992TIP3    H138915   4.061   7.405   5.577
12992TIP3    H238916   3.999   7.538   5.606
12993TIP3   OH238917   4.425   8.725   4.774
12993TIP3    H138918   4.386   8.646   4.733
12993TIP3    H238919   4.433   8.698   4.868
12994TIP3   OH238920   4.707   8.867   5.559
12994TIP3    H138921   4.698   8.790   5.500
12994TIP3    H238922   4.734   8.938   5.496
12995TIP3   OH238923   4.010   8.258   4.820
12995TIP3    H138924   3.928   8.310   4.802
12995TIP3    H238925   4.052   8.258   4.732
12996TIP3   OH238926   3.967   8.046   4.532
12996TIP3    H138927   4.034   8.100   4.578
12996TIP3    H238928   4.025   7.983   4.484
12997TIP3   OH238929   4.912   8.504   5.402
12997TIP3    H138930   4.829   8.557   5.407
12997TIP3    H238931   4.943   8.529   5.312
12998TIP3   OH238932   4.355   8.339   4.792
12998TIP3    H138933   4.300   8.360   4.871
12998TIP3    H238934   4.440   8.314   4.835
12999TIP3   OH238935   4.590   8.383   5.703
12999TIP3    H138936   4.592   8.463   5.759
12999TIP3    H238937   4.520   8.406   5.640
13000TIP3   OH238938   3.592   8.345   5.195
13000TIP3    H138939   3.548   8.285   5.130
13000TIP3    H238940   3.668   8.290   5.225
13001TIP3   OH238941   3.725   8.708   5.399
13001TIP3    H138942   3.689   8.710   5.309
13001TIP3    H238943   3.821   8.713   5.385
13002TIP3   OH238944   3.728   8.316   5.557
13002TIP3    H138945   3.757   8.296   5.465
13002TIP3    H238946   3.767   8.404   5.573
13003TIP3   OH238947   3.900   8.770   5.885
13003TIP3    H138948   3.865   8.860   5.905
13003TIP3    H238949   3.826   8.740   5.829
13004TIP3   OH238950   4.192   8.202   4.613
13004TIP3    H138951   4.252   8.263   4.663
13004TIP3    H238952   4.221   8.219   4.520
13005TIP3   OH238953   3.616   8.424   5.984
13005TIP3    H138954   3.622   8.512   6.027
13005TIP3    H238955   3.521   8.404   5.999
13006TIP3   OH238956   4.710   7.444   4.661
13006TIP3    H138957   4.629   7.467   4.710
13006TIP3    H238958   4.726   7.527   4.610
13007TIP3   OH238959   3.455   8.184   5.008
13007TIP3    H138960   3.391   8.230   4.949
13007TIP3    H238961   3.409   8.101   5.023
13008TIP3   OH238962   3.250   8.569   5.922
13008TIP3    H138963   3.178   8.557   5.858
13008TIP3    H238964   3.279   8.477   5.940
13009TIP3   OH238965   4.845   8.345   5.878
13009TIP3    H138966   4.767   8.360   5.823
13009TIP3    H238967   4.862   8.249   5.864
13010TIP3   OH238968   3.442   8.767   5.916
13010TIP3    H138969   3.493   8.730   5.991
13010TIP3    H238970   3.367   8.704   5.910
13011TIP3   OH238971   3.838   7.578   5.688
13011TIP3    H138972   3.750   7.545   5.659
13011TIP3    H238973   3.810   7.658   5.736
13012TIP3   OH238974   4.373   7.696   5.883
13012TIP3    H138975   4.445   7.663   5.942
13012TIP3    H238976   4.292   7.666   5.929
13013TIP3   OH238977   4.590   8.119   5.817
13013TIP3    H138978   4.613   8.144   5.907
13013TIP3    H238979   4.590   8.205   5.770
13014TIP3   OH238980   4.273   8.233   4.359
13014TIP3    H138981   4.240   8.213   4.269
13014TIP3    H238982   4.330   8.310   4.340
13015TIP3   OH238983   3.984   7.624   4.659
13015TIP3    H138984   3.948   7.621   4.751
13015TIP3    H238985   3.943   7.542   4.623
13016TIP3   OH238986   3.770   8.095   5.706
13016TIP3    H138987   3.715   8.112   5.786
13016TIP3    H238988   3.752   8.176   5.653
13017TIP3   OH238989   3.654   7.978   5.220
13017TIP3    H138990   3.561   7.954   5.238
13017TIP3    H238991   3.666   7.938   5.131
13018TIP3   OH238992   4.147   8.061   4.950
13018TIP3    H138993   4.093   8.131   4.906
13018TIP3    H238994   4.201   8.030   4.875
13019TIP3   OH238995   4.300   8.092   5.188
13019TIP3    H138996   4.242   8.123   5.116
13019TIP3    H238997   4.335   8.012   5.144
13020TIP3   OH238998   3.596   8.120   5.917
13020TIP3    H138999   3.593   8.187   5.986
13020TIP3    H239000   3.578   8.038   5.967
13021TIP3   OH239001   3.639   7.598   4.625
13021TIP3    H139002   3.628   7.598   4.722
13021TIP3    H239003   3.562   7.652   4.598
13022TIP3   OH239004   3.182   7.641   5.496
13022TIP3    H139005   3.256   7.675   5.550
13022TIP3    H239006   3.223   7.613   5.414
13023TIP3   OH239007   3.152   7.624   5.015
13023TIP3    H139008   3.197   7.661   4.936
13023TIP3    H239009   3.092   7.698   5.036
13024TIP3   OH239010   4.293   8.337   5.605
13024TIP3    H139011   4.332   8.266   5.548
13024TIP3    H239012   4.319   8.306   5.693
13025TIP3   OH239013   3.984   7.800   5.281
13025TIP3    H139014   3.900   7.799   5.332
13025TIP3    H239015   4.050   7.795   5.352
13026TIP3   OH239016   3.415   7.857   5.290
13026TIP3    H139017   3.321   7.866   5.262
13026TIP3    H239018   3.437   7.765   5.266
13027TIP3   OH239019   3.684   7.852   4.978
13027TIP3    H139020   3.777   7.868   4.954
13027TIP3    H239021   3.635   7.874   4.895
13028TIP3   OH239022   4.468   7.877   5.498
13028TIP3    H139023   4.417   7.882   5.580
13028TIP3    H239024   4.414   7.814   5.447
13029TIP3   OH239025   3.529   7.884   4.757
13029TIP3    H139026   3.457   7.841   4.708
13029TIP3    H239027   3.580   7.922   4.683
13030TIP3   OH239028   3.604   8.671   6.125
13030TIP3    H139029   3.682   8.702   6.175
13030TIP3    H239030   3.538   8.667   6.197
13031TIP3   OH239031   4.064   8.128   5.375
13031TIP3    H139032   4.136   8.093   5.319
13031TIP3    H239033   4.072   8.074   5.455
13032TIP3   OH239034   3.589   7.616   5.260
13032TIP3    H139035   3.552   7.537   5.306
13032TIP3    H239036   3.632   7.576   5.183
13033TIP3   OH239037   4.028   8.016   5.663
13033TIP3    H139038   3.933   8.043   5.668
13033TIP3    H239039   4.074   8.098   5.684
13034TIP3   OH239040   3.780   8.401   4.772
13034TIP3    H139041   3.701   8.343   4.758
13034TIP3    H239042   3.756   8.446   4.857
13035TIP3   OH239043   4.678   8.647   5.395
13035TIP3    H139044   4.706   8.697   5.315
13035TIP3    H239045   4.593   8.607   5.366
13036TIP3   OH239046   4.236   7.725   4.631
13036TIP3    H139047   4.139   7.709   4.635
13036TIP3    H239048   4.244   7.821   4.650
13037TIP3   OH239049   4.189   8.750   5.762
13037TIP3    H139050   4.216   8.722   5.850
13037TIP3    H239051   4.105   8.795   5.781
13038TIP3   OH239052   4.305   7.976   4.731
13038TIP3    H139053   4.401   7.983   4.744
13038TIP3    H239054   4.284   8.055   4.678
13039TIP3   OH239055   3.442   8.388   5.425
13039TIP3    H139056   3.499   8.382   5.345
13039TIP3    H239057   3.501   8.354   5.495
13040TIP3   OH239058   3.890   8.586   4.605
13040TIP3    H139059   3.849   8.656   4.660
13040TIP3    H239060   3.853   8.507   4.651
13041TIP3   OH239061   3.358   8.343   6.051
13041TIP3    H139062   3.368   8.335   6.148
13041TIP3    H239063   3.280   8.286   6.035
13042TIP3   OH239064   4.083   8.455   6.076
13042TIP3    H139065   4.011   8.410   6.028
13042TIP3    H239066   4.148   8.472   6.006
13043TIP3   OH239067   4.744   8.068   4.566
13043TIP3    H139068   4.684   8.023   4.503
13043TIP3    H239069   4.741   8.157   4.525
13044TIP3   OH239070   4.965   8.908   5.650
13044TIP3    H139071   4.868   8.921   5.636
13044TIP3    H239072   4.992   8.894   5.556
13045TIP3   OH239073   4.443   8.516   5.307
13045TIP3    H139074   4.349   8.492   5.321
13045TIP3    H239075   4.476   8.435   5.264
13046TIP3   OH239076   3.137   8.045   4.770
13046TIP3    H139077   3.181   8.130   4.787
13046TIP3    H239078   3.058   8.052   4.828
13047TIP3   OH239079   3.709   8.519   5.011
13047TIP3    H139080   3.666   8.601   5.038
13047TIP3    H239081   3.679   8.459   5.082
13048TIP3   OH239082   4.232   8.716   5.489
13048TIP3    H139083   4.224   8.725   5.587
13048TIP3    H239084   4.319   8.676   5.480
13049TIP3   OH239085   4.235   8.544   4.346
13049TIP3    H139086   4.266   8.536   4.438
13049TIP3    H239087   4.155   8.599   4.357
13050TIP3   OH239088   3.562   7.862   6.062
13050TIP3    H139089   3.466   7.868   6.077
13050TIP3    H239090   3.590   7.806   6.136
13051TIP3   OH239091   4.359   8.523   4.593
13051TIP3    H139092   4.357   8.452   4.660
13051TIP3    H239093   4.455   8.529   4.575
13052TIP3   OH239094   3.551   8.545   4.422
13052TIP3    H139095   3.591   8.459   4.396
13052TIP3    H239096   3.583   8.556   4.512
13053TIP3   OH239097   3.257   8.288   4.847
13053TIP3    H139098   3.190   8.325   4.908
13053TIP3    H239099   3.261   8.361   4.781
13054TIP3   OH239100   4.369   7.949   5.773
13054TIP3    H139101   4.457   7.989   5.782
13054TIP3    H239102   4.380   7.859   5.809
13055TIP3   OH239103   4.280   7.677   4.909
13055TIP3    H139104   4.265   7.699   4.815
13055TIP3    H239105   4.318   7.761   4.943
13056TIP3   OH239106   3.969   7.858   5.009
13056TIP3    H139107   4.033   7.931   4.991
13056TIP3    H239108   3.973   7.853   5.107
13057TIP3   OH239109   4.112   7.585   5.112
13057TIP3    H139110   4.100   7.665   5.167
13057TIP3    H239111   4.173   7.619   5.043
13058TIP3   OH239112   3.623   7.585   4.902
13058TIP3    H139113   3.621   7.676   4.937
13058TIP3    H239114   3.719   7.568   4.909
13059TIP3   OH239115   4.867   8.081   5.795
13059TIP3    H139116   4.773   8.057   5.797
13059TIP3    H239117   4.895   8.042   5.711
13060TIP3   OH239118   4.527   8.274   5.189
13060TIP3    H139119   4.453   8.211   5.198
13060TIP3    H239120   4.600   8.226   5.235
13061TIP3   OH239121   3.247   8.503   4.664
13061TIP3    H139122   3.271   8.597   4.652
13061TIP3    H239123   3.301   8.460   4.594
13062TIP3   OH239124   3.184   7.775   4.790
13062TIP3    H139125   3.186   7.873   4.788
13062TIP3    H239126   3.101   7.757   4.744
13063TIP3   OH239127   3.575   7.497   5.662
13063TIP3    H139128   3.542   7.463   5.575
13063TIP3    H239129   3.563   7.419   5.720
13064TIP3   OH239130   3.400   8.656   6.311
13064TIP3    H139131   3.422   8.561   6.318
13064TIP3    H239132   3.313   8.652   6.266
13065TIP3   OH239133   3.372   8.306   4.511
13065TIP3    H139134   3.423   8.272   4.587
13065TIP3    H239135   3.443   8.311   4.444
13066TIP3   OH239136   4.024   8.728   6.122
13066TIP3    H139137   3.988   8.741   6.031
13066TIP3    H239138   4.054   8.636   6.118
13067TIP3   OH239139   3.826   8.486   4.330
13067TIP3    H139140   3.865   8.503   4.416
13067TIP3    H239141   3.856   8.395   4.312
13068TIP3   OH239142   4.497   8.747   5.691
13068TIP3    H139143   4.566   8.802   5.648
13068TIP3    H239144   4.422   8.808   5.687
13069TIP3   OH239145   3.523   8.399   6.294
13069TIP3    H139146   3.592   8.334   6.277
13069TIP3    H239147   3.549   8.430   6.383
13070TIP3   OH239148   3.578   8.215   4.728
13070TIP3    H139149   3.551   8.171   4.811
13070TIP3    H239150   3.617   8.142   4.677
13071TIP3   OH239151   3.859   8.290   5.962
13071TIP3    H139152   3.773   8.339   5.971
13071TIP3    H239153   3.886   8.317   5.872
13072TIP3   OH239154   3.686   8.011   4.573
13072TIP3    H139155   3.660   8.013   4.478
13072TIP3    H239156   3.784   8.016   4.565
13073TIP3   OH239157   4.362   8.654   6.082
13073TIP3    H139158   4.452   8.654   6.047
13073TIP3    H239159   4.372   8.601   6.163
13074TIP3   OH239160   4.510   8.350   4.230
13074TIP3    H139161   4.483   8.298   4.152
13074TIP3    H239162   4.486   8.440   4.198
13075TIP3   OH239163   4.011   8.078   6.047
13075TIP3    H139164   3.961   7.997   6.023
13075TIP3    H239165   3.947   8.148   6.017
13076TIP3   OH239166   3.981   7.850   5.888
13076TIP3    H139167   4.003   7.889   5.801
13076TIP3    H239168   3.887   7.826   5.874
13077TIP3   OH239169   4.031   8.393   5.753
13077TIP3    H139170   4.102   8.410   5.689
13077TIP3    H239171   3.963   8.457   5.722
13078TIP3   OH239172   4.600   8.350   6.149
13078TIP3    H139173   4.651   8.279   6.192
13078TIP3    H239174   4.670   8.409   6.118
13079TIP3   OH239175   4.631   8.606   5.876
13079TIP3    H139176   4.574   8.662   5.819
13079TIP3    H239177   4.720   8.632   5.840
13080TIP3   OH239178   3.848   8.189   6.311
13080TIP3    H139179   3.784   8.117   6.331
13080TIP3    H239180   3.887   8.159   6.228
13081TIP3   OH239181   4.113   7.616   5.957
13081TIP3    H139182   4.062   7.695   5.932
13081TIP3    H239183   4.046   7.545   5.948
13082TIP3   OH239184   4.733   8.012   6.173
13082TIP3    H139185   4.724   7.917   6.193
13082TIP3    H239186   4.708   8.055   6.257
13083TIP3   OH239187   3.700   7.960   6.365
13083TIP3    H139188   3.699   7.866   6.339
13083TIP3    H239189   3.735   7.953   6.457
13084TIP3   OH239190   4.201   7.625   6.219
13084TIP3    H139191   4.271   7.557   6.216
13084TIP3    H239192   4.163   7.615   6.130
13085TIP3   OH239193   4.279   7.877   6.309
13085TIP3    H139194   4.258   7.782   6.302
13085TIP3    H239195   4.201   7.911   6.359
13086TIP3   OH239196   2.982   8.409   4.703
13086TIP3    H139197   3.061   8.453   4.667
13086TIP3    H239198   2.969   8.336   4.639
13087TIP3   OH239199   4.851   9.047   5.939
13087TIP3    H139200   4.773   9.016   5.990
13087TIP3    H239201   4.901   9.092   6.012
13088TIP3   OH239202   4.634   8.523   4.573
13088TIP3    H139203   4.705   8.582   4.540
13088TIP3    H239204   4.679   8.483   4.651
13089TIP3   OH239205   4.768   8.394   4.771
13089TIP3    H139206   4.706   8.352   4.834
13089TIP3    H239207   4.839   8.428   4.829
13090TIP3   OH239208   4.809   8.782   5.200
13090TIP3    H139209   4.874   8.726   5.152
13090TIP3    H239210   4.811   8.865   5.151
13091TIP3   OH239211   4.705   8.303   4.417
13091TIP3    H139212   4.636   8.309   4.347
13091TIP3    H239213   4.677   8.379   4.472
13092TIP3   OH239214   4.581   7.976   4.372
13092TIP3    H139215   4.533   8.018   4.299
13092TIP3    H239216   4.554   7.882   4.360
13093TIP3   OH239217   4.583   8.252   4.921
13093TIP3    H139218   4.593   8.156   4.911
13093TIP3    H239219   4.571   8.263   5.017
13094TIP3   OH239220   3.210   8.328   5.664
13094TIP3    H139221   3.206   8.297   5.571
13094TIP3    H239222   3.308   8.328   5.679
13095TIP3   OH239223   4.875   8.677   5.779
13095TIP3    H139224   4.950   8.614   5.770
13095TIP3    H239225   4.900   8.748   5.717
13096TIP3   OH239226   5.062   8.483   5.797
13096TIP3    H139227   4.986   8.433   5.834
13096TIP3    H239228   5.133   8.416   5.807
13097TIP3   OH239229   4.522   7.710   4.357
13097TIP3    H139230   4.596   7.679   4.413
13097TIP3    H239231   4.448   7.651   4.380
13098TIP3   OH239232   4.581   7.971   4.812
13098TIP3    H139233   4.621   7.882   4.826
13098TIP3    H239234   4.638   8.003   4.740
13099TIP3   OH239235   4.740   8.145   5.307
13099TIP3    H139236   4.826   8.169   5.265
13099TIP3    H239237   4.758   8.179   5.396
13100TIP3   OH239238   4.811   8.288   5.539
13100TIP3    H139239   4.734   8.326   5.586
13100TIP3    H239240   4.846   8.366   5.491
13101TIP3   OH239241   3.433   8.013   6.334
13101TIP3    H139242   3.530   8.006   6.342
13101TIP3    H239243   3.406   7.929   6.376
13102TIP3   OH239244   5.262   7.875   6.089
13102TIP3    H139245   5.323   7.810   6.047
13102TIP3    H239246   5.233   7.928   6.012
13103TIP3   OH239247   4.688   7.720   4.850
13103TIP3    H139248   4.739   7.703   4.932
13103TIP3    H239249   4.628   7.643   4.849
13104TIP3   OH239250   3.389   7.705   5.668
13104TIP3    H139251   3.451   7.630   5.678
13104TIP3    H239252   3.451   7.780   5.662
13105TIP3   OH239253   3.191   7.977   5.743
13105TIP3    H139254   3.240   7.976   5.658
13105TIP3    H239255   3.214   8.065   5.777
13106TIP3   OH239256   5.131   8.016   5.900
13106TIP3    H139257   5.046   8.057   5.928
13106TIP3    H239258   5.098   7.946   5.841
13107TIP3   OH239259   4.769   7.652   4.484
13107TIP3    H139260   4.810   7.582   4.429
13107TIP3    H239261   4.835   7.724   4.480
13108TIP3   OH239262   3.175   7.480   5.242
13108TIP3    H139263   3.082   7.478   5.270
13108TIP3    H239264   3.172   7.540   5.165
13109TIP3   OH239265   3.395   7.560   6.056
13109TIP3    H139266   3.346   7.558   6.140
13109TIP3    H239267   3.329   7.600   5.997
13110TIP3   OH239268   5.030   7.778   5.781
13110TIP3    H139269   4.941   7.766   5.744
13110TIP3    H239270   5.067   7.687   5.771
13111TIP3   OH239271   4.237   7.696   5.404
13111TIP3    H139272   4.193   7.624   5.452
13111TIP3    H239273   4.307   7.650   5.355
13112TIP3   OH239274   4.756   7.572   5.302
13112TIP3    H139275   4.797   7.624   5.230
13112TIP3    H239276   4.661   7.595   5.293
13113TIP3   OH239277   4.854   7.673   5.066
13113TIP3    H139278   4.930   7.622   5.032
13113TIP3    H239279   4.888   7.765   5.052
13114TIP3   OH239280   3.485   7.404   5.414
13114TIP3    H139281   3.392   7.372   5.416
13114TIP3    H239282   3.533   7.318   5.410
13115TIP3   OH239283   3.273   7.274   5.063
13115TIP3    H139284   3.302   7.331   4.989
13115TIP3    H239285   3.244   7.339   5.129
13116TIP3   OH239286   3.931   7.433   5.295
13116TIP3    H139287   3.987   7.484   5.234
13116TIP3    H239288   3.951   7.475   5.380
13117TIP3   OH239289   4.472   7.585   5.279
13117TIP3    H139290   4.470   7.549   5.190
13117TIP3    H239291   4.460   7.504   5.334
13118TIP3   OH239292   4.505   7.506   4.841
13118TIP3    H139293   4.419   7.550   4.853
13118TIP3    H239294   4.489   7.421   4.887
13119TIP3   OH239295   3.389   7.431   4.826
13119TIP3    H139296   3.438   7.370   4.768
13119TIP3    H239297   3.462   7.486   4.861
13120TIP3   OH239298   3.900   7.608   4.924
13120TIP3    H139299   3.961   7.562   4.984
13120TIP3    H239300   3.922   7.701   4.948
13121TIP3   OH239301   3.693   7.686   6.303
13121TIP3    H139302   3.655   7.617   6.360
13121TIP3    H239303   3.786   7.684   6.333
13122TIP3   OH239304   3.942   7.678   6.421
13122TIP3    H139305   4.030   7.653   6.388
13122TIP3    H239306   3.927   7.610   6.491
13123TIP3   OH239307   4.764   7.737   6.208
13123TIP3    H139308   4.783   7.712   6.301
13123TIP3    H239309   4.855   7.738   6.170
13124TIP3   OH239310   5.975   8.652   4.478
13124TIP3    H139311   5.940   8.740   4.452
13124TIP3    H239312   5.902   8.597   4.444
13125TIP3   OH239313   5.965   8.657   4.848
13125TIP3    H139314   5.998   8.635   4.938
13125TIP3    H239315   5.925   8.572   4.822
13126TIP3   OH239316   5.268   8.565   5.220
13126TIP3    H139317   5.301   8.496   5.281
13126TIP3    H239318   5.348   8.618   5.208
13127TIP3   OH239319   6.190   8.967   4.544
13127TIP3    H139320   6.187   8.892   4.607
13127TIP3    H239321   6.242   9.030   4.594
13128TIP3   OH239322   5.275   8.907   5.002
13128TIP3    H139323   5.252   8.818   4.972
13128TIP3    H239324   5.364   8.919   4.961
13129TIP3   OH239325   4.949   8.170   4.725
13129TIP3    H139326   4.906   8.257   4.741
13129TIP3    H239327   4.875   8.123   4.682
13130TIP3   OH239328   5.003   8.460   4.898
13130TIP3    H139329   5.054   8.383   4.932
13130TIP3    H239330   5.074   8.514   4.859
13131TIP3   OH239331   5.773   8.872   4.885
13131TIP3    H139332   5.816   8.792   4.850
13131TIP3    H239333   5.853   8.927   4.899
13132TIP3   OH239334   6.776   8.212   4.903
13132TIP3    H139335   6.796   8.294   4.950
13132TIP3    H239336   6.804   8.233   4.812
13133TIP3   OH239337   6.182   8.397   4.930
13133TIP3    H139338   6.226   8.312   4.951
13133TIP3    H239339   6.151   8.379   4.839
13134TIP3   OH239340   5.521   8.055   4.896
13134TIP3    H139341   5.501   8.127   4.834
13134TIP3    H239342   5.473   7.981   4.852
13135TIP3   OH239343   6.216   8.146   4.519
13135TIP3    H139344   6.287   8.130   4.585
13135TIP3    H239345   6.269   8.181   4.445
13136TIP3   OH239346   5.153   8.256   5.005
13136TIP3    H139347   5.236   8.237   5.052
13136TIP3    H239348   5.168   8.202   4.924
13137TIP3   OH239349   5.594   8.454   4.798
13137TIP3    H139350   5.688   8.429   4.811
13137TIP3    H239351   5.555   8.370   4.766
13138TIP3   OH239352   5.518   8.039   5.331
13138TIP3    H139353   5.458   8.077   5.263
13138TIP3    H239354   5.466   8.056   5.412
13139TIP3   OH239355   5.857   8.855   4.336
13139TIP3    H139356   5.807   8.850   4.254
13139TIP3    H239357   5.872   8.950   4.347
13140TIP3   OH239358   5.622   8.816   5.125
13140TIP3    H139359   5.565   8.886   5.165
13140TIP3    H239360   5.653   8.861   5.044
13141TIP3   OH239361   6.425   8.149   4.692
13141TIP3    H139362   6.411   8.102   4.775
13141TIP3    H239363   6.476   8.226   4.720
13142TIP3   OH239364   5.387   8.152   5.115
13142TIP3    H139365   5.448   8.226   5.139
13142TIP3    H239366   5.438   8.112   5.040
13143TIP3   OH239367   5.445   9.016   5.220
13143TIP3    H139368   5.426   9.044   5.129
13143TIP3    H239369   5.355   9.012   5.256
13144TIP3   OH239370   4.847   8.664   4.469
13144TIP3    H139371   4.812   8.677   4.378
13144TIP3    H239372   4.862   8.757   4.492
13145TIP3   OH239373   6.558   8.103   5.056
13145TIP3    H139374   6.476   8.134   5.012
13145TIP3    H239375   6.628   8.139   4.999
13146TIP3   OH239376   5.874   7.759   5.044
13146TIP3    H139377   5.863   7.663   5.065
13146TIP3    H239378   5.795   7.795   5.090
13147TIP3   OH239379   6.217   8.982   4.262
13147TIP3    H139380   6.182   8.901   4.220
13147TIP3    H239381   6.229   8.955   4.355
13148TIP3   OH239382   5.805   8.514   4.305
13148TIP3    H139383   5.724   8.566   4.287
13148TIP3    H239384   5.849   8.514   4.218
13149TIP3   OH239385   5.762   8.304   4.017
13149TIP3    H139386   5.829   8.356   4.065
13149TIP3    H239387   5.819   8.241   3.970
13150TIP3   OH239388   6.152   8.596   4.278
13150TIP3    H139389   6.097   8.616   4.357
13150TIP3    H239390   6.237   8.570   4.321
13151TIP3   OH239391   5.391   8.601   4.680
13151TIP3    H139392   5.347   8.540   4.616
13151TIP3    H239393   5.465   8.547   4.713
13152TIP3   OH239394   5.509   8.959   4.885
13152TIP3    H139395   5.481   8.942   4.793
13152TIP3    H239396   5.606   8.970   4.875
13153TIP3   OH239397   5.510   8.577   5.041
13153TIP3    H139398   5.549   8.552   4.955
13153TIP3    H239399   5.557   8.660   5.063
13154TIP3   OH239400   5.538   9.051   5.484
13154TIP3    H139401   5.606   9.118   5.465
13154TIP3    H239402   5.524   9.019   5.393
13155TIP3   OH239403   5.988   8.460   4.100
13155TIP3    H139404   6.048   8.520   4.151
13155TIP3    H239405   6.018   8.478   4.007
13156TIP3   OH239406   5.410   8.674   5.468
13156TIP3    H139407   5.416   8.749   5.531
13156TIP3    H239408   5.314   8.656   5.472
13157TIP3   OH239409   6.507   7.701   4.148
13157TIP3    H139410   6.425   7.721   4.197
13157TIP3    H239411   6.520   7.784   4.097
13158TIP3   OH239412   5.251   8.441   4.494
13158TIP3    H139413   5.185   8.485   4.435
13158TIP3    H239414   5.210   8.356   4.510
13159TIP3   OH239415   5.046   8.828   5.402
13159TIP3    H139416   4.979   8.808   5.334
13159TIP3    H239417   5.078   8.740   5.429
13160TIP3   OH239418   5.229   9.029   5.418
13160TIP3    H139419   5.294   8.974   5.464
13160TIP3    H239420   5.158   8.964   5.402
13161TIP3   OH239421   5.633   7.832   5.174
13161TIP3    H139422   5.544   7.796   5.150
13161TIP3    H239423   5.605   7.913   5.221
13162TIP3   OH239424   6.164   7.948   5.372
13162TIP3    H139425   6.223   7.917   5.442
13162TIP3    H239426   6.075   7.930   5.409
13163TIP3   OH239427   6.070   8.491   3.845
13163TIP3    H139428   6.036   8.471   3.756
13163TIP3    H239429   6.129   8.565   3.825
13164TIP3   OH239430   5.778   7.882   4.146
13164TIP3    H139431   5.745   7.878   4.238
13164TIP3    H239432   5.741   7.799   4.111
13165TIP3   OH239433   5.562   8.351   5.188
13165TIP3    H139434   5.521   8.375   5.273
13165TIP3    H239435   5.548   8.433   5.137
13166TIP3   OH239436   5.450   8.235   4.707
13166TIP3    H139437   5.357   8.209   4.725
13166TIP3    H239438   5.462   8.194   4.618
13167TIP3   OH239439   5.942   8.317   4.436
13167TIP3    H139440   5.889   8.388   4.392
13167TIP3    H239441   5.997   8.285   4.361
13168TIP3   OH239442   6.096   8.347   4.674
13168TIP3    H139443   6.035   8.377   4.602
13168TIP3    H239444   6.131   8.267   4.630
13169TIP3   OH239445   5.381   8.377   5.402
13169TIP3    H139446   5.427   8.439   5.460
13169TIP3    H239447   5.375   8.296   5.456
13170TIP3   OH239448   5.434   7.855   4.111
13170TIP3    H139449   5.426   7.854   4.208
13170TIP3    H239450   5.356   7.909   4.087
13171TIP3   OH239451   4.978   7.898   4.985
13171TIP3    H139452   5.053   7.930   5.039
13171TIP3    H239453   5.020   7.871   4.902
13172TIP3   OH239454   4.948   7.880   4.502
13172TIP3    H139455   4.994   7.917   4.424
13172TIP3    H239456   4.888   7.954   4.522
13173TIP3   OH239457   6.077   8.587   5.093
13173TIP3    H139458   6.127   8.523   5.038
13173TIP3    H239459   6.053   8.529   5.169
13174TIP3   OH239460   5.778   8.058   4.768
13174TIP3    H139461   5.697   8.055   4.822
13174TIP3    H239462   5.847   8.053   4.836
13175TIP3   OH239463   5.211   8.113   4.777
13175TIP3    H139464   5.117   8.120   4.749
13175TIP3    H239465   5.235   8.022   4.752
13176TIP3   OH239466   5.479   8.108   4.466
13176TIP3    H139467   5.573   8.123   4.445
13176TIP3    H239468   5.433   8.130   4.382
13177TIP3   OH239469   6.268   8.133   4.964
13177TIP3    H139470   6.240   8.145   5.058
13177TIP3    H239471   6.200   8.072   4.932
13178TIP3   OH239472   5.324   8.143   4.243
13178TIP3    H139473   5.252   8.098   4.194
13178TIP3    H239474   5.376   8.180   4.169
13179TIP3   OH239475   5.397   8.887   5.635
13179TIP3    H139476   5.453   8.957   5.593
13179TIP3    H239477   5.343   8.935   5.699
13180TIP3   OH239478   5.859   8.385   4.864
13180TIP3    H139479   5.933   8.345   4.815
13180TIP3    H239480   5.866   8.342   4.951
13181TIP3   OH239481   5.381   7.874   4.744
13181TIP3    H139482   5.348   7.795   4.793
13181TIP3    H239483   5.435   7.833   4.675
13182TIP3   OH239484   5.831   8.277   5.151
13182TIP3    H139485   5.744   8.317   5.166
13182TIP3    H239486   5.891   8.334   5.203
13183TIP3   OH239487   5.575   8.659   4.257
13183TIP3    H139488   5.497   8.600   4.244
13183TIP3    H239489   5.551   8.703   4.342
13184TIP3   OH239490   6.031   7.984   4.115
13184TIP3    H139491   5.934   7.966   4.122
13184TIP3    H239492   6.039   8.078   4.139
13185TIP3   OH239493   6.100   8.232   4.217
13185TIP3    H139494   6.197   8.238   4.233
13185TIP3    H239495   6.083   8.313   4.165
13186TIP3   OH239496   5.243   8.641   4.912
13186TIP3    H139497   5.297   8.638   4.830
13186TIP3    H239498   5.306   8.608   4.978
13187TIP3   OH239499   5.684   8.843   4.089
13187TIP3    H139500   5.644   8.913   4.146
13187TIP3    H239501   5.649   8.763   4.136
13188TIP3   OH239502   5.144   8.611   5.543
13188TIP3    H139503   5.162   8.592   5.637
13188TIP3    H239504   5.078   8.543   5.521
13189TIP3   OH239505   6.542   8.324   4.051
13189TIP3    H139506   6.480   8.279   3.988
13189TIP3    H239507   6.536   8.414   4.012
13190TIP3   OH239508   6.208   8.779   4.776
13190TIP3    H139509   6.123   8.733   4.791
13190TIP3    H239510   6.266   8.704   4.754
13191TIP3   OH239511   4.932   8.301   4.257
13191TIP3    H139512   4.977   8.386   4.275
13191TIP3    H239513   4.854   8.308   4.315
13192TIP3   OH239514   5.504   8.778   4.495
13192TIP3    H139515   5.462   8.857   4.531
13192TIP3    H239516   5.478   8.714   4.564
13193TIP3   OH239517   6.021   8.956   4.948
13193TIP3    H139518   6.015   8.931   5.041
13193TIP3    H239519   6.099   8.907   4.916
13194TIP3   OH239520   6.031   8.805   3.832
13194TIP3    H139521   6.063   8.794   3.925
13194TIP3    H239522   5.949   8.857   3.846
13195TIP3   OH239523   5.357   8.120   5.546
13195TIP3    H139524   5.261   8.119   5.557
13195TIP3    H239525   5.385   8.058   5.615
13196TIP3   OH239526   6.155   8.779   4.079
13196TIP3    H139527   6.152   8.709   4.147
13196TIP3    H239528   6.252   8.784   4.062
13197TIP3   OH239529   5.353   8.804   3.907
13197TIP3    H139530   5.387   8.715   3.883
13197TIP3    H239531   5.374   8.809   4.000
13198TIP3   OH239532   5.053   8.544   4.334
13198TIP3    H139533   4.985   8.580   4.395
13198TIP3    H239534   5.057   8.617   4.268
13199TIP3   OH239535   6.204   8.180   5.225
13199TIP3    H139536   6.255   8.234   5.288
13199TIP3    H239537   6.181   8.102   5.279
13200TIP3   OH239538   6.075   7.935   4.396
13200TIP3    H139539   6.062   7.957   4.302
13200TIP3    H239540   6.114   8.018   4.431
13201TIP3   OH239541   5.762   8.116   4.497
13201TIP3    H139542   5.828   8.188   4.480
13201TIP3    H239543   5.768   8.108   4.595
13202TIP3   OH239544   6.009   8.423   5.303
13202TIP3    H139545   5.992   8.451   5.395
13202TIP3    H239546   6.094   8.379   5.316
13203TIP3   OH239547   5.907   7.841   4.598
13203TIP3    H139548   5.903   7.917   4.658
13203TIP3    H239549   5.968   7.876   4.529
13204TIP3   OH239550   5.419   7.842   4.387
13204TIP3    H139551   5.417   7.932   4.425
13204TIP3    H239552   5.515   7.823   4.396
13205TIP3   OH239553   6.324   8.528   4.671
13205TIP3    H139554   6.247   8.470   4.687
13205TIP3    H239555   6.395   8.483   4.722
13206TIP3   OH239556   5.043   8.759   4.151
13206TIP3    H139557   5.067   8.853   4.139
13206TIP3    H239558   5.097   8.715   4.082
13207TIP3   OH239559   4.980   8.032   4.277
13207TIP3    H139560   4.982   8.129   4.275
13207TIP3    H239561   4.897   8.013   4.231
13208TIP3   OH239562   5.370   7.737   5.151
13208TIP3    H139563   5.338   7.715   5.062
13208TIP3    H239564   5.359   7.649   5.193
13209TIP3   OH239565   5.184   8.889   5.814
13209TIP3    H139566   5.218   8.803   5.783
13209TIP3    H239567   5.101   8.897   5.762
13210TIP3   OH239568   5.170   8.565   3.999
13210TIP3    H139569   5.219   8.528   4.075
13210TIP3    H239570   5.241   8.566   3.932
13211TIP3   OH239571   5.628   8.743   3.810
13211TIP3    H139572   5.656   8.760   3.901
13211TIP3    H239573   5.656   8.651   3.796
13212TIP3   OH239574   5.312   8.643   5.793
13212TIP3    H139575   5.388   8.592   5.763
13212TIP3    H239576   5.318   8.634   5.889
13213TIP3   OH239577   5.373   8.472   4.214
13213TIP3    H139578   5.348   8.430   4.298
13213TIP3    H239579   5.414   8.398   4.165
13214TIP3   OH239580   5.642   8.526   5.436
13214TIP3    H139581   5.573   8.595   5.440
13214TIP3    H239582   5.707   8.569   5.375
13215TIP3   OH239583   5.482   8.268   4.059
13215TIP3    H139584   5.457   8.269   3.964
13215TIP3    H239585   5.580   8.272   4.052
13216TIP3   OH239586   6.304   8.609   3.715
13216TIP3    H139587   6.279   8.555   3.638
13216TIP3    H239588   6.279   8.698   3.681
13217TIP3   OH239589   5.755   8.321   5.574
13217TIP3    H139590   5.765   8.245   5.513
13217TIP3    H239591   5.718   8.389   5.513
13218TIP3   OH239592   5.776   8.114   5.379
13218TIP3    H139593   5.803   8.155   5.295
13218TIP3    H239594   5.682   8.090   5.360
13219TIP3   OH239595   5.797   8.645   5.247
13219TIP3    H139596   5.878   8.650   5.195
13219TIP3    H239597   5.741   8.715   5.207
13220TIP3   OH239598   5.642   8.439   5.796
13220TIP3    H139599   5.572   8.372   5.813
13220TIP3    H239600   5.675   8.409   5.709
13221TIP3   OH239601   5.907   7.878   5.444
13221TIP3    H139602   5.856   7.959   5.422
13221TIP3    H239603   5.839   7.808   5.432
13222TIP3   OH239604   6.029   8.377   5.599
13222TIP3    H139605   6.057   8.395   5.689
13222TIP3    H239606   5.934   8.355   5.610
13223TIP3   OH239607   5.490   8.214   5.843
13223TIP3    H139608   5.491   8.121   5.814
13223TIP3    H239609   5.515   8.204   5.937
13224TIP3   OH239610   5.999   7.876   5.702
13224TIP3    H139611   6.068   7.808   5.691
13224TIP3    H239612   5.960   7.877   5.612
13225TIP3   OH239613   6.030   8.080   5.883
13225TIP3    H139614   6.022   8.011   5.814
13225TIP3    H239615   5.966   8.147   5.854
13226TIP3   OH239616   4.779   8.666   4.190
13226TIP3    H139617   4.860   8.708   4.154
13226TIP3    H239618   4.764   8.594   4.126
13227TIP3   OH239619   6.429   8.779   4.059
13227TIP3    H139620   6.500   8.839   4.030
13227TIP3    H239621   6.472   8.739   4.138
13228TIP3   OH239622   6.561   8.650   4.257
13228TIP3    H139623   6.501   8.608   4.322
13228TIP3    H239624   6.633   8.686   4.314
13229TIP3   OH239625   6.499   8.560   3.903
13229TIP3    H139626   6.427   8.567   3.836
13229TIP3    H239627   6.473   8.635   3.961
13230TIP3   OH239628   6.378   8.234   3.855
13230TIP3    H139629   6.326   8.270   3.782
13230TIP3    H239630   6.353   8.139   3.850
13231TIP3   OH239631   6.379   8.507   4.405
13231TIP3    H139632   6.388   8.411   4.398
13231TIP3    H239633   6.365   8.520   4.502
13232TIP3   OH239634   5.005   8.586   5.152
13232TIP3    H139635   5.004   8.553   5.060
13232TIP3    H239636   5.102   8.587   5.169
13233TIP3   OH239637   6.317   7.970   3.846
13233TIP3    H139638   6.391   7.935   3.900
13233TIP3    H239639   6.244   7.908   3.866
13234TIP3   OH239640   6.376   8.226   4.298
13234TIP3    H139641   6.416   8.137   4.314
13234TIP3    H239642   6.435   8.257   4.227
13235TIP3   OH239643   6.537   8.402   4.793
13235TIP3    H139644   6.622   8.429   4.752
13235TIP3    H239645   6.553   8.440   4.882
13236TIP3   OH239646   5.220   8.265   5.819
13236TIP3    H139647   5.318   8.267   5.825
13236TIP3    H239648   5.201   8.179   5.861
13237TIP3   OH239649   6.485   7.976   4.336
13237TIP3    H139650   6.533   7.960   4.420
13237TIP3    H239651   6.424   7.899   4.335
13238TIP3   OH239652   5.186   7.957   5.160
13238TIP3    H139653   5.245   7.881   5.172
13238TIP3    H239654   5.250   8.030   5.150
13239TIP3   OH239655   4.985   8.237   5.227
13239TIP3    H139656   5.036   8.228   5.144
13239TIP3    H239657   5.019   8.320   5.261
13240TIP3   OH239658   6.565   7.909   3.969
13240TIP3    H139659   6.603   7.837   3.915
13240TIP3    H239660   6.634   7.978   3.963
13241TIP3   OH239661   4.970   7.735   4.729
13241TIP3    H139662   4.876   7.735   4.756
13241TIP3    H239663   4.969   7.796   4.652
13242TIP3   OH239664   5.197   7.833   5.552
13242TIP3    H139665   5.140   7.815   5.629
13242TIP3    H239666   5.130   7.852   5.484
13243TIP3   OH239667   6.818   8.019   5.241
13243TIP3    H139668   6.726   7.990   5.238
13243TIP3    H239669   6.865   7.933   5.252
13244TIP3   OH239670   6.031   7.951   4.883
13244TIP3    H139671   5.988   7.880   4.936
13244TIP3    H239672   6.105   7.903   4.842
13245TIP3   OH239673   6.556   7.827   4.787
13245TIP3    H139674   6.593   7.882   4.714
13245TIP3    H239675   6.461   7.850   4.784
13246TIP3   OH239676   6.651   7.933   4.553
13246TIP3    H139677   6.725   7.882   4.514
13246TIP3    H239678   6.684   8.025   4.539
13247TIP3   OH239679   5.285   7.660   4.895
13247TIP3    H139680   5.195   7.625   4.909
13247TIP3    H239681   5.338   7.578   4.895
13248TIP3   OH239682   5.068   7.530   4.549
13248TIP3    H139683   5.098   7.587   4.476
13248TIP3    H239684   5.040   7.596   4.615
13249TIP3   OH239685   5.724   7.693   4.781
13249TIP3    H139686   5.783   7.743   4.722
13249TIP3    H239687   5.750   7.727   4.868
13250TIP3   OH239688   6.270   7.841   4.765
13250TIP3    H139689   6.271   7.803   4.677
13250TIP3    H239690   6.258   7.761   4.821
13251TIP3   OH239691   6.302   7.763   4.328
13251TIP3    H139692   6.214   7.805   4.340
13251TIP3    H239693   6.287   7.677   4.374
13252TIP3   OH239694   5.186   7.687   4.313
13252TIP3    H139695   5.235   7.626   4.255
13252TIP3    H239696   5.259   7.743   4.348
13253TIP3   OH239697   5.697   7.865   4.411
13253TIP3    H139698   5.757   7.818   4.471
13253TIP3    H239699   5.719   7.958   4.436
13254TIP3   OH239700   5.487   7.942   5.797
13254TIP3    H139701   5.453   7.866   5.847
13254TIP3    H239702   5.582   7.940   5.822
13255TIP3   OH239703   5.737   7.945   5.919
13255TIP3    H139704   5.823   7.925   5.879
13255TIP3    H239705   5.725   7.869   5.980
13256TIP3   OH239706   6.742   8.430   4.210
13256TIP3    H139707   6.698   8.515   4.229
13256TIP3    H239708   6.668   8.380   4.170
13257TIP3   OH239709   6.801   8.710   4.371
13257TIP3    H139710   6.850   8.647   4.428
13257TIP3    H239711   6.873   8.751   4.322
13258TIP3   OH239712   7.300   8.312   4.396
13258TIP3    H139713   7.287   8.385   4.333
13258TIP3    H239714   7.258   8.239   4.348
13259TIP3   OH239715   6.955   8.514   4.496
13259TIP3    H139716   7.048   8.511   4.519
13259TIP3    H239717   6.954   8.453   4.419
13260TIP3   OH239718   6.646   8.923   3.971
13260TIP3    H139719   6.621   8.951   3.881
13260TIP3    H239720   6.684   9.005   4.004
13261TIP3   OH239721   7.020   8.679   3.920
13261TIP3    H139722   7.017   8.768   3.959
13261TIP3    H239723   6.990   8.625   3.994
13262TIP3   OH239724   7.228   8.474   4.179
13262TIP3    H139725   7.142   8.447   4.218
13262TIP3    H239726   7.199   8.507   4.093
13263TIP3   OH239727   7.219   8.085   3.595
13263TIP3    H139728   7.212   8.083   3.693
13263TIP3    H239729   7.136   8.129   3.571
13264TIP3   OH239730   6.775   8.157   4.469
13264TIP3    H139731   6.852   8.189   4.520
13264TIP3    H239732   6.814   8.122   4.387
13265TIP3   OH239733   6.747   8.137   3.986
13265TIP3    H139734   6.794   8.173   3.909
13265TIP3    H239735   6.686   8.212   4.006
13266TIP3   OH239736   6.998   8.364   4.270
13266TIP3    H139737   6.903   8.372   4.241
13266TIP3    H239738   7.020   8.272   4.248
13267TIP3   OH239739   7.077   8.378   3.761
13267TIP3    H139740   7.001   8.337   3.715
13267TIP3    H239741   7.076   8.468   3.726
13268TIP3   OH239742   7.177   8.127   4.226
13268TIP3    H139743   7.140   8.053   4.279
13268TIP3    H239744   7.236   8.080   4.166
13269TIP3   OH239745   6.720   8.552   3.744
13269TIP3    H139746   6.761   8.636   3.767
13269TIP3    H239747   6.640   8.555   3.802
13270TIP3   OH239748   7.190   8.092   3.870
13270TIP3    H139749   7.172   8.182   3.899
13270TIP3    H239750   7.282   8.079   3.900
13271TIP3   OH239751   6.774   8.286   3.751
13271TIP3    H139752   6.764   8.383   3.758
13271TIP3    H239753   6.686   8.258   3.724
13272TIP3   OH239754   7.144   8.012   4.642
13272TIP3    H139755   7.137   7.974   4.552
13272TIP3    H239756   7.155   7.933   4.698
13273TIP3   OH239757   6.553   8.932   3.651
13273TIP3    H139758   6.641   8.966   3.630
13273TIP3    H239759   6.549   8.851   3.596
13274TIP3   OH239760   6.981   8.227   4.640
13274TIP3    H139761   7.035   8.144   4.644
13274TIP3    H239762   7.048   8.291   4.664
13275TIP3   OH239763   6.788   8.502   4.723
13275TIP3    H139764   6.835   8.477   4.641
13275TIP3    H239765   6.816   8.593   4.732
13276TIP3   OH239766   6.767   7.999   4.218
13276TIP3    H139767   6.674   7.992   4.243
13276TIP3    H239768   6.763   8.056   4.138
13277TIP3   OH239769   6.985   8.070   5.034
13277TIP3    H139770   6.927   8.067   5.113
13277TIP3    H239771   6.923   8.110   4.971
13278TIP3   OH239772   7.079   7.918   4.381
13278TIP3    H139773   6.987   7.887   4.388
13278TIP3    H239774   7.127   7.832   4.379
13279TIP3   OH239775   6.866   7.787   4.038
13279TIP3    H139776   6.893   7.843   3.963
13279TIP3    H239777   6.839   7.853   4.104
13280TIP3   OH239778   7.513   7.943   4.288
13280TIP3    H139779   7.591   7.994   4.262
13280TIP3    H239780   7.487   7.984   4.371
13281TIP3   OH239781   6.971   7.939   3.795
13281TIP3    H139782   7.020   7.876   3.739
13281TIP3    H239783   7.045   7.993   3.831
13282TIP3   OH239784   7.458   8.109   3.931
13282TIP3    H139785   7.502   8.036   3.884
13282TIP3    H239786   7.497   8.185   3.885
13283TIP3   OH239787   4.612   1.749   7.934
13283TIP3    H139788   4.625   1.843   7.916
13283TIP3    H239789   4.704   1.713   7.923
13284TIP3   OH239790   4.185   1.979   8.056
13284TIP3    H139791   4.210   1.892   8.028
13284TIP3    H239792   4.258   2.025   8.087
13285TIP3   OH239793   4.369   1.233   8.094
13285TIP3    H139794   4.332   1.195   8.012
13285TIP3    H239795   4.463   1.241   8.068
13286TIP3   OH239796   4.493   1.774   8.170
13286TIP3    H139797   4.566   1.749   8.226
13286TIP3    H239798   4.537   1.770   8.081
13287TIP3   OH239799   4.624   2.024   7.923
13287TIP3    H139800   4.673   2.101   7.884
13287TIP3    H239801   4.535   2.062   7.924
13288TIP3   OH239802   3.815   1.719   7.985
13288TIP3    H139803   3.817   1.665   8.064
13288TIP3    H239804   3.902   1.698   7.946
13289TIP3   OH239805   4.280   1.739   7.935
13289TIP3    H139806   4.353   1.740   7.998
13289TIP3    H239807   4.326   1.734   7.849
13290TIP3   OH239808   4.607   1.275   7.967
13290TIP3    H139809   4.591   1.216   7.891
13290TIP3    H239810   4.575   1.360   7.929
13291TIP3   OH239811   4.823   1.317   8.133
13291TIP3    H139812   4.744   1.287   8.082
13291TIP3    H239813   4.803   1.283   8.222
13292TIP3   OH239814   4.578   2.137   8.204
13292TIP3    H139815   4.630   2.079   8.151
13292TIP3    H239816   4.616   2.225   8.178
13293TIP3   OH239817   6.052   1.613   8.225
13293TIP3    H139818   6.027   1.701   8.189
13293TIP3    H239819   5.990   1.557   8.174
13294TIP3   OH239820   6.273   1.872   8.269
13294TIP3    H139821   6.206   1.833   8.327
13294TIP3    H239822   6.290   1.960   8.310
13295TIP3   OH239823   5.952   2.355   8.270
13295TIP3    H139824   6.012   2.283   8.241
13295TIP3    H239825   5.953   2.347   8.366
13296TIP3   OH239826   5.968   1.825   8.074
13296TIP3    H139827   5.919   1.801   7.994
13296TIP3    H239828   5.922   1.908   8.099
13297TIP3   OH239829   4.941   1.643   8.179
13297TIP3    H139830   4.892   1.631   8.096
13297TIP3    H239831   4.956   1.739   8.183
13298TIP3   OH239832   6.353   2.110   8.376
13298TIP3    H139833   6.277   2.124   8.437
13298TIP3    H239834   6.375   2.203   8.355
13299TIP3   OH239835   6.102   2.184   8.122
13299TIP3    H139836   6.148   2.104   8.089
13299TIP3    H239837   6.156   2.253   8.078
13300TIP3   OH239838   6.232   1.969   8.013
13300TIP3    H139839   6.180   1.902   7.967
13300TIP3    H239840   6.245   1.925   8.100
13301TIP3   OH239841   5.906   1.480   8.032
13301TIP3    H139842   5.819   1.521   8.015
13301TIP3    H239843   5.939   1.466   7.942
13302TIP3   OH239844   5.861   1.232   7.763
13302TIP3    H139845   5.933   1.285   7.802
13302TIP3    H239846   5.913   1.172   7.706
13303TIP3   OH239847   6.234   1.555   8.017
13303TIP3    H139848   6.169   1.590   8.082
13303TIP3    H239849   6.287   1.503   8.081
13304TIP3   OH239850   6.134   2.148   8.548
13304TIP3    H139851   6.196   2.214   8.586
13304TIP3    H239852   6.150   2.071   8.605
13305TIP3   OH239853   6.090   1.397   7.835
13305TIP3    H139854   6.144   1.463   7.884
13305TIP3    H239855   6.116   1.419   7.741
13306TIP3   OH239856   5.837   2.066   8.111
13306TIP3    H139857   5.905   2.127   8.144
13306TIP3    H239858   5.772   2.127   8.073
13307TIP3   OH239859   5.365   1.353   8.192
13307TIP3    H139860   5.288   1.402   8.157
13307TIP3    H239861   5.325   1.295   8.258
13308TIP3   OH239862   6.406   1.999   7.441
13308TIP3    H139863   6.414   2.095   7.423
13308TIP3    H239864   6.499   1.970   7.428
13309TIP3   OH239865   5.718   2.318   7.918
13309TIP3    H139866   5.666   2.297   7.838
13309TIP3    H239867   5.684   2.405   7.944
13310TIP3   OH239868   5.129   2.158   8.285
13310TIP3    H139869   5.168   2.080   8.327
13310TIP3    H239870   5.081   2.113   8.212
13311TIP3   OH239871   5.915   2.218   7.559
13311TIP3    H139872   5.974   2.149   7.522
13311TIP3    H239873   5.949   2.227   7.650
13312TIP3   OH239874   5.968   2.264   7.829
13312TIP3    H139875   5.878   2.277   7.868
13312TIP3    H239876   6.015   2.223   7.903
13313TIP3   OH239877   6.168   1.445   7.584
13313TIP3    H139878   6.130   1.412   7.500
13313TIP3    H239879   6.252   1.483   7.552
13314TIP3   OH239880   6.003   1.254   8.150
13314TIP3    H139881   5.968   1.339   8.115
13314TIP3    H239882   6.072   1.232   8.084
13315TIP3   OH239883   5.560   1.053   8.212
13315TIP3    H139884   5.649   1.036   8.175
13315TIP3    H239885   5.504   1.056   8.132
13316TIP3   OH239886   5.408   1.053   7.981
13316TIP3    H139887   5.346   1.028   7.910
13316TIP3    H239888   5.472   1.102   7.925
13317TIP3   OH239889   5.665   1.601   7.979
13317TIP3    H139890   5.595   1.534   7.964
13317TIP3    H239891   5.638   1.638   8.066
13318TIP3   OH239892   6.109   0.962   7.793
13318TIP3    H139893   6.046   0.904   7.841
13318TIP3    H239894   6.117   1.035   7.858
13319TIP3   OH239895   6.172   1.168   7.953
13319TIP3    H139896   6.266   1.150   7.941
13319TIP3    H239897   6.158   1.251   7.902
13320TIP3   OH239898   5.824   1.751   7.816
13320TIP3    H139899   5.777   1.838   7.818
13320TIP3    H239900   5.763   1.696   7.870
13321TIP3   OH239901   6.354   2.068   7.708
13321TIP3    H139902   6.308   2.002   7.761
13321TIP3    H239903   6.358   2.026   7.619
13322TIP3   OH239904   5.436   1.932   8.269
13322TIP3    H139905   5.485   2.015   8.252
13322TIP3    H239906   5.361   1.947   8.210
13323TIP3   OH239907   5.040   1.235   7.991
13323TIP3    H139908   5.094   1.313   8.015
13323TIP3    H239909   4.959   1.257   8.044
13324TIP3   OH239910   5.595   1.709   8.213
13324TIP3    H139911   5.551   1.791   8.242
13324TIP3    H239912   5.643   1.682   8.294
13325TIP3   OH239913   5.388   2.182   8.155
13325TIP3    H139914   5.292   2.191   8.154
13325TIP3    H239915   5.417   2.276   8.151
13326TIP3   OH239916   6.093   1.804   7.599
13326TIP3    H139917   6.145   1.777   7.678
13326TIP3    H239918   6.005   1.774   7.626
13327TIP3   OH239919   6.438   2.274   7.423
13327TIP3    H139920   6.474   2.345   7.368
13327TIP3    H239921   6.358   2.319   7.457
13328TIP3   OH239922   6.247   1.741   7.815
13328TIP3    H139923   6.237   1.676   7.888
13328TIP3    H239924   6.345   1.743   7.808
13329TIP3   OH239925   5.459   1.775   7.592
13329TIP3    H139926   5.486   1.683   7.574
13329TIP3    H239927   5.444   1.770   7.690
13330TIP3   OH239928   5.416   1.783   7.864
13330TIP3    H139929   5.472   1.751   7.936
13330TIP3    H239930   5.414   1.880   7.882
13331TIP3   OH239931   5.145   1.481   8.086
13331TIP3    H139932   5.072   1.522   8.137
13331TIP3    H239933   5.153   1.545   8.013
13332TIP3   OH239934   5.688   1.984   7.822
13332TIP3    H139935   5.601   2.005   7.860
13332TIP3    H239936   5.698   2.059   7.762
13333TIP3   OH239937   5.838   1.028   8.166
13333TIP3    H139938   5.893   1.107   8.150
13333TIP3    H239939   5.846   1.021   8.262
13334TIP3   OH239940   5.430   2.059   7.884
13334TIP3    H139941   5.402   2.132   7.824
13334TIP3    H239942   5.372   2.075   7.960
13335TIP3   OH239943   5.126   1.682   7.885
13335TIP3    H139944   5.155   1.772   7.911
13335TIP3    H239945   5.201   1.651   7.830
13336TIP3   OH239946   5.066   0.950   7.954
13336TIP3    H139947   5.069   1.045   7.979
13336TIP3    H239948   5.008   0.915   8.022
13337TIP3   OH239949   6.421   2.379   8.324
13337TIP3    H139950   6.357   2.434   8.273
13337TIP3    H239951   6.489   2.447   8.340
13338TIP3   OH239952   5.015   1.895   8.264
13338TIP3    H139953   4.931   1.943   8.251
13338TIP3    H239954   5.056   1.910   8.176
13339TIP3   OH239955   5.626   1.982   7.517
13339TIP3    H139956   5.571   1.908   7.553
13339TIP3    H239957   5.703   1.931   7.484
13340TIP3   OH239958   6.064   2.027   7.429
13340TIP3    H139959   6.103   1.957   7.485
13340TIP3    H239960   6.119   2.022   7.348
13341TIP3   OH239961   5.280   1.497   7.732
13341TIP3    H139962   5.331   1.462   7.808
13341TIP3    H239963   5.351   1.497   7.664
13342TIP3   OH239964   5.780   1.702   7.548
13342TIP3    H139965   5.786   1.711   7.645
13342TIP3    H239966   5.784   1.604   7.539
13343TIP3   OH239967   5.475   1.408   7.948
13343TIP3    H139968   5.449   1.379   8.038
13343TIP3    H239969   5.512   1.326   7.910
13344TIP3   OH239970   5.578   1.194   7.807
13344TIP3    H139971   5.551   1.197   7.713
13344TIP3    H239972   5.676   1.197   7.799
13345TIP3   OH239973   6.399   1.526   7.459
13345TIP3    H139974   6.379   1.481   7.375
13345TIP3    H239975   6.366   1.616   7.437
13346TIP3   OH239976   5.385   2.256   7.692
13346TIP3    H139977   5.482   2.251   7.681
13346TIP3    H239978   5.363   2.314   7.617
13347TIP3   OH239979   4.861   1.639   7.908
13347TIP3    H139980   4.957   1.655   7.900
13347TIP3    H239981   4.855   1.547   7.872
13348TIP3   OH239982   6.225   3.637   0.258
13348TIP3    H139983   6.191   3.701   0.198
13348TIP3    H239984   6.316   3.670   0.270
13349TIP3   OH239985   6.644   2.556   8.312
13349TIP3    H139986   6.652   2.620   8.386
13349TIP3    H239987   6.638   2.619   8.239
13350TIP3   OH239988   6.520   1.731   7.804
13350TIP3    H139989   6.582   1.789   7.755
13350TIP3    H239990   6.571   1.649   7.814
13351TIP3   OH239991   6.589   1.520   7.647
13351TIP3    H139992   6.533   1.480   7.578
13351TIP3    H239993   6.532   1.597   7.664
13352TIP3   OH239994   6.415   1.165   7.602
13352TIP3    H139995   6.441   1.225   7.532
13352TIP3    H239996   6.432   1.078   7.563
13353TIP3   OH239997   6.232   2.371   7.978
13353TIP3    H139998   6.283   2.362   7.895
13353TIP3    H239999   6.280   2.442   8.024
13354TIP3   OH240000   5.884   2.489   8.513
13354TIP3    H140001   5.793   2.481   8.482
13354TIP3    H240002   5.875   2.490   8.609
13355TIP3   OH240003   6.110   2.449   8.661
13355TIP3    H140004   6.060   2.462   8.578
13355TIP3    H240005   6.193   2.491   8.632
13356TIP3   OH240006   6.266   2.613   8.504
13356TIP3    H140007   6.287   2.708   8.500
13356TIP3    H240008   6.353   2.573   8.507
13357TIP3   OH240009   4.829   2.026   8.113
13357TIP3    H140010   4.777   1.992   8.040
13357TIP3    H240011   4.902   2.069   8.065
13358TIP3   OH240012   5.654   2.219   7.652
13358TIP3    H140013   5.743   2.243   7.617
13358TIP3    H240014   5.634   2.143   7.593
13359TIP3   OH240015   6.376   2.338   7.746
13359TIP3    H140016   6.371   2.240   7.735
13359TIP3    H240017   6.330   2.368   7.665
13360TIP3   OH240018   4.963   2.052   7.715
13360TIP3    H140019   4.957   2.089   7.805
13360TIP3    H240020   5.045   2.001   7.726
13361TIP3   OH240021   6.724   1.883   7.711
13361TIP3    H140022   6.693   1.905   7.620
13361TIP3    H240023   6.743   1.973   7.746
13362TIP3   OH240024   7.490   2.593   7.397
13362TIP3    H140025   7.456   2.553   7.315
13362TIP3    H240026   7.443   2.678   7.401
13363TIP3   OH240027   6.905   2.435   7.745
13363TIP3    H140028   6.973   2.427   7.814
13363TIP3    H240029   6.845   2.363   7.770
13364TIP3   OH240030   7.692   2.460   7.019
13364TIP3    H140031   7.728   2.376   6.982
13364TIP3    H240032   7.760   2.480   7.087
13365TIP3   OH240033   6.803   1.492   7.480
13365TIP3    H140034   6.848   1.577   7.494
13365TIP3    H240035   6.730   1.499   7.546
13366TIP3   OH240036   7.183   2.438   7.615
13366TIP3    H140037   7.096   2.426   7.658
13366TIP3    H240038   7.194   2.535   7.621
13367TIP3   OH240039   7.265   2.033   7.069
13367TIP3    H140040   7.274   1.939   7.046
13367TIP3    H240041   7.242   2.027   7.164
13368TIP3   OH240042   7.199   2.051   7.332
13368TIP3    H140043   7.230   2.018   7.418
13368TIP3    H240044   7.206   2.148   7.347
13369TIP3   OH240045   6.908   1.741   7.565
13369TIP3    H140046   6.855   1.805   7.617
13369TIP3    H240047   6.940   1.798   7.493
13370TIP3   OH240048   7.474   2.242   7.306
13370TIP3    H140049   7.389   2.273   7.344
13370TIP3    H240050   7.486   2.307   7.235
13371TIP3   OH240051   7.217   2.319   7.372
13371TIP3    H140052   7.181   2.389   7.314
13371TIP3    H240053   7.203   2.359   7.461
13372TIP3   OH240054   6.930   1.954   7.363
13372TIP3    H140055   6.995   2.027   7.368
13372TIP3    H240056   6.977   1.899   7.296
13373TIP3   OH240057   6.883   1.229   7.448
13373TIP3    H140058   6.854   1.317   7.478
13373TIP3    H240059   6.847   1.169   7.515
13374TIP3   OH240060   6.778   2.134   7.778
13374TIP3    H140061   6.702   2.194   7.769
13374TIP3    H240062   6.834   2.168   7.706
13375TIP3   OH240063   7.419   2.247   7.003
13375TIP3    H140064   7.365   2.170   7.033
13375TIP3    H240065   7.492   2.199   6.958
13376TIP3   OH240066   7.831   2.246   6.893
13376TIP3    H140067   7.910   2.245   6.950
13376TIP3    H240068   7.874   2.254   6.805
13377TIP3   OH240069   7.068   1.763   7.219
13377TIP3    H140070   7.119   1.725   7.292
13377TIP3    H240071   7.138   1.770   7.151
13378TIP3   OH240072   7.562   1.953   7.034
13378TIP3    H140073   7.554   1.972   7.128
13378TIP3    H240074   7.564   1.857   7.033
13379TIP3   OH240075   7.175   2.526   7.194
13379TIP3    H140076   7.270   2.517   7.175
13379TIP3    H240077   7.146   2.571   7.113
13380TIP3   OH240078   6.668   1.894   7.422
13380TIP3    H140079   6.758   1.923   7.396
13380TIP3    H240080   6.660   1.810   7.372
13381TIP3   OH240081   6.572   2.517   7.820
13381TIP3    H140082   6.509   2.453   7.781
13381TIP3    H240083   6.624   2.458   7.879
13382TIP3   OH240084   6.716   2.367   7.996
13382TIP3    H140085   6.707   2.294   8.058
13382TIP3    H240086   6.765   2.431   8.049
13383TIP3   OH240087   6.674   2.292   7.571
13383TIP3    H140088   6.591   2.261   7.530
13383TIP3    H240089   6.673   2.385   7.542
13384TIP3   OH240090   7.441   2.483   7.137
13384TIP3    H140091   7.529   2.501   7.099
13384TIP3    H240092   7.416   2.408   7.079
13385TIP3   OH240093   6.756   2.313   7.196
13385TIP3    H140094   6.758   2.339   7.289
13385TIP3    H240095   6.845   2.272   7.183
13386TIP3   OH240096   2.449   3.289   8.022
13386TIP3    H140097   2.450   3.385   8.021
13386TIP3    H240098   2.545   3.268   8.033
13387TIP3   OH240099   2.493   3.590   8.076
13387TIP3    H140100   2.534   3.668   8.031
13387TIP3    H240101   2.400   3.608   8.056
13388TIP3   OH240102   3.919   3.155   8.372
13388TIP3    H140103   3.891   3.248   8.357
13388TIP3    H240104   3.853   3.112   8.312
13389TIP3   OH240105   4.140   3.491   8.392
13389TIP3    H140106   4.153   3.409   8.443
13389TIP3    H240107   4.162   3.561   8.454
13390TIP3   OH240108   3.782   3.915   8.430
13390TIP3    H140109   3.833   3.852   8.375
13390TIP3    H240110   3.812   3.887   8.518
13391TIP3   OH240111   3.797   3.372   8.237
13391TIP3    H140112   3.765   3.359   8.146
13391TIP3    H240113   3.768   3.464   8.253
13392TIP3   OH240114   3.930   3.759   8.264
13392TIP3    H140115   3.972   3.673   8.244
13392TIP3    H240116   3.996   3.819   8.222
13393TIP3   OH240117   4.050   3.541   8.145
13393TIP3    H140118   4.031   3.454   8.107
13393TIP3    H240119   4.089   3.516   8.232
13394TIP3   OH240120   3.754   3.024   8.204
13394TIP3    H140121   3.668   3.063   8.179
13394TIP3    H240122   3.793   3.004   8.116
13395TIP3   OH240123   3.703   2.791   7.903
13395TIP3    H140124   3.772   2.845   7.950
13395TIP3    H240125   3.760   2.723   7.864
13396TIP3   OH240126   4.075   3.096   8.147
13396TIP3    H140127   4.033   3.108   8.234
13396TIP3    H240128   4.162   3.059   8.172
13397TIP3   OH240129   3.922   2.938   7.988
13397TIP3    H140130   3.980   2.997   8.042
13397TIP3    H240131   3.951   2.964   7.897
13398TIP3   OH240132   3.685   3.637   8.263
13398TIP3    H140133   3.758   3.701   8.254
13398TIP3    H240134   3.611   3.685   8.223
13399TIP3   OH240135   4.397   2.191   7.965
13399TIP3    H140136   4.349   2.224   8.040
13399TIP3    H240137   4.434   2.279   7.931
13400TIP3   OH240138   4.245   3.557   7.585
13400TIP3    H140139   4.253   3.655   7.573
13400TIP3    H240140   4.338   3.529   7.574
13401TIP3   OH240141   3.551   3.872   8.073
13401TIP3    H140142   3.508   3.855   7.987
13401TIP3    H240143   3.528   3.965   8.091
13402TIP3   OH240144   3.755   3.772   7.709
13402TIP3    H140145   3.816   3.704   7.673
13402TIP3    H240146   3.790   3.784   7.800
13403TIP3   OH240147   3.797   3.806   7.982
13403TIP3    H140148   3.711   3.819   8.027
13403TIP3    H240149   3.853   3.771   8.052
13404TIP3   OH240150   4.007   2.988   7.735
13404TIP3    H140151   3.973   2.972   7.645
13404TIP3    H240152   4.087   3.040   7.715
13405TIP3   OH240153   3.744   2.361   8.038
13405TIP3    H140154   3.687   2.392   8.109
13405TIP3    H240155   3.693   2.284   8.005
13406TIP3   OH240156   3.949   2.815   8.268
13406TIP3    H140157   3.887   2.864   8.322
13406TIP3    H240158   3.892   2.787   8.195
13407TIP3   OH240159   3.411   2.388   8.008
13407TIP3    H140160   3.392   2.325   8.079
13407TIP3    H240161   3.324   2.406   7.973
13408TIP3   OH240162   3.239   2.619   8.113
13408TIP3    H140163   3.188   2.618   8.029
13408TIP3    H240164   3.326   2.648   8.077
13409TIP3   OH240165   3.517   3.159   8.140
13409TIP3    H140166   3.446   3.103   8.102
13409TIP3    H240167   3.478   3.189   8.223
13410TIP3   OH240168   3.921   2.551   7.964
13410TIP3    H140169   3.860   2.473   7.956
13410TIP3    H240170   3.935   2.547   8.060
13411TIP3   OH240171   4.133   2.735   8.065
13411TIP3    H140172   4.075   2.744   8.142
13411TIP3    H240173   4.089   2.797   8.005
13412TIP3   OH240174   3.664   3.312   7.963
13412TIP3    H140175   3.614   3.397   7.967
13412TIP3    H240176   3.609   3.256   8.023
13413TIP3   OH240177   4.493   2.806   7.924
13413TIP3    H140178   4.421   2.766   7.872
13413TIP3    H240179   4.482   2.900   7.900
13414TIP3   OH240180   4.185   3.631   7.852
13414TIP3    H140181   4.155   3.566   7.917
13414TIP3    H240182   4.195   3.579   7.770
13415TIP3   OH240183   3.203   3.741   8.248
13415TIP3    H140184   3.162   3.736   8.335
13415TIP3    H240185   3.251   3.825   8.253
13416TIP3   OH240186   3.939   3.358   7.752
13416TIP3    H140187   3.993   3.335   7.831
13416TIP3    H240188   3.851   3.331   7.783
13417TIP3   OH240189   4.275   3.839   7.574
13417TIP3    H140190   4.325   3.915   7.540
13417TIP3    H240191   4.195   3.885   7.607
13418TIP3   OH240192   4.101   3.300   7.967
13418TIP3    H140193   4.085   3.229   8.032
13418TIP3    H240194   4.198   3.293   7.955
13419TIP3   OH240195   3.308   3.336   7.755
13419TIP3    H140196   3.318   3.244   7.726
13419TIP3    H240197   3.287   3.324   7.849
13420TIP3   OH240198   3.250   3.340   8.025
13420TIP3    H140199   3.303   3.324   8.104
13420TIP3    H240200   3.251   3.439   8.022
13421TIP3   OH240201   4.058   2.471   8.272
13421TIP3    H140202   4.023   2.420   8.197
13421TIP3    H240203   4.079   2.555   8.234
13422TIP3   OH240204   3.522   3.542   7.975
13422TIP3    H140205   3.430   3.560   8.003
13422TIP3    H240206   3.536   3.617   7.916
13423TIP3   OH240207   3.259   3.608   8.020
13423TIP3    H140208   3.230   3.680   7.959
13423TIP3    H240209   3.234   3.649   8.106
13424TIP3   OH240210   2.976   3.261   8.038
13424TIP3    H140211   3.052   3.321   8.044
13424TIP3    H240212   3.017   3.191   7.983
13425TIP3   OH240213   4.232   3.990   8.530
13425TIP3    H140214   4.196   4.042   8.454
13425TIP3    H240215   4.327   3.998   8.512
13426TIP3   OH240216   3.467   3.541   7.665
13426TIP3    H140217   3.409   3.471   7.704
13426TIP3    H240218   3.543   3.488   7.639
13427TIP3   OH240219   3.906   3.580   7.580
13427TIP3    H140220   3.944   3.515   7.642
13427TIP3    H240221   3.968   3.577   7.505
13428TIP3   OH240222   3.117   3.063   7.890
13428TIP3    H140223   3.181   3.034   7.958
13428TIP3    H240224   3.180   3.070   7.815
13429TIP3   OH240225   3.627   3.258   7.694
13429TIP3    H140226   3.628   3.270   7.791
13429TIP3    H240227   3.624   3.160   7.688
13430TIP3   OH240228   3.328   2.978   8.048
13430TIP3    H140229   3.299   2.956   8.138
13430TIP3    H240230   3.363   2.892   8.016
13431TIP3   OH240231   3.430   2.739   7.945
13431TIP3    H140232   3.405   2.748   7.851
13431TIP3    H240233   3.527   2.744   7.939
13432TIP3   OH240234   4.242   3.085   7.613
13432TIP3    H140235   4.221   3.042   7.528
13432TIP3    H240236   4.210   3.177   7.592
13433TIP3   OH240237   3.229   3.823   7.853
13433TIP3    H140238   3.325   3.817   7.836
13433TIP3    H240239   3.201   3.873   7.773
13434TIP3   OH240240   2.709   3.208   8.049
13434TIP3    H140241   2.806   3.223   8.046
13434TIP3    H240242   2.703   3.113   8.026
13435TIP3   OH240243   4.500   4.064   8.490
13435TIP3    H140244   4.522   4.133   8.554
13435TIP3    H240245   4.547   4.094   8.411
13436TIP3   OH240246   4.377   3.278   7.942
13436TIP3    H140247   4.445   3.341   7.911
13436TIP3    H240248   4.424   3.240   8.020
13437TIP3   OH240249   4.517   3.150   8.135
13437TIP3    H140250   4.447   3.101   8.183
13437TIP3    H240251   4.578   3.179   8.207
13438TIP3   OH240252   4.545   3.538   8.558
13438TIP3    H140253   4.619   3.473   8.547
13438TIP3    H240254   4.576   3.610   8.499
13439TIP3   OH240255   4.443   3.050   7.795
13439TIP3    H140256   4.371   3.056   7.728
13439TIP3    H240257   4.418   3.124   7.853
13440TIP3   OH240258   4.313   2.707   7.739
13440TIP3    H140259   4.274   2.775   7.683
13440TIP3    H240260   4.284   2.626   7.694
13441TIP3   OH240261   4.310   2.988   8.224
13441TIP3    H140262   4.341   2.899   8.202
13441TIP3    H240263   4.326   2.989   8.322
13442TIP3   OH240264   4.240   2.408   7.776
13442TIP3    H140265   4.339   2.403   7.782
13442TIP3    H240266   4.233   2.501   7.795
13443TIP3   OH240267   4.386   2.731   8.196
13443TIP3    H140268   4.414   2.637   8.218
13443TIP3    H240269   4.316   2.711   8.134
13444TIP3   OH240270   4.411   2.437   8.222
13444TIP3    H140271   4.460   2.405   8.300
13444TIP3    H240272   4.340   2.371   8.214
13445TIP3   OH240273   4.514   2.419   7.833
13445TIP3    H140274   4.566   2.343   7.797
13445TIP3    H240275   4.582   2.480   7.860
13446TIP3   OH240276   4.083   3.932   8.130
13446TIP3    H140277   4.122   3.919   8.041
13446TIP3    H240278   4.128   4.012   8.158
13447TIP3   OH240279   4.200   2.239   8.170
13447TIP3    H140280   4.128   2.251   8.241
13447TIP3    H240281   4.148   2.197   8.104
13448TIP3   OH240282   2.766   3.622   8.202
13448TIP3    H140283   2.688   3.602   8.148
13448TIP3    H240284   2.733   3.701   8.250
13449TIP3   OH240285   3.497   3.777   7.806
13449TIP3    H140286   3.586   3.799   7.769
13449TIP3    H240287   3.474   3.703   7.745
13450TIP3   OH240288   4.218   3.899   7.891
13450TIP3    H140289   4.206   3.802   7.879
13450TIP3    H240290   4.165   3.935   7.817
13451TIP3   OH240291   2.806   3.616   7.868
13451TIP3    H140292   2.816   3.633   7.962
13451TIP3    H240293   2.892   3.573   7.846
13452TIP3   OH240294   5.712   3.421   7.847
13452TIP3    H140295   5.672   3.507   7.820
13452TIP3    H240296   5.640   3.361   7.822
13453TIP3   OH240297   5.713   3.415   8.233
13453TIP3    H140298   5.743   3.381   8.320
13453TIP3    H240299   5.671   3.335   8.196
13454TIP3   OH240300   5.023   3.355   8.585
13454TIP3    H140301   5.036   3.280   8.647
13454TIP3    H240302   5.108   3.354   8.537
13455TIP3   OH240303   5.965   3.735   7.969
13455TIP3    H140304   5.938   3.644   7.972
13455TIP3    H240305   5.885   3.781   7.946
13456TIP3   OH240306   4.976   3.723   8.323
13456TIP3    H140307   4.966   3.625   8.317
13456TIP3    H240308   5.073   3.730   8.319
13457TIP3   OH240309   4.693   2.928   8.098
13457TIP3    H140310   4.640   3.009   8.104
13457TIP3    H240311   4.623   2.861   8.097
13458TIP3   OH240312   4.746   3.206   8.278
13458TIP3    H140313   4.794   3.130   8.318
13458TIP3    H240314   4.806   3.231   8.207
13459TIP3   OH240315   5.600   4.178   7.926
13459TIP3    H140316   5.650   4.107   7.882
13459TIP3    H240317   5.588   4.144   8.015
13460TIP3   OH240318   5.507   3.639   8.279
13460TIP3    H140319   5.540   3.559   8.235
13460TIP3    H240320   5.593   3.681   8.301
13461TIP3   OH240321   6.512   2.980   8.261
13461TIP3    H140322   6.544   3.063   8.304
13461TIP3    H240323   6.543   2.994   8.170
13462TIP3   OH240324   5.922   3.142   8.309
13462TIP3    H140325   5.963   3.056   8.329
13462TIP3    H240326   5.889   3.126   8.218
13463TIP3   OH240327   5.262   2.790   8.278
13463TIP3    H140328   5.240   2.871   8.227
13463TIP3    H240329   5.212   2.724   8.225
13464TIP3   OH240330   5.954   2.890   7.897
13464TIP3    H140331   6.025   2.872   7.963
13464TIP3    H240332   6.007   2.925   7.824
13465TIP3   OH240333   4.896   3.008   8.381
13465TIP3    H140334   4.951   2.967   8.450
13465TIP3    H240335   4.915   2.949   8.306
13466TIP3   OH240336   5.328   3.203   8.182
13466TIP3    H140337   5.423   3.179   8.190
13466TIP3    H240338   5.289   3.117   8.153
13467TIP3   OH240339   6.586   3.178   8.443
13467TIP3    H140340   6.499   3.219   8.430
13467TIP3    H240341   6.573   3.142   8.532
13468TIP3   OH240342   5.602   3.639   7.721
13468TIP3    H140343   5.559   3.614   7.638
13468TIP3    H240344   5.554   3.722   7.743
13469TIP3   OH240345   5.369   3.573   8.508
13469TIP3    H140346   5.300   3.636   8.539
13469TIP3    H240347   5.406   3.619   8.430
13470TIP3   OH240348   6.163   2.891   8.072
13470TIP3    H140349   6.135   2.852   8.157
13470TIP3    H240350   6.214   2.969   8.100
13471TIP3   OH240351   5.114   2.885   8.501
13471TIP3    H140352   5.181   2.957   8.499
13471TIP3    H240353   5.149   2.831   8.428
13472TIP3   OH240354   5.179   3.747   8.606
13472TIP3    H140355   5.149   3.834   8.571
13472TIP3    H240356   5.118   3.736   8.682
13473TIP3   OH240357   4.582   3.443   7.838
13473TIP3    H140358   4.541   3.474   7.755
13473TIP3    H240359   4.615   3.527   7.877
13474TIP3   OH240360   6.318   2.889   8.445
13474TIP3    H140361   6.225   2.893   8.415
13474TIP3    H240362   6.367   2.916   8.365
13475TIP3   OH240363   5.611   2.495   8.401
13475TIP3    H140364   5.619   2.402   8.429
13475TIP3    H240365   5.583   2.536   8.485
13476TIP3   OH240366   5.731   4.002   7.761
13476TIP3    H140367   5.775   3.920   7.729
13476TIP3    H240368   5.789   4.070   7.718
13477TIP3   OH240369   5.866   3.784   7.669
13477TIP3    H140370   5.829   3.719   7.608
13477TIP3    H240371   5.926   3.730   7.721
13478TIP3   OH240372   5.543   3.267   7.683
13478TIP3    H140373   5.461   3.316   7.662
13478TIP3    H240374   5.585   3.260   7.595
13479TIP3   OH240375   5.499   3.049   7.397
13479TIP3    H140376   5.567   3.101   7.443
13479TIP3    H240377   5.556   2.986   7.348
13480TIP3   OH240378   6.447   3.509   8.273
13480TIP3    H140379   6.358   3.547   8.269
13480TIP3    H240380   6.479   3.529   8.182
13481TIP3   OH240381   5.889   3.350   7.651
13481TIP3    H140382   5.832   3.369   7.729
13481TIP3    H240383   5.971   3.319   7.695
13482TIP3   OH240384   6.122   3.381   8.563
13482TIP3    H140385   6.122   3.458   8.624
13482TIP3    H240386   6.032   3.387   8.526
13483TIP3   OH240387   5.123   3.344   8.064
13483TIP3    H140388   5.080   3.285   7.998
13483TIP3    H240389   5.197   3.289   8.097
13484TIP3   OH240390   5.250   3.758   8.216
13484TIP3    H140391   5.223   3.716   8.133
13484TIP3    H240392   5.339   3.720   8.231
13485TIP3   OH240393   5.249   3.341   8.421
13485TIP3    H140394   5.278   3.309   8.333
13485TIP3    H240395   5.298   3.425   8.433
13486TIP3   OH240396   5.824   3.942   8.196
13486TIP3    H140397   5.791   4.028   8.228
13486TIP3    H240398   5.783   3.879   8.259
13487TIP3   OH240399   5.395   3.903   8.694
13487TIP3    H140400   5.354   3.946   8.770
13487TIP3    H240401   5.325   3.840   8.668
13488TIP3   OH240402   5.727   3.205   7.478
13488TIP3    H140403   5.787   3.266   7.528
13488TIP3    H240404   5.753   3.227   7.385
13489TIP3   OH240405   5.474   3.883   7.754
13489TIP3    H140406   5.547   3.945   7.772
13489TIP3    H240407   5.408   3.940   7.712
13490TIP3   OH240408   6.244   2.445   7.528
13490TIP3    H140409   6.162   2.466   7.577
13490TIP3    H240410   6.258   2.528   7.478
13491TIP3   OH240411   4.988   3.187   7.870
13491TIP3    H140412   4.918   3.229   7.816
13491TIP3    H240413   4.947   3.103   7.893
13492TIP3   OH240414   6.043   3.814   7.078
13492TIP3    H140415   6.052   3.910   7.060
13492TIP3    H240416   6.135   3.783   7.064
13493TIP3   OH240417   4.624   3.771   8.404
13493TIP3    H140418   4.719   3.761   8.396
13493TIP3    H240419   4.616   3.852   8.457
13494TIP3   OH240420   6.491   4.223   8.470
13494TIP3    H140421   6.490   4.125   8.481
13494TIP3    H240422   6.403   4.244   8.510
13495TIP3   OH240423   5.617   4.001   8.588
13495TIP3    H140424   5.613   4.092   8.626
13495TIP3    H240425   5.532   3.965   8.625
13496TIP3   OH240426   5.355   4.131   7.556
13496TIP3    H140427   5.306   4.112   7.474
13496TIP3    H240428   5.320   4.218   7.582
13497TIP3   OH240429   4.790   3.979   7.940
13497TIP3    H140430   4.838   3.970   8.025
13497TIP3    H240431   4.733   3.900   7.943
13498TIP3   OH240432   5.554   4.033   7.195
13498TIP3    H140433   5.612   3.963   7.159
13498TIP3    H240434   5.588   4.042   7.286
13499TIP3   OH240435   5.605   4.080   7.465
13499TIP3    H140436   5.515   4.091   7.504
13499TIP3    H240437   5.652   4.038   7.538
13500TIP3   OH240438   6.382   3.355   8.710
13500TIP3    H140439   6.286   3.360   8.694
13500TIP3    H240440   6.395   3.260   8.723
13501TIP3   OH240441   6.152   3.133   8.696
13501TIP3    H140442   6.110   3.145   8.782
13501TIP3    H240443   6.115   3.206   8.643
13502TIP3   OH240444   5.806   3.255   7.225
13502TIP3    H140445   5.769   3.228   7.139
13502TIP3    H240446   5.889   3.297   7.196
13503TIP3   OH240447   5.516   2.627   7.525
13503TIP3    H140448   5.482   2.622   7.617
13503TIP3    H240449   5.477   2.544   7.489
13504TIP3   OH240450   5.294   3.085   8.501
13504TIP3    H140451   5.331   3.081   8.591
13504TIP3    H240452   5.281   3.181   8.486
13505TIP3   OH240453   5.189   2.979   8.091
13505TIP3    H140454   5.097   2.953   8.111
13505TIP3    H240455   5.200   2.937   8.003
13506TIP3   OH240456   5.679   3.067   7.816
13506TIP3    H140457   5.626   3.136   7.771
13506TIP3    H240458   5.732   3.032   7.741
13507TIP3   OH240459   5.842   3.096   8.049
13507TIP3    H140460   5.773   3.118   7.983
13507TIP3    H240461   5.874   3.013   8.008
13508TIP3   OH240462   5.170   2.599   7.490
13508TIP3    H140463   5.162   2.598   7.588
13508TIP3    H240464   5.093   2.654   7.467
13509TIP3   OH240465   4.678   2.662   8.266
13509TIP3    H140466   4.735   2.713   8.326
13509TIP3    H240467   4.741   2.604   8.223
13510TIP3   OH240468   4.697   2.628   7.885
13510TIP3    H140469   4.737   2.668   7.805
13510TIP3    H240470   4.631   2.698   7.907
13511TIP3   OH240471   5.852   3.345   8.473
13511TIP3    H140472   5.882   3.269   8.418
13511TIP3    H240473   5.828   3.297   8.556
13512TIP3   OH240474   5.516   2.804   8.145
13512TIP3    H140475   5.432   2.798   8.194
13512TIP3    H240476   5.581   2.801   8.217
13513TIP3   OH240477   4.950   2.860   8.155
13513TIP3    H140478   4.857   2.871   8.125
13513TIP3    H240479   4.972   2.768   8.128
13514TIP3   OH240480   5.216   2.853   7.846
13514TIP3    H140481   5.310   2.869   7.823
13514TIP3    H240482   5.169   2.875   7.762
13515TIP3   OH240483   6.011   2.878   8.333
13515TIP3    H140484   5.995   2.884   8.430
13515TIP3    H240485   5.942   2.814   8.309
13516TIP3   OH240486   5.061   2.887   7.623
13516TIP3    H140487   4.988   2.843   7.575
13516TIP3    H240488   5.112   2.923   7.547
13517TIP3   OH240489   6.194   4.556   8.557
13517TIP3    H140490   6.189   4.583   8.464
13517TIP3    H240491   6.224   4.638   8.599
13518TIP3   OH240492   5.595   3.146   8.232
13518TIP3    H140493   5.666   3.086   8.204
13518TIP3    H240494   5.590   3.124   8.328
13519TIP3   OH240495   5.122   2.626   8.110
13519TIP3    H140496   5.084   2.549   8.159
13519TIP3    H240497   5.176   2.581   8.044
13520TIP3   OH240498   5.585   3.078   8.495
13520TIP3    H140499   5.496   3.042   8.514
13520TIP3    H240500   5.639   3.024   8.556
13521TIP3   OH240501   5.311   3.417   7.631
13521TIP3    H140502   5.239   3.351   7.619
13521TIP3    H240503   5.291   3.451   7.722
13522TIP3   OH240504   5.768   2.728   7.496
13522TIP3    H140505   5.671   2.710   7.502
13522TIP3    H240506   5.775   2.823   7.518
13523TIP3   OH240507   5.743   3.746   8.625
13523TIP3    H140508   5.708   3.684   8.691
13523TIP3    H240509   5.682   3.822   8.633
13524TIP3   OH240510   5.837   2.978   7.598
13524TIP3    H140511   5.933   2.983   7.611
13524TIP3    H240512   5.819   3.056   7.543
13525TIP3   OH240513   5.001   3.454   8.289
13525TIP3    H140514   5.042   3.413   8.210
13525TIP3    H240515   5.022   3.391   8.359
13526TIP3   OH240516   5.457   3.567   7.455
13526TIP3    H140517   5.408   3.653   7.458
13526TIP3    H240518   5.401   3.512   7.513
13527TIP3   OH240519   5.888   4.004   8.525
13527TIP3    H140520   5.792   3.984   8.527
13527TIP3    H240521   5.892   4.070   8.596
13528TIP3   OH240522   6.279   3.069   7.432
13528TIP3    H140523   6.217   3.024   7.370
13528TIP3    H240524   6.276   3.158   7.390
13529TIP3   OH240525   6.475   3.948   8.492
13529TIP3    H140526   6.396   3.897   8.516
13529TIP3    H240527   6.506   3.900   8.412
13530TIP3   OH240528   5.984   3.884   7.342
13530TIP3    H140529   5.953   3.810   7.395
13530TIP3    H240530   5.995   3.845   7.254
13531TIP3   OH240531   5.975   3.524   8.168
13531TIP3    H140532   5.885   3.491   8.191
13531TIP3    H240533   6.014   3.440   8.135
13532TIP3   OH240534   5.104   3.744   7.930
13532TIP3    H140535   5.099   3.825   7.876
13532TIP3    H240536   5.010   3.725   7.944
13533TIP3   OH240537   4.667   3.047   7.634
13533TIP3    H140538   4.713   3.131   7.656
13533TIP3    H240539   4.591   3.051   7.697
13534TIP3   OH240540   5.245   3.511   7.875
13534TIP3    H140541   5.206   3.598   7.894
13534TIP3    H240542   5.206   3.457   7.947
13535TIP3   OH240543   5.370   4.090   8.396
13535TIP3    H140544   5.410   4.164   8.345
13535TIP3    H240545   5.448   4.054   8.441
13536TIP3   OH240546   5.023   3.981   7.783
13536TIP3    H140547   4.937   3.991   7.829
13536TIP3    H240548   5.055   4.074   7.785
13537TIP3   OH240549   5.765   3.715   8.356
13537TIP3    H140550   5.757   3.722   8.454
13537TIP3    H240551   5.826   3.641   8.348
13538TIP3   OH240552   5.736   3.617   7.243
13538TIP3    H140553   5.787   3.590   7.323
13538TIP3    H240554   5.647   3.586   7.266
13539TIP3   OH240555   5.995   4.270   8.422
13539TIP3    H140556   5.937   4.197   8.393
13539TIP3    H240557   5.993   4.327   8.343
13540TIP3   OH240558   6.075   4.088   7.061
13540TIP3    H140559   6.110   4.159   7.005
13540TIP3    H240560   5.995   4.133   7.095
13541TIP3   OH240561   5.898   3.557   7.466
13541TIP3    H140562   5.886   3.483   7.528
13541TIP3    H240563   5.993   3.547   7.445
13542TIP3   OH240564   4.822   3.959   8.540
13542TIP3    H140565   4.861   3.874   8.565
13542TIP3    H240566   4.804   3.998   8.627
13543TIP3   OH240567   5.102   3.594   7.241
13543TIP3    H140568   5.114   3.502   7.213
13543TIP3    H240569   5.081   3.583   7.336
13544TIP3   OH240570   5.046   3.600   7.513
13544TIP3    H140571   5.117   3.572   7.572
13544TIP3    H240572   5.050   3.698   7.521
13545TIP3   OH240573   4.781   3.292   7.717
13545TIP3    H140574   4.715   3.336   7.774
13545TIP3    H240575   4.794   3.362   7.650
13546TIP3   OH240576   5.963   2.914   8.596
13546TIP3    H140577   6.021   2.949   8.665
13546TIP3    H240578   5.877   2.903   8.640
13547TIP3   OH240579   5.813   2.679   7.776
13547TIP3    H140580   5.798   2.701   7.682
13547TIP3    H240581   5.851   2.761   7.811
13548TIP3   OH240582   5.314   3.798   7.464
13548TIP3    H140583   5.226   3.822   7.498
13548TIP3    H240584   5.327   3.868   7.399
13549TIP3   OH240585   5.501   2.861   7.875
13549TIP3    H140586   5.566   2.933   7.860
13549TIP3    H240587   5.505   2.853   7.973
13550TIP3   OH240588   5.802   3.209   8.703
13550TIP3    H140589   5.809   3.257   8.789
13550TIP3    H240590   5.806   3.117   8.730
13551TIP3   OH240591   5.642   2.587   7.978
13551TIP3    H140592   5.634   2.664   8.036
13551TIP3    H240593   5.705   2.621   7.910
13552TIP3   OH240594   5.058   3.872   7.530
13552TIP3    H140595   5.027   3.941   7.468
13552TIP3    H240596   5.041   3.915   7.617
13553TIP3   OH240597   5.156   2.587   7.767
13553TIP3    H140598   5.153   2.676   7.806
13553TIP3    H240599   5.252   2.569   7.775
13554TIP3   OH240600   6.411   3.065   8.642
13554TIP3    H140601   6.318   3.084   8.667
13554TIP3    H240602   6.393   2.997   8.573
13555TIP3   OH240603   6.061   3.279   8.054
13555TIP3    H140604   5.985   3.218   8.063
13555TIP3    H240605   6.132   3.228   8.100
13556TIP3   OH240606   4.774   3.501   7.522
13556TIP3    H140607   4.840   3.571   7.531
13556TIP3    H240608   4.819   3.445   7.455
13557TIP3   OH240609   4.719   2.777   7.652
13557TIP3    H140610   4.721   2.875   7.652
13557TIP3    H240611   4.629   2.759   7.623
13558TIP3   OH240612   6.036   4.242   8.010
13558TIP3    H140613   5.989   4.279   7.932
13558TIP3    H240614   6.129   4.254   7.981
13559TIP3   OH240615   4.644   3.716   7.908
13559TIP3    H140616   4.575   3.745   7.969
13559TIP3    H240617   4.613   3.756   7.823
13560TIP3   OH240618   5.265   3.798   7.154
13560TIP3    H140619   5.209   3.725   7.190
13560TIP3    H240620   5.340   3.746   7.118
13561TIP3   OH240621   5.934   4.121   8.777
13561TIP3    H140622   5.969   4.032   8.783
13561TIP3    H240623   6.013   4.176   8.771
13562TIP3   OH240624   5.701   3.839   7.066
13562TIP3    H140625   5.744   3.772   7.123
13562TIP3    H240626   5.755   3.836   6.985
13563TIP3   OH240627   4.909   3.315   7.375
13563TIP3    H140628   4.964   3.282   7.448
13563TIP3    H240629   4.977   3.319   7.303
13564TIP3   OH240630   5.423   3.514   7.184
13564TIP3    H140631   5.423   3.525   7.281
13564TIP3    H240632   5.423   3.416   7.177
13565TIP3   OH240633   6.040   3.765   8.551
13565TIP3    H140634   6.049   3.858   8.525
13565TIP3    H240635   5.944   3.762   8.565
13566TIP3   OH240636   5.118   3.220   7.598
13566TIP3    H140637   5.088   3.180   7.681
13566TIP3    H240638   5.153   3.143   7.549
13567TIP3   OH240639   5.218   3.013   7.437
13567TIP3    H140640   5.193   3.018   7.342
13567TIP3    H240641   5.316   3.016   7.430
13568TIP3   OH240642   6.040   3.343   7.103
13568TIP3    H140643   6.021   3.297   7.018
13568TIP3    H240644   6.007   3.433   7.079
13569TIP3   OH240645   5.541   3.417   8.658
13569TIP3    H140646   5.608   3.369   8.609
13569TIP3    H240647   5.496   3.471   8.589
13570TIP3   OH240648   6.168   3.596   8.729
13570TIP3    H140649   6.112   3.659   8.679
13570TIP3    H240650   6.256   3.627   8.700
13571TIP3   OH240651   5.026   4.075   7.342
13571TIP3    H140652   5.122   4.069   7.323
13571TIP3    H240653   4.997   4.125   7.264
13572TIP3   OH240654   4.504   3.459   7.555
13572TIP3    H140655   4.600   3.479   7.543
13572TIP3    H240656   4.499   3.369   7.516
13573TIP3   OH240657   4.426   4.065   7.964
13573TIP3    H140658   4.353   4.008   7.931
13573TIP3    H240659   4.464   4.009   8.035
13574TIP3   OH240660   4.555   3.918   8.159
13574TIP3    H140661   4.547   3.846   8.223
13574TIP3    H240662   4.611   3.980   8.210
13575TIP3   OH240663   6.293   4.315   7.960
13575TIP3    H140664   6.314   4.361   8.043
13575TIP3    H240665   6.344   4.365   7.895
13576TIP3   OH240666   6.311   4.353   8.241
13576TIP3    H140667   6.263   4.270   8.235
13576TIP3    H240668   6.388   4.329   8.294
13577TIP3   OH240669   6.174   3.531   7.436
13577TIP3    H140670   6.242   3.593   7.403
13577TIP3    H240671   6.220   3.491   7.512
13578TIP3   OH240672   6.302   3.400   7.640
13578TIP3    H140673   6.237   3.353   7.697
13578TIP3    H240674   6.368   3.433   7.703
13579TIP3   OH240675   6.241   3.306   7.284
13579TIP3    H140676   6.171   3.306   7.216
13579TIP3    H240677   6.210   3.382   7.338
13580TIP3   OH240678   6.112   2.980   7.238
13580TIP3    H140679   6.070   3.015   7.159
13580TIP3    H240680   6.087   2.884   7.231
13581TIP3   OH240681   6.116   3.254   7.784
13581TIP3    H140682   6.124   3.157   7.774
13581TIP3    H240683   6.103   3.263   7.881
13582TIP3   OH240684   4.754   3.374   8.501
13582TIP3    H140685   4.747   3.315   8.423
13582TIP3    H240686   4.846   3.358   8.530
13583TIP3   OH240687   6.404   3.696   8.612
13583TIP3    H140688   6.456   3.613   8.613
13583TIP3    H240689   6.475   3.760   8.624
13584TIP3   OH240690   6.598   3.500   8.640
13584TIP3    H140691   6.524   3.438   8.663
13584TIP3    H240692   6.648   3.497   8.723
13585TIP3   OH240693   6.054   2.714   7.227
13585TIP3    H140694   6.128   2.679   7.281
13585TIP3    H240695   5.981   2.653   7.245
13586TIP3   OH240696   6.115   2.972   7.678
13586TIP3    H140697   6.154   2.883   7.694
13586TIP3    H240698   6.173   3.002   7.605
13587TIP3   OH240699   6.271   3.145   8.169
13587TIP3    H140700   6.359   3.169   8.132
13587TIP3    H240701   6.284   3.177   8.260
13588TIP3   OH240702   6.335   3.285   8.399
13588TIP3    H140703   6.263   3.318   8.457
13588TIP3    H240704   6.377   3.367   8.368
13589TIP3   OH240705   6.220   2.721   7.716
13589TIP3    H140706   6.268   2.706   7.800
13589TIP3    H240707   6.160   2.644   7.715
13590TIP3   OH240708   6.303   2.653   7.351
13590TIP3    H140709   6.341   2.582   7.295
13590TIP3    H240710   6.370   2.723   7.343
13591TIP3   OH240711   4.700   2.450   8.086
13591TIP3    H140712   4.616   2.476   8.131
13591TIP3    H240713   4.708   2.521   8.021
13592TIP3   OH240714   5.870   4.182   7.617
13592TIP3    H140715   5.919   4.175   7.533
13592TIP3    H240716   5.917   4.255   7.661
13593TIP3   OH240717   5.145   4.013   8.544
13593TIP3    H140718   5.091   4.086   8.511
13593TIP3    H240719   5.230   4.036   8.502
13594TIP3   OH240720   5.613   4.255   8.690
13594TIP3    H140721   5.653   4.282   8.774
13594TIP3    H240722   5.663   4.312   8.628
13595TIP3   OH240723   5.780   4.415   8.547
13595TIP3    H140724   5.845   4.361   8.498
13595TIP3    H240725   5.837   4.486   8.579
13596TIP3   OH240726   4.826   4.297   8.567
13596TIP3    H140727   4.741   4.333   8.535
13596TIP3    H240728   4.812   4.298   8.662
13597TIP3   OH240729   5.062   4.258   8.429
13597TIP3    H140730   4.977   4.275   8.476
13597TIP3    H240731   5.042   4.292   8.340
13598TIP3   OH240732   5.485   4.288   8.227
13598TIP3    H140733   5.413   4.305   8.163
13598TIP3    H240734   5.495   4.376   8.268
13599TIP3   OH240735   5.752   4.218   8.273
13599TIP3    H140736   5.658   4.242   8.259
13599TIP3    H240737   5.797   4.296   8.236
13600TIP3   OH240738   5.961   4.421   8.199
13600TIP3    H140739   5.946   4.504   8.149
13600TIP3    H240740   5.988   4.359   8.127
13601TIP3   OH240741   4.733   4.075   8.310
13601TIP3    H140742   4.766   4.052   8.400
13601TIP3    H240743   4.805   4.032   8.258
13602TIP3   OH240744   4.928   3.945   8.172
13602TIP3    H140745   4.942   3.863   8.225
13602TIP3    H240746   5.019   3.982   8.169
13603TIP3   OH240747   5.194   4.039   8.176
13603TIP3    H140748   5.224   3.947   8.167
13603TIP3    H240749   5.236   4.062   8.261
13604TIP3   OH240750   5.772   2.696   8.261
13604TIP3    H140751   5.727   2.622   8.305
13604TIP3    H240752   5.849   2.652   8.220
13605TIP3   OH240753   6.296   2.572   8.166
13605TIP3    H140754   6.324   2.630   8.092
13605TIP3    H240755   6.201   2.594   8.173
13606TIP3   OH240756   6.385   2.681   7.933
13606TIP3    H140757   6.458   2.628   7.891
13606TIP3    H240758   6.418   2.772   7.916
13607TIP3   OH240759   5.026   2.410   8.235
13607TIP3    H140760   4.934   2.396   8.263
13607TIP3    H240761   5.066   2.323   8.255
13608TIP3   OH240762   4.793   2.264   7.906
13608TIP3    H140763   4.836   2.325   7.844
13608TIP3    H240764   4.769   2.326   7.980
13609TIP3   OH240765   5.463   2.447   8.160
13609TIP3    H140766   5.520   2.493   8.096
13609TIP3    H240767   5.506   2.473   8.245
13610TIP3   OH240768   6.008   2.584   8.143
13610TIP3    H140769   6.006   2.546   8.055
13610TIP3    H240770   5.993   2.504   8.198
13611TIP3   OH240771   6.038   2.507   7.708
13611TIP3    H140772   5.952   2.550   7.721
13611TIP3    H240773   6.024   2.422   7.754
13612TIP3   OH240774   4.523   3.844   7.704
13612TIP3    H140775   4.436   3.812   7.674
13612TIP3    H240776   4.509   3.940   7.700
13613TIP3   OH240777   4.923   2.433   7.691
13613TIP3    H140778   4.974   2.373   7.635
13613TIP3    H240779   4.993   2.490   7.728
13614TIP3   OH240780   5.434   2.610   7.790
13614TIP3    H140781   5.494   2.564   7.851
13614TIP3    H240782   5.455   2.703   7.814
13615TIP3   OH240783   5.294   4.033   7.290
13615TIP3    H140784   5.382   4.057   7.253
13615TIP3    H240785   5.272   3.959   7.230
13616TIP3   OH240786   6.014   4.153   7.384
13616TIP3    H140787   6.006   4.055   7.372
13616TIP3    H240788   5.968   4.185   7.303
13617TIP3   OH240789   4.598   3.871   7.347
13617TIP3    H140790   4.598   3.893   7.441
13617TIP3    H240791   4.686   3.830   7.334
13618TIP3   OH240792   6.238   4.285   8.554
13618TIP3    H140793   6.151   4.271   8.510
13618TIP3    H240794   6.231   4.381   8.573
13619TIP3   OH240795   7.502   3.665   7.341
13619TIP3    H140796   7.479   3.758   7.322
13619TIP3    H240797   7.428   3.620   7.298
13620TIP3   OH240798   7.489   3.665   7.721
13620TIP3    H140799   7.568   3.617   7.751
13620TIP3    H240800   7.454   3.607   7.652
13621TIP3   OH240801   6.802   3.574   8.081
13621TIP3    H140802   6.832   3.503   8.141
13621TIP3    H240803   6.887   3.613   8.056
13622TIP3   OH240804   7.745   3.969   7.397
13622TIP3    H140805   7.742   3.896   7.462
13622TIP3    H240806   7.781   4.041   7.452
13623TIP3   OH240807   6.778   3.974   7.809
13623TIP3    H140808   6.770   3.876   7.810
13623TIP3    H240809   6.875   3.983   7.799
13624TIP3   OH240810   6.482   3.178   7.592
13624TIP3    H140811   6.431   3.260   7.605
13624TIP3    H240812   6.413   3.121   7.553
13625TIP3   OH240813   6.536   3.468   7.771
13625TIP3    H140814   6.587   3.391   7.806
13625TIP3    H240815   6.593   3.497   7.699
13626TIP3   OH240816   7.397   4.433   7.417
13626TIP3    H140817   7.442   4.362   7.367
13626TIP3    H240818   7.396   4.396   7.506
13627TIP3   OH240819   7.302   3.898   7.764
13627TIP3    H140820   7.343   3.814   7.736
13627TIP3    H240821   7.385   3.948   7.780
13628TIP3   OH240822   7.045   3.062   7.749
13628TIP3    H140823   7.022   3.135   7.688
13628TIP3    H240824   6.998   2.987   7.706
13629TIP3   OH240825   7.720   3.186   7.361
13629TIP3    H140826   7.783   3.121   7.400
13629TIP3    H240827   7.771   3.219   7.284
13630TIP3   OH240828   6.687   3.260   7.867
13630TIP3    H140829   6.772   3.242   7.911
13630TIP3    H240830   6.698   3.204   7.788
13631TIP3   OH240831   7.126   3.455   7.668
13631TIP3    H140832   7.219   3.425   7.677
13631TIP3    H240833   7.084   3.374   7.632
13632TIP3   OH240834   7.060   3.062   8.196
13632TIP3    H140835   6.993   3.090   8.130
13632TIP3    H240836   7.009   3.056   8.277
13633TIP3   OH240837   7.399   3.889   7.205
13633TIP3    H140838   7.354   3.871   7.121
13633TIP3    H240839   7.354   3.972   7.232
13634TIP3   OH240840   7.143   3.822   7.979
13634TIP3    H140841   7.087   3.893   8.019
13634TIP3    H240842   7.194   3.873   7.913
13635TIP3   OH240843   6.921   3.157   7.975
13635TIP3    H140844   6.987   3.226   8.000
13635TIP3    H240845   6.969   3.113   7.901
13636TIP3   OH240846   6.983   4.016   8.097
13636TIP3    H140847   6.959   4.103   8.059
13636TIP3    H240848   6.902   3.997   8.149
13637TIP3   OH240849   6.376   3.698   7.326
13637TIP3    H140850   6.337   3.723   7.240
13637TIP3    H240851   6.408   3.784   7.360
13638TIP3   OH240852   7.818   4.217   7.559
13638TIP3    H140853   7.732   4.201   7.603
13638TIP3    H240854   7.800   4.306   7.523
13639TIP3   OH240855   7.518   4.261   7.237
13639TIP3    H140856   7.569   4.178   7.220
13639TIP3    H240857   7.581   4.326   7.198
13640TIP3   OH240858   7.665   4.046   7.148
13640TIP3    H140859   7.622   3.968   7.112
13640TIP3    H240860   7.699   4.012   7.234
13641TIP3   OH240861   7.336   3.529   7.163
13641TIP3    H140862   7.254   3.579   7.143
13641TIP3    H240863   7.378   3.523   7.075
13642TIP3   OH240864   7.295   3.305   6.884
13642TIP3    H140865   7.363   3.358   6.929
13642TIP3    H240866   7.352   3.241   6.836
13643TIP3   OH240867   7.681   3.606   7.139
13643TIP3    H140868   7.627   3.629   7.218
13643TIP3    H240869   7.766   3.582   7.182
13644TIP3   OH240870   6.915   3.602   7.556
13644TIP3    H140871   6.873   3.544   7.490
13644TIP3    H240872   6.991   3.548   7.586
13645TIP3   OH240873   7.044   4.011   7.705
13645TIP3    H140874   7.024   3.974   7.618
13645TIP3    H240875   7.135   3.977   7.722
13646TIP3   OH240876   7.043   3.576   7.911
13646TIP3    H140877   7.078   3.547   7.823
13646TIP3    H240878   7.083   3.665   7.922
13647TIP3   OH240879   7.577   4.219   7.678
13647TIP3    H140880   7.568   4.297   7.736
13647TIP3    H240881   7.563   4.143   7.738
13648TIP3   OH240882   7.190   4.144   8.236
13648TIP3    H140883   7.120   4.199   8.277
13648TIP3    H240884   7.135   4.080   8.187
13649TIP3   OH240885   7.523   3.462   6.964
13649TIP3    H140886   7.581   3.523   7.014
13649TIP3    H240887   7.549   3.484   6.871
13650TIP3   OH240888   6.932   3.697   8.338
13650TIP3    H140889   6.924   3.783   8.384
13650TIP3    H240890   6.839   3.667   8.343
13651TIP3   OH240891   7.268   4.139   7.242
13651TIP3    H140892   7.348   4.193   7.255
13651TIP3    H240893   7.207   4.202   7.200
13652TIP3   OH240894   6.981   4.293   8.322
13652TIP3    H140895   6.943   4.303   8.233
13652TIP3    H240896   6.901   4.276   8.377
13653TIP3   OH240897   7.972   2.704   6.963
13653TIP3    H140898   7.916   2.721   7.042
13653TIP3    H240899   7.988   2.794   6.930
13654TIP3   OH240900   6.781   3.445   7.362
13654TIP3    H140901   6.714   3.489   7.305
13654TIP3    H240902   6.743   3.357   7.372
13655TIP3   OH240903   7.840   4.070   6.562
13655TIP3    H140904   7.849   4.166   6.546
13655TIP3    H240905   7.932   4.039   6.550
13656TIP3   OH240906   6.555   3.815   8.262
13656TIP3    H140907   6.554   3.784   8.170
13656TIP3    H240908   6.596   3.738   8.307
13657TIP3   OH240909   6.408   4.020   7.922
13657TIP3    H140910   6.501   4.002   7.904
13657TIP3    H240911   6.413   4.109   7.961
13658TIP3   OH240912   7.370   4.275   8.085
13658TIP3    H140913   7.406   4.334   8.153
13658TIP3    H240914   7.304   4.224   8.138
13659TIP3   OH240915   7.150   4.387   7.042
13659TIP3    H140916   7.102   4.367   6.960
13659TIP3    H240917   7.115   4.475   7.067
13660TIP3   OH240918   6.587   4.236   7.428
13660TIP3    H140919   6.634   4.226   7.513
13660TIP3    H240920   6.532   4.156   7.428
13661TIP3   OH240921   7.350   4.289   6.683
13661TIP3    H140922   7.409   4.219   6.647
13661TIP3    H240923   7.383   4.297   6.775
13662TIP3   OH240924   7.401   4.336   6.953
13662TIP3    H140925   7.312   4.346   6.993
13662TIP3    H240926   7.450   4.295   7.026
13663TIP3   OH240927   6.760   4.005   8.259
13663TIP3    H140928   6.804   3.993   8.346
13663TIP3    H240929   6.683   3.945   8.268
13664TIP3   OH240930   0.648   6.198   1.438
13664TIP3    H140931   0.712   6.136   1.479
13664TIP3    H240932   0.639   6.263   1.511
13665TIP3   OH240933   7.602   3.509   6.711
13665TIP3    H140934   7.565   3.484   6.624
13665TIP3    H240935   7.685   3.554   6.684
13666TIP3   OH240936   7.313   2.881   7.011
13666TIP3    H140937   7.275   2.878   7.101
13666TIP3    H240938   7.273   2.800   6.974
13667TIP3   OH240939   7.096   3.350   8.057
13667TIP3    H140940   7.044   3.372   8.137
13667TIP3    H240941   7.088   3.432   8.005
13668TIP3   OH240942   6.977   3.245   7.565
13668TIP3    H140943   6.885   3.215   7.585
13668TIP3    H240944   6.991   3.200   7.478
13669TIP3   OH240945   7.458   3.326   7.297
13669TIP3    H140946   7.411   3.398   7.249
13669TIP3    H240947   7.522   3.296   7.231
13670TIP3   OH240948   7.604   3.370   7.537
13670TIP3    H140949   7.546   3.401   7.466
13670TIP3    H240950   7.643   3.293   7.491
13671TIP3   OH240951   6.906   3.392   8.259
13671TIP3    H140952   6.948   3.449   8.325
13671TIP3    H240953   6.875   3.318   8.313
13672TIP3   OH240954   6.970   2.858   6.978
13672TIP3    H140955   6.957   2.855   7.075
13672TIP3    H240956   6.890   2.908   6.951
13673TIP3   OH240957   6.508   2.903   7.844
13673TIP3    H140958   6.583   2.935   7.898
13673TIP3    H240959   6.550   2.868   7.764
13674TIP3   OH240960   6.483   2.882   7.369
13674TIP3    H140961   6.528   2.919   7.290
13674TIP3    H240962   6.421   2.955   7.388
13675TIP3   OH240963   7.300   3.048   7.644
13675TIP3    H140964   7.210   3.041   7.682
13675TIP3    H240965   7.347   3.078   7.722
13676TIP3   OH240966   6.744   3.115   7.640
13676TIP3    H140967   6.649   3.122   7.614
13676TIP3    H240968   6.766   3.023   7.619
13677TIP3   OH240969   7.013   3.112   7.329
13677TIP3    H140970   7.106   3.126   7.301
13677TIP3    H240971   6.962   3.131   7.247
13678TIP3   OH240972   6.857   3.145   7.111
13678TIP3    H140973   6.785   3.098   7.064
13678TIP3    H240974   6.908   3.180   7.035
13679TIP3   OH240975   6.904   3.924   8.493
13679TIP3    H140976   6.981   3.974   8.523
13679TIP3    H240977   6.865   3.892   8.576
13680TIP3   OH240978   7.391   3.368   7.716
13680TIP3    H140979   7.471   3.362   7.659
13680TIP3    H240980   7.429   3.361   7.804
13681TIP3   OH240981   6.916   2.875   7.600
13681TIP3    H140982   6.874   2.806   7.656
13681TIP3    H240983   6.954   2.822   7.529
13682TIP3   OH240984   7.104   3.675   7.116
13682TIP3    H140985   7.033   3.608   7.105
13682TIP3    H240986   7.085   3.708   7.207
13683TIP3   OH240987   7.565   2.983   6.986
13683TIP3    H140988   7.468   2.965   6.989
13683TIP3    H240989   7.570   3.079   7.002
13684TIP3   OH240990   7.448   3.990   8.070
13684TIP3    H140991   7.463   3.942   8.153
13684TIP3    H240992   7.440   4.082   8.099
13685TIP3   OH240993   7.635   3.238   7.076
13685TIP3    H140994   7.732   3.249   7.075
13685TIP3    H240995   7.605   3.316   7.025
13686TIP3   OH240996   6.798   3.697   7.790
13686TIP3    H140997   6.834   3.671   7.703
13686TIP3    H240998   6.843   3.635   7.849
13687TIP3   OH240999   7.252   3.823   6.940
13687TIP3    H141000   7.204   3.910   6.944
13687TIP3    H241001   7.196   3.769   6.999
13688TIP3   OH241002   6.673   3.614   8.403
13688TIP3    H141003   6.666   3.585   8.497
13688TIP3    H241004   6.608   3.552   8.363
13689TIP3   OH241005   7.648   4.282   8.020
13689TIP3    H141006   7.554   4.278   7.998
13689TIP3    H241007   7.648   4.345   8.094
13690TIP3   OH241008   8.074   3.326   6.924
13690TIP3    H141009   8.016   3.282   6.858
13690TIP3    H241010   8.074   3.415   6.883
13691TIP3   OH241011   7.779   4.143   6.828
13691TIP3    H141012   7.749   4.074   6.889
13691TIP3    H241013   7.789   4.095   6.744
13692TIP3   OH241014   7.761   3.772   7.595
13692TIP3    H141015   7.671   3.762   7.631
13692TIP3    H241016   7.790   3.681   7.584
13693TIP3   OH241017   6.901   4.001   7.419
13693TIP3    H141018   6.900   4.082   7.365
13693TIP3    H241019   6.806   3.981   7.426
13694TIP3   OH241020   6.466   3.303   7.125
13694TIP3    H141021   6.509   3.389   7.144
13694TIP3    H241022   6.387   3.308   7.183
13695TIP3   OH241023   7.037   3.765   7.362
13695TIP3    H141024   7.003   3.855   7.381
13695TIP3    H241025   7.000   3.714   7.436
13696TIP3   OH241026   7.168   4.343   7.885
13696TIP3    H141027   7.211   4.411   7.828
13696TIP3    H241028   7.246   4.307   7.932
13697TIP3   OH241029   6.819   4.239   7.269
13697TIP3    H141030   6.733   4.248   7.316
13697TIP3    H241031   6.850   4.332   7.272
13698TIP3   OH241032   7.559   3.988   7.826
13698TIP3    H141033   7.523   3.985   7.918
13698TIP3    H241034   7.644   3.939   7.840
13699TIP3   OH241035   7.532   3.874   6.727
13699TIP3    H141036   7.584   3.848   6.806
13699TIP3    H241037   7.444   3.843   6.754
13700TIP3   OH241038   7.873   4.347   6.545
13700TIP3    H141039   7.916   4.426   6.506
13700TIP3    H241040   7.791   4.389   6.579
13701TIP3   OH241041   7.691   3.805   6.943
13701TIP3    H141042   7.680   3.740   7.015
13701TIP3    H241043   7.788   3.802   6.930
13702TIP3   OH241044   6.607   4.211   8.045
13702TIP3    H141045   6.665   4.139   8.076
13702TIP3    H241046   6.635   4.284   8.101
13703TIP3   OH241047   6.898   3.851   6.728
13703TIP3    H141048   6.910   3.759   6.699
13703TIP3    H241049   6.877   3.839   6.823
13704TIP3   OH241050   6.842   3.856   7.001
13704TIP3    H141051   6.916   3.829   7.057
13704TIP3    H241052   6.847   3.954   7.008
13705TIP3   OH241053   6.578   3.550   7.204
13705TIP3    H141054   6.511   3.595   7.260
13705TIP3    H241055   6.591   3.619   7.135
13706TIP3   OH241056   7.605   2.947   7.259
13706TIP3    H141057   7.592   2.951   7.162
13706TIP3    H241058   7.629   3.039   7.279
13707TIP3   OH241059   7.110   4.053   6.949
13707TIP3    H141060   7.023   4.079   6.986
13707TIP3    H241061   7.123   4.124   6.885
13708TIP3   OH241062   7.301   3.115   7.368
13708TIP3    H141063   7.357   3.191   7.344
13708TIP3    H241064   7.294   3.126   7.465
13709TIP3   OH241065   7.437   2.867   7.462
13709TIP3    H141066   7.401   2.953   7.491
13709TIP3    H241067   7.501   2.897   7.392
13710TIP3   OH241068   6.855   4.129   7.017
13710TIP3    H141069   6.823   4.199   6.954
13710TIP3    H241070   6.837   4.172   7.103
13711TIP3   OH241071   6.950   2.843   7.255
13711TIP3    H141072   6.948   2.932   7.293
13711TIP3    H241073   7.046   2.824   7.260
13712TIP3   OH241074   7.866   3.489   7.534
13712TIP3    H141075   7.776   3.457   7.559
13712TIP3    H241076   7.903   3.514   7.620
13713TIP3   OH241077   6.571   3.757   7.009
13713TIP3    H141078   6.639   3.826   7.017
13713TIP3    H241079   6.614   3.700   6.941
13714TIP3   OH241080   6.514   3.033   7.144
13714TIP3    H141081   6.512   3.131   7.140
13714TIP3    H241082   6.435   3.010   7.094
13715TIP3   OH241083   7.815   4.492   7.492
13715TIP3    H141084   7.782   4.541   7.413
13715TIP3    H241085   7.909   4.487   7.475
13716TIP3   OH241086   7.049   2.606   7.925
13716TIP3    H141087   6.975   2.664   7.900
13716TIP3    H241088   7.041   2.605   8.022
13717TIP3   OH241089   6.441   3.975   7.396
13717TIP3    H141090   6.368   4.005   7.451
13717TIP3    H241091   6.415   4.014   7.309
13718TIP3   OH241092   6.602   4.504   8.440
13718TIP3    H141093   6.660   4.508   8.518
13718TIP3    H241094   6.562   4.416   8.449
13719TIP3   OH241095   7.062   4.054   6.641
13719TIP3    H141096   7.005   3.983   6.678
13719TIP3    H241097   7.136   4.001   6.607
13720TIP3   OH241098   7.498   4.095   6.554
13720TIP3    H141099   7.537   4.028   6.613
13720TIP3    H241100   7.555   4.090   6.474
13721TIP3   OH241101   6.706   3.572   6.862
13721TIP3    H141102   6.762   3.538   6.934
13721TIP3    H241103   6.772   3.576   6.790
13722TIP3   OH241104   7.219   3.772   6.670
13722TIP3    H141105   7.219   3.782   6.767
13722TIP3    H241106   7.219   3.674   6.662
13723TIP3   OH241107   6.916   3.475   7.085
13723TIP3    H141108   6.886   3.432   7.166
13723TIP3    H241109   6.951   3.400   7.033
13724TIP3   OH241110   7.160   3.554   8.321
13724TIP3    H141111   7.078   3.608   8.321
13724TIP3    H241112   7.205   3.589   8.241
13725TIP3   OH241113   7.014   3.270   6.924
13725TIP3    H141114   6.988   3.274   6.829
13725TIP3    H241115   7.112   3.273   6.916
13726TIP3   OH241116   7.836   3.600   6.589
13726TIP3    H141117   7.816   3.554   6.505
13726TIP3    H241118   7.802   3.689   6.565
13727TIP3   OH241119   7.299   3.642   8.107
13727TIP3    H141120   7.380   3.644   8.053
13727TIP3    H241121   7.243   3.709   8.060
13728TIP3   OH241122   6.823   4.334   6.831
13728TIP3    H141123   6.918   4.327   6.809
13728TIP3    H241124   6.792   4.381   6.751
13729TIP3   OH241125   6.302   3.711   7.047
13729TIP3    H141126   6.396   3.733   7.030
13729TIP3    H241127   6.294   3.623   7.004
13730TIP3   OH241128   6.217   4.327   7.456
13730TIP3    H141129   6.150   4.266   7.420
13730TIP3    H241130   6.261   4.270   7.522
13731TIP3   OH241131   6.351   4.179   7.644
13731TIP3    H141132   6.336   4.106   7.706
13731TIP3    H241133   6.405   4.239   7.699
13732TIP3   OH241134   7.968   3.789   6.919
13732TIP3    H141135   8.033   3.856   6.889
13732TIP3    H241136   8.015   3.750   6.996
13733TIP3   OH241137   8.097   3.660   7.127
13733TIP3    H141138   8.025   3.608   7.170
13733TIP3    H241139   8.124   3.717   7.200
13734TIP3   OH241140   8.078   4.004   7.487
13734TIP3    H141141   8.172   4.006   7.510
13734TIP3    H241142   8.056   4.098   7.479
13735TIP3   OH241143   7.996   4.380   7.709
13735TIP3    H141144   7.957   4.381   7.798
13735TIP3    H241145   7.942   4.310   7.667
13736TIP3   OH241146   8.033   3.561   6.776
13736TIP3    H141147   7.966   3.561   6.704
13736TIP3    H241148   8.005   3.640   6.825
13737TIP3   OH241149   7.907   3.236   6.731
13737TIP3    H141150   7.870   3.274   6.650
13737TIP3    H241151   7.882   3.141   6.719
13738TIP3   OH241152   7.913   3.509   7.263
13738TIP3    H141153   7.917   3.414   7.241
13738TIP3    H241154   7.898   3.508   7.360
13739TIP3   OH241155   6.537   3.587   8.031
13739TIP3    H141156   6.527   3.563   7.936
13739TIP3    H241157   6.635   3.587   8.038
13740TIP3   OH241158   7.850   2.972   6.713
13740TIP3    H141159   7.926   2.936   6.763
13740TIP3    H241160   7.777   2.911   6.732
13741TIP3   OH241161   7.915   3.241   7.151
13741TIP3    H141162   7.939   3.148   7.161
13741TIP3    H241163   7.975   3.268   7.078
13742TIP3   OH241164   6.704   2.979   8.023
13742TIP3    H141165   6.768   2.906   8.039
13742TIP3    H241166   6.767   3.051   8.007
13743TIP3   OH241167   6.519   3.240   8.092
13743TIP3    H141168   6.566   3.226   8.007
13743TIP3    H241169   6.560   3.321   8.123
13744TIP3   OH241170   8.104   2.912   6.832
13744TIP3    H141171   8.146   2.850   6.770
13744TIP3    H241172   8.169   2.986   6.837
13745TIP3   OH241173   6.505   2.743   7.599
13745TIP3    H141174   6.411   2.735   7.623
13745TIP3    H241175   6.501   2.799   7.519
13746TIP3   OH241176   7.663   4.444   7.101
13746TIP3    H141177   7.716   4.433   7.020
13746TIP3    H241178   7.714   4.512   7.149
13747TIP3   OH241179   6.658   2.804   8.407
13747TIP3    H141180   6.634   2.819   8.499
13747TIP3    H241181   6.597   2.866   8.360
13748TIP3   OH241182   6.769   4.236   8.495
13748TIP3    H141183   6.677   4.223   8.464
13748TIP3    H241184   6.758   4.224   8.590
13749TIP3   OH241185   6.942   4.285   8.036
13749TIP3    H141186   6.895   4.361   7.996
13749TIP3    H241187   7.028   4.297   7.991
13750TIP3   OH241188   6.619   4.535   8.062
13750TIP3    H141189   6.528   4.565   8.040
13750TIP3    H241190   6.633   4.584   8.145
13751TIP3   OH241191   6.856   4.518   7.919
13751TIP3    H141192   6.769   4.529   7.963
13751TIP3    H241193   6.836   4.550   7.829
13752TIP3   OH241194   7.269   4.534   7.707
13752TIP3    H141195   7.202   4.561   7.641
13752TIP3    H241196   7.290   4.620   7.751
13753TIP3   OH241197   7.535   4.480   7.769
13753TIP3    H141198   7.445   4.501   7.740
13753TIP3    H241199   7.585   4.558   7.738
13754TIP3   OH241200   7.683   4.693   7.649
13754TIP3    H141201   7.767   4.738   7.671
13754TIP3    H241202   7.718   4.614   7.602
13755TIP3   OH241203   6.532   4.331   7.800
13755TIP3    H141204   6.556   4.307   7.892
13755TIP3    H241205   6.605   4.286   7.752
13756TIP3   OH241206   6.725   4.200   7.661
13756TIP3    H141207   6.742   4.117   7.711
13756TIP3    H241208   6.816   4.238   7.655
13757TIP3   OH241209   6.990   4.297   7.664
13757TIP3    H141210   7.023   4.207   7.650
13757TIP3    H241211   7.036   4.319   7.748
13758TIP3   OH241212   6.798   2.686   7.757
13758TIP3    H141213   6.704   2.661   7.766
13758TIP3    H241214   6.838   2.597   7.747
13759TIP3   OH241215   6.604   2.531   7.416
13759TIP3    H141216   6.632   2.588   7.342
13759TIP3    H241217   6.575   2.596   7.483
13760TIP3   OH241218   7.237   2.706   7.642
13760TIP3    H141219   7.277   2.784   7.602
13760TIP3    H241220   7.226   2.734   7.734
13761TIP3   OH241221   7.831   2.775   7.187
13761TIP3    H141222   7.752   2.818   7.224
13761TIP3    H241223   7.833   2.692   7.238
13762TIP3   OH241224   6.318   4.104   7.194
13762TIP3    H141225   6.233   4.070   7.161
13762TIP3    H241226   6.307   4.198   7.171
13763TIP3   OH241227   6.718   2.689   7.179
13763TIP3    H141228   6.766   2.626   7.121
13763TIP3    H241229   6.791   2.743   7.214
13764TIP3   OH241230   7.225   2.870   7.272
13764TIP3    H141231   7.281   2.818   7.332
13764TIP3    H241232   7.250   2.961   7.300
13765TIP3   OH241233   7.090   4.291   6.776
13765TIP3    H141234   7.179   4.313   6.740
13765TIP3    H241235   7.068   4.216   6.716
13766TIP3   OH241236   7.811   4.410   6.869
13766TIP3    H141237   7.802   4.312   6.860
13766TIP3    H241238   7.763   4.440   6.789
13767TIP3   OH241239   6.395   4.130   6.832
13767TIP3    H141240   6.395   4.151   6.927
13767TIP3    H241241   6.483   4.086   6.821
13768TIP3   OH241242   8.261   3.426   7.130
13768TIP3    H141243   8.219   3.513   7.116
13768TIP3    H241244   8.222   3.376   7.057
13769TIP3   OH241245   8.159   3.968   6.820
13769TIP3    H141246   8.123   3.992   6.733
13769TIP3    H241247   8.197   4.052   6.852
13770TIP3   OH241248   8.534   3.646   6.764
13770TIP3    H141249   8.463   3.712   6.756
13770TIP3    H241250   8.569   3.656   6.854
13771TIP3   OH241251   8.186   4.297   7.397
13771TIP3    H141252   8.281   4.283   7.375
13771TIP3    H241253   8.189   4.288   7.494
13772TIP3   OH241254   8.913   4.623   6.537
13772TIP3    H141255   8.888   4.612   6.444
13772TIP3    H241256   8.883   4.713   6.559
13773TIP3   OH241257   8.386   4.493   6.922
13773TIP3    H141258   8.415   4.478   7.013
13773TIP3    H241259   8.326   4.417   6.909
13774TIP3   OH241260   8.718   3.206   6.477
13774TIP3    H141261   8.741   3.113   6.499
13774TIP3    H241262   8.654   3.195   6.405
13775TIP3   OH241263   8.277   3.130   6.860
13775TIP3    H141264   8.321   3.167   6.781
13775TIP3    H241265   8.217   3.204   6.880
13776TIP3   OH241266   8.608   3.439   6.577
13776TIP3    H141267   8.569   3.355   6.551
13776TIP3    H241268   8.691   3.437   6.528
13777TIP3   OH241269   8.864   3.953   6.605
13777TIP3    H141270   8.816   3.870   6.585
13777TIP3    H241271   8.849   3.961   6.700
13778TIP3   OH241272   9.007   4.077   6.399
13778TIP3    H141273   8.983   4.167   6.430
13778TIP3    H241274   8.980   4.024   6.476
13779TIP3   OH241275   8.698   4.268   6.864
13779TIP3    H141276   8.678   4.350   6.816
13779TIP3    H241277   8.624   4.260   6.926
13780TIP3   OH241278   8.249   3.560   6.598
13780TIP3    H141279   8.309   3.633   6.623
13780TIP3    H241280   8.182   3.564   6.669
13781TIP3   OH241281   8.820   4.027   6.887
13781TIP3    H141282   8.784   4.116   6.866
13781TIP3    H241283   8.754   3.995   6.950
13782TIP3   OH241284   8.606   4.507   6.752
13782TIP3    H141285   8.520   4.512   6.800
13782TIP3    H241286   8.651   4.586   6.784
13783TIP3   OH241287   8.690   4.107   6.216
13783TIP3    H141288   8.695   4.014   6.188
13783TIP3    H241289   8.671   4.096   6.312
13784TIP3   OH241290   8.639   4.113   6.486
13784TIP3    H141291   8.718   4.078   6.531
13784TIP3    H241292   8.647   4.209   6.501
13785TIP3   OH241293   8.346   3.823   6.679
13785TIP3    H141294   8.282   3.868   6.738
13785TIP3    H241295   8.365   3.893   6.614
13786TIP3   OH241296   8.908   4.322   6.457
13786TIP3    H141297   8.817   4.348   6.481
13786TIP3    H241298   8.928   4.390   6.390
13787TIP3   OH241299   8.645   4.387   6.503
13787TIP3    H141300   8.612   4.455   6.439
13787TIP3    H241301   8.630   4.434   6.588
13788TIP3   OH241302   8.368   4.025   6.484
13788TIP3    H141303   8.443   4.085   6.498
13788TIP3    H241304   8.411   3.963   6.421
13789TIP3   OH241305   8.305   3.286   6.636
13789TIP3    H141306   8.330   3.380   6.626
13789TIP3    H241307   8.228   3.281   6.579
13790TIP3   OH241308   8.239   4.233   6.883
13790TIP3    H141309   8.169   4.265   6.942
13790TIP3    H241310   8.209   4.270   6.796
13791TIP3   OH241311   8.855   4.306   6.133
13791TIP3    H141312   8.790   4.239   6.165
13791TIP3    H241313   8.936   4.254   6.142
13792TIP3   OH241314   8.504   3.830   6.346
13792TIP3    H141315   8.548   3.787   6.422
13792TIP3    H241316   8.577   3.832   6.281
13793TIP3   OH241317   8.996   4.009   6.142
13793TIP3    H141318   9.014   4.042   6.234
13793TIP3    H241319   8.927   3.944   6.162
13794TIP3   OH241320   8.714   3.727   6.570
13794TIP3    H141321   8.652   3.685   6.635
13794TIP3    H241322   8.747   3.647   6.525
13795TIP3   OH241323   8.824   3.523   6.415
13795TIP3    H141324   8.785   3.523   6.325
13795TIP3    H241325   8.918   3.511   6.393
13796TIP3   OH241326   8.607   4.589   6.321
13796TIP3    H141327   8.703   4.586   6.307
13796TIP3    H241328   8.581   4.636   6.239
13797TIP3   OH241329   8.100   3.971   6.534
13797TIP3    H141330   8.193   3.995   6.514
13797TIP3    H241331   8.094   3.881   6.495
13798TIP3   OH241332   8.013   4.583   6.941
13798TIP3    H141333   7.945   4.522   6.906
13798TIP3    H241334   8.060   4.524   7.005
13799TIP3   OH241335   8.151   4.424   7.117
13799TIP3    H141336   8.127   4.356   7.182
13799TIP3    H241337   8.192   4.490   7.177
13800TIP3   OH241338   8.115   4.360   6.681
13800TIP3    H141339   8.031   4.324   6.648
13800TIP3    H241340   8.100   4.455   6.667
13801TIP3   OH241341   8.499   2.986   6.649
13801TIP3    H141342   8.577   2.927   6.649
13801TIP3    H241343   8.513   3.037   6.731
13802TIP3   OH241344   8.873   4.547   6.268
13802TIP3    H141345   8.962   4.560   6.228
13802TIP3    H241346   8.844   4.471   6.213
13803TIP3   OH241347   8.192   4.387   6.321
13803TIP3    H141348   8.193   4.402   6.416
13803TIP3    H241349   8.278   4.343   6.305
13804TIP3   OH241350   1.873   5.078   8.286
13804TIP3    H141351   1.901   5.023   8.211
13804TIP3    H241352   1.954   5.125   8.312
13805TIP3   OH241353   1.568   4.346   8.068
13805TIP3    H141354   1.641   4.407   8.093
13805TIP3    H241355   1.617   4.283   8.013
13806TIP3   OH241356   1.782   4.503   8.130
13806TIP3    H141357   1.794   4.595   8.157
13806TIP3    H241358   1.803   4.512   8.034
13807TIP3   OH241359   2.089   5.116   7.740
13807TIP3    H141360   2.099   5.211   7.720
13807TIP3    H241361   2.181   5.084   7.727
13808TIP3   OH241362   1.395   5.430   8.207
13808TIP3    H141363   1.352   5.424   8.120
13808TIP3    H241364   1.369   5.521   8.236
13809TIP3   OH241365   1.604   5.335   7.858
13809TIP3    H141366   1.661   5.264   7.823
13809TIP3    H241367   1.636   5.343   7.950
13810TIP3   OH241368   1.656   5.387   8.129
13810TIP3    H141369   1.566   5.387   8.168
13810TIP3    H241370   1.709   5.351   8.202
13811TIP3   OH241371   1.850   4.562   7.881
13811TIP3    H141372   1.812   4.531   7.796
13811TIP3    H241373   1.936   4.597   7.850
13812TIP3   OH241374   1.513   4.865   8.068
13812TIP3    H141375   1.478   4.956   8.086
13812TIP3    H241376   1.477   4.818   8.144
13813TIP3   OH241377   2.332   4.369   8.078
13813TIP3    H141378   2.261   4.324   8.028
13813TIP3    H241379   2.330   4.456   8.033
13814TIP3   OH241380   2.032   5.185   8.001
13814TIP3    H141381   1.997   5.106   8.043
13814TIP3    H241382   2.045   5.154   7.909
13815TIP3   OH241383   1.775   4.918   7.905
13815TIP3    H141384   1.826   4.896   7.985
13815TIP3    H241385   1.686   4.891   7.934
13816TIP3   OH241386   2.119   5.390   7.724
13816TIP3    H141387   2.159   5.465   7.675
13816TIP3    H241388   2.039   5.435   7.757
13817TIP3   OH241389   1.948   4.872   8.120
13817TIP3    H141390   1.932   4.806   8.189
13817TIP3    H241391   2.045   4.859   8.103
13818TIP3   OH241392   1.149   4.895   7.909
13818TIP3    H141393   1.173   4.806   7.878
13818TIP3    H241394   1.105   4.876   7.994
13819TIP3   OH241395   1.399   5.109   8.112
13819TIP3    H141396   1.347   5.134   8.191
13819TIP3    H241397   1.376   5.180   8.050
13820TIP3   OH241398   0.967   5.200   8.150
13820TIP3    H141399   0.990   5.271   8.085
13820TIP3    H241400   1.027   5.223   8.222
13821TIP3   OH241401   1.308   5.098   7.812
13821TIP3    H141402   1.252   5.029   7.854
13821TIP3    H241403   1.381   5.044   7.778
13822TIP3   OH241404   1.750   5.141   7.730
13822TIP3    H141405   1.789   5.072   7.787
13822TIP3    H241406   1.803   5.135   7.648
13823TIP3   OH241407   0.925   4.646   7.974
13823TIP3    H141408   0.958   4.704   8.046
13823TIP3    H241409   1.009   4.628   7.927
13824TIP3   OH241410   1.452   4.805   7.814
13824TIP3    H141411   1.464   4.826   7.909
13824TIP3    H241412   1.460   4.707   7.819
13825TIP3   OH241413   1.212   4.368   8.079
13825TIP3    H141414   1.214   4.355   7.982
13825TIP3    H241415   1.306   4.372   8.102
13826TIP3   OH241416   2.086   4.644   7.766
13826TIP3    H141417   2.069   4.597   7.682
13826TIP3    H241418   2.052   4.733   7.741
13827TIP3   OH241419   1.078   5.392   7.992
13827TIP3    H141420   1.174   5.381   7.977
13827TIP3    H241421   1.057   5.449   7.915
13828TIP3   OH241422   2.216   4.852   8.094
13828TIP3    H141423   2.287   4.909   8.055
13828TIP3    H241424   2.248   4.846   8.186
13829TIP3   OH241425   2.351   4.660   8.266
13829TIP3    H141426   2.276   4.684   8.322
13829TIP3    H241427   2.309   4.615   8.191
13830TIP3   OH241428   2.280   4.617   7.957
13830TIP3    H141429   2.213   4.607   7.886
13830TIP3    H241430   2.254   4.704   7.992
13831TIP3   OH241431   2.145   4.285   7.899
13831TIP3    H141432   2.112   4.309   7.812
13831TIP3    H241433   2.128   4.188   7.898
13832TIP3   OH241434   2.097   4.019   7.895
13832TIP3    H141435   2.176   3.985   7.941
13832TIP3    H241436   2.026   3.960   7.926
13833TIP3   OH241437   2.346   3.965   8.009
13833TIP3    H141438   2.384   3.888   7.964
13833TIP3    H241439   2.420   4.028   8.007
13834TIP3   OH241440   1.937   5.441   8.294
13834TIP3    H141441   1.969   5.455   8.203
13834TIP3    H241442   1.968   5.522   8.339
13835TIP3   OH241443   1.342   5.338   7.939
13835TIP3    H141444   1.433   5.355   7.906
13835TIP3    H241445   1.318   5.263   7.880
13836TIP3   OH241446   2.058   5.455   8.045
13836TIP3    H141447   2.052   5.358   8.032
13836TIP3    H241448   2.012   5.487   7.965
13837TIP3   OH241449   3.552   4.972   7.998
13837TIP3    H141450   3.518   5.062   7.979
13837TIP3    H241451   3.476   4.919   7.969
13838TIP3   OH241452   3.523   4.980   8.368
13838TIP3    H141453   3.577   4.960   8.447
13838TIP3    H241454   3.494   4.892   8.341
13839TIP3   OH241455   3.785   5.274   8.076
13839TIP3    H141456   3.761   5.187   8.113
13839TIP3    H241457   3.869   5.290   8.120
13840TIP3   OH241458   2.820   5.290   8.463
13840TIP3    H141459   2.810   5.192   8.466
13840TIP3    H241460   2.918   5.294   8.462
13841TIP3   OH241461   2.564   4.497   8.199
13841TIP3    H141462   2.509   4.573   8.226
13841TIP3    H241463   2.499   4.426   8.208
13842TIP3   OH241464   2.719   4.733   8.400
13842TIP3    H141465   2.666   4.755   8.478
13842TIP3    H241466   2.667   4.773   8.330
13843TIP3   OH241467   3.489   5.732   8.122
13843TIP3    H141468   3.513   5.669   8.050
13843TIP3    H241469   3.402   5.696   8.146
13844TIP3   OH241470   3.349   5.203   8.406
13844TIP3    H141471   3.388   5.118   8.377
13844TIP3    H241472   3.429   5.245   8.442
13845TIP3   OH241473   4.361   4.522   8.408
13845TIP3    H141474   4.383   4.605   8.456
13845TIP3    H241475   4.397   4.539   8.319
13846TIP3   OH241476   3.748   4.680   8.463
13846TIP3    H141477   3.798   4.598   8.484
13846TIP3    H241478   3.729   4.666   8.368
13847TIP3   OH241479   3.136   4.345   8.387
13847TIP3    H141480   3.097   4.428   8.353
13847TIP3    H241481   3.071   4.281   8.351
13848TIP3   OH241482   3.793   4.447   8.050
13848TIP3    H141483   3.862   4.432   8.118
13848TIP3    H241484   3.847   4.489   7.981
13849TIP3   OH241485   3.172   4.758   8.330
13849TIP3    H141486   3.266   4.731   8.337
13849TIP3    H241487   3.131   4.677   8.294
13850TIP3   OH241488   4.428   4.716   8.598
13850TIP3    H141489   4.356   4.770   8.561
13850TIP3    H241490   4.428   4.747   8.689
13851TIP3   OH241491   3.438   5.192   7.871
13851TIP3    H141492   3.402   5.171   7.783
13851TIP3    H241493   3.388   5.271   7.895
13852TIP3   OH241494   3.996   4.456   8.228
13852TIP3    H141495   4.013   4.393   8.299
13852TIP3    H241496   4.062   4.526   8.245
13853TIP3   OH241497   2.419   5.005   7.988
13853TIP3    H141498   2.388   5.031   7.899
13853TIP3    H241499   2.455   5.089   8.023
13854TIP3   OH241500   3.820   5.559   8.249
13854TIP3    H141501   3.770   5.476   8.257
13854TIP3    H241502   3.857   5.550   8.160
13855TIP3   OH241503   4.137   4.452   8.572
13855TIP3    H141504   4.050   4.478   8.537
13855TIP3    H241505   4.201   4.488   8.508
13856TIP3   OH241506   3.563   5.568   7.913
13856TIP3    H141507   3.607   5.481   7.892
13856TIP3    H241508   3.627   5.627   7.866
13857TIP3   OH241509   3.699   5.349   7.817
13857TIP3    H141510   3.680   5.272   7.761
13857TIP3    H241511   3.729   5.307   7.900
13858TIP3   OH241512   4.088   5.434   8.573
13858TIP3    H141513   4.074   5.352   8.520
13858TIP3    H241514   4.087   5.501   8.501
13859TIP3   OH241515   3.381   4.823   7.830
13859TIP3    H141516   3.301   4.875   7.808
13859TIP3    H241517   3.428   4.820   7.745
13860TIP3   OH241518   3.338   4.608   7.544
13860TIP3    H141519   3.406   4.657   7.594
13860TIP3    H241520   3.393   4.539   7.503
13861TIP3   OH241521   3.729   4.905   7.800
13861TIP3    H141522   3.674   4.927   7.879
13861TIP3    H241523   3.812   4.877   7.844
13862TIP3   OH241524   3.955   4.969   8.690
13862TIP3    H141525   3.952   5.064   8.706
13862TIP3    H241526   3.874   4.957   8.636
13863TIP3   OH241527   2.964   4.911   8.215
13863TIP3    H141528   2.919   4.846   8.157
13863TIP3    H241529   3.035   4.856   8.254
13864TIP3   OH241530   3.093   5.320   8.366
13864TIP3    H141531   3.073   5.271   8.285
13864TIP3    H241532   3.180   5.281   8.390
13865TIP3   OH241533   3.093   4.888   8.560
13865TIP3    H141534   3.115   4.835   8.480
13865TIP3    H241535   3.181   4.903   8.596
13866TIP3   OH241536   3.567   4.762   7.628
13866TIP3    H141537   3.627   4.820   7.681
13866TIP3    H241538   3.595   4.786   7.536
13867TIP3   OH241539   3.310   5.449   7.911
13867TIP3    H141540   3.394   5.497   7.909
13867TIP3    H241541   3.253   5.500   7.853
13868TIP3   OH241542   4.086   4.027   7.667
13868TIP3    H141543   4.018   4.023   7.739
13868TIP3    H241544   4.057   4.112   7.629
13869TIP3   OH241545   2.826   4.744   8.022
13869TIP3    H141546   2.758   4.784   7.964
13869TIP3    H241547   2.788   4.659   8.043
13870TIP3   OH241548   3.887   5.371   7.227
13870TIP3    H141549   3.893   5.467   7.209
13870TIP3    H241550   3.980   5.342   7.214
13871TIP3   OH241551   4.327   5.777   8.615
13871TIP3    H141552   4.330   5.679   8.628
13871TIP3    H241553   4.242   5.796   8.662
13872TIP3   OH241554   3.194   5.686   7.709
13872TIP3    H141555   3.149   5.664   7.625
13872TIP3    H241556   3.161   5.775   7.728
13873TIP3   OH241557   2.627   5.539   8.088
13873TIP3    H141558   2.682   5.529   8.169
13873TIP3    H241559   2.575   5.456   8.092
13874TIP3   OH241560   3.394   5.592   7.347
13874TIP3    H141561   3.457   5.528   7.308
13874TIP3    H241562   3.430   5.601   7.438
13875TIP3   OH241563   3.446   5.641   7.617
13875TIP3    H141564   3.357   5.647   7.658
13875TIP3    H241565   3.494   5.587   7.681
13876TIP3   OH241566   3.644   4.805   7.371
13876TIP3    H141567   3.611   4.782   7.282
13876TIP3    H241568   3.725   4.855   7.348
13877TIP3   OH241569   3.352   4.185   7.680
13877TIP3    H141570   3.318   4.180   7.772
13877TIP3    H241571   3.315   4.102   7.645
13878TIP3   OH241572   3.029   4.548   8.233
13878TIP3    H141573   2.937   4.526   8.257
13878TIP3    H241574   3.036   4.504   8.145
13879TIP3   OH241575   3.521   4.625   7.965
13879TIP3    H141576   3.470   4.695   7.919
13879TIP3    H241577   3.578   4.590   7.893
13880TIP3   OH241578   3.674   4.650   8.199
13880TIP3    H141579   3.614   4.676   8.126
13880TIP3    H241580   3.710   4.568   8.157
13881TIP3   OH241581   3.011   4.157   7.638
13881TIP3    H141582   3.005   4.155   7.735
13881TIP3    H241583   2.932   4.209   7.615
13882TIP3   OH241584   2.539   4.190   8.034
13882TIP3    H141585   2.580   4.225   7.952
13882TIP3    H241586   2.472   4.259   8.050
13883TIP3   OH241587   3.697   4.923   8.571
13883TIP3    H141588   3.718   4.830   8.545
13883TIP3    H241589   3.667   4.914   8.663
13884TIP3   OH241590   3.383   4.374   8.273
13884TIP3    H141591   3.293   4.369   8.313
13884TIP3    H241592   3.438   4.382   8.353
13885TIP3   OH241593   2.799   4.397   8.288
13885TIP3    H141594   2.716   4.440   8.258
13885TIP3    H241595   2.818   4.336   8.215
13886TIP3   OH241596   3.056   4.413   7.994
13886TIP3    H141597   3.151   4.426   7.974
13886TIP3    H241598   3.011   4.433   7.909
13887TIP3   OH241599   3.848   4.430   8.517
13887TIP3    H141600   3.820   4.429   8.610
13887TIP3    H241601   3.780   4.374   8.476
13888TIP3   OH241602   2.899   4.446   7.771
13888TIP3    H141603   2.829   4.400   7.721
13888TIP3    H241604   2.952   4.483   7.698
13889TIP3   OH241605   4.039   6.114   8.703
13889TIP3    H141606   4.032   6.143   8.610
13889TIP3    H241607   4.063   6.195   8.748
13890TIP3   OH241608   3.442   4.687   8.380
13890TIP3    H141609   3.513   4.654   8.323
13890TIP3    H241610   3.474   4.661   8.468
13891TIP3   OH241611   2.985   4.177   8.219
13891TIP3    H141612   2.946   4.106   8.273
13891TIP3    H241613   3.046   4.130   8.161
13892TIP3   OH241614   3.147   4.975   7.778
13892TIP3    H141615   3.076   4.908   7.769
13892TIP3    H241616   3.130   5.009   7.869
13893TIP3   OH241617   4.036   5.228   8.414
13893TIP3    H141618   4.095   5.235   8.337
13893TIP3    H241619   3.968   5.164   8.383
13894TIP3   OH241620   3.572   4.322   7.587
13894TIP3    H141621   3.497   4.280   7.635
13894TIP3    H241622   3.615   4.376   7.657
13895TIP3   OH241623   3.675   4.525   7.751
13895TIP3    H141624   3.766   4.494   7.731
13895TIP3    H241625   3.667   4.607   7.699
13896TIP3   OH241626   2.846   5.017   8.444
13896TIP3    H141627   2.884   4.992   8.357
13896TIP3    H241628   2.866   4.936   8.493
13897TIP3   OH241629   3.305   5.127   7.615
13897TIP3    H141630   3.254   5.211   7.615
13897TIP3    H241631   3.246   5.070   7.670
13898TIP3   OH241632   3.701   5.618   8.663
13898TIP3    H141633   3.655   5.533   8.660
13898TIP3    H241634   3.740   5.620   8.752
13899TIP3   OH241635   4.128   4.626   7.582
13899TIP3    H141636   4.066   4.571   7.529
13899TIP3    H241637   4.115   4.711   7.535
13900TIP3   OH241638   4.333   5.502   8.659
13900TIP3    H141639   4.238   5.481   8.645
13900TIP3    H241640   4.371   5.455   8.582
13901TIP3   OH241641   3.825   5.442   7.491
13901TIP3    H141642   3.797   5.367   7.545
13901TIP3    H241643   3.831   5.403   7.402
13902TIP3   OH241644   3.818   5.080   8.309
13902TIP3    H141645   3.732   5.051   8.342
13902TIP3    H241646   3.853   4.995   8.274
13903TIP3   OH241647   2.944   5.304   8.083
13903TIP3    H141648   2.943   5.383   8.026
13903TIP3    H241649   2.851   5.280   8.086
13904TIP3   OH241650   2.504   4.605   7.785
13904TIP3    H141651   2.555   4.686   7.805
13904TIP3    H241652   2.432   4.612   7.851
13905TIP3   OH241653   3.082   5.070   8.020
13905TIP3    H141654   3.048   5.158   8.046
13905TIP3    H241655   3.050   5.014   8.095
13906TIP3   OH241656   3.207   5.651   8.534
13906TIP3    H141657   3.266   5.720   8.500
13906TIP3    H241658   3.266   5.595   8.586
13907TIP3   OH241659   2.862   5.542   7.931
13907TIP3    H141660   2.777   5.550   7.978
13907TIP3    H241661   2.895   5.635   7.934
13908TIP3   OH241662   3.606   5.280   8.508
13908TIP3    H141663   3.627   5.256   8.599
13908TIP3    H241664   3.688   5.251   8.465
13909TIP3   OH241665   3.579   5.176   7.389
13909TIP3    H141666   3.628   5.152   7.470
13909TIP3    H241667   3.489   5.149   7.413
13910TIP3   OH241668   3.860   5.814   8.571
13910TIP3    H141669   3.793   5.746   8.595
13910TIP3    H241670   3.822   5.856   8.492
13911TIP3   OH241671   3.917   5.646   7.211
13911TIP3    H141672   3.953   5.720   7.159
13911TIP3    H241673   3.835   5.689   7.243
13912TIP3   OH241674   3.738   5.114   7.616
13912TIP3    H141675   3.726   5.043   7.682
13912TIP3    H241676   3.834   5.106   7.598
13913TIP3   OH241677   2.926   5.162   7.395
13913TIP3    H141678   2.967   5.081   7.360
13913TIP3    H241679   2.913   5.138   7.488
13914TIP3   OH241680   2.883   5.157   7.673
13914TIP3    H141681   2.963   5.128   7.719
13914TIP3    H241682   2.892   5.255   7.676
13915TIP3   OH241683   2.619   4.848   7.866
13915TIP3    H141684   2.556   4.897   7.923
13915TIP3    H241685   2.640   4.916   7.799
13916TIP3   OH241686   3.644   4.248   7.922
13916TIP3    H141687   3.664   4.261   7.829
13916TIP3    H241688   3.689   4.325   7.962
13917TIP3   OH241689   3.157   5.355   7.618
13917TIP3    H141690   3.068   5.382   7.647
13917TIP3    H241691   3.168   5.411   7.540
13918TIP3   OH241692   3.338   4.423   8.010
13918TIP3    H141693   3.404   4.492   7.991
13918TIP3    H241694   3.352   4.414   8.107
13919TIP3   OH241695   3.488   4.150   8.124
13919TIP3    H141696   3.475   4.231   8.178
13919TIP3    H241697   3.547   4.186   8.053
13920TIP3   OH241698   2.899   5.431   7.679
13920TIP3    H141699   2.868   5.500   7.617
13920TIP3    H241700   2.883   5.474   7.766
13921TIP3   OH241701   2.999   4.143   7.912
13921TIP3    H141702   2.993   4.230   7.957
13921TIP3    H241703   3.095   4.127   7.921
13922TIP3   OH241704   3.901   4.831   8.206
13922TIP3    H141705   3.828   4.767   8.214
13922TIP3    H241706   3.974   4.785   8.253
13923TIP3   OH241707   2.615   5.061   7.670
13923TIP3    H141708   2.690   5.124   7.681
13923TIP3    H241709   2.658   5.001   7.605
13924TIP3   OH241710   2.559   4.335   7.805
13924TIP3    H141711   2.556   4.432   7.802
13924TIP3    H241712   2.482   4.310   7.753
13925TIP3   OH241713   2.485   5.274   8.060
13925TIP3    H141714   2.412   5.307   8.114
13925TIP3    H241715   2.461   5.313   7.972
13926TIP3   OH241716   3.117   5.342   7.309
13926TIP3    H141717   3.046   5.282   7.340
13926TIP3    H241718   3.186   5.276   7.292
13927TIP3   OH241719   3.561   5.417   7.226
13927TIP3    H141720   3.568   5.331   7.270
13927TIP3    H241721   3.600   5.399   7.139
13928TIP3   OH241722   2.747   4.872   7.528
13928TIP3    H141723   2.806   4.839   7.598
13928TIP3    H241724   2.813   4.877   7.454
13929TIP3   OH241725   3.219   5.072   7.354
13929TIP3    H141726   3.254   5.077   7.444
13929TIP3    H241727   3.236   4.978   7.332
13930TIP3   OH241728   3.857   5.293   8.671
13930TIP3    H141729   3.949   5.318   8.649
13930TIP3    H241730   3.842   5.350   8.748
13931TIP3   OH241731   2.954   4.777   7.747
13931TIP3    H141732   2.933   4.735   7.832
13931TIP3    H241733   2.993   4.702   7.696
13932TIP3   OH241734   3.059   4.572   7.588
13932TIP3    H141735   3.034   4.577   7.494
13932TIP3    H241736   3.157   4.576   7.581
13933TIP3   OH241737   3.880   4.901   7.251
13933TIP3    H141738   3.859   4.857   7.166
13933TIP3    H241739   3.848   4.992   7.230
13934TIP3   OH241740   2.868   5.637   7.494
13934TIP3    H141741   2.963   5.624   7.475
13934TIP3    H241742   2.842   5.685   7.413
13935TIP3   OH241743   2.348   5.014   7.710
13935TIP3    H141744   2.442   5.036   7.693
13935TIP3    H241745   2.342   4.925   7.669
13936TIP3   OH241746   2.263   5.629   8.115
13936TIP3    H141747   2.195   5.566   8.082
13936TIP3    H241748   2.306   5.574   8.184
13937TIP3   OH241749   2.393   5.485   8.306
13937TIP3    H141750   2.390   5.410   8.366
13937TIP3    H241751   2.446   5.550   8.357
13938TIP3   OH241752   4.111   5.887   8.110
13938TIP3    H141753   4.146   5.912   8.197
13938TIP3    H241754   4.179   5.922   8.050
13939TIP3   OH241755   4.149   5.905   8.390
13939TIP3    H141756   4.109   5.815   8.384
13939TIP3    H241757   4.226   5.885   8.445
13940TIP3   OH241758   4.014   5.089   7.583
13940TIP3    H141759   4.084   5.151   7.554
13940TIP3    H241760   4.057   5.048   7.662
13941TIP3   OH241761   4.137   4.955   7.783
13941TIP3    H141762   4.078   4.913   7.849
13941TIP3    H241763   4.211   4.989   7.839
13942TIP3   OH241764   4.196   5.340   8.205
13942TIP3    H141765   4.240   5.272   8.151
13942TIP3    H241766   4.207   5.420   8.151
13943TIP3   OH241767   4.034   5.653   8.409
13943TIP3    H141768   3.980   5.678   8.487
13943TIP3    H241769   3.967   5.615   8.349
13944TIP3   OH241770   4.082   4.863   7.433
13944TIP3    H141771   4.010   4.866   7.366
13944TIP3    H241772   4.054   4.937   7.490
13945TIP3   OH241773   3.968   4.531   7.378
13945TIP3    H141774   3.899   4.556   7.314
13945TIP3    H241775   3.931   4.452   7.422
13946TIP3   OH241776   3.955   4.815   7.936
13946TIP3    H141777   3.963   4.718   7.925
13946TIP3    H241778   3.944   4.823   8.033
13947TIP3   OH241779   4.222   5.227   8.779
13947TIP3    H141780   4.307   5.179   8.787
13947TIP3    H241781   4.251   5.310   8.741
13948TIP3   OH241782   4.418   5.049   8.833
13948TIP3    H141783   4.347   4.984   8.843
13948TIP3    H241784   4.481   5.004   8.776
13949TIP3   OH241785   3.967   4.547   7.855
13949TIP3    H141786   3.958   4.455   7.823
13949TIP3    H241787   4.019   4.582   7.781
13950TIP3   OH241788   4.127   4.718   8.321
13950TIP3    H141789   4.202   4.762   8.277
13950TIP3    H241790   4.140   4.752   8.413
13951TIP3   OH241791   4.178   4.849   8.564
13951TIP3    H141792   4.107   4.899   8.607
13951TIP3    H241793   4.225   4.919   8.512
13952TIP3   OH241794   4.207   4.210   7.411
13952TIP3    H141795   4.236   4.151   7.482
13952TIP3    H241796   4.228   4.297   7.453
13953TIP3   OH241797   2.559   4.035   8.250
13953TIP3    H141798   2.472   4.058   8.285
13953TIP3    H241799   2.567   4.100   8.177
13954TIP3   OH241800   3.711   5.748   7.774
13954TIP3    H141801   3.752   5.727   7.687
13954TIP3    H241802   3.773   5.813   7.808
13955TIP3   OH241803   2.981   5.602   8.704
13955TIP3    H141804   2.965   5.678   8.643
13955TIP3    H241805   3.068   5.573   8.671
13956TIP3   OH241806   3.615   5.968   8.655
13956TIP3    H141807   3.704   5.931   8.663
13956TIP3    H241808   3.609   6.013   8.743
13957TIP3   OH241809   2.891   5.827   8.576
13957TIP3    H141810   2.800   5.844   8.604
13957TIP3    H241811   2.887   5.853   8.482
13958TIP3   OH241812   3.359   5.854   8.356
13958TIP3    H141813   3.271   5.863   8.314
13958TIP3    H241814   3.359   5.933   8.415
13959TIP3   OH241815   3.765   5.936   8.286
13959TIP3    H141816   3.764   6.034   8.292
13959TIP3    H241817   3.847   5.927   8.233
13960TIP3   OH241818   2.587   5.638   8.444
13960TIP3    H141819   2.616   5.602   8.531
13960TIP3    H241820   2.655   5.594   8.388
13961TIP3   OH241821   2.777   5.505   8.308
13961TIP3    H141822   2.790   5.419   8.355
13961TIP3    H241823   2.869   5.540   8.309
13962TIP3   OH241824   3.040   5.595   8.324
13962TIP3    H141825   3.065   5.500   8.316
13962TIP3    H241826   3.090   5.616   8.406
13963TIP3   OH241827   3.634   4.274   8.418
13963TIP3    H141828   3.564   4.215   8.450
13963TIP3    H241829   3.694   4.215   8.370
13964TIP3   OH241830   4.132   4.145   8.333
13964TIP3    H141831   4.173   4.187   8.254
13964TIP3    H241832   4.037   4.154   8.314
13965TIP3   OH241833   4.240   4.229   8.101
13965TIP3    H141834   4.305   4.183   8.043
13965TIP3    H241835   4.257   4.322   8.074
13966TIP3   OH241836   2.622   3.845   8.060
13966TIP3    H141837   2.670   3.896   7.992
13966TIP3    H241838   2.615   3.911   8.132
13967TIP3   OH241839   3.308   4.019   8.295
13967TIP3    H141840   3.369   4.049   8.225
13967TIP3    H241841   3.335   4.080   8.367
13968TIP3   OH241842   3.853   4.137   8.291
13968TIP3    H141843   3.850   4.107   8.199
13968TIP3    H241844   3.826   4.056   8.340
13969TIP3   OH241845   3.901   4.031   7.861
13969TIP3    H141846   3.840   4.105   7.849
13969TIP3    H241847   3.851   3.966   7.912
13970TIP3   OH241848   2.362   5.404   7.859
13970TIP3    H141849   2.277   5.371   7.824
13970TIP3    H241850   2.352   5.499   7.840
13971TIP3   OH241851   2.764   3.990   7.845
13971TIP3    H141852   2.810   3.927   7.786
13971TIP3    H241853   2.840   4.044   7.877
13972TIP3   OH241854   3.272   4.167   7.944
13972TIP3    H141855   3.339   4.123   8.000
13972TIP3    H241856   3.295   4.260   7.963
13973TIP3   OH241857   3.133   5.588   7.438
13973TIP3    H141858   3.223   5.611   7.404
13973TIP3    H241859   3.114   5.513   7.377
13974TIP3   OH241860   3.849   5.710   7.537
13974TIP3    H141861   3.846   5.612   7.523
13974TIP3    H241862   3.808   5.741   7.454
13975TIP3   OH241863   2.440   5.431   7.496
13975TIP3    H141864   2.444   5.448   7.591
13975TIP3    H241865   2.527   5.387   7.480
13976TIP3   OH241866   4.084   5.846   8.724
13976TIP3    H141867   4.006   5.831   8.667
13976TIP3    H241868   4.075   5.943   8.737
13977TIP3   OH241869   5.348   5.230   7.484
13977TIP3    H141870   5.317   5.320   7.463
13977TIP3    H241871   5.271   5.178   7.455
13978TIP3   OH241872   5.349   5.227   7.868
13978TIP3    H141873   5.380   5.201   7.956
13978TIP3    H241874   5.303   5.147   7.839
13979TIP3   OH241875   5.593   5.528   7.550
13979TIP3    H141876   5.571   5.458   7.612
13979TIP3    H241877   5.616   5.602   7.608
13980TIP3   OH241878   4.615   5.536   7.958
13980TIP3    H141879   4.608   5.438   7.958
13980TIP3    H241880   4.712   5.545   7.957
13981TIP3   OH241881   4.329   4.730   7.739
13981TIP3    H141882   4.287   4.814   7.763
13981TIP3    H241883   4.253   4.684   7.698
13982TIP3   OH241884   4.369   5.021   7.902
13982TIP3    H141885   4.411   4.958   7.965
13982TIP3    H241886   4.447   5.050   7.854
13983TIP3   OH241887   5.241   5.994   7.567
13983TIP3    H141888   5.286   5.922   7.518
13983TIP3    H241889   5.225   5.951   7.652
13984TIP3   OH241890   5.144   5.456   7.915
13984TIP3    H141891   5.179   5.378   7.870
13984TIP3    H241892   5.229   5.498   7.940
13985TIP3   OH241893   6.159   4.772   7.916
13985TIP3    H141894   6.186   4.855   7.960
13985TIP3    H241895   6.176   4.794   7.822
13986TIP3   OH241896   5.560   4.955   7.947
13986TIP3    H141897   5.600   4.868   7.968
13986TIP3    H241898   5.526   4.939   7.857
13987TIP3   OH241899   4.898   4.614   7.911
13987TIP3    H141900   4.874   4.688   7.851
13987TIP3    H241901   4.847   4.541   7.868
13988TIP3   OH241902   5.590   4.705   7.536
13988TIP3    H141903   5.662   4.688   7.601
13988TIP3    H241904   5.642   4.740   7.461
13989TIP3   OH241905   4.535   4.836   8.006
13989TIP3    H141906   4.593   4.807   8.079
13989TIP3    H241907   4.553   4.768   7.938
13990TIP3   OH241908   4.970   5.015   7.807
13990TIP3    H141909   5.062   4.988   7.826
13990TIP3    H241910   4.929   4.930   7.779
13991TIP3   OH241911   6.227   4.981   8.086
13991TIP3    H141912   6.142   5.028   8.070
13991TIP3    H241913   6.250   5.014   8.175
13992TIP3   OH241914   4.892   4.601   8.349
13992TIP3    H141915   4.835   4.633   8.276
13992TIP3    H241916   4.844   4.638   8.426
13993TIP3   OH241917   5.242   5.452   7.353
13993TIP3    H141918   5.194   5.429   7.271
13993TIP3    H241919   5.194   5.534   7.379
13994TIP3   OH241920   4.998   5.372   8.143
13994TIP3    H141921   4.933   5.435   8.183
13994TIP3    H241922   5.035   5.425   8.070
13995TIP3   OH241923   5.800   4.707   7.709
13995TIP3    H141924   5.779   4.664   7.794
13995TIP3    H241925   5.849   4.786   7.738
13996TIP3   OH241926   4.762   4.707   8.134
13996TIP3    H141927   4.817   4.785   8.155
13996TIP3    H241928   4.811   4.672   8.056
13997TIP3   OH241929   4.824   5.567   8.241
13997TIP3    H141930   4.797   5.654   8.204
13997TIP3    H241931   4.745   5.549   8.297
13998TIP3   OH241932   4.219   5.256   7.476
13998TIP3    H141933   4.177   5.284   7.392
13998TIP3    H241934   4.251   5.341   7.512
13999TIP3   OH241935   5.663   5.776   7.720
13999TIP3    H141936   5.574   5.763   7.761
13999TIP3    H241937   5.648   5.859   7.672
14000TIP3   OH241938   5.949   4.671   8.079
14000TIP3    H141939   5.862   4.699   8.048
14000TIP3    H241940   6.009   4.705   8.009
14001TIP3   OH241941   5.249   4.315   8.066
14001TIP3    H141942   5.230   4.220   8.080
14001TIP3    H241943   5.171   4.355   8.110
14002TIP3   OH241944   5.364   5.819   7.394
14002TIP3    H141945   5.412   5.735   7.373
14002TIP3    H241946   5.425   5.882   7.350
14003TIP3   OH241947   5.506   5.604   7.298
14003TIP3    H141948   5.457   5.528   7.264
14003TIP3    H241949   5.543   5.567   7.382
14004TIP3   OH241950   5.872   5.689   8.051
14004TIP3    H141951   5.859   5.606   7.999
14004TIP3    H241952   5.853   5.758   7.985
14005TIP3   OH241953   5.177   5.079   7.319
14005TIP3    H141954   5.096   5.130   7.299
14005TIP3    H241955   5.221   5.076   7.232
14006TIP3   OH241956   5.136   4.863   7.033
14006TIP3    H141957   5.202   4.915   7.082
14006TIP3    H241958   5.194   4.800   6.986
14007TIP3   OH241959   6.086   5.331   7.907
14007TIP3    H141960   5.999   5.377   7.917
14007TIP3    H241961   6.105   5.350   7.812
14008TIP3   OH241962   5.526   5.162   7.288
14008TIP3    H141963   5.470   5.186   7.366
14008TIP3    H241964   5.609   5.137   7.334
14009TIP3   OH241965   5.756   5.189   8.195
14009TIP3    H141966   5.764   5.268   8.254
14009TIP3    H241967   5.668   5.206   8.156
14010TIP3   OH241968   4.758   5.159   7.703
14010TIP3    H141969   4.716   5.101   7.637
14010TIP3    H241970   4.834   5.106   7.734
14011TIP3   OH241971   4.889   5.576   7.853
14011TIP3    H141972   4.864   5.530   7.771
14011TIP3    H241973   4.978   5.538   7.870
14012TIP3   OH241974   4.895   5.126   8.060
14012TIP3    H141975   4.927   5.112   7.969
14012TIP3    H241976   4.931   5.213   8.084
14013TIP3   OH241977   5.422   5.768   7.840
14013TIP3    H141978   5.407   5.845   7.898
14013TIP3    H241979   5.405   5.692   7.899
14014TIP3   OH241980   5.029   5.690   8.381
14014TIP3    H141981   4.967   5.750   8.426
14014TIP3    H241982   4.966   5.634   8.332
14015TIP3   OH241983   5.366   5.018   7.115
14015TIP3    H141984   5.423   5.080   7.166
14015TIP3    H241985   5.392   5.041   7.023
14016TIP3   OH241986   4.785   5.235   8.479
14016TIP3    H141987   4.781   5.315   8.533
14016TIP3    H241988   4.690   5.225   8.460
14017TIP3   OH241989   5.110   5.697   7.392
14017TIP3    H141990   5.186   5.755   7.408
14017TIP3    H241991   5.047   5.755   7.347
14018TIP3   OH241992   4.822   5.843   8.468
14018TIP3    H141993   4.784   5.851   8.378
14018TIP3    H241994   4.742   5.836   8.524
14019TIP3   OH241995   5.881   4.260   7.165
14019TIP3    H141996   5.799   4.281   7.214
14019TIP3    H241997   5.895   4.342   7.115
14020TIP3   OH241998   4.626   5.001   7.506
14020TIP3    H141999   4.556   5.044   7.452
14020TIP3    H242000   4.583   4.919   7.532
14021TIP3   OH242001   5.679   5.628   6.713
14021TIP3    H142002   5.687   5.724   6.697
14021TIP3    H242003   5.772   5.598   6.700
14022TIP3   OH242004   4.397   5.393   8.410
14022TIP3    H142005   4.332   5.355   8.348
14022TIP3    H242006   4.430   5.311   8.455
14023TIP3   OH242007   4.256   5.576   8.054
14023TIP3    H142008   4.352   5.568   8.040
14023TIP3    H242009   4.252   5.658   8.108
14024TIP3   OH242010   5.222   5.816   8.236
14024TIP3    H142011   5.221   5.907   8.273
14024TIP3    H242012   5.153   5.773   8.292
14025TIP3   OH242013   4.992   5.946   7.192
14025TIP3    H142014   4.944   5.924   7.110
14025TIP3    H242015   4.956   6.033   7.217
14026TIP3   OH242016   4.427   5.794   7.578
14026TIP3    H142017   4.474   5.784   7.664
14026TIP3    H242018   4.375   5.711   7.577
14027TIP3   OH242019   5.193   5.848   6.834
14027TIP3    H142020   5.250   5.778   6.798
14027TIP3    H242021   5.225   5.855   6.926
14028TIP3   OH242022   5.243   5.895   7.104
14028TIP3    H142023   5.152   5.905   7.142
14028TIP3    H242024   5.288   5.849   7.176
14029TIP3   OH242025   6.036   5.167   8.350
14029TIP3    H142026   5.944   5.196   8.346
14029TIP3    H242027   6.029   5.070   8.349
14030TIP3   OH242028   4.604   5.572   8.407
14030TIP3    H142029   4.649   5.549   8.491
14030TIP3    H242030   4.529   5.508   8.408
14031TIP3   OH242031   5.009   4.392   8.190
14031TIP3    H142032   4.920   4.363   8.163
14031TIP3    H242033   4.985   4.474   8.237
14032TIP3   OH242034   5.540   4.507   8.387
14032TIP3    H142035   5.602   4.482   8.457
14032TIP3    H242036   5.452   4.491   8.428
14033TIP3   OH242037   5.780   4.937   8.308
14033TIP3    H142038   5.726   4.939   8.390
14033TIP3    H242039   5.759   5.024   8.267
14034TIP3   OH242040   5.443   5.065   6.861
14034TIP3    H142041   5.406   5.041   6.773
14034TIP3    H242042   5.523   5.114   6.834
14035TIP3   OH242043   5.154   4.440   7.163
14035TIP3    H142044   5.119   4.437   7.254
14035TIP3    H242045   5.114   4.358   7.128
14036TIP3   OH242046   4.946   4.902   8.205
14036TIP3    H142047   4.900   4.919   8.290
14036TIP3    H242048   4.925   4.986   8.156
14037TIP3   OH242049   4.824   4.794   7.723
14037TIP3    H142050   4.731   4.768   7.743
14037TIP3    H242051   4.834   4.752   7.635
14038TIP3   OH242052   5.315   4.880   7.453
14038TIP3    H142053   5.262   4.951   7.410
14038TIP3    H242054   5.368   4.848   7.377
14039TIP3   OH242055   5.475   5.156   8.531
14039TIP3    H142056   5.463   5.088   8.600
14039TIP3    H242057   5.559   5.198   8.557
14040TIP3   OH242058   5.473   4.908   7.690
14040TIP3    H142059   5.410   4.937   7.620
14040TIP3    H242060   5.506   4.827   7.646
14041TIP3   OH242061   4.796   4.924   8.427
14041TIP3    H142062   4.761   5.010   8.454
14041TIP3    H242063   4.740   4.861   8.476
14042TIP3   OH242064   4.808   4.414   7.128
14042TIP3    H142065   4.800   4.413   7.226
14042TIP3    H242066   4.731   4.469   7.104
14043TIP3   OH242067   4.350   4.455   7.999
14043TIP3    H142068   4.423   4.491   8.053
14043TIP3    H242069   4.393   4.431   7.916
14044TIP3   OH242070   4.333   4.446   7.520
14044TIP3    H142071   4.375   4.484   7.440
14044TIP3    H242072   4.269   4.517   7.541
14045TIP3   OH242073   5.478   5.155   8.108
14045TIP3    H142074   5.515   5.083   8.053
14045TIP3    H242075   5.449   5.103   8.186
14046TIP3   OH242076   5.153   4.612   7.784
14046TIP3    H142077   5.068   4.614   7.833
14046TIP3    H242078   5.216   4.617   7.858
14047TIP3   OH242079   4.588   4.669   7.789
14047TIP3    H142080   4.493   4.682   7.765
14047TIP3    H242081   4.604   4.577   7.764
14048TIP3   OH242082   4.854   4.666   7.482
14048TIP3    H142083   4.947   4.684   7.458
14048TIP3    H242084   4.805   4.688   7.399
14049TIP3   OH242085   5.643   4.689   7.983
14049TIP3    H142086   5.612   4.704   8.075
14049TIP3    H242087   5.573   4.629   7.951
14050TIP3   OH242088   4.699   4.699   7.260
14050TIP3    H142089   4.624   4.658   7.213
14050TIP3    H242090   4.749   4.737   7.185
14051TIP3   OH242091   4.747   5.486   8.635
14051TIP3    H142092   4.836   5.507   8.667
14051TIP3    H242093   4.706   5.441   8.710
14052TIP3   OH242094   5.233   4.945   7.884
14052TIP3    H142095   5.307   4.903   7.838
14052TIP3    H242096   5.238   4.904   7.973
14053TIP3   OH242097   4.759   4.428   7.763
14053TIP3    H142098   4.722   4.352   7.811
14053TIP3    H242099   4.804   4.386   7.688
14054TIP3   OH242100   5.212   4.842   8.170
14054TIP3    H142101   5.120   4.875   8.182
14054TIP3    H242102   5.265   4.906   8.221
14055TIP3   OH242103   4.948   5.231   7.268
14055TIP3    H142104   4.876   5.165   7.256
14055TIP3    H242105   4.928   5.265   7.359
14056TIP3   OH242106   5.847   5.464   7.895
14056TIP3    H142107   5.867   5.514   7.813
14056TIP3    H242108   5.761   5.420   7.872
14057TIP3   OH242109   5.405   4.542   7.131
14057TIP3    H142110   5.308   4.524   7.138
14057TIP3    H242111   5.412   4.637   7.155
14058TIP3   OH242112   5.355   5.561   8.264
14058TIP3    H142113   5.348   5.519   8.351
14058TIP3    H242114   5.300   5.640   8.276
14059TIP3   OH242115   5.474   4.791   7.234
14059TIP3    H142116   5.570   4.799   7.249
14059TIP3    H242117   5.454   4.872   7.182
14060TIP3   OH242118   4.643   5.263   7.940
14060TIP3    H142119   4.681   5.227   7.858
14060TIP3    H242120   4.668   5.194   8.004
14061TIP3   OH242121   5.094   5.382   7.093
14061TIP3    H142122   5.045   5.468   7.096
14061TIP3    H242123   5.037   5.326   7.151
14062TIP3   OH242124   4.511   5.208   8.566
14062TIP3    H142125   4.561   5.174   8.642
14062TIP3    H242126   4.474   5.127   8.523
14063TIP3   OH242127   5.234   5.291   8.563
14063TIP3    H142128   5.172   5.222   8.533
14063TIP3    H242129   5.320   5.248   8.547
14064TIP3   OH242130   5.504   5.825   8.145
14064TIP3    H142131   5.411   5.804   8.162
14064TIP3    H242132   5.532   5.856   8.233
14065TIP3   OH242133   5.918   4.882   7.068
14065TIP3    H142134   5.855   4.838   7.006
14065TIP3    H242135   5.914   4.972   7.028
14066TIP3   OH242136   6.129   5.699   8.131
14066TIP3    H142137   6.033   5.707   8.109
14066TIP3    H242138   6.168   5.689   8.042
14067TIP3   OH242139   5.627   5.700   6.981
14067TIP3    H142140   5.588   5.634   7.040
14067TIP3    H242141   5.630   5.654   6.895
14068TIP3   OH242142   5.613   5.331   7.812
14068TIP3    H142143   5.520   5.305   7.828
14068TIP3    H242144   5.646   5.250   7.768
14069TIP3   OH242145   4.741   5.558   7.567
14069TIP3    H142146   4.737   5.639   7.512
14069TIP3    H242147   4.647   5.538   7.578
14070TIP3   OH242148   4.304   4.862   7.271
14070TIP3    H142149   4.350   4.946   7.293
14070TIP3    H242150   4.228   4.866   7.333
14071TIP3   OH242151   4.880   5.324   7.511
14071TIP3    H142152   4.843   5.413   7.531
14071TIP3    H242153   4.843   5.272   7.585
14072TIP3   OH242154   5.009   5.902   8.037
14072TIP3    H142155   5.053   5.972   7.986
14072TIP3    H242156   5.085   5.862   8.084
14073TIP3   OH242157   4.659   5.797   7.420
14073TIP3    H142158   4.574   5.806   7.466
14073TIP3    H242159   4.691   5.890   7.422
14074TIP3   OH242160   5.400   5.535   7.997
14074TIP3    H142161   5.389   5.536   8.095
14074TIP3    H242162   5.476   5.477   7.987
14075TIP3   OH242163   5.373   5.431   6.876
14075TIP3    H142164   5.423   5.404   6.956
14075TIP3    H242165   5.284   5.402   6.899
14076TIP3   OH242166   5.636   6.078   8.056
14076TIP3    H142167   5.567   6.010   8.047
14076TIP3    H242168   5.621   6.133   7.976
14077TIP3   OH242169   5.712   5.903   6.697
14077TIP3    H142170   5.739   5.972   6.635
14077TIP3    H242171   5.633   5.946   6.735
14078TIP3   OH242172   4.716   4.664   8.561
14078TIP3    H142173   4.619   4.681   8.562
14078TIP3    H242174   4.717   4.567   8.562
14079TIP3   OH242175   5.533   5.362   7.093
14079TIP3    H142176   5.522   5.297   7.165
14079TIP3    H242177   5.630   5.359   7.082
14080TIP3   OH242178   4.446   5.763   8.196
14080TIP3    H142179   4.497   5.686   8.228
14080TIP3    H242180   4.479   5.832   8.255
14081TIP3   OH242181   4.740   5.410   6.879
14081TIP3    H142182   4.751   5.318   6.848
14081TIP3    H242183   4.719   5.396   6.973
14082TIP3   OH242184   4.683   5.414   7.152
14082TIP3    H142185   4.755   5.387   7.210
14082TIP3    H242186   4.688   5.512   7.157
14083TIP3   OH242187   4.418   5.107   7.354
14083TIP3    H142188   4.352   5.150   7.411
14083TIP3    H242189   4.432   5.176   7.287
14084TIP3   OH242190   5.574   4.740   8.242
14084TIP3    H142191   5.649   4.782   8.286
14084TIP3    H242192   5.556   4.662   8.298
14085TIP3   OH242193   5.452   4.492   7.412
14085TIP3    H142194   5.435   4.515   7.318
14085TIP3    H242195   5.488   4.576   7.447
14086TIP3   OH242196   4.952   5.612   7.102
14086TIP3    H142197   4.864   5.638   7.136
14086TIP3    H242198   4.962   5.674   7.029
14087TIP3   OH242199   5.140   4.674   7.513
14087TIP3    H142200   5.203   4.748   7.497
14087TIP3    H242201   5.142   4.668   7.611
14088TIP3   OH242202   5.407   4.994   8.315
14088TIP3    H142203   5.421   5.051   8.393
14088TIP3    H242204   5.461   4.916   8.336
14089TIP3   OH242205   5.282   4.401   7.617
14089TIP3    H142206   5.268   4.481   7.672
14089TIP3    H242207   5.343   4.437   7.548
14090TIP3   OH242208   4.696   5.687   7.167
14090TIP3    H142209   4.665   5.756   7.104
14090TIP3    H242210   4.678   5.729   7.253
14091TIP3   OH242211   4.794   4.400   7.405
14091TIP3    H142212   4.791   4.491   7.442
14091TIP3    H242213   4.890   4.383   7.413
14092TIP3   OH242214   6.045   4.887   8.307
14092TIP3    H142215   5.946   4.889   8.308
14092TIP3    H242216   6.060   4.849   8.219
14093TIP3   OH242217   5.699   5.087   7.689
14093TIP3    H142218   5.622   5.030   7.701
14093TIP3    H242219   5.769   5.039   7.738
14094TIP3   OH242220   4.412   5.315   7.159
14094TIP3    H142221   4.480   5.385   7.167
14094TIP3    H242222   4.456   5.259   7.092
14095TIP3   OH242223   4.354   4.592   7.289
14095TIP3    H142224   4.356   4.690   7.286
14095TIP3    H242225   4.262   4.573   7.269
14096TIP3   OH242226   5.664   6.043   7.637
14096TIP3    H142227   5.621   6.090   7.562
14096TIP3    H242228   5.758   6.055   7.612
14097TIP3   OH242229   4.744   4.314   8.163
14097TIP3    H142230   4.712   4.281   8.077
14097TIP3    H242231   4.733   4.236   8.221
14098TIP3   OH242232   4.284   5.535   7.546
14098TIP3    H142233   4.211   5.562   7.604
14098TIP3    H242234   4.254   5.573   7.460
14099TIP3   OH242235   4.444   6.060   8.595
14099TIP3    H142236   4.524   6.028   8.640
14099TIP3    H242237   4.391   5.979   8.597
14100TIP3   OH242238   4.906   5.613   6.795
14100TIP3    H142239   4.848   5.540   6.826
14100TIP3    H242240   4.976   5.563   6.749
14101TIP3   OH242241   5.552   5.912   8.403
14101TIP3    H142242   5.542   5.853   8.479
14101TIP3    H242243   5.623   5.971   8.434
14102TIP3   OH242244   5.342   5.655   6.705
14102TIP3    H142245   5.379   5.584   6.760
14102TIP3    H242246   5.394   5.648   6.623
14103TIP3   OH242247   4.546   5.129   7.012
14103TIP3    H142248   4.602   5.097   7.085
14103TIP3    H242249   4.613   5.134   6.940
14104TIP3   OH242250   5.216   5.564   8.565
14104TIP3    H142251   5.139   5.582   8.509
14104TIP3    H242252   5.215   5.466   8.575
14105TIP3   OH242253   5.065   5.328   6.821
14105TIP3    H142254   5.062   5.339   6.918
14105TIP3    H242255   5.060   5.230   6.814
14106TIP3   OH242256   5.666   5.570   8.200
14106TIP3    H142257   5.737   5.621   8.157
14106TIP3    H242258   5.590   5.628   8.187
14107TIP3   OH242259   4.705   5.177   8.770
14107TIP3    H142260   4.798   5.149   8.761
14107TIP3    H242261   4.689   5.165   8.866
14108TIP3   OH242262   4.755   5.034   7.235
14108TIP3    H142263   4.725   4.995   7.319
14108TIP3    H242264   4.790   4.956   7.187
14109TIP3   OH242265   5.040   5.108   8.471
14109TIP3    H142266   4.950   5.147   8.467
14109TIP3    H242267   5.078   5.136   8.385
14110TIP3   OH242268   4.855   4.826   7.074
14110TIP3    H142269   4.829   4.833   6.980
14110TIP3    H242270   4.952   4.831   7.067
14111TIP3   OH242271   5.680   5.157   6.738
14111TIP3    H142272   5.657   5.112   6.654
14111TIP3    H242273   5.645   5.247   6.715
14112TIP3   OH242274   5.154   4.888   8.589
14112TIP3    H142275   5.147   4.809   8.531
14112TIP3    H242276   5.107   4.956   8.536
14113TIP3   OH242277   5.151   4.671   8.393
14113TIP3    H142278   5.176   4.716   8.310
14113TIP3    H242279   5.057   4.650   8.376
14114TIP3   OH242280   5.179   5.204   8.257
14114TIP3    H142281   5.261   5.221   8.209
14114TIP3    H242282   5.118   5.271   8.219
14115TIP3   OH242283   5.796   5.394   8.365
14115TIP3    H142284   5.738   5.461   8.322
14115TIP3    H242285   5.884   5.432   8.342
14116TIP3   OH242286   4.979   5.008   8.796
14116TIP3    H142287   4.931   4.924   8.787
14116TIP3    H242288   5.049   4.997   8.729
14117TIP3   OH242289   5.282   4.435   8.461
14117TIP3    H142290   5.232   4.517   8.441
14117TIP3    H242291   5.212   4.367   8.452
14118TIP3   OH242292   5.410   4.936   8.681
14118TIP3    H142293   5.395   4.926   8.776
14118TIP3    H242294   5.320   4.913   8.646
14119TIP3   OH242295   5.639   4.885   8.536
14119TIP3    H142296   5.553   4.895   8.583
14119TIP3    H242297   5.696   4.854   8.608
14120TIP3   OH242298   4.859   4.755   8.853
14120TIP3    H142299   4.922   4.708   8.798
14120TIP3    H242300   4.903   4.748   8.940
14121TIP3   OH242301   5.398   4.436   8.712
14121TIP3    H142302   5.453   4.358   8.696
14121TIP3    H242303   5.343   4.440   8.632
14122TIP3   OH242304   4.664   5.891   6.981
14122TIP3    H142305   4.759   5.884   6.960
14122TIP3    H242306   4.633   5.938   6.901
14123TIP3   OH242307   4.144   5.273   7.194
14123TIP3    H142308   4.239   5.293   7.180
14123TIP3    H242309   4.138   5.183   7.154
14124TIP3   OH242310   4.055   5.883   7.610
14124TIP3    H142311   3.990   5.820   7.572
14124TIP3    H242312   4.102   5.825   7.675
14125TIP3   OH242313   4.192   5.734   7.797
14125TIP3    H142314   4.184   5.660   7.858
14125TIP3    H242315   4.244   5.797   7.851
14126TIP3   OH242316   5.926   6.114   7.596
14126TIP3    H142317   5.944   6.151   7.684
14126TIP3    H242318   5.957   6.184   7.536
14127TIP3   OH242319   5.982   6.132   7.874
14127TIP3    H142320   5.928   6.050   7.868
14127TIP3    H242321   5.959   6.161   7.964
14128TIP3   OH242322   5.813   5.343   7.072
14128TIP3    H142323   5.881   5.407   7.043
14128TIP3    H242324   5.856   5.304   7.151
14129TIP3   OH242325   5.941   5.212   7.277
14129TIP3    H142326   5.872   5.168   7.332
14129TIP3    H242327   6.000   5.251   7.344
14130TIP3   OH242328   5.996   5.606   7.707
14130TIP3    H142329   6.045   5.536   7.659
14130TIP3    H242330   5.983   5.674   7.639
14131TIP3   OH242331   5.822   5.917   7.897
14131TIP3    H142332   5.752   5.946   7.960
14131TIP3    H242333   5.769   5.868   7.830
14132TIP3   OH242334   5.879   5.120   6.921
14132TIP3    H142335   5.808   5.121   6.852
14132TIP3    H242336   5.848   5.195   6.976
14133TIP3   OH242337   5.751   4.793   6.874
14133TIP3    H142338   5.704   4.829   6.798
14133TIP3    H242339   5.726   4.698   6.866
14134TIP3   OH242340   5.756   5.069   7.420
14134TIP3    H142341   5.760   4.972   7.412
14134TIP3    H242342   5.740   5.081   7.517
14135TIP3   OH242343   6.035   5.477   8.261
14135TIP3    H142344   6.116   5.438   8.297
14135TIP3    H242345   6.069   5.555   8.214
14136TIP3   OH242346   6.258   5.314   8.317
14136TIP3    H142347   6.172   5.269   8.335
14136TIP3    H242348   6.314   5.233   8.317
14137TIP3   OH242349   5.692   4.527   6.862
14137TIP3    H142350   5.764   4.493   6.918
14137TIP3    H242351   5.617   4.468   6.882
14138TIP3   OH242352   5.751   4.786   7.316
14138TIP3    H142353   5.791   4.697   7.331
14138TIP3    H242354   5.809   4.817   7.244
14139TIP3   OH242355   5.911   4.955   7.811
14139TIP3    H142356   5.997   4.981   7.771
14139TIP3    H242357   5.922   4.995   7.899
14140TIP3   OH242358   5.979   5.103   8.039
14140TIP3    H142359   5.903   5.132   8.093
14140TIP3    H242360   6.011   5.187   8.002
14141TIP3   OH242361   5.859   4.535   7.352
14141TIP3    H142362   5.906   4.519   7.437
14141TIP3    H242363   5.798   4.459   7.351
14142TIP3   OH242364   4.556   4.523   8.179
14142TIP3    H142365   4.619   4.448   8.184
14142TIP3    H242366   4.618   4.597   8.167
14143TIP3   OH242367   6.293   4.837   8.410
14143TIP3    H142368   6.200   4.864   8.400
14143TIP3    H242369   6.292   4.752   8.363
14144TIP3   OH242370   5.940   4.467   6.988
14144TIP3    H142371   5.977   4.396   6.931
14144TIP3    H242372   6.007   4.538   6.979
14145TIP3   OH242373   4.344   4.290   7.737
14145TIP3    H142374   4.251   4.296   7.765
14145TIP3    H242375   4.347   4.357   7.665
14146TIP3   OH242376   5.508   5.999   7.253
14146TIP3    H142377   5.558   5.989   7.170
14146TIP3    H242378   5.556   6.070   7.298
14147TIP3   OH242379   4.579   4.408   8.529
14147TIP3    H142380   4.533   4.359   8.598
14147TIP3    H242381   4.503   4.444   8.478
14148TIP3   OH242382   4.602   5.819   8.648
14148TIP3    H142383   4.515   5.788   8.615
14148TIP3    H242384   4.617   5.759   8.721
14149TIP3   OH242385   4.780   5.839   8.184
14149TIP3    H142386   4.735   5.916   8.145
14149TIP3    H242387   4.868   5.851   8.141
14150TIP3   OH242388   5.237   6.082   8.331
14150TIP3    H142389   5.290   6.064   8.410
14150TIP3    H242390   5.301   6.133   8.277
14151TIP3   OH242391   5.428   6.228   8.195
14151TIP3    H142392   5.481   6.171   8.137
14151TIP3    H242393   5.476   6.312   8.188
14152TIP3   OH242394   6.201   4.603   8.278
14152TIP3    H142395   6.111   4.596   8.243
14152TIP3    H242396   6.233   4.510   8.267
14153TIP3   OH242397   4.461   6.094   8.209
14153TIP3    H142398   4.372   6.128   8.185
14153TIP3    H242399   4.469   6.130   8.298
14154TIP3   OH242400   4.699   6.077   8.068
14154TIP3    H142401   4.611   6.088   8.112
14154TIP3    H242402   4.679   6.108   7.978
14155TIP3   OH242403   5.122   6.103   7.864
14155TIP3    H142404   5.050   6.119   7.799
14155TIP3    H242405   5.131   6.192   7.904
14156TIP3   OH242406   5.388   6.047   7.920
14156TIP3    H142407   5.294   6.060   7.896
14156TIP3    H242408   5.431   6.116   7.868
14157TIP3   OH242409   5.601   6.229   7.831
14157TIP3    H142410   5.582   6.313   7.783
14157TIP3    H242411   5.620   6.168   7.756
14158TIP3   OH242412   4.368   5.886   7.955
14158TIP3    H142413   4.396   5.862   8.046
14158TIP3    H242414   4.441   5.844   7.904
14159TIP3   OH242415   4.565   5.761   7.812
14159TIP3    H142416   4.580   5.677   7.862
14159TIP3    H242417   4.656   5.796   7.806
14160TIP3   OH242418   4.833   5.854   7.814
14160TIP3    H142419   4.862   5.761   7.803
14160TIP3    H242420   4.877   5.874   7.899
14161TIP3   OH242421   5.412   4.512   7.908
14161TIP3    H142422   5.364   4.444   7.957
14161TIP3    H242423   5.478   4.461   7.859
14162TIP3   OH242424   5.931   4.387   7.804
14162TIP3    H142425   5.966   4.443   7.731
14162TIP3    H242426   5.835   4.408   7.800
14163TIP3   OH242427   6.025   4.492   7.569
14163TIP3    H142428   6.099   4.442   7.528
14163TIP3    H242429   6.056   4.584   7.555
14164TIP3   OH242430   4.655   4.219   7.916
14164TIP3    H142431   4.562   4.186   7.920
14164TIP3    H242432   4.703   4.133   7.913
14165TIP3   OH242433   4.423   4.090   7.557
14165TIP3    H142434   4.466   4.149   7.491
14165TIP3    H242435   4.407   4.153   7.631
14166TIP3   OH242436   5.101   4.248   7.797
14166TIP3    H142437   5.159   4.301   7.739
14166TIP3    H242438   5.114   4.292   7.882
14167TIP3   OH242439   5.650   4.399   7.780
14167TIP3    H142440   5.640   4.363   7.691
14167TIP3    H242441   5.634   4.319   7.836
14168TIP3   OH242442   5.676   4.323   7.345
14168TIP3    H142443   5.589   4.366   7.358
14168TIP3    H242444   5.660   4.237   7.390
14169TIP3   OH242445   4.159   5.662   7.344
14169TIP3    H142446   4.074   5.627   7.310
14169TIP3    H242447   4.148   5.756   7.322
14170TIP3   OH242448   4.561   4.247   7.329
14170TIP3    H142449   4.610   4.187   7.270
14170TIP3    H242450   4.633   4.304   7.364
14171TIP3   OH242451   5.071   4.424   7.427
14171TIP3    H142452   5.130   4.377   7.488
14171TIP3    H242453   5.093   4.517   7.452
14172TIP3   OH242454   4.931   5.851   6.926
14172TIP3    H142455   5.019   5.873   6.889
14172TIP3    H242456   4.909   5.775   6.867
14173TIP3   OH242457   5.655   5.969   7.020
14173TIP3    H142458   5.648   5.871   7.011
14173TIP3    H242459   5.604   5.998   6.942
14174TIP3   OH242460   4.235   5.685   6.982
14174TIP3    H142461   4.237   5.708   7.076
14174TIP3    H242462   4.323   5.643   6.969
14175TIP3   OH242463   7.135   5.482   6.976
14175TIP3    H142464   7.105   5.572   6.952
14175TIP3    H242465   7.064   5.429   6.935
14176TIP3   OH242466   7.106   5.492   7.386
14176TIP3    H142467   7.165   5.429   7.430
14176TIP3    H242468   7.086   5.443   7.305
14177TIP3   OH242469   6.436   5.355   7.700
14177TIP3    H142470   6.462   5.291   7.769
14177TIP3    H242471   6.516   5.410   7.698
14178TIP3   OH242472   6.416   5.792   7.444
14178TIP3    H142473   6.397   5.695   7.447
14178TIP3    H242474   6.512   5.788   7.438
14179TIP3   OH242475   6.120   4.995   7.228
14179TIP3    H142476   6.067   5.075   7.244
14179TIP3    H242477   6.052   4.936   7.191
14180TIP3   OH242478   6.183   5.281   7.402
14180TIP3    H142479   6.229   5.202   7.440
14180TIP3    H242480   6.230   5.293   7.319
14181TIP3   OH242481   6.928   5.708   7.351
14181TIP3    H142482   6.943   5.613   7.338
14181TIP3    H242483   7.019   5.738   7.355
14182TIP3   OH242484   7.330   5.201   7.423
14182TIP3    H142485   7.365   5.110   7.429
14182TIP3    H242486   7.300   5.200   7.330
14183TIP3   OH242487   6.692   4.871   7.399
14183TIP3    H142488   6.670   4.943   7.337
14183TIP3    H242489   6.645   4.796   7.356
14184TIP3   OH242490   7.384   4.962   7.020
14184TIP3    H142491   7.453   4.941   7.088
14184TIP3    H242492   7.441   4.998   6.950
14185TIP3   OH242493   6.323   5.072   7.506
14185TIP3    H142494   6.406   5.052   7.555
14185TIP3    H242495   6.336   5.014   7.428
14186TIP3   OH242496   6.765   5.270   7.295
14186TIP3    H142497   6.858   5.242   7.312
14186TIP3    H242498   6.725   5.185   7.265
14187TIP3   OH242499   6.685   4.852   7.834
14187TIP3    H142500   6.624   4.889   7.768
14187TIP3    H242501   6.634   4.869   7.916
14188TIP3   OH242502   7.025   5.702   6.850
14188TIP3    H142503   6.997   5.681   6.760
14188TIP3    H242504   6.980   5.788   6.864
14189TIP3   OH242505   6.787   5.615   7.591
14189TIP3    H142506   6.728   5.678   7.638
14189TIP3    H242507   6.847   5.675   7.545
14190TIP3   OH242508   7.591   4.949   7.195
14190TIP3    H142509   7.558   4.912   7.279
14190TIP3    H242510   7.656   5.013   7.226
14191TIP3   OH242511   6.556   4.968   7.617
14191TIP3    H142512   6.621   5.037   7.643
14191TIP3    H242513   6.606   4.927   7.543
14192TIP3   OH242514   6.016   5.512   6.962
14192TIP3    H142515   5.971   5.535   6.878
14192TIP3    H242516   6.044   5.599   6.996
14193TIP3   OH242517   7.036   4.573   7.543
14193TIP3    H142518   7.026   4.478   7.564
14193TIP3    H242519   6.960   4.610   7.593
14194TIP3   OH242520   7.281   5.880   6.775
14194TIP3    H142521   7.263   5.799   6.725
14194TIP3    H242522   7.347   5.851   6.839
14195TIP3   OH242523   6.973   5.338   6.803
14195TIP3    H142524   6.892   5.388   6.781
14195TIP3    H242525   7.017   5.332   6.717
14196TIP3   OH242526   6.931   5.122   6.521
14196TIP3    H142527   7.000   5.172   6.567
14196TIP3    H242528   6.987   5.056   6.473
14197TIP3   OH242529   7.321   5.417   6.781
14197TIP3    H142530   7.266   5.441   6.859
14197TIP3    H242531   7.405   5.392   6.824
14198TIP3   OH242532   6.554   5.418   7.192
14198TIP3    H142533   6.509   5.359   7.127
14198TIP3    H242534   6.629   5.361   7.221
14199TIP3   OH242535   6.688   5.839   7.328
14199TIP3    H142536   6.644   5.803   7.248
14199TIP3    H242537   6.767   5.780   7.334
14200TIP3   OH242538   6.692   5.367   7.543
14200TIP3    H142539   6.719   5.342   7.452
14200TIP3    H242540   6.735   5.455   7.553
14201TIP3   OH242541   7.161   5.276   6.603
14201TIP3    H142542   7.219   5.337   6.654
14201TIP3    H242543   7.188   5.297   6.511
14202TIP3   OH242544   6.517   5.538   7.916
14202TIP3    H142545   6.446   5.588   7.875
14202TIP3    H242546   6.465   5.474   7.970
14203TIP3   OH242547   6.899   5.954   6.872
14203TIP3    H142548   6.964   6.008   6.922
14203TIP3    H242549   6.845   6.019   6.827
14204TIP3   OH242550   7.677   4.517   6.650
14204TIP3    H142551   7.595   4.534   6.702
14204TIP3    H242552   7.687   4.603   6.604
14205TIP3   OH242553   6.417   5.261   7.002
14205TIP3    H142554   6.350   5.302   6.943
14205TIP3    H242555   6.382   5.171   7.010
14206TIP3   OH242556   7.475   5.887   6.202
14206TIP3    H142557   7.483   5.985   6.190
14206TIP3    H242558   7.566   5.860   6.178
14207TIP3   OH242559   6.219   5.630   7.881
14207TIP3    H142560   6.141   5.615   7.822
14207TIP3    H242561   6.231   5.542   7.921
14208TIP3   OH242562   6.047   5.835   7.534
14208TIP3    H142563   6.143   5.840   7.527
14208TIP3    H242564   6.021   5.919   7.576
14209TIP3   OH242565   6.767   6.196   6.689
14209TIP3    H142566   6.734   6.175   6.598
14209TIP3    H242567   6.754   6.292   6.695
14210TIP3   OH242568   6.224   6.048   7.063
14210TIP3    H142569   6.258   6.037   7.154
14210TIP3    H242570   6.168   5.968   7.056
14211TIP3   OH242571   6.983   6.088   6.317
14211TIP3    H142572   7.044   6.023   6.276
14211TIP3    H242573   7.022   6.098   6.406
14212TIP3   OH242574   7.015   6.134   6.590
14212TIP3    H142575   6.931   6.148   6.638
14212TIP3    H242576   7.054   6.062   6.640
14213TIP3   OH242577   6.804   4.649   7.679
14213TIP3    H142578   6.716   4.618   7.651
14213TIP3    H242579   6.777   4.729   7.728
14214TIP3   OH242580   7.331   4.750   7.855
14214TIP3    H142581   7.394   4.773   7.924
14214TIP3    H242582   7.245   4.747   7.901
14215TIP3   OH242583   7.242   5.318   6.350
14215TIP3    H142584   7.204   5.295   6.263
14215TIP3    H242585   7.316   5.376   6.323
14216TIP3   OH242586   6.952   4.696   6.650
14216TIP3    H142587   6.916   4.693   6.741
14216TIP3    H242588   6.911   4.615   6.614
14217TIP3   OH242589   6.740   5.153   7.696
14217TIP3    H142590   6.693   5.177   7.779
14217TIP3    H242591   6.721   5.233   7.641
14218TIP3   OH242592   6.618   5.052   7.211
14218TIP3    H142593   6.526   5.024   7.229
14218TIP3    H242594   6.632   5.011   7.122
14219TIP3   OH242595   7.109   5.137   6.935
14219TIP3    H142596   7.057   5.208   6.891
14219TIP3    H242597   7.163   5.103   6.861
14220TIP3   OH242598   7.259   5.163   7.165
14220TIP3    H142599   7.197   5.186   7.093
14220TIP3    H242600   7.295   5.080   7.125
14221TIP3   OH242601   6.566   5.189   7.905
14221TIP3    H142602   6.608   5.240   7.977
14221TIP3    H242603   6.543   5.107   7.953
14222TIP3   OH242604   6.607   4.673   6.615
14222TIP3    H142605   6.596   4.669   6.712
14222TIP3    H242606   6.527   4.722   6.589
14223TIP3   OH242607   6.147   4.717   7.485
14223TIP3    H142608   6.225   4.745   7.538
14223TIP3    H242609   6.187   4.681   7.404
14224TIP3   OH242610   6.121   4.697   7.006
14224TIP3    H142611   6.166   4.734   6.927
14224TIP3    H242612   6.058   4.769   7.025
14225TIP3   OH242613   6.947   4.875   7.270
14225TIP3    H142614   6.865   4.871   7.323
14225TIP3    H242615   7.015   4.868   7.340
14226TIP3   OH242616   6.382   4.929   7.278
14226TIP3    H142617   6.287   4.937   7.251
14226TIP3    H242618   6.403   4.836   7.257
14227TIP3   OH242619   6.650   4.926   6.969
14227TIP3    H142620   6.743   4.938   6.946
14227TIP3    H242621   6.602   4.946   6.885
14228TIP3   OH242622   7.397   4.939   7.431
14228TIP3    H142623   7.405   4.923   7.526
14228TIP3    H242624   7.330   4.872   7.405
14229TIP3   OH242625   6.494   4.961   6.748
14229TIP3    H142626   6.421   4.914   6.703
14229TIP3    H242627   6.544   4.994   6.671
14230TIP3   OH242628   7.021   5.193   7.366
14230TIP3    H142629   7.098   5.158   7.319
14230TIP3    H242630   7.033   5.157   7.456
14231TIP3   OH242631   6.554   4.688   7.249
14231TIP3    H142632   6.517   4.610   7.297
14231TIP3    H242633   6.600   4.645   7.176
14232TIP3   OH242634   7.010   5.101   7.654
14232TIP3    H142635   6.916   5.125   7.669
14232TIP3    H242636   7.053   5.130   7.735
14233TIP3   OH242637   6.741   5.491   6.754
14233TIP3    H142638   6.671   5.422   6.744
14233TIP3    H242639   6.723   5.523   6.846
14234TIP3   OH242640   7.201   4.801   6.616
14234TIP3    H142641   7.105   4.779   6.626
14234TIP3    H242642   7.206   4.895   6.643
14235TIP3   OH242643   7.270   5.049   6.721
14235TIP3    H142644   7.366   5.055   6.738
14235TIP3    H242645   7.251   5.130   6.669
14236TIP3   OH242646   6.445   5.520   7.431
14236TIP3    H142647   6.479   5.484   7.346
14236TIP3    H242648   6.462   5.447   7.492
14237TIP3   OH242649   6.890   5.638   6.577
14237TIP3    H142650   6.843   5.724   6.582
14237TIP3    H242651   6.835   5.583   6.637
14238TIP3   OH242652   6.304   5.406   8.057
14238TIP3    H142653   6.285   5.384   8.151
14238TIP3    H242654   6.230   5.360   8.012
14239TIP3   OH242655   7.711   5.138   6.550
14239TIP3    H142656   7.653   5.091   6.486
14239TIP3    H242657   7.702   5.228   6.512
14240TIP3   OH242658   7.358   5.943   6.450
14240TIP3    H142659   7.392   5.882   6.517
14240TIP3    H242660   7.408   5.917   6.371
14241TIP3   OH242661   6.537   5.818   7.075
14241TIP3    H142662   6.532   5.890   7.009
14241TIP3    H242663   6.448   5.780   7.067
14242TIP3   OH242664   6.102   5.118   6.760
14242TIP3    H142665   6.145   5.203   6.781
14242TIP3    H242666   6.023   5.122   6.820
14243TIP3   OH242667   6.674   5.582   7.000
14243TIP3    H142668   6.642   5.670   7.026
14243TIP3    H242669   6.639   5.526   7.072
14244TIP3   OH242670   6.448   6.036   6.907
14244TIP3    H142671   6.365   6.038   6.959
14244TIP3    H242672   6.455   6.127   6.878
14245TIP3   OH242673   7.168   5.672   6.368
14245TIP3    H142674   7.220   5.660   6.450
14245TIP3    H242675   7.079   5.653   6.399
14246TIP3   OH242676   7.508   6.157   6.179
14246TIP3    H142677   7.559   6.201   6.108
14246TIP3    H242678   7.434   6.221   6.192
14247TIP3   OH242679   6.526   4.934   8.050
14247TIP3    H142680   6.431   4.940   8.068
14247TIP3    H242681   6.556   4.877   8.122
14248TIP3   OH242682   7.322   5.628   6.596
14248TIP3    H142683   7.314   5.555   6.661
14248TIP3    H242684   7.417   5.618   6.574
14249TIP3   OH242685   6.262   6.032   7.690
14249TIP3    H142686   6.262   5.937   7.712
14249TIP3    H242687   6.220   6.070   7.770
14250TIP3   OH242688   6.534   5.664   6.365
14250TIP3    H142689   6.547   5.572   6.335
14250TIP3    H242690   6.512   5.651   6.459
14251TIP3   OH242691   6.480   5.668   6.638
14251TIP3    H142692   6.556   5.639   6.690
14251TIP3    H242693   6.488   5.766   6.642
14252TIP3   OH242694   6.217   5.365   6.840
14252TIP3    H142695   6.148   5.408   6.896
14252TIP3    H242696   6.228   5.433   6.772
14253TIP3   OH242697   7.246   4.750   6.899
14253TIP3    H142698   7.232   4.773   6.805
14253TIP3    H242699   7.285   4.833   6.935
14254TIP3   OH242700   6.751   5.869   6.587
14254TIP3    H142701   6.662   5.895   6.618
14254TIP3    H242702   6.763   5.931   6.514
14255TIP3   OH242703   6.934   4.932   7.000
14255TIP3    H142704   6.998   5.005   6.984
14255TIP3    H242705   6.938   4.923   7.098
14256TIP3   OH242706   7.077   4.656   7.101
14256TIP3    H142707   7.072   4.733   7.162
14256TIP3    H242708   7.138   4.691   7.033
14257TIP3   OH242709   6.493   5.939   6.647
14257TIP3    H142710   6.462   6.009   6.585
14257TIP3    H242711   6.468   5.976   6.734
14258TIP3   OH242712   6.590   4.657   6.891
14258TIP3    H142713   6.587   4.747   6.930
14258TIP3    H242714   6.686   4.638   6.899
14259TIP3   OH242715   7.526   5.276   7.180
14259TIP3    H142716   7.437   5.237   7.183
14259TIP3    H242717   7.565   5.240   7.263
14260TIP3   OH242718   6.208   5.571   6.645
14260TIP3    H142719   6.277   5.640   6.652
14260TIP3    H242720   6.251   5.513   6.578
14261TIP3   OH242721   6.152   4.848   6.780
14261TIP3    H142722   6.148   4.946   6.776
14261TIP3    H242723   6.070   4.824   6.735
14262TIP3   OH242724   6.540   4.569   7.651
14262TIP3    H142725   6.509   4.535   7.565
14262TIP3    H242726   6.530   4.490   7.709
14263TIP3   OH242727   6.083   5.798   7.032
14263TIP3    H142728   6.012   5.819   7.095
14263TIP3    H242729   6.044   5.833   6.948
14264TIP3   OH242730   6.700   5.870   6.282
14264TIP3    H142731   6.642   5.797   6.313
14264TIP3    H242732   6.775   5.819   6.247
14265TIP3   OH242733   7.137   5.904   6.187
14265TIP3    H142734   7.193   5.862   6.254
14265TIP3    H242735   7.198   5.913   6.111
14266TIP3   OH242736   6.343   5.387   6.499
14266TIP3    H142737   6.397   5.350   6.570
14266TIP3    H242738   6.409   5.390   6.426
14267TIP3   OH242739   6.850   5.584   6.306
14267TIP3    H142740   6.854   5.596   6.403
14267TIP3    H242741   6.853   5.486   6.300
14268TIP3   OH242742   6.555   5.289   6.723
14268TIP3    H142743   6.523   5.245   6.803
14268TIP3    H242744   6.589   5.214   6.670
14269TIP3   OH242745   6.837   5.339   7.925
14269TIP3    H142746   6.778   5.381   7.989
14269TIP3    H242747   6.833   5.399   7.850
14270TIP3   OH242748   6.651   5.085   6.560
14270TIP3    H142749   6.625   5.088   6.466
14270TIP3    H242750   6.749   5.088   6.553
14271TIP3   OH242751   7.477   5.414   6.223
14271TIP3    H142752   7.452   5.370   6.139
14271TIP3    H242753   7.445   5.505   6.203
14272TIP3   OH242754   6.922   5.135   8.095
14272TIP3    H142755   6.944   5.064   8.032
14272TIP3    H242756   6.896   5.207   8.034
14273TIP3   OH242757   6.945   4.920   7.877
14273TIP3    H142758   6.971   4.956   7.791
14273TIP3    H242759   6.849   4.903   7.864
14274TIP3   OH242760   7.079   4.698   7.968
14274TIP3    H142761   7.028   4.777   7.937
14274TIP3    H242762   7.015   4.627   7.949
14275TIP3   OH242763   6.652   5.031   8.363
14275TIP3    H142764   6.662   4.950   8.311
14275TIP3    H242765   6.700   5.008   8.443
14276TIP3   OH242766   7.180   4.697   8.226
14276TIP3    H142767   7.246   4.636   8.193
14276TIP3    H242768   7.125   4.707   8.145
14277TIP3   OH242769   6.461   6.151   6.473
14277TIP3    H142770   6.556   6.144   6.449
14277TIP3    H242771   6.428   6.195   6.392
14278TIP3   OH242772   5.939   5.527   6.683
14278TIP3    H142773   6.034   5.547   6.667
14278TIP3    H242774   5.931   5.439   6.641
14279TIP3   OH242775   5.856   6.142   7.093
14279TIP3    H142776   5.788   6.082   7.055
14279TIP3    H242777   5.898   6.081   7.158
14280TIP3   OH242778   5.987   5.988   7.280
14280TIP3    H142779   5.966   5.914   7.339
14280TIP3    H242780   6.030   6.049   7.341
14281TIP3   OH242781   7.589   5.588   6.563
14281TIP3    H142782   7.649   5.647   6.512
14281TIP3    H242783   7.645   5.565   6.640
14282TIP3   OH242784   7.734   5.473   6.767
14282TIP3    H142785   7.663   5.422   6.812
14282TIP3    H242786   7.806   5.466   6.832
14283TIP3   OH242787   7.667   5.372   6.413
14283TIP3    H142788   7.599   5.379   6.341
14283TIP3    H242789   7.638   5.448   6.468
14284TIP3   OH242790   7.558   5.046   6.342
14284TIP3    H142791   7.482   5.088   6.300
14284TIP3    H242792   7.530   4.952   6.341
14285TIP3   OH242793   7.555   5.314   6.905
14285TIP3    H142794   7.555   5.219   6.884
14285TIP3    H242795   7.551   5.311   7.003
14286TIP3   OH242796   6.171   5.400   7.649
14286TIP3    H142797   6.167   5.366   7.557
14286TIP3    H242798   6.268   5.392   7.665
14287TIP3   OH242799   7.492   4.781   6.340
14287TIP3    H142800   7.561   4.749   6.401
14287TIP3    H242801   7.415   4.726   6.362
14288TIP3   OH242802   7.549   5.044   6.800
14288TIP3    H142803   7.584   4.953   6.818
14288TIP3    H242804   7.608   5.070   6.727
14289TIP3   OH242805   6.386   5.076   8.315
14289TIP3    H142806   6.483   5.070   8.328
14289TIP3    H242807   6.357   4.997   8.366
14290TIP3   OH242808   7.653   4.793   6.838
14290TIP3    H142809   7.703   4.777   6.921
14290TIP3    H242810   7.593   4.716   6.838
14291TIP3   OH242811   6.355   4.777   7.658
14291TIP3    H142812   6.417   4.701   7.668
14291TIP3    H242813   6.418   4.851   7.652
14292TIP3   OH242814   6.157   5.051   7.732
14292TIP3    H142815   6.205   5.044   7.647
14292TIP3    H242816   6.190   5.133   7.768
14293TIP3   OH242817   7.735   4.728   6.470
14293TIP3    H142818   7.778   4.652   6.426
14293TIP3    H242819   7.807   4.794   6.473
14294TIP3   OH242820   6.142   4.558   7.237
14294TIP3    H142821   6.048   4.550   7.261
14294TIP3    H242822   6.137   4.614   7.157
14295TIP3   OH242823   6.360   4.626   8.043
14295TIP3    H142824   6.314   4.631   8.128
14295TIP3    H242825   6.295   4.670   7.985
14296TIP3   OH242826   6.162   6.143   7.441
14296TIP3    H142827   6.187   6.113   7.530
14296TIP3    H242828   6.229   6.095   7.387
14297TIP3   OH242829   6.351   6.015   7.304
14297TIP3    H142830   6.374   5.929   7.347
14297TIP3    H242831   6.439   6.045   7.272
14298TIP3   OH242832   6.600   6.109   7.250
14298TIP3    H142833   6.647   6.025   7.235
14298TIP3    H242834   6.647   6.144   7.327
14299TIP3   OH242835   7.194   4.753   7.381
14299TIP3    H142836   7.149   4.686   7.436
14299TIP3    H242837   7.266   4.701   7.340
14300TIP3   OH242838   7.729   4.645   7.287
14300TIP3    H142839   7.763   4.701   7.215
14300TIP3    H242840   7.634   4.669   7.289
14301TIP3   OH242841   7.820   4.747   7.051
14301TIP3    H142842   7.894   4.694   7.016
14301TIP3    H242843   7.860   4.837   7.044
14302TIP3   OH242844   6.451   4.477   7.404
14302TIP3    H142845   6.359   4.444   7.405
14302TIP3    H242846   6.499   4.391   7.400
14303TIP3   OH242847   6.243   4.346   7.055
14303TIP3    H142848   6.269   4.402   6.980
14303TIP3    H242849   6.212   4.412   7.120
14304TIP3   OH242850   6.896   4.508   7.285
14304TIP3    H142851   6.953   4.557   7.224
14304TIP3    H242852   6.921   4.546   7.371
14305TIP3   OH242853   7.440   4.652   7.266
14305TIP3    H142854   7.445   4.609   7.180
14305TIP3    H242855   7.430   4.574   7.326
14306TIP3   OH242856   7.472   4.578   6.831
14306TIP3    H142857   7.385   4.619   6.845
14306TIP3    H242858   7.459   4.492   6.878
14307TIP3   OH242859   5.956   5.920   6.829
14307TIP3    H142860   5.871   5.883   6.798
14307TIP3    H242861   5.943   6.013   6.803
14308TIP3   OH242862   6.356   4.504   6.815
14308TIP3    H142863   6.403   4.441   6.758
14308TIP3    H242864   6.430   4.557   6.851
14309TIP3   OH242865   6.867   4.682   6.914
14309TIP3    H142866   6.925   4.633   6.974
14309TIP3    H242867   6.891   4.774   6.940
14310TIP3   OH242868   6.728   6.108   6.417
14310TIP3    H142869   6.817   6.127   6.379
14310TIP3    H242870   6.703   6.034   6.356
14311TIP3   OH242871   7.444   6.201   6.490
14311TIP3    H142872   7.408   6.110   6.485
14311TIP3    H242873   7.459   6.217   6.396
14312TIP3   OH242874   6.650   4.752   8.278
14312TIP3    H142875   6.611   4.686   8.338
14312TIP3    H242876   6.744   4.747   8.307
14313TIP3   OH242877   6.898   4.733   8.389
14313TIP3    H142878   6.991   4.731   8.359
14313TIP3    H242879   6.905   4.715   8.484
14314TIP3   OH242880   6.033   5.945   6.469
14314TIP3    H142881   6.027   5.964   6.564
14314TIP3    H242882   6.120   5.901   6.461
14315TIP3   OH242883   7.900   5.248   6.720
14315TIP3    H142884   7.855   5.332   6.699
14315TIP3    H242885   7.840   5.186   6.675
14316TIP3   OH242886   7.754   5.733   6.406
14316TIP3    H142887   7.736   5.761   6.314
14316TIP3    H242888   7.729   5.816   6.453
14317TIP3   OH242889   8.737   4.944   6.081
14317TIP3    H142890   8.774   4.962   6.169
14317TIP3    H242891   8.699   4.854   6.091
14318TIP3   OH242892   8.395   4.922   6.099
14318TIP3    H142893   8.391   4.921   6.197
14318TIP3    H242894   8.323   4.984   6.078
14319TIP3   OH242895   7.957   4.969   6.979
14319TIP3    H142896   8.027   5.034   6.997
14319TIP3    H242897   7.981   4.942   6.889
14320TIP3   OH242898   7.914   4.950   6.490
14320TIP3    H142899   7.970   4.984   6.418
14320TIP3    H242900   7.857   5.027   6.508
14321TIP3   OH242901   8.136   5.126   6.822
14321TIP3    H142902   8.070   5.162   6.761
14321TIP3    H242903   8.189   5.066   6.765
14322TIP3   OH242904   8.483   5.151   6.426
14322TIP3    H142905   8.541   5.229   6.426
14322TIP3    H242906   8.418   5.177   6.357
14323TIP3   OH242907   8.293   5.212   6.240
14323TIP3    H142908   8.217   5.173   6.194
14323TIP3    H242909   8.347   5.241   6.164
14324TIP3   OH242910   8.318   4.951   6.707
14324TIP3    H142911   8.295   4.875   6.765
14324TIP3    H242912   8.401   4.920   6.668
14325TIP3   OH242913   7.883   5.353   6.242
14325TIP3    H142914   7.925   5.442   6.246
14325TIP3    H242915   7.811   5.367   6.308
14326TIP3   OH242916   8.344   5.880   5.830
14326TIP3    H142917   8.305   5.815   5.767
14326TIP3    H242918   8.408   5.820   5.873
14327TIP3   OH242919   7.962   5.607   6.274
14327TIP3    H142920   7.891   5.631   6.338
14327TIP3    H242921   8.019   5.685   6.285
14328TIP3   OH242922   8.373   4.901   6.373
14328TIP3    H142923   8.387   4.991   6.408
14328TIP3    H242924   8.464   4.866   6.386
14329TIP3   OH242925   8.001   5.866   6.089
14329TIP3    H142926   8.023   5.852   6.184
14329TIP3    H242927   8.053   5.794   6.046
14330TIP3   OH242928   7.951   5.092   6.257
14330TIP3    H142929   7.960   5.189   6.254
14330TIP3    H242930   7.855   5.084   6.257
14331TIP3   OH242931   8.163   5.664   5.998
14331TIP3    H142932   8.207   5.600   6.059
14331TIP3    H242933   8.216   5.648   5.916
14332TIP3   OH242934   8.319   5.513   6.171
14332TIP3    H142935   8.354   5.468   6.250
14332TIP3    H242936   8.368   5.463   6.103
14333TIP3   OH242937   8.446   5.313   6.033
14333TIP3    H142938   8.417   5.314   5.939
14333TIP3    H242939   8.534   5.351   6.025
14334TIP3   OH242940   7.731   5.790   6.136
14334TIP3    H142941   7.822   5.817   6.115
14334TIP3    H242942   7.728   5.699   6.098
14335TIP3   OH242943   7.935   4.809   6.719
14335TIP3    H142944   7.842   4.804   6.747
14335TIP3    H242945   7.931   4.868   6.641
14336TIP3   OH242946   8.254   4.736   6.868
14336TIP3    H142947   8.161   4.713   6.888
14336TIP3    H242948   8.298   4.651   6.886
14337TIP3   OH242949   8.022   4.604   6.536
14337TIP3    H142950   8.064   4.661   6.470
14337TIP3    H242951   8.005   4.667   6.609
14338TIP3   OH242952   8.143   4.767   6.290
14338TIP3    H142953   8.194   4.701   6.239
14338TIP3    H242954   8.215   4.819   6.330
14339TIP3   OH242955   8.647   4.907   6.440
14339TIP3    H142956   8.703   4.855   6.499
14339TIP3    H242957   8.618   4.980   6.497
14340TIP3   OH242958   2.128   6.112   8.499
14340TIP3    H142959   2.153   6.144   8.588
14340TIP3    H242960   2.212   6.115   8.451
14341TIP3   OH242961   1.641   5.992   8.190
14341TIP3    H142962   1.698   5.998   8.269
14341TIP3    H242963   1.692   6.044   8.127
14342TIP3   OH242964   1.841   6.026   8.387
14342TIP3    H142965   1.839   5.943   8.436
14342TIP3    H242966   1.932   6.056   8.405
14343TIP3   OH242967   1.198   6.279   7.921
14343TIP3    H142968   1.110   6.321   7.920
14343TIP3    H242969   1.245   6.321   7.846
14344TIP3   OH242970   1.184   6.150   7.670
14344TIP3    H142971   1.237   6.176   7.748
14344TIP3    H242972   1.250   6.097   7.621
14345TIP3   OH242973   1.590   6.417   7.947
14345TIP3    H142974   1.574   6.484   8.017
14345TIP3    H242975   1.678   6.386   7.975
14346TIP3   OH242976   1.413   6.319   7.764
14346TIP3    H142977   1.484   6.365   7.812
14346TIP3    H242978   1.434   6.343   7.671
14347TIP3   OH242979   1.925   5.562   7.828
14347TIP3    H142980   1.842   5.581   7.878
14347TIP3    H242981   1.937   5.646   7.779
14348TIP3   OH242982   1.740   6.922   7.346
14348TIP3    H142983   1.755   7.017   7.333
14348TIP3    H242984   1.832   6.889   7.354
14349TIP3   OH242985   1.485   6.357   7.511
14349TIP3    H142986   1.455   6.336   7.421
14349TIP3    H242987   1.563   6.414   7.493
14350TIP3   OH242988   1.190   5.753   7.805
14350TIP3    H142989   1.174   5.747   7.902
14350TIP3    H242990   1.160   5.662   7.780
14351TIP3   OH242991   1.355   6.175   8.110
14351TIP3    H142992   1.298   6.207   8.036
14351TIP3    H242993   1.430   6.139   8.060
14352TIP3   OH242994   1.446   5.847   7.791
14352TIP3    H142995   1.350   5.829   7.797
14352TIP3    H242996   1.454   5.941   7.819
14353TIP3   OH242997   1.521   6.093   7.897
14353TIP3    H142998   1.618   6.099   7.911
14353TIP3    H242999   1.503   6.170   7.840
14354TIP3   OH243000   1.958   6.184   7.734
14354TIP3    H143001   1.897   6.139   7.670
14354TIP3    H243002   1.956   6.273   7.691
14355TIP3   OH243003   1.408   6.732   7.517
14355TIP3    H143004   1.460   6.686   7.586
14355TIP3    H243005   1.319   6.705   7.545
14356TIP3   OH243006   1.813   7.239   7.324
14356TIP3    H143007   1.802   7.286   7.238
14356TIP3    H243008   1.721   7.240   7.355
14357TIP3   OH243009   1.549   6.591   7.708
14357TIP3    H143010   1.557   6.551   7.796
14357TIP3    H243011   1.635   6.636   7.701
14358TIP3   OH243012   1.502   5.790   8.068
14358TIP3    H143013   1.483   5.818   7.977
14358TIP3    H243014   1.544   5.870   8.107
14359TIP3   OH243015   1.191   5.971   8.191
14359TIP3    H143016   1.257   6.034   8.158
14359TIP3    H243017   1.189   5.990   8.285
14360TIP3   OH243018   1.343   5.692   8.272
14360TIP3    H143019   1.340   5.758   8.342
14360TIP3    H243020   1.393   5.738   8.201
14361TIP3   OH243021   1.377   6.956   7.345
14361TIP3    H143022   1.417   6.900   7.414
14361TIP3    H243023   1.439   6.945   7.270
14362TIP3   OH243024   1.117   6.637   7.489
14362TIP3    H143025   1.131   6.640   7.586
14362TIP3    H243026   1.108   6.540   7.475
14363TIP3   OH243027   0.937   6.163   7.792
14363TIP3    H143028   0.905   6.150   7.700
14363TIP3    H243029   1.032   6.147   7.775
14364TIP3   OH243030   1.724   6.458   7.401
14364TIP3    H143031   1.702   6.413   7.317
14364TIP3    H243032   1.692   6.549   7.379
14365TIP3   OH243033   1.863   6.645   7.732
14365TIP3    H143034   1.932   6.704   7.693
14365TIP3    H243035   1.915   6.599   7.802
14366TIP3   OH243036   1.980   6.504   7.930
14366TIP3    H143037   1.929   6.464   8.003
14366TIP3    H243038   2.059   6.540   7.977
14367TIP3   OH243039   1.922   6.417   7.583
14367TIP3    H143040   1.852   6.419   7.514
14367TIP3    H243041   1.894   6.494   7.636
14368TIP3   OH243042   1.793   6.092   7.539
14368TIP3    H143043   1.749   6.132   7.463
14368TIP3    H243044   1.769   5.998   7.528
14369TIP3   OH243045   1.813   6.348   8.103
14369TIP3    H143046   1.819   6.254   8.075
14369TIP3    H243047   1.762   6.341   8.186
14370TIP3   OH243048   1.739   5.825   7.520
14370TIP3    H143049   1.811   5.796   7.580
14370TIP3    H243050   1.664   5.769   7.546
14371TIP3   OH243051   1.799   6.097   7.976
14371TIP3    H143052   1.829   6.004   7.990
14371TIP3    H243053   1.858   6.121   7.901
14372TIP3   OH243054   1.892   5.842   8.003
14372TIP3    H143055   1.949   5.827   8.081
14372TIP3    H243056   1.833   5.764   8.008
14373TIP3   OH243057   1.984   5.771   7.650
14373TIP3    H143058   2.025   5.699   7.599
14373TIP3    H243059   2.052   5.841   7.646
14374TIP3   OH243060   1.993   5.694   8.421
14374TIP3    H143061   2.031   5.741   8.343
14374TIP3    H243062   1.898   5.691   8.398
14375TIP3   OH243063   2.076   5.811   8.197
14375TIP3    H143064   2.150   5.756   8.163
14375TIP3    H243065   2.115   5.901   8.188
14376TIP3   OH243066   1.730   5.673   8.394
14376TIP3    H143067   1.671   5.665   8.319
14376TIP3    H243068   1.708   5.594   8.446
14377TIP3   OH243069   1.720   5.624   8.008
14377TIP3    H143070   1.633   5.666   8.021
14377TIP3    H243071   1.704   5.537   8.050
14378TIP3   OH243072   1.154   5.729   8.070
14378TIP3    H143073   1.193   5.685   8.147
14378TIP3    H243074   1.144   5.820   8.107
14379TIP3   OH243075   3.183   6.779   7.642
14379TIP3    H143076   3.159   6.872   7.624
14379TIP3    H243077   3.105   6.735   7.605
14380TIP3   OH243078   3.195   6.768   8.005
14380TIP3    H143079   3.216   6.751   8.099
14380TIP3    H243080   3.150   6.687   7.979
14381TIP3   OH243081   3.464   7.048   7.713
14381TIP3    H143082   3.411   7.030   7.791
14381TIP3    H243083   3.435   7.136   7.685
14382TIP3   OH243084   2.166   6.279   7.892
14382TIP3    H143085   2.136   6.370   7.909
14382TIP3    H243086   2.087   6.241   7.849
14383TIP3   OH243087   2.224   6.571   8.030
14383TIP3    H143088   2.277   6.517   8.092
14383TIP3    H243089   2.282   6.648   8.021
14384TIP3   OH243090   3.077   7.512   7.712
14384TIP3    H143091   3.150   7.483   7.651
14384TIP3    H243092   3.116   7.478   7.794
14385TIP3   OH243093   3.015   6.974   8.049
14385TIP3    H143094   3.059   6.902   8.001
14385TIP3    H243095   3.095   7.022   8.080
14386TIP3   OH243096   3.994   6.326   8.070
14386TIP3    H143097   4.023   6.409   8.112
14386TIP3    H243098   4.016   6.344   7.977
14387TIP3   OH243099   3.391   6.511   8.104
14387TIP3    H143100   3.443   6.430   8.120
14387TIP3    H243101   3.365   6.499   8.011
14388TIP3   OH243102   2.735   6.169   8.064
14388TIP3    H143103   2.717   6.242   8.001
14388TIP3    H243104   2.688   6.096   8.017
14389TIP3   OH243105   3.430   6.264   7.686
14389TIP3    H143106   3.502   6.251   7.752
14389TIP3    H243107   3.482   6.298   7.611
14390TIP3   OH243108   2.382   6.385   8.170
14390TIP3    H143109   2.465   6.352   8.209
14390TIP3    H243110   2.384   6.336   8.085
14391TIP3   OH243111   2.809   6.563   7.974
14391TIP3    H143112   2.905   6.541   7.978
14391TIP3    H243113   2.772   6.481   7.935
14392TIP3   OH243114   4.067   6.533   8.244
14392TIP3    H143115   3.988   6.587   8.221
14392TIP3    H243116   4.103   6.581   8.321
14393TIP3   OH243117   2.743   6.146   8.490
14393TIP3    H143118   2.677   6.188   8.430
14393TIP3    H243119   2.701   6.151   8.576
14394TIP3   OH243120   3.068   6.999   7.515
14394TIP3    H143121   3.050   6.996   7.420
14394TIP3    H243122   3.040   7.090   7.536
14395TIP3   OH243123   3.637   6.268   7.861
14395TIP3    H143124   3.644   6.216   7.942
14395TIP3    H243125   3.691   6.346   7.883
14396TIP3   OH243126   2.604   6.264   8.283
14396TIP3    H143127   2.666   6.338   8.302
14396TIP3    H243128   2.651   6.222   8.206
14397TIP3   OH243129   2.054   6.812   7.625
14397TIP3    H143130   2.029   6.838   7.533
14397TIP3    H243131   2.111   6.885   7.655
14398TIP3   OH243132   3.513   7.329   7.866
14398TIP3    H143133   3.424   7.304   7.897
14398TIP3    H243134   3.489   7.382   7.788
14399TIP3   OH243135   3.794   6.212   8.240
14399TIP3    H143136   3.710   6.248   8.208
14399TIP3    H243137   3.856   6.247   8.172
14400TIP3   OH243138   3.095   5.865   8.217
14400TIP3    H143139   3.073   5.771   8.236
14400TIP3    H243140   3.018   5.909   8.259
14401TIP3   OH243141   3.724   7.243   8.173
14401TIP3    H143142   3.716   7.153   8.136
14401TIP3    H243143   3.737   7.296   8.091
14402TIP3   OH243144   3.016   6.633   7.468
14402TIP3    H143145   2.939   6.690   7.447
14402TIP3    H243146   3.066   6.636   7.385
14403TIP3   OH243147   2.976   6.422   7.183
14403TIP3    H143148   3.040   6.474   7.234
14403TIP3    H243149   3.036   6.360   7.136
14404TIP3   OH243150   3.927   6.877   8.055
14404TIP3    H143151   3.842   6.926   8.062
14404TIP3    H243152   3.953   6.903   7.964
14405TIP3   OH243153   3.363   6.716   7.443
14405TIP3    H143154   3.310   6.745   7.522
14405TIP3    H243155   3.449   6.697   7.485
14406TIP3   OH243156   3.592   6.732   8.335
14406TIP3    H143157   3.607   6.810   8.394
14406TIP3    H243158   3.521   6.767   8.279
14407TIP3   OH243159   2.602   6.713   7.856
14407TIP3    H143160   2.558   6.658   7.788
14407TIP3    H243161   2.676   6.656   7.884
14408TIP3   OH243162   2.770   7.084   8.035
14408TIP3    H143163   2.730   7.030   7.966
14408TIP3    H243164   2.863   7.052   8.033
14409TIP3   OH243165   2.750   6.698   8.203
14409TIP3    H143166   2.770   6.656   8.116
14409TIP3    H243167   2.838   6.735   8.227
14410TIP3   OH243168   3.256   7.292   7.970
14410TIP3    H143169   3.273   7.355   8.043
14410TIP3    H243170   3.250   7.207   8.017
14411TIP3   OH243171   3.205   6.578   7.266
14411TIP3    H143172   3.264   6.638   7.318
14411TIP3    H243173   3.232   6.601   7.174
14412TIP3   OH243174   2.961   7.265   7.532
14412TIP3    H143175   3.019   7.320   7.587
14412TIP3    H243176   2.892   7.327   7.507
14413TIP3   OH243177   3.723   5.819   7.315
14413TIP3    H143178   3.641   5.840   7.364
14413TIP3    H243179   3.736   5.901   7.264
14414TIP3   OH243180   2.469   6.556   7.657
14414TIP3    H143181   2.403   6.605   7.603
14414TIP3    H243182   2.422   6.475   7.677
14415TIP3   OH243183   3.521   7.184   6.860
14415TIP3    H143184   3.529   7.282   6.847
14415TIP3    H243185   3.614   7.156   6.849
14416TIP3   OH243186   2.831   7.500   7.335
14416TIP3    H143187   2.798   7.473   7.248
14416TIP3    H243188   2.818   7.595   7.335
14417TIP3   OH243189   3.030   7.400   6.989
14417TIP3    H143190   3.090   7.333   6.950
14417TIP3    H243191   3.072   7.414   7.076
14418TIP3   OH243192   3.096   7.451   7.263
14418TIP3    H143193   3.011   7.448   7.312
14418TIP3    H243194   3.159   7.420   7.330
14419TIP3   OH243195   3.873   6.716   8.523
14419TIP3    H143196   3.787   6.749   8.493
14419TIP3    H243197   3.869   6.621   8.504
14420TIP3   OH243198   2.852   5.945   8.331
14420TIP3    H143199   2.761   5.921   8.305
14420TIP3    H243200   2.832   6.029   8.378
14421TIP3   OH243201   3.388   6.068   8.528
14421TIP3    H143202   3.459   6.030   8.584
14421TIP3    H243203   3.305   6.041   8.573
14422TIP3   OH243204   3.614   6.485   8.455
14422TIP3    H143205   3.575   6.502   8.543
14422TIP3    H243206   3.602   6.572   8.410
14423TIP3   OH243207   3.278   6.619   7.008
14423TIP3    H143208   3.250   6.597   6.917
14423TIP3    H243209   3.358   6.672   6.990
14424TIP3   OH243210   2.989   6.001   7.311
14424TIP3    H143211   2.959   5.996   7.404
14424TIP3    H243212   2.956   5.915   7.278
14425TIP3   OH243213   2.774   6.465   8.353
14425TIP3    H143214   2.783   6.498   8.444
14425TIP3    H243215   2.764   6.548   8.301
14426TIP3   OH243216   2.666   6.350   7.874
14426TIP3    H143217   2.572   6.328   7.890
14426TIP3    H243218   2.679   6.311   7.785
14427TIP3   OH243219   3.154   6.434   7.601
14427TIP3    H143220   3.103   6.508   7.560
14427TIP3    H243221   3.211   6.406   7.527
14428TIP3   OH243222   3.309   6.465   7.844
14428TIP3    H143223   3.254   6.501   7.772
14428TIP3    H243224   3.343   6.385   7.797
14429TIP3   OH243225   2.642   5.967   7.278
14429TIP3    H143226   2.641   5.968   7.376
14429TIP3    H243227   2.570   6.030   7.258
14430TIP3   OH243228   2.204   6.039   8.141
14430TIP3    H143229   2.282   6.059   8.197
14430TIP3    H243230   2.242   6.004   8.059
14431TIP3   OH243231   2.163   5.996   7.668
14431TIP3    H143232   2.209   6.033   7.590
14431TIP3    H243233   2.105   6.071   7.689
14432TIP3   OH243234   3.298   6.709   8.264
14432TIP3    H143235   3.344   6.645   8.204
14432TIP3    H243236   3.284   6.652   8.341
14433TIP3   OH243237   2.994   6.170   7.935
14433TIP3    H143238   2.912   6.171   7.989
14433TIP3    H243239   3.063   6.175   8.003
14434TIP3   OH243240   2.426   6.229   7.946
14434TIP3    H143241   2.332   6.235   7.918
14434TIP3    H243242   2.452   6.139   7.919
14435TIP3   OH243243   2.694   6.224   7.632
14435TIP3    H143244   2.789   6.240   7.612
14435TIP3    H243245   2.649   6.248   7.548
14436TIP3   OH243246   3.484   6.245   8.146
14436TIP3    H143247   3.441   6.264   8.232
14436TIP3    H243248   3.416   6.192   8.102
14437TIP3   OH243249   2.539   6.256   7.408
14437TIP3    H143250   2.467   6.216   7.356
14437TIP3    H243251   2.592   6.297   7.337
14438TIP3   OH243252   3.076   6.496   8.028
14438TIP3    H143253   3.152   6.466   7.975
14438TIP3    H243254   3.093   6.455   8.115
14439TIP3   OH243255   2.597   5.989   7.911
14439TIP3    H143256   2.564   5.909   7.957
14439TIP3    H243257   2.649   5.951   7.839
14440TIP3   OH243258   3.055   6.394   8.321
14440TIP3    H143259   2.967   6.436   8.327
14440TIP3    H243260   3.112   6.453   8.373
14441TIP3   OH243261   2.789   6.787   7.413
14441TIP3    H143262   2.713   6.725   7.405
14441TIP3    H243263   2.780   6.816   7.507
14442TIP3   OH243264   3.691   7.011   8.038
14442TIP3    H143265   3.710   7.064   7.958
14442TIP3    H243266   3.601   6.975   8.019
14443TIP3   OH243267   3.246   6.100   7.284
14443TIP3    H143268   3.148   6.086   7.288
14443TIP3    H243269   3.257   6.195   7.305
14444TIP3   OH243270   3.316   6.350   7.383
14444TIP3    H143271   3.412   6.357   7.399
14444TIP3    H243272   3.297   6.431   7.332
14445TIP3   OH243273   2.461   6.741   8.089
14445TIP3    H143274   2.498   6.764   8.001
14445TIP3    H243275   2.540   6.709   8.133
14446TIP3   OH243276   2.933   6.937   7.233
14446TIP3    H143277   2.885   7.023   7.241
14446TIP3    H243278   2.883   6.883   7.298
14447TIP3   OH243279   3.757   6.441   7.220
14447TIP3    H143280   3.695   6.397   7.157
14447TIP3    H243281   3.754   6.531   7.180
14448TIP3   OH243282   3.978   7.247   8.275
14448TIP3    H143283   3.886   7.256   8.244
14448TIP3    H243284   4.025   7.237   8.190
14449TIP3   OH243285   3.446   7.258   7.123
14449TIP3    H143286   3.433   7.187   7.186
14449TIP3    H243287   3.468   7.211   7.040
14450TIP3   OH243288   3.449   6.882   7.980
14450TIP3    H143289   3.355   6.855   7.978
14450TIP3    H243290   3.488   6.817   7.919
14451TIP3   OH243291   2.575   7.062   7.669
14451TIP3    H143292   2.619   7.139   7.709
14451TIP3    H243293   2.484   7.074   7.700
14452TIP3   OH243294   2.147   6.418   7.421
14452TIP3    H143295   2.193   6.502   7.442
14452TIP3    H243296   2.070   6.423   7.483
14453TIP3   OH243297   2.742   6.853   7.667
14453TIP3    H143298   2.690   6.937   7.660
14453TIP3    H243299   2.697   6.812   7.743
14454TIP3   OH243300   3.258   7.072   8.131
14454TIP3    H143301   3.270   7.128   8.210
14454TIP3    H243302   3.342   7.023   8.128
14455TIP3   OH243303   3.211   6.983   7.027
14455TIP3    H143304   3.269   6.956   7.102
14455TIP3    H243305   3.124   6.963   7.065
14456TIP3   OH243306   3.556   7.459   6.843
14456TIP3    H143307   3.596   7.538   6.803
14456TIP3    H243308   3.475   7.502   6.880
14457TIP3   OH243309   3.377   6.906   7.230
14457TIP3    H143310   3.362   6.859   7.315
14457TIP3    H243311   3.474   6.908   7.227
14458TIP3   OH243312   2.575   6.969   7.030
14458TIP3    H143313   2.595   6.878   7.003
14458TIP3    H243314   2.561   6.958   7.126
14459TIP3   OH243315   2.523   6.975   7.304
14459TIP3    H143316   2.595   6.948   7.363
14459TIP3    H243317   2.526   7.073   7.313
14460TIP3   OH243318   2.260   6.661   7.504
14460TIP3    H143319   2.197   6.707   7.562
14460TIP3    H243320   2.279   6.731   7.439
14461TIP3   OH243321   3.402   6.313   8.403
14461TIP3    H143322   3.490   6.348   8.426
14461TIP3    H243323   3.397   6.229   8.453
14462TIP3   OH243324   3.287   6.053   7.564
14462TIP3    H143325   3.276   6.074   7.469
14462TIP3    H243326   3.328   6.136   7.598
14463TIP3   OH243327   2.786   7.164   7.246
14463TIP3    H143328   2.703   7.195   7.286
14463TIP3    H243329   2.811   7.241   7.193
14464TIP3   OH243330   2.977   6.232   7.664
14464TIP3    H143331   3.041   6.304   7.643
14464TIP3    H243332   2.984   6.227   7.761
14465TIP3   OH243333   3.232   6.549   8.477
14465TIP3    H143334   3.267   6.615   8.539
14465TIP3    H243335   3.299   6.478   8.479
14466TIP3   OH243336   3.123   5.958   7.766
14466TIP3    H143337   3.111   6.038   7.821
14466TIP3    H243338   3.183   5.993   7.696
14467TIP3   OH243339   2.530   7.250   7.319
14467TIP3    H143340   2.503   7.315   7.250
14467TIP3    H243341   2.529   7.307   7.398
14468TIP3   OH243342   2.634   5.959   7.555
14468TIP3    H143343   2.635   6.050   7.591
14468TIP3    H243344   2.730   5.939   7.563
14469TIP3   OH243345   3.885   6.445   8.460
14469TIP3    H143346   3.787   6.438   8.452
14469TIP3    H243347   3.913   6.431   8.368
14470TIP3   OH243348   3.540   6.644   7.839
14470TIP3    H143349   3.464   6.585   7.853
14470TIP3    H243350   3.612   6.599   7.888
14471TIP3   OH243351   2.257   6.875   7.310
14471TIP3    H143352   2.328   6.942   7.320
14471TIP3    H243353   2.299   6.819   7.242
14472TIP3   OH243354   2.192   6.146   7.440
14472TIP3    H143355   2.201   6.244   7.438
14472TIP3    H243356   2.105   6.134   7.401
14473TIP3   OH243357   3.510   7.616   7.803
14473TIP3    H143358   3.457   7.598   7.724
14473TIP3    H243359   3.598   7.635   7.764
14474TIP3   OH243360   2.578   5.882   8.313
14474TIP3    H143361   2.552   5.846   8.225
14474TIP3    H243362   2.570   5.801   8.368
14475TIP3   OH243363   2.742   7.171   6.939
14475TIP3    H143364   2.687   7.099   6.978
14475TIP3    H243365   2.819   7.120   6.908
14476TIP3   OH243366   3.177   7.210   6.851
14476TIP3    H143367   3.223   7.152   6.914
14476TIP3    H243368   3.238   7.211   6.775
14477TIP3   OH243369   2.387   6.685   7.165
14477TIP3    H143370   2.446   6.656   7.237
14477TIP3    H243371   2.453   6.692   7.092
14478TIP3   OH243372   2.891   6.883   6.967
14478TIP3    H143373   2.900   6.898   7.064
14478TIP3    H243374   2.894   6.785   6.964
14479TIP3   OH243375   3.511   7.093   8.305
14479TIP3    H143376   3.586   7.147   8.275
14479TIP3    H243377   3.448   7.162   8.333
14480TIP3   OH243378   2.588   6.591   7.381
14480TIP3    H143379   2.570   6.552   7.468
14480TIP3    H243380   2.630   6.517   7.333
14481TIP3   OH243381   2.697   6.384   7.226
14481TIP3    H143382   2.672   6.392   7.131
14481TIP3    H243383   2.795   6.389   7.219
14482TIP3   OH243384   3.518   6.714   6.888
14482TIP3    H143385   3.496   6.671   6.804
14482TIP3    H243386   3.485   6.805   6.868
14483TIP3   OH243387   2.924   6.439   8.676
14483TIP3    H143388   2.958   6.347   8.679
14483TIP3    H243389   3.006   6.488   8.660
14484TIP3   OH243390   3.007   6.207   8.527
14484TIP3    H143391   3.033   6.259   8.449
14484TIP3    H243392   2.911   6.195   8.512
14485TIP3   OH243393   2.997   6.768   8.357
14485TIP3    H143394   3.091   6.743   8.354
14485TIP3    H243395   3.003   6.862   8.377
14486TIP3   OH243396   3.642   6.936   8.498
14486TIP3    H143397   3.597   7.010   8.452
14486TIP3    H243398   3.734   6.969   8.491
14487TIP3   OH243399   3.141   5.980   8.604
14487TIP3    H143400   3.093   6.065   8.590
14487TIP3    H243401   3.066   5.918   8.609
14488TIP3   OH243402   3.495   6.450   8.710
14488TIP3    H143403   3.413   6.427   8.757
14488TIP3    H243404   3.553   6.379   8.740
14489TIP3   OH243405   2.508   7.455   7.136
14489TIP3    H143406   2.602   7.442   7.113
14489TIP3    H243407   2.477   7.499   7.054
14490TIP3   OH243408   1.994   6.823   7.352
14490TIP3    H143409   2.087   6.847   7.329
14490TIP3    H243410   1.985   6.737   7.306
14491TIP3   OH243411   3.760   7.712   7.749
14491TIP3    H143412   3.817   7.761   7.812
14491TIP3    H243413   3.812   7.723   7.668
14492TIP3   OH243414   3.656   6.902   7.220
14492TIP3    H143415   3.723   6.968   7.192
14492TIP3    H243416   3.699   6.865   7.300
14493TIP3   OH243417   3.783   6.768   7.424
14493TIP3    H143418   3.714   6.729   7.483
14493TIP3    H243419   3.844   6.809   7.488
14494TIP3   OH243420   3.839   7.163   7.859
14494TIP3    H143421   3.881   7.095   7.803
14494TIP3    H243422   3.822   7.235   7.796
14495TIP3   OH243423   3.725   7.454   7.980
14495TIP3    H143424   3.697   7.546   7.964
14495TIP3    H243425   3.657   7.406   7.928
14496TIP3   OH243426   3.719   6.677   7.071
14496TIP3    H143427   3.647   6.680   7.004
14496TIP3    H243428   3.692   6.753   7.127
14497TIP3   OH243429   3.590   6.350   7.026
14497TIP3    H143430   3.546   6.389   6.950
14497TIP3    H243431   3.565   6.256   7.016
14498TIP3   OH243432   3.595   6.629   7.571
14498TIP3    H143433   3.603   6.532   7.568
14498TIP3    H243434   3.580   6.645   7.667
14499TIP3   OH243435   3.881   7.010   8.382
14499TIP3    H143436   3.960   6.972   8.425
14499TIP3    H243437   3.914   7.098   8.355
14500TIP3   OH243438   4.095   6.865   8.477
14500TIP3    H143439   4.013   6.820   8.508
14500TIP3    H243440   4.153   6.787   8.469
14501TIP3   OH243441   3.533   6.084   7.010
14501TIP3    H143442   3.609   6.054   7.064
14501TIP3    H243443   3.462   6.023   7.034
14502TIP3   OH243444   3.590   6.341   7.466
14502TIP3    H143445   3.632   6.253   7.480
14502TIP3    H243446   3.648   6.377   7.397
14503TIP3   OH243447   3.753   6.515   7.962
14503TIP3    H143448   3.838   6.540   7.920
14503TIP3    H243449   3.768   6.555   8.050
14504TIP3   OH243450   3.824   6.659   8.192
14504TIP3    H143451   3.744   6.692   8.238
14504TIP3    H243452   3.857   6.741   8.149
14505TIP3   OH243453   3.701   6.093   7.505
14505TIP3    H143454   3.750   6.075   7.588
14505TIP3    H243455   3.641   6.016   7.502
14506TIP3   OH243456   2.395   6.089   8.338
14506TIP3    H143457   2.450   6.008   8.340
14506TIP3    H243458   2.463   6.155   8.317
14507TIP3   OH243459   2.214   6.378   8.390
14507TIP3    H143460   2.202   6.299   8.335
14507TIP3    H243461   2.289   6.418   8.341
14508TIP3   OH243462   4.132   6.396   8.570
14508TIP3    H143463   4.039   6.420   8.550
14508TIP3    H243464   4.139   6.313   8.520
14509TIP3   OH243465   3.780   6.027   7.136
14509TIP3    H143466   3.819   5.955   7.082
14509TIP3    H243467   3.848   6.097   7.131
14510TIP3   OH243468   2.185   5.862   7.900
14510TIP3    H143469   2.090   5.854   7.920
14510TIP3    H243470   2.184   5.918   7.820
14511TIP3   OH243471   4.046   6.161   8.425
14511TIP3    H143472   3.959   6.164   8.381
14511TIP3    H243473   4.073   6.067   8.415
14512TIP3   OH243474   3.249   6.072   8.056
14512TIP3    H143475   3.206   5.999   8.104
14512TIP3    H243476   3.319   6.027   8.005
14513TIP3   OH243477   3.760   5.969   7.978
14513TIP3    H143478   3.812   6.003   7.902
14513TIP3    H243479   3.669   5.979   7.945
14514TIP3   OH243480   3.864   6.043   7.728
14514TIP3    H143481   3.936   5.993   7.685
14514TIP3    H243482   3.896   6.135   7.711
14515TIP3   OH243483   2.496   5.778   8.068
14515TIP3    H143484   2.404   5.743   8.069
14515TIP3    H243485   2.546   5.693   8.064
14516TIP3   OH243486   2.278   5.648   7.716
14516TIP3    H143487   2.313   5.704   7.645
14516TIP3    H243488   2.255   5.714   7.785
14517TIP3   OH243489   2.939   5.811   7.949
14517TIP3    H143490   2.995   5.859   7.886
14517TIP3    H243491   2.966   5.850   8.034
14518TIP3   OH243492   3.476   5.952   7.932
14518TIP3    H143493   3.486   5.925   7.840
14518TIP3    H243494   3.480   5.868   7.980
14519TIP3   OH243495   3.517   5.881   7.496
14519TIP3    H143496   3.429   5.921   7.504
14519TIP3    H243497   3.502   5.794   7.540
14520TIP3   OH243498   2.403   5.809   7.476
14520TIP3    H143499   2.455   5.745   7.424
14520TIP3    H243500   2.474   5.865   7.514
14521TIP3   OH243501   2.911   5.982   7.578
14521TIP3    H143502   2.972   5.934   7.635
14521TIP3    H243503   2.934   6.074   7.603
14522TIP3   OH243504   2.773   7.406   7.077
14522TIP3    H143505   2.863   7.426   7.043
14522TIP3    H243506   2.750   7.331   7.018
14523TIP3   OH243507   3.512   7.526   7.150
14523TIP3    H143508   3.485   7.432   7.160
14523TIP3    H243509   3.448   7.557   7.084
14524TIP3   OH243510   2.080   7.234   7.128
14524TIP3    H143511   2.085   7.268   7.218
14524TIP3    H243512   2.170   7.196   7.115
14525TIP3   OH243513   4.983   7.043   7.122
14525TIP3    H143514   4.953   7.134   7.101
14525TIP3    H243515   4.906   6.992   7.089
14526TIP3   OH243516   4.964   7.035   7.509
14526TIP3    H143517   5.003   7.006   7.594
14526TIP3    H243518   4.925   6.951   7.477
14527TIP3   OH243519   4.282   6.936   7.868
14527TIP3    H143520   4.312   6.867   7.929
14527TIP3    H243521   4.358   6.997   7.870
14528TIP3   OH243522   5.233   7.331   7.191
14528TIP3    H143523   5.220   7.257   7.253
14528TIP3    H243524   5.223   7.405   7.252
14529TIP3   OH243525   4.250   7.348   7.595
14529TIP3    H143526   4.240   7.250   7.595
14529TIP3    H243527   4.346   7.354   7.606
14530TIP3   OH243528   3.961   6.547   7.379
14530TIP3    H143529   3.914   6.631   7.397
14530TIP3    H243530   3.889   6.496   7.337
14531TIP3   OH243531   4.020   6.837   7.553
14531TIP3    H143532   4.069   6.759   7.588
14531TIP3    H243533   4.079   6.869   7.484
14532TIP3   OH243534   4.848   7.782   7.197
14532TIP3    H143535   4.908   7.721   7.148
14532TIP3    H243536   4.896   7.788   7.282
14533TIP3   OH243537   4.777   7.268   7.546
14533TIP3    H143538   4.812   7.185   7.507
14533TIP3    H243539   4.860   7.316   7.561
14534TIP3   OH243540   5.727   6.566   7.500
14534TIP3    H143541   5.804   6.589   7.557
14534TIP3    H243542   5.763   6.578   7.412
14535TIP3   OH243543   5.197   6.770   7.583
14535TIP3    H143544   5.238   6.685   7.603
14535TIP3    H243545   5.163   6.754   7.493
14536TIP3   OH243546   4.535   6.428   7.549
14536TIP3    H143547   4.512   6.501   7.488
14536TIP3    H243548   4.485   6.354   7.506
14537TIP3   OH243549   5.227   6.521   7.174
14537TIP3    H143550   5.300   6.505   7.239
14537TIP3    H243551   5.279   6.556   7.100
14538TIP3   OH243552   4.165   6.629   7.658
14538TIP3    H143553   4.247   6.611   7.706
14538TIP3    H243554   4.179   6.574   7.578
14539TIP3   OH243555   4.607   6.828   7.448
14539TIP3    H143556   4.700   6.801   7.463
14539TIP3    H243557   4.567   6.744   7.418
14540TIP3   OH243558   4.528   6.412   7.986
14540TIP3    H143559   4.469   6.449   7.918
14540TIP3    H243560   4.476   6.429   8.067
14541TIP3   OH243561   4.878   7.267   6.992
14541TIP3    H143562   4.831   7.246   6.910
14541TIP3    H243563   4.835   7.353   7.015
14542TIP3   OH243564   4.636   7.186   7.780
14542TIP3    H143565   4.571   7.248   7.822
14542TIP3    H243566   4.671   7.242   7.708
14543TIP3   OH243567   5.439   6.519   7.346
14543TIP3    H143568   5.420   6.472   7.428
14543TIP3    H243569   5.497   6.591   7.376
14544TIP3   OH243570   4.399   6.525   7.769
14544TIP3    H143571   4.459   6.599   7.793
14544TIP3    H243572   4.449   6.486   7.694
14545TIP3   OH243573   4.447   7.366   7.862
14545TIP3    H143574   4.452   7.464   7.856
14545TIP3    H243575   4.376   7.359   7.929
14546TIP3   OH243576   3.858   7.072   7.114
14546TIP3    H143577   3.815   7.102   7.031
14546TIP3    H243578   3.888   7.157   7.152
14547TIP3   OH243579   5.560   6.470   7.702
14547TIP3    H143580   5.470   6.495   7.673
14547TIP3    H243581   5.615   6.505   7.628
14548TIP3   OH243582   4.885   6.129   7.702
14548TIP3    H143583   4.868   6.034   7.718
14548TIP3    H243584   4.806   6.168   7.747
14549TIP3   OH243585   5.016   7.632   7.047
14549TIP3    H143586   5.057   7.550   7.013
14549TIP3    H243587   5.062   7.697   6.991
14550TIP3   OH243588   5.146   7.415   6.939
14550TIP3    H143589   5.094   7.344   6.899
14550TIP3    H243590   5.178   7.373   7.022
14551TIP3   OH243591   4.814   6.893   6.956
14551TIP3    H143592   4.733   6.945   6.937
14551TIP3    H243593   4.857   6.891   6.869
14552TIP3   OH243594   4.772   6.679   6.671
14552TIP3    H143595   4.839   6.730   6.719
14552TIP3    H243596   4.829   6.615   6.623
14553TIP3   OH243597   5.163   6.977   6.927
14553TIP3    H143598   5.106   7.000   7.004
14553TIP3    H243599   5.246   6.952   6.972
14554TIP3   OH243600   4.394   6.973   7.344
14554TIP3    H143601   4.352   6.916   7.276
14554TIP3    H243602   4.471   6.919   7.372
14555TIP3   OH243603   4.528   7.397   7.493
14555TIP3    H143604   4.497   7.359   7.409
14555TIP3    H243605   4.613   7.349   7.506
14556TIP3   OH243606   4.535   6.942   7.697
14556TIP3    H143607   4.565   6.924   7.606
14556TIP3    H243608   4.574   7.030   7.717
14557TIP3   OH243609   5.003   6.833   6.753
14557TIP3    H143610   5.060   6.895   6.803
14557TIP3    H243611   5.029   6.855   6.660
14558TIP3   OH243612   4.420   7.053   8.121
14558TIP3    H143613   4.420   7.143   8.160
14558TIP3    H243614   4.326   7.029   8.133
14559TIP3   OH243615   4.747   7.513   7.022
14559TIP3    H143616   4.799   7.580   7.068
14559TIP3    H243617   4.679   7.567   6.979
14560TIP3   OH243618   5.519   6.073   6.804
14560TIP3    H143619   5.435   6.092   6.851
14560TIP3    H243620   5.531   6.156   6.753
14561TIP3   OH243621   4.261   6.816   7.146
14561TIP3    H143622   4.194   6.862   7.091
14561TIP3    H243623   4.219   6.731   7.161
14562TIP3   OH243624   5.315   7.441   6.351
14562TIP3    H143625   5.322   7.538   6.335
14562TIP3    H243626   5.408   7.413   6.338
14563TIP3   OH243627   4.065   7.191   8.022
14563TIP3    H143628   3.989   7.176   7.963
14563TIP3    H243629   4.093   7.101   8.045
14564TIP3   OH243630   3.892   7.391   7.687
14564TIP3    H143631   3.987   7.390   7.673
14564TIP3    H243632   3.879   7.460   7.754
14565TIP3   OH243633   4.629   7.758   6.834
14565TIP3    H143634   4.573   7.743   6.755
14565TIP3    H243635   4.592   7.841   6.869
14566TIP3   OH243636   4.059   7.606   7.216
14566TIP3    H143637   4.109   7.599   7.300
14566TIP3    H243638   3.997   7.533   7.226
14567TIP3   OH243639   4.830   7.665   6.464
14567TIP3    H143640   4.889   7.594   6.431
14567TIP3    H243641   4.857   7.673   6.557
14568TIP3   OH243642   4.875   7.708   6.733
14568TIP3    H143643   4.786   7.723   6.772
14568TIP3    H243644   4.921   7.667   6.808
14569TIP3   OH243645   4.247   7.392   8.045
14569TIP3    H143646   4.289   7.369   8.131
14569TIP3    H243647   4.178   7.322   8.038
14570TIP3   OH243648   4.646   6.207   7.828
14570TIP3    H143649   4.557   6.176   7.801
14570TIP3    H243650   4.620   6.288   7.875
14571TIP3   OH243651   5.176   6.324   8.027
14571TIP3    H143652   5.235   6.287   8.095
14571TIP3    H243653   5.087   6.306   8.066
14572TIP3   OH243654   5.080   6.878   6.497
14572TIP3    H143655   5.044   6.854   6.410
14572TIP3    H243656   5.157   6.932   6.472
14573TIP3   OH243657   4.791   6.253   6.800
14573TIP3    H143658   4.755   6.250   6.891
14573TIP3    H243659   4.752   6.172   6.764
14574TIP3   OH243660   4.577   6.720   7.846
14574TIP3    H143661   4.531   6.745   7.929
14574TIP3    H243662   4.563   6.802   7.793
14575TIP3   OH243663   4.461   6.608   7.361
14575TIP3    H143664   4.368   6.583   7.379
14575TIP3    H243665   4.473   6.568   7.272
14576TIP3   OH243666   4.952   6.695   7.090
14576TIP3    H143667   4.899   6.766   7.047
14576TIP3    H243668   5.005   6.662   7.014
14577TIP3   OH243669   5.104   6.721   7.328
14577TIP3    H143670   5.044   6.750   7.257
14577TIP3    H243671   5.140   6.640   7.284
14578TIP3   OH243672   4.393   6.749   8.054
14578TIP3    H143673   4.427   6.815   8.116
14578TIP3    H243674   4.386   6.670   8.110
14579TIP3   OH243675   4.446   6.230   6.765
14579TIP3    H143676   4.437   6.227   6.862
14579TIP3    H243677   4.368   6.282   6.741
14580TIP3   OH243678   3.987   6.267   7.641
14580TIP3    H143679   4.063   6.303   7.692
14580TIP3    H243680   4.027   6.241   7.556
14581TIP3   OH243681   3.960   6.254   7.155
14581TIP3    H143682   4.006   6.291   7.077
14581TIP3    H243683   3.899   6.327   7.175
14582TIP3   OH243684   5.092   6.962   7.747
14582TIP3    H143685   5.141   6.896   7.692
14582TIP3    H243686   5.067   6.904   7.822
14583TIP3   OH243687   4.791   6.429   7.422
14583TIP3    H143688   4.706   6.428   7.472
14583TIP3    H243689   4.855   6.430   7.495
14584TIP3   OH243690   4.223   6.487   7.430
14584TIP3    H143691   4.128   6.495   7.402
14584TIP3    H243692   4.245   6.395   7.406
14585TIP3   OH243693   4.491   6.482   7.119
14585TIP3    H143694   4.584   6.497   7.094
14585TIP3    H243695   4.442   6.504   7.036
14586TIP3   OH243696   5.278   6.504   7.622
14586TIP3    H143697   5.245   6.519   7.713
14586TIP3    H243698   5.209   6.444   7.588
14587TIP3   OH243699   4.335   6.515   6.898
14587TIP3    H143700   4.263   6.471   6.850
14587TIP3    H243701   4.386   6.552   6.823
14588TIP3   OH243702   4.387   7.303   8.272
14588TIP3    H143703   4.476   7.322   8.306
14588TIP3    H243704   4.347   7.251   8.344
14589TIP3   OH243705   4.871   6.758   7.520
14589TIP3    H143706   4.944   6.716   7.471
14589TIP3    H243707   4.876   6.714   7.607
14590TIP3   OH243708   4.394   6.246   7.399
14590TIP3    H143709   4.358   6.167   7.447
14590TIP3    H243710   4.440   6.205   7.324
14591TIP3   OH243711   4.844   6.654   7.803
14591TIP3    H143712   4.754   6.689   7.820
14591TIP3    H243713   4.901   6.713   7.856
14592TIP3   OH243714   4.586   7.045   6.905
14592TIP3    H143715   4.513   6.981   6.893
14592TIP3    H243716   4.566   7.079   6.996
14593TIP3   OH243717   5.042   6.356   6.771
14593TIP3    H143718   4.945   6.337   6.776
14593TIP3    H243719   5.047   6.451   6.792
14594TIP3   OH243720   5.111   6.607   6.872
14594TIP3    H143721   5.207   6.614   6.886
14594TIP3    H243722   5.090   6.687   6.820
14595TIP3   OH243723   4.277   7.069   7.580
14595TIP3    H143724   4.315   7.039   7.496
14595TIP3    H243725   4.315   7.007   7.644
14596TIP3   OH243726   4.729   7.197   6.726
14596TIP3    H143727   4.681   7.283   6.729
14596TIP3    H243728   4.674   7.143   6.787
14597TIP3   OH243729   4.160   6.979   8.188
14597TIP3    H143730   4.158   6.979   8.285
14597TIP3    H243731   4.080   6.929   8.167
14598TIP3   OH243732   5.558   6.698   6.704
14598TIP3    H143733   5.495   6.653   6.642
14598TIP3    H243734   5.551   6.787   6.665
14599TIP3   OH243735   5.261   7.522   6.615
14599TIP3    H143736   5.227   7.455   6.676
14599TIP3    H243737   5.268   7.474   6.531
14600TIP3   OH243738   5.196   7.166   7.422
14600TIP3    H143739   5.116   7.110   7.431
14600TIP3    H243740   5.265   7.099   7.410
14601TIP3   OH243741   4.380   7.368   7.216
14601TIP3    H143742   4.378   7.452   7.165
14601TIP3    H243743   4.285   7.348   7.220
14602TIP3   OH243744   3.942   6.676   6.908
14602TIP3    H143745   3.986   6.761   6.929
14602TIP3    H243746   3.865   6.681   6.969
14603TIP3   OH243747   4.516   7.136   7.149
14603TIP3    H143748   4.482   7.226   7.168
14603TIP3    H243749   4.480   7.086   7.224
14604TIP3   OH243750   4.302   7.600   7.069
14604TIP3    H143751   4.215   7.613   7.111
14604TIP3    H243752   4.311   7.686   7.024
14605TIP3   OH243753   5.044   7.331   7.632
14605TIP3    H143754   5.032   7.266   7.703
14605TIP3    H243755   5.101   7.282   7.569
14606TIP3   OH243756   5.010   7.241   6.515
14606TIP3    H143757   5.062   7.216   6.595
14606TIP3    H243758   4.921   7.218   6.543
14607TIP3   OH243759   5.345   7.716   6.333
14607TIP3    H143760   5.380   7.789   6.278
14607TIP3    H243761   5.263   7.760   6.365
14608TIP3   OH243762   4.371   6.491   8.204
14608TIP3    H143763   4.274   6.494   8.217
14608TIP3    H243764   4.398   6.429   8.273
14609TIP3   OH243765   5.170   7.175   6.731
14609TIP3    H143766   5.160   7.111   6.804
14609TIP3    H243767   5.268   7.173   6.719
14610TIP3   OH243768   4.111   7.595   7.857
14610TIP3    H143769   4.121   7.499   7.847
14610TIP3    H243770   4.177   7.608   7.927
14611TIP3   OH243771   4.373   7.221   6.515
14611TIP3    H143772   4.388   7.128   6.490
14611TIP3    H243773   4.357   7.213   6.611
14612TIP3   OH243774   4.322   7.232   6.786
14612TIP3    H143775   4.391   7.207   6.849
14612TIP3    H243776   4.323   7.330   6.793
14613TIP3   OH243777   4.056   6.922   6.991
14613TIP3    H143778   3.990   6.967   7.049
14613TIP3    H243779   4.068   6.991   6.923
14614TIP3   OH243780   5.214   6.557   7.883
14614TIP3    H143781   5.297   6.583   7.927
14614TIP3    H243782   5.189   6.477   7.933
14615TIP3   OH243783   5.088   6.307   7.050
14615TIP3    H143784   5.071   6.329   6.956
14615TIP3    H243785   5.124   6.392   7.084
14616TIP3   OH243786   4.585   7.427   6.735
14616TIP3    H143787   4.498   7.452   6.772
14616TIP3    H243788   4.603   7.507   6.683
14617TIP3   OH243789   4.777   6.489   7.151
14617TIP3    H143790   4.840   6.562   7.134
14617TIP3    H243791   4.780   6.483   7.249
14618TIP3   OH243792   5.025   6.798   7.956
14618TIP3    H143793   5.007   6.819   8.049
14618TIP3    H243794   5.098   6.734   7.967
14619TIP3   OH243795   4.919   6.216   7.254
14619TIP3    H143796   4.905   6.297   7.308
14619TIP3    H243797   4.980   6.250   7.185
14620TIP3   OH243798   4.327   7.507   6.803
14620TIP3    H143799   4.295   7.582   6.750
14620TIP3    H243800   4.315   7.544   6.893
14621TIP3   OH243801   4.430   6.215   7.042
14621TIP3    H143802   4.429   6.306   7.078
14621TIP3    H243803   4.526   6.196   7.049
14622TIP3   OH243804   5.327   6.906   7.315
14622TIP3    H143805   5.252   6.847   7.336
14622TIP3    H243806   5.399   6.867   7.368
14623TIP3   OH243807   4.048   7.129   6.797
14623TIP3    H143808   4.110   7.203   6.807
14623TIP3    H243809   4.096   7.077   6.729
14624TIP3   OH243810   3.992   6.407   6.931
14624TIP3    H143811   3.993   6.505   6.927
14624TIP3    H243812   3.909   6.386   6.886
14625TIP3   OH243813   4.381   6.126   7.803
14625TIP3    H143814   4.350   6.092   7.716
14625TIP3    H243815   4.369   6.048   7.860
14626TIP3   OH243816   3.914   7.337   7.183
14626TIP3    H143817   3.847   7.372   7.243
14626TIP3    H243818   3.889   7.381   7.099
14627TIP3   OH243819   4.534   7.423   6.420
14627TIP3    H143820   4.479   7.354   6.462
14627TIP3    H243821   4.613   7.372   6.397
14628TIP3   OH243822   4.975   7.465   6.340
14628TIP3    H143823   5.020   7.401   6.398
14628TIP3    H243824   5.029   7.464   6.259
14629TIP3   OH243825   4.185   6.944   6.649
14629TIP3    H143826   4.239   6.912   6.722
14629TIP3    H243827   4.252   6.948   6.577
14630TIP3   OH243828   4.696   7.144   6.456
14630TIP3    H143829   4.697   7.156   6.553
14630TIP3    H243830   4.695   7.046   6.451
14631TIP3   OH243831   4.367   7.049   8.449
14631TIP3    H143832   4.415   6.972   8.416
14631TIP3    H243833   4.322   7.012   8.526
14632TIP3   OH243834   4.392   6.848   6.871
14632TIP3    H143835   4.363   6.808   6.954
14632TIP3    H243836   4.428   6.772   6.821
14633TIP3   OH243837   4.655   6.900   8.091
14633TIP3    H143838   4.585   6.968   8.097
14633TIP3    H243839   4.719   6.944   8.031
14634TIP3   OH243840   4.492   6.641   6.711
14634TIP3    H143841   4.466   6.646   6.617
14634TIP3    H243842   4.590   6.645   6.704
14635TIP3   OH243843   5.319   6.971   6.373
14635TIP3    H143844   5.293   6.926   6.291
14635TIP3    H243845   5.285   7.062   6.353
14636TIP3   OH243846   4.773   6.696   8.228
14636TIP3    H143847   4.775   6.619   8.169
14636TIP3    H243848   4.730   6.764   8.171
14637TIP3   OH243849   4.787   6.486   8.031
14637TIP3    H143850   4.813   6.529   7.947
14637TIP3    H243851   4.693   6.463   8.014
14638TIP3   OH243852   4.812   7.018   7.903
14638TIP3    H143853   4.888   7.022   7.844
14638TIP3    H243854   4.752   7.085   7.864
14639TIP3   OH243855   4.643   6.825   8.442
14639TIP3    H143856   4.588   6.748   8.467
14639TIP3    H243857   4.692   6.788   8.366
14640TIP3   OH243858   4.922   6.254   8.110
14640TIP3    H143859   4.870   6.334   8.084
14640TIP3    H243860   4.855   6.183   8.097
14641TIP3   OH243861   5.044   6.756   8.241
14641TIP3    H143862   5.069   6.766   8.334
14641TIP3    H243863   4.950   6.730   8.249
14642TIP3   OH243864   4.500   6.593   8.504
14642TIP3    H143865   4.503   6.506   8.461
14642TIP3    H243866   4.535   6.571   8.591
14643TIP3   OH243867   5.006   6.251   8.382
14643TIP3    H143868   5.077   6.185   8.366
14643TIP3    H243869   4.971   6.260   8.291
14644TIP3   OH243870   3.779   7.085   6.831
14644TIP3    H143871   3.874   7.107   6.819
14644TIP3    H243872   3.775   6.996   6.790
14645TIP3   OH243873   3.695   7.702   7.248
14645TIP3    H143874   3.627   7.642   7.209
14645TIP3    H243875   3.736   7.641   7.313
14646TIP3   OH243876   3.834   7.544   7.428
14646TIP3    H143877   3.807   7.475   7.490
14646TIP3    H243878   3.889   7.601   7.485
14647TIP3   OH243879   5.450   7.157   6.708
14647TIP3    H143880   5.515   7.224   6.678
14647TIP3    H243881   5.496   7.121   6.787
14648TIP3   OH243882   5.581   7.027   6.914
14648TIP3    H143883   5.510   6.983   6.966
14648TIP3    H243884   5.633   7.072   6.983
14649TIP3   OH243885   5.516   6.934   6.558
14649TIP3    H143886   5.445   6.935   6.490
14649TIP3    H243887   5.486   7.010   6.612
14650TIP3   OH243888   5.392   6.605   6.510
14650TIP3    H143889   5.340   6.645   6.439
14650TIP3    H243890   5.366   6.511   6.501
14651TIP3   OH243891   5.395   6.882   7.053
14651TIP3    H143892   5.396   6.785   7.048
14651TIP3    H243893   5.375   6.897   7.149
14652TIP3   OH243894   4.017   6.950   7.806
14652TIP3    H143895   4.014   6.922   7.712
14652TIP3    H243896   4.115   6.954   7.820
14653TIP3   OH243897   5.330   6.340   6.497
14653TIP3    H143898   5.396   6.305   6.559
14653TIP3    H243899   5.251   6.286   6.515
14654TIP3   OH243900   5.389   6.600   6.954
14654TIP3    H143901   5.428   6.510   6.968
14654TIP3    H243902   5.446   6.631   6.881
14655TIP3   OH243903   5.541   6.797   7.444
14655TIP3    H143904   5.633   6.807   7.411
14655TIP3    H243905   5.554   6.824   7.536
14656TIP3   OH243906   4.229   6.629   8.461
14656TIP3    H143907   4.326   6.629   8.472
14656TIP3    H243908   4.204   6.552   8.516
14657TIP3   OH243909   5.498   6.348   6.989
14657TIP3    H143910   5.541   6.332   7.075
14657TIP3    H243911   5.435   6.274   6.986
14658TIP3   OH243912   4.196   6.334   7.812
14658TIP3    H143913   4.258   6.260   7.820
14658TIP3    H243914   4.257   6.409   7.804
14659TIP3   OH243915   3.998   6.607   7.884
14659TIP3    H143916   4.048   6.605   7.800
14659TIP3    H243917   4.021   6.695   7.917
14660TIP3   OH243918   5.581   6.281   6.628
14660TIP3    H143919   5.614   6.211   6.568
14660TIP3    H243920   5.644   6.354   6.612
14661TIP3   OH243921   3.983   6.114   7.385
14661TIP3    H143922   3.889   6.109   7.410
14661TIP3    H243923   3.979   6.172   7.305
14662TIP3   OH243924   5.149   7.789   6.873
14662TIP3    H143925   5.189   7.800   6.784
14662TIP3    H243926   5.089   7.867   6.882
14663TIP3   OH243927   4.207   6.195   8.197
14663TIP3    H143928   4.158   6.193   8.280
14663TIP3    H243929   4.139   6.230   8.135
14664TIP3   OH243930   4.444   7.639   7.813
14664TIP3    H143931   4.377   7.709   7.804
14664TIP3    H243932   4.454   7.614   7.720
14665TIP3   OH243933   5.859   6.395   7.871
14665TIP3    H143934   5.766   6.417   7.883
14665TIP3    H243935   5.856   6.299   7.871
14666TIP3   OH243936   4.339   7.834   7.653
14666TIP3    H143937   4.306   7.882   7.732
14666TIP3    H243938   4.325   7.902   7.584
14667TIP3   OH243939   4.006   7.694   7.596
14667TIP3    H143940   4.044   7.682   7.685
14667TIP3    H243941   4.079   7.657   7.541
14668TIP3   OH243942   4.197   7.574   7.447
14668TIP3    H143943   4.219   7.490   7.494
14668TIP3    H243944   4.287   7.609   7.427
14669TIP3   OH243945   4.458   7.665   7.429
14669TIP3    H143946   4.503   7.580   7.445
14669TIP3    H243947   4.459   7.709   7.516
14670TIP3   OH243948   5.049   6.326   7.546
14670TIP3    H143949   5.000   6.257   7.594
14670TIP3    H243950   5.114   6.275   7.495
14671TIP3   OH243951   5.569   6.202   7.441
14671TIP3    H143952   5.602   6.258   7.367
14671TIP3    H243953   5.473   6.220   7.438
14672TIP3   OH243954   5.664   6.306   7.207
14672TIP3    H143955   5.736   6.257   7.165
14672TIP3    H243956   5.693   6.399   7.191
14673TIP3   OH243957   4.292   6.033   7.555
14673TIP3    H143958   4.199   6.002   7.556
14673TIP3    H243959   4.340   5.948   7.551
14674TIP3   OH243960   4.080   5.905   7.204
14674TIP3    H143961   4.110   5.961   7.130
14674TIP3    H243962   4.052   5.971   7.270
14675TIP3   OH243963   4.737   6.065   7.435
14675TIP3    H143964   4.795   6.115   7.375
14675TIP3    H243965   4.757   6.106   7.520
14676TIP3   OH243966   5.289   6.213   7.418
14676TIP3    H143967   5.277   6.175   7.330
14676TIP3    H243968   5.273   6.134   7.475
14677TIP3   OH243969   5.314   6.137   6.983
14677TIP3    H143970   5.226   6.179   6.994
14677TIP3    H243971   5.298   6.051   7.028
14678TIP3   OH243972   3.799   7.470   6.979
14678TIP3    H143973   3.710   7.443   6.951
14678TIP3    H243974   3.789   7.566   6.972
14679TIP3   OH243975   4.197   6.062   6.965
14679TIP3    H143976   4.244   5.999   6.908
14679TIP3    H243977   4.271   6.116   7.001
14680TIP3   OH243978   4.707   6.239   7.064
14680TIP3    H143979   4.766   6.190   7.124
14680TIP3    H243980   4.731   6.331   7.090
14681TIP3   OH243981   4.574   7.653   6.573
14681TIP3    H143982   4.656   7.681   6.528
14681TIP3    H243983   4.540   7.588   6.509
14682TIP3   OH243984   5.296   7.795   6.646
14682TIP3    H143985   5.294   7.697   6.640
14682TIP3    H243986   5.251   7.819   6.563
14683TIP3   OH243987   4.492   6.318   8.442
14683TIP3    H143988   4.453   6.248   8.497
14683TIP3    H243989   4.587   6.310   8.468
14684TIP3   OH243990   4.749   6.294   8.540
14684TIP3    H143991   4.831   6.295   8.489
14684TIP3    H243992   4.775   6.245   8.619
14685TIP3   OH243993   3.873   7.501   6.620
14685TIP3    H143994   3.869   7.527   6.713
14685TIP3    H243995   3.962   7.460   6.613
14686TIP3   OH243996   5.754   6.811   6.872
14686TIP3    H143997   5.700   6.891   6.883
14686TIP3    H243998   5.688   6.753   6.828
14687TIP3   OH243999   5.818   7.104   7.043
14687TIP3    H144000   5.871   7.040   7.094
14687TIP3    H244001   5.855   7.098   6.955
14688TIP3   OH244002   6.358   6.661   7.037
14688TIP3    H144003   6.329   6.742   6.988
14688TIP3    H244004   6.293   6.599   6.996
14689TIP3   OH244005   5.970   6.888   7.147
14689TIP3    H144006   6.058   6.851   7.136
14689TIP3    H244007   5.926   6.838   7.075
14690TIP3   OH244008   5.651   7.321   6.599
14690TIP3    H144009   5.606   7.349   6.517
14690TIP3    H244010   5.681   7.409   6.633
14691TIP3   OH244011   6.583   6.940   6.168
14691TIP3    H144012   6.663   6.985   6.200
14691TIP3    H244013   6.625   6.868   6.117
14692TIP3   OH244014   7.299   6.320   6.251
14692TIP3    H144015   7.214   6.337   6.296
14692TIP3    H244016   7.313   6.404   6.202
14693TIP3   OH244017   6.054   7.065   6.617
14693TIP3    H144018   5.986   7.117   6.570
14693TIP3    H244019   6.006   6.985   6.638
14694TIP3   OH244020   6.869   7.153   5.945
14694TIP3    H144021   6.825   7.114   5.866
14694TIP3    H244022   6.962   7.145   5.918
14695TIP3   OH244023   6.584   6.513   6.281
14695TIP3    H144024   6.552   6.506   6.373
14695TIP3    H244025   6.550   6.428   6.246
14696TIP3   OH244026   6.254   6.842   6.852
14696TIP3    H144027   6.159   6.831   6.872
14696TIP3    H244028   6.254   6.813   6.758
14697TIP3   OH244029   6.239   6.484   6.254
14697TIP3    H144030   6.231   6.479   6.351
14697TIP3    H244031   6.161   6.538   6.232
14698TIP3   OH244032   5.782   6.533   7.121
14698TIP3    H144033   5.865   6.563   7.162
14698TIP3    H244034   5.810   6.495   7.036
14699TIP3   OH244035   5.762   6.514   6.644
14699TIP3    H144036   5.804   6.551   6.563
14699TIP3    H244037   5.696   6.584   6.662
14700TIP3   OH244038   6.009   6.733   6.918
14700TIP3    H144039   5.915   6.747   6.891
14700TIP3    H244040   6.025   6.641   6.894
14701TIP3   OH244041   6.284   6.737   6.601
14701TIP3    H144042   6.376   6.751   6.573
14701TIP3    H244043   6.232   6.759   6.520
14702TIP3   OH244044   6.130   6.771   6.383
14702TIP3    H144045   6.053   6.730   6.340
14702TIP3    H244046   6.180   6.804   6.306
14703TIP3   OH244047   6.199   6.495   6.884
14703TIP3    H144048   6.154   6.419   6.928
14703TIP3    H244049   6.210   6.464   6.793
14704TIP3   OH244050   6.353   7.320   6.399
14704TIP3    H144051   6.294   7.242   6.388
14704TIP3    H244052   6.328   7.352   6.487
14705TIP3   OH244053   6.830   6.637   6.273
14705TIP3    H144054   6.737   6.606   6.261
14705TIP3    H244055   6.836   6.713   6.215
14706TIP3   OH244056   5.738   6.933   6.397
14706TIP3    H144057   5.779   7.020   6.415
14706TIP3    H244058   5.660   6.937   6.456
14707TIP3   OH244059   6.171   7.474   5.988
14707TIP3    H144060   6.189   7.386   5.951
14707TIP3    H244061   6.140   7.450   6.078
14708TIP3   OH244062   6.153   7.474   6.263
14708TIP3    H144063   6.233   7.426   6.293
14708TIP3    H244064   6.189   7.559   6.234
14709TIP3   OH244065   5.850   7.180   6.476
14709TIP3    H144066   5.783   7.224   6.534
14709TIP3    H244067   5.859   7.251   6.409
14710TIP3   OH244068   6.871   6.570   6.534
14710TIP3    H144069   6.858   6.601   6.441
14710TIP3    H244070   6.955   6.614   6.557
14711TIP3   OH244071   6.568   6.744   6.629
14711TIP3    H144072   6.645   6.801   6.612
14711TIP3    H244073   6.547   6.773   6.720
14712TIP3   OH244074   6.720   6.477   6.738
14712TIP3    H144075   6.755   6.542   6.802
14712TIP3    H244076   6.769   6.508   6.658
14713TIP3   OH244077   6.227   6.470   6.534
14713TIP3    H144078   6.227   6.564   6.563
14713TIP3    H244079   6.323   6.452   6.538
14714TIP3   OH244080   5.840   7.385   6.288
14714TIP3    H144081   5.884   7.471   6.296
14714TIP3    H244082   5.893   7.342   6.218
14715TIP3   OH244083   5.790   6.663   6.414
14715TIP3    H144084   5.784   6.761   6.413
14715TIP3    H244085   5.705   6.638   6.374
14716TIP3   OH244086   6.156   6.380   7.292
14716TIP3    H144087   6.140   6.349   7.200
14716TIP3    H244088   6.160   6.295   7.341
14717TIP3   OH244089   5.702   7.581   6.654
14717TIP3    H144090   5.637   7.627   6.710
14717TIP3    H244091   5.700   7.636   6.573
14718TIP3   OH244092   6.335   7.682   5.919
14718TIP3    H144093   6.279   7.606   5.944
14718TIP3    H244094   6.411   7.637   5.880
14719TIP3   OH244095   5.982   7.207   6.134
14719TIP3    H144096   6.032   7.171   6.208
14719TIP3    H244097   6.050   7.206   6.063
14720TIP3   OH244098   6.479   7.389   5.954
14720TIP3    H144099   6.478   7.400   6.050
14720TIP3    H244100   6.486   7.292   5.946
14721TIP3   OH244101   6.199   7.098   6.371
14721TIP3    H144102   6.151   7.059   6.446
14721TIP3    H244103   6.225   7.020   6.318
14722TIP3   OH244104   6.290   6.897   6.198
14722TIP3    H144105   6.264   6.904   6.104
14722TIP3    H244106   6.387   6.901   6.191
14723TIP3   OH244107   5.572   7.340   6.318
14723TIP3    H144108   5.668   7.361   6.307
14723TIP3    H244109   5.567   7.252   6.275
14724TIP3   OH244110   7.146   6.863   6.041
14724TIP3    H144111   7.130   6.906   5.956
14724TIP3    H244112   7.147   6.768   6.015
14725TIP3   OH244113   7.130   6.591   5.982
14725TIP3    H144114   7.201   6.560   6.041
14725TIP3    H244115   7.053   6.539   6.011
14726TIP3   OH244116   6.000   6.602   7.272
14726TIP3    H144117   6.052   6.519   7.282
14726TIP3    H244118   6.025   6.653   7.349
14727TIP3   OH244119   5.804   6.887   7.388
14727TIP3    H144120   5.853   6.878   7.304
14727TIP3    H244121   5.777   6.981   7.385
14728TIP3   OH244122   7.412   6.500   6.064
14728TIP3    H144123   7.477   6.446   6.014
14728TIP3    H244124   7.452   6.587   6.058
14729TIP3   OH244125   5.779   6.381   6.879
14729TIP3    H144126   5.685   6.364   6.898
14729TIP3    H244127   5.773   6.431   6.795
14730TIP3   OH244128   6.087   6.288   7.037
14730TIP3    H144129   5.994   6.259   7.039
14730TIP3    H244130   6.132   6.201   7.034
14731TIP3   OH244131   5.888   6.161   6.695
14731TIP3    H144132   5.907   6.216   6.616
14731TIP3    H244133   5.847   6.225   6.756
14732TIP3   OH244134   6.567   6.417   6.987
14732TIP3    H144135   6.604   6.422   6.897
14732TIP3    H244136   6.564   6.322   7.001
14733TIP3   OH244137   7.080   6.365   6.448
14733TIP3    H144138   7.004   6.425   6.454
14733TIP3    H244139   7.048   6.286   6.495
14734TIP3   OH244140   5.604   7.733   6.439
14734TIP3    H144141   5.514   7.701   6.418
14734TIP3    H244142   5.586   7.828   6.447
14735TIP3   OH244143   5.992   6.319   6.452
14735TIP3    H144144   6.039   6.255   6.395
14735TIP3    H244145   6.067   6.370   6.489
14736TIP3   OH244146   6.504   6.491   6.550
14736TIP3    H144147   6.571   6.446   6.603
14736TIP3    H244148   6.525   6.584   6.574
14737TIP3   OH244149   5.671   7.753   6.108
14737TIP3    H144150   5.656   7.763   6.203
14737TIP3    H244151   5.760   7.712   6.103
14738TIP3   OH244152   2.636   8.236   6.796
14738TIP3    H144153   2.689   8.313   6.825
14738TIP3    H244154   2.699   8.191   6.735
14739TIP3   OH244155   3.358   7.627   6.939
14739TIP3    H144156   3.282   7.646   6.999
14739TIP3    H244157   3.371   7.715   6.898
14740TIP3   OH244158   2.923   8.395   6.644
14740TIP3    H144159   2.881   8.385   6.556
14740TIP3    H244160   2.963   8.483   6.636
14741TIP3   OH244161   2.610   7.827   6.942
14741TIP3    H144162   2.614   7.809   7.037
14741TIP3    H244163   2.578   7.740   6.908
14742TIP3   OH244164   2.287   7.778   6.893
14742TIP3    H144165   2.273   7.794   6.989
14742TIP3    H244166   2.211   7.826   6.855
14743TIP3   OH244167   2.880   7.898   6.920
14743TIP3    H144168   2.783   7.899   6.911
14743TIP3    H244169   2.907   7.988   6.891
14744TIP3   OH244170   2.986   8.143   6.867
14744TIP3    H144171   3.032   8.150   6.951
14744TIP3    H244172   2.954   8.234   6.855
14745TIP3   OH244173   3.388   8.241   6.835
14745TIP3    H144174   3.326   8.196   6.773
14745TIP3    H244175   3.385   8.330   6.795
14746TIP3   OH244176   2.979   7.867   7.175
14746TIP3    H144177   2.948   7.874   7.082
14746TIP3    H244178   2.966   7.958   7.204
14747TIP3   OH244179   3.164   8.547   6.519
14747TIP3    H144180   3.131   8.489   6.447
14747TIP3    H244181   3.142   8.634   6.482
14748TIP3   OH244182   3.356   8.501   6.704
14748TIP3    H144183   3.283   8.487   6.639
14748TIP3    H244184   3.360   8.597   6.701
14749TIP3   OH244185   3.230   8.162   6.632
14749TIP3    H144186   3.157   8.198   6.581
14749TIP3    H244187   3.205   8.068   6.635
14750TIP3   OH244188   3.173   7.895   6.644
14750TIP3    H144189   3.249   7.871   6.701
14750TIP3    H244190   3.102   7.837   6.676
14751TIP3   OH244191   3.256   8.152   7.067
14751TIP3    H144192   3.299   8.072   7.105
14751TIP3    H244193   3.312   8.170   6.990
14752TIP3   OH244194   3.353   7.899   7.131
14752TIP3    H144195   3.391   7.891   7.221
14752TIP3    H244196   3.288   7.826   7.133
14753TIP3   OH244197   3.417   7.845   6.771
14753TIP3    H144198   3.460   7.770   6.724
14753TIP3    H244199   3.487   7.913   6.770
14754TIP3   OH244200   3.414   7.809   7.601
14754TIP3    H144201   3.454   7.818   7.512
14754TIP3    H244202   3.327   7.772   7.578
14755TIP3   OH244203   3.509   7.877   7.355
14755TIP3    H144204   3.579   7.822   7.315
14755TIP3    H244205   3.541   7.968   7.336
14756TIP3   OH244206   3.150   7.747   7.574
14756TIP3    H144207   3.114   7.738   7.485
14756TIP3    H244208   3.121   7.664   7.616
14757TIP3   OH244209   3.170   7.682   7.128
14757TIP3    H144210   3.096   7.743   7.149
14757TIP3    H244211   3.146   7.602   7.178
14758TIP3   OH244212   2.041   7.608   7.092
14758TIP3    H144213   2.078   7.535   7.038
14758TIP3    H244214   2.121   7.635   7.141
14759TIP3   OH244215   3.598   8.325   6.996
14759TIP3    H144216   3.574   8.419   6.988
14759TIP3    H244217   3.516   8.281   6.966
14760TIP3   OH244218   4.167   8.237   7.178
14760TIP3    H144219   4.143   8.309   7.116
14760TIP3    H244220   4.127   8.160   7.131
14761TIP3   OH244221   4.874   8.296   6.798
14761TIP3    H144222   4.918   8.308   6.883
14761TIP3    H244223   4.873   8.387   6.764
14762TIP3   OH244224   4.256   8.624   7.106
14762TIP3    H144225   4.341   8.588   7.080
14762TIP3    H244226   4.195   8.555   7.071
14763TIP3   OH244227   4.043   8.347   7.397
14763TIP3    H144228   4.094   8.428   7.386
14763TIP3    H244229   4.083   8.293   7.326
14764TIP3   OH244230   4.523   7.946   7.342
14764TIP3    H144231   4.509   7.850   7.340
14764TIP3    H244232   4.440   7.977   7.384
14765TIP3   OH244233   4.447   8.691   6.581
14765TIP3    H144234   4.371   8.751   6.568
14765TIP3    H244235   4.500   8.705   6.501
14766TIP3   OH244236   4.409   8.489   6.297
14766TIP3    H144237   4.467   8.528   6.365
14766TIP3    H244238   4.471   8.427   6.252
14767TIP3   OH244239   4.053   8.775   6.931
14767TIP3    H144240   4.042   8.685   6.894
14767TIP3    H244241   4.120   8.761   7.000
14768TIP3   OH244242   4.646   8.666   6.389
14768TIP3    H144243   4.715   8.724   6.423
14768TIP3    H244244   4.665   8.670   6.292
14769TIP3   OH244245   5.149   7.889   6.433
14769TIP3    H144246   5.068   7.907   6.485
14769TIP3    H244247   5.159   7.971   6.382
14770TIP3   OH244248   3.920   8.595   6.759
14770TIP3    H144249   3.854   8.666   6.754
14770TIP3    H244250   3.866   8.518   6.782
14771TIP3   OH244251   4.285   8.029   7.466
14771TIP3    H144252   4.192   8.002   7.445
14771TIP3    H244253   4.272   8.120   7.495
14772TIP3   OH244254   4.714   8.672   6.131
14772TIP3    H144255   4.686   8.647   6.041
14772TIP3    H244256   4.766   8.753   6.113
14773TIP3   OH244257   4.433   8.076   6.424
14773TIP3    H144258   4.408   8.067   6.519
14773TIP3    H244259   4.390   7.996   6.388
14774TIP3   OH244260   4.100   8.430   6.993
14774TIP3    H144261   4.010   8.391   7.005
14774TIP3    H244262   4.120   8.391   6.904
14775TIP3   OH244263   4.586   8.506   6.724
14775TIP3    H144264   4.533   8.579   6.684
14775TIP3    H244265   4.629   8.469   6.644
14776TIP3   OH244266   4.067   8.030   6.397
14776TIP3    H144267   4.081   8.028   6.494
14776TIP3    H244268   3.997   8.098   6.393
14777TIP3   OH244269   3.638   8.107   7.262
14777TIP3    H144270   3.721   8.114   7.314
14777TIP3    H244271   3.664   8.056   7.183
14778TIP3   OH244272   3.599   8.060   6.789
14778TIP3    H144273   3.653   8.098   6.716
14778TIP3    H244274   3.540   8.136   6.807
14779TIP3   OH244275   4.427   8.268   7.068
14779TIP3    H144276   4.340   8.247   7.109
14779TIP3    H244277   4.489   8.219   7.125
14780TIP3   OH244278   3.873   8.299   7.040
14780TIP3    H144279   3.775   8.306   7.042
14780TIP3    H244280   3.886   8.203   7.027
14781TIP3   OH244281   4.134   8.300   6.756
14781TIP3    H144282   4.226   8.304   6.727
14781TIP3    H244283   4.082   8.316   6.674
14782TIP3   OH244284   3.970   8.328   6.536
14782TIP3    H144285   3.893   8.290   6.490
14782TIP3    H244286   4.021   8.365   6.461
14783TIP3   OH244287   4.046   8.043   7.028
14783TIP3    H144288   4.003   7.972   7.080
14783TIP3    H244289   4.104   7.989   6.970
14784TIP3   OH244290   4.219   8.843   6.547
14784TIP3    H144291   4.144   8.782   6.530
14784TIP3    H244292   4.197   8.878   6.634
14785TIP3   OH244293   4.675   8.178   6.381
14785TIP3    H144294   4.583   8.147   6.401
14785TIP3    H244295   4.676   8.267   6.422
14786TIP3   OH244296   4.714   8.419   6.496
14786TIP3    H144297   4.811   8.414   6.515
14786TIP3    H244298   4.708   8.503   6.447
14787TIP3   OH244299   4.325   9.014   6.361
14787TIP3    H144300   4.296   9.089   6.416
14787TIP3    H244301   4.297   8.941   6.420
14788TIP3   OH244302   5.204   8.459   6.297
14788TIP3    H144303   5.117   8.434   6.257
14788TIP3    H244304   5.210   8.549   6.257
14789TIP3   OH244305   3.583   8.486   6.543
14789TIP3    H144306   3.625   8.573   6.563
14789TIP3    H244307   3.507   8.489   6.604
14790TIP3   OH244308   4.695   8.978   6.154
14790TIP3    H144309   4.744   9.050   6.197
14790TIP3    H244310   4.606   9.020   6.145
14791TIP3   OH244311   4.006   8.993   6.197
14791TIP3    H144312   4.037   8.902   6.180
14791TIP3    H244313   4.025   9.004   6.291
14792TIP3   OH244314   3.683   8.733   6.625
14792TIP3    H144315   3.711   8.782   6.705
14792TIP3    H244316   3.696   8.801   6.556
14793TIP3   OH244317   4.726   8.108   6.667
14793TIP3    H144318   4.704   8.147   6.581
14793TIP3    H244319   4.770   8.183   6.713
14794TIP3   OH244320   4.420   8.300   6.797
14794TIP3    H144321   4.480   8.374   6.775
14794TIP3    H244322   4.419   8.305   6.895
14795TIP3   OH244323   4.607   8.053   6.913
14795TIP3    H144324   4.529   8.111   6.914
14795TIP3    H244325   4.637   8.064   6.820
14796TIP3   OH244326   4.062   8.026   6.672
14796TIP3    H144327   4.078   8.111   6.717
14796TIP3    H244328   4.122   7.967   6.721
14797TIP3   OH244329   3.698   8.958   6.446
14797TIP3    H144330   3.727   9.049   6.430
14797TIP3    H244331   3.743   8.909   6.374
14798TIP3   OH244332   3.631   8.217   6.560
14798TIP3    H144333   3.633   8.314   6.557
14798TIP3    H244334   3.540   8.197   6.534
14799TIP3   OH244335   4.025   7.934   7.440
14799TIP3    H144336   3.996   7.900   7.353
14799TIP3    H244337   4.012   7.856   7.497
14800TIP3   OH244338   3.816   8.755   6.294
14800TIP3    H144339   3.865   8.716   6.368
14800TIP3    H244340   3.887   8.759   6.226
14801TIP3   OH244341   4.281   8.918   6.095
14801TIP3    H144342   4.291   8.936   6.190
14801TIP3    H244343   4.299   8.822   6.090
14802TIP3   OH244344   4.019   8.659   6.507
14802TIP3    H144345   3.990   8.622   6.593
14802TIP3    H244346   4.059   8.581   6.464
14803TIP3   OH244347   4.130   8.455   6.351
14803TIP3    H144348   4.108   8.453   6.256
14803TIP3    H244349   4.228   8.459   6.346
14804TIP3   OH244350   4.955   8.795   6.014
14804TIP3    H144351   4.929   8.745   5.935
14804TIP3    H244352   4.939   8.886   5.982
14805TIP3   OH244353   3.435   8.874   6.497
14805TIP3    H144354   3.518   8.913   6.463
14805TIP3    H244355   3.421   8.800   6.435
14806TIP3   OH244356   5.171   8.690   6.164
14806TIP3    H144357   5.092   8.704   6.108
14806TIP3    H244358   5.221   8.772   6.143
14807TIP3   OH244359   4.989   8.420   6.137
14807TIP3    H144360   4.951   8.449   6.053
14807TIP3    H244361   4.972   8.323   6.132
14808TIP3   OH244362   4.961   8.153   6.117
14808TIP3    H144363   5.033   8.123   6.176
14808TIP3    H244364   4.885   8.096   6.143
14809TIP3   OH244365   4.977   8.403   6.557
14809TIP3    H144366   5.006   8.324   6.606
14809TIP3    H244367   5.040   8.471   6.586
14810TIP3   OH244368   5.117   8.169   6.646
14810TIP3    H144369   5.127   8.163   6.742
14810TIP3    H244370   5.052   8.097   6.631
14811TIP3   OH244371   3.854   8.146   7.433
14811TIP3    H144372   3.916   8.070   7.437
14811TIP3    H244373   3.914   8.219   7.409
14812TIP3   OH244374   5.196   8.091   6.243
14812TIP3    H144375   5.234   8.016   6.192
14812TIP3    H244376   5.268   8.157   6.236
14813TIP3   OH244377   3.620   7.933   7.028
14813TIP3    H144378   3.526   7.919   7.050
14813TIP3    H244379   3.615   7.986   6.946
14814TIP3   OH244380   4.648   8.120   7.175
14814TIP3    H144381   4.606   8.045   7.223
14814TIP3    H244382   4.649   8.085   7.083
14815TIP3   OH244383   3.928   7.849   7.197
14815TIP3    H144384   3.836   7.814   7.199
14815TIP3    H244385   3.978   7.765   7.184
14816TIP3   OH244386   3.707   7.719   6.834
14816TIP3    H144387   3.745   7.778   6.767
14816TIP3    H244388   3.687   7.780   6.907
14817TIP3   OH244389   4.964   7.942   7.004
14817TIP3    H144390   4.917   8.027   6.998
14817TIP3    H244391   4.914   7.897   7.075
14818TIP3   OH244392   4.948   7.951   6.621
14818TIP3    H144393   4.860   7.994   6.632
14818TIP3    H244394   4.927   7.863   6.661
14819TIP3   OH244395   3.833   7.881   6.599
14819TIP3    H144396   3.885   7.818   6.547
14819TIP3    H244397   3.904   7.938   6.636
14820TIP3   OH244398   4.369   8.052   6.684
14820TIP3    H144399   4.337   7.987   6.749
14820TIP3    H244400   4.383   8.133   6.737
14821TIP3   OH244401   5.865   8.313   5.902
14821TIP3    H144402   5.836   8.286   5.990
14821TIP3    H244403   5.782   8.349   5.863
14822TIP3   OH244404   5.404   8.281   6.267
14822TIP3    H144405   5.452   8.314   6.188
14822TIP3    H244406   5.341   8.357   6.279
14823TIP3   OH244407   5.389   8.433   6.027
14823TIP3    H144408   5.429   8.520   6.049
14823TIP3    H244409   5.294   8.449   6.034
14824TIP3   OH244410   5.358   8.124   6.478
14824TIP3    H144411   5.271   8.149   6.515
14824TIP3    H244412   5.372   8.194   6.411
14825TIP3   OH244413   5.496   7.968   6.294
14825TIP3    H144414   5.514   8.035   6.226
14825TIP3    H244415   5.444   8.018   6.360
14826TIP3   OH244416   5.623   8.134   6.088
14826TIP3    H144417   5.666   8.067   6.030
14826TIP3    H244418   5.697   8.165   6.141
   8.50000   8.01388   6.94022   0.00000   0.00000  -2.83333   0.00000  -2.83333  -4.00694
