Title
44418
    1GLY      N    1   2.160   3.906   4.851
    1GLY    HT1    2   2.082   3.926   4.918
    1GLY    HT2    3   2.233   3.854   4.903
    1GLY    HT3    4   2.128   3.842   4.776
    1GLY     CA    5   2.220   4.031   4.792
    1GLY    HA1    6   2.261   4.089   4.873
    1GLY    HA2    7   2.143   4.081   4.736
    1GLY      C    8   2.334   3.997   4.699
    1GLY      O    9   2.375   3.881   4.703
    2PRO      N   10   2.386   4.089   4.617
    2PRO     CD   11   2.347   4.230   4.620
    2PRO    HD1   12   2.384   4.274   4.715
    2PRO    HD2   13   2.237   4.243   4.610
    2PRO     CA   14   2.508   4.070   4.538
    2PRO     HA   15   2.480   4.004   4.456
    2PRO     CB   16   2.548   4.211   4.490
    2PRO    HB1   17   2.586   4.209   4.386
    2PRO    HB2   18   2.625   4.255   4.556
    2PRO     CG   19   2.420   4.294   4.502
    2PRO    HG1   20   2.441   4.402   4.518
    2PRO    HG2   21   2.359   4.283   4.410
    2PRO      C   22   2.623   4.001   4.609
    2PRO      O   23   2.648   4.030   4.726
    3GLY      N   24   2.696   3.911   4.540
    3GLY     HN   25   2.665   3.883   4.450
    3GLY     CA   26   2.825   3.860   4.586
    3GLY    HA1   27   2.867   3.801   4.506
    3GLY    HA2   28   2.808   3.802   4.676
    3GLY      C   29   2.927   3.968   4.618
    3GLY      O   30   2.925   4.074   4.556
    4ASP      N   31   3.022   3.939   4.711
    4ASP     HN   32   3.013   3.857   4.766
    4ASP     CA   33   3.142   4.018   4.738
    4ASP     HA   34   3.108   4.103   4.795
    4ASP     CB   35   3.246   3.937   4.822
    4ASP    HB1   36   3.346   3.985   4.814
    4ASP    HB2   37   3.255   3.833   4.782
    4ASP     CG   38   3.219   3.932   4.971
    4ASP    OD1   39   3.178   4.035   5.030
    4ASP    OD2   40   3.260   3.829   5.033
    4ASP      C   41   3.211   4.069   4.610
    4ASP      O   42   3.209   3.998   4.509
    5PRO      N   43   3.272   4.188   4.605
    5PRO     CD   44   3.266   4.288   4.711
    5PRO    HD1   45   3.335   4.257   4.793
    5PRO    HD2   46   3.163   4.302   4.749
    5PRO     CA   47   3.364   4.227   4.499
    5PRO     HA   48   3.305   4.236   4.409
    5PRO     CB   49   3.423   4.361   4.545
    5PRO    HB1   50   3.440   4.430   4.459
    5PRO    HB2   51   3.519   4.346   4.599
    5PRO     CG   52   3.317   4.415   4.641
    5PRO    HG1   53   3.356   4.492   4.711
    5PRO    HG2   54   3.234   4.460   4.583
    5PRO      C   55   3.472   4.124   4.468
    5PRO      O   56   3.512   4.049   4.557
    6GLY      N   57   3.520   4.117   4.342
    6GLY     HN   58   3.490   4.183   4.273
    6GLY     CA   59   3.634   4.034   4.308
    6GLY    HA1   60   3.654   4.046   4.202
    6GLY    HA2   61   3.612   3.932   4.335
    6GLY      C   62   3.759   4.075   4.381
    6GLY      O   63   3.772   4.189   4.426
    7SER      N   64   3.857   3.984   4.393
    7SER     HN   65   3.846   3.891   4.357
    7SER     CA   66   3.988   4.015   4.445
    7SER     HA   67   3.975   4.056   4.545
    7SER     CB   68   4.081   3.891   4.452
    7SER    HB1   69   4.182   3.919   4.491
    7SER    HB2   70   4.095   3.851   4.349
    7SER     OG   71   4.027   3.787   4.534
    7SER    HG1   72   4.015   3.823   4.623
    7SER      C   73   4.061   4.120   4.362
    7SER      O   74   4.042   4.128   4.240
    8ASP      N   75   4.146   4.203   4.424
    8ASP     HN   76   4.154   4.208   4.523
    8ASP     CA   77   4.233   4.293   4.351
    8ASP     HA   78   4.170   4.359   4.293
    8ASP     CB   79   4.322   4.378   4.446
    8ASP    HB1   80   4.403   4.429   4.390
    8ASP    HB2   81   4.368   4.313   4.523
    8ASP     CG   82   4.243   4.487   4.516
    8ASP    OD1   83   4.130   4.519   4.473
    8ASP    OD2   84   4.301   4.549   4.609
    8ASP      C   85   4.323   4.220   4.251
    8ASP      O   86   4.375   4.112   4.277
    9GLY      N   87   4.340   4.280   4.131
    9GLY     HN   88   4.294   4.367   4.114
    9GLY     CA   89   4.424   4.229   4.024
    9GLY    HA1   90   4.426   4.303   3.946
    9GLY    HA2   91   4.382   4.135   3.992
    9GLY      C   92   4.567   4.204   4.063
    9GLY      O   93   4.618   4.254   4.164
   10SER      N   94   4.641   4.127   3.981
   10SER     HN   95   4.600   4.083   3.902
   10SER     CA   96   4.784   4.110   3.998
   10SER     HA   97   4.801   4.070   4.097
   10SER     CB   98   4.845   4.012   3.894
   10SER    HB1   99   4.953   3.996   3.913
   10SER    HB2  100   4.833   4.053   3.792
   10SER     OG  101   4.778   3.886   3.902
   10SER    HG1  102   4.805   3.850   3.987
   10SER      C  103   4.860   4.241   3.988
   10SER      O  104   4.827   4.327   3.906
   11GLY      N  105   4.963   4.260   4.072
   11GLY     HN  106   4.986   4.192   4.141
   11GLY     CA  107   5.049   4.377   4.064
   11GLY    HA1  108   5.121   4.369   4.144
   11GLY    HA2  109   4.985   4.464   4.073
   11GLY      C  110   5.126   4.391   3.934
   11GLY      O  111   5.130   4.298   3.854
   12PRO      N  112   5.189   4.505   3.909
   12PRO     CD  113   5.206   4.611   4.009
   12PRO    HD1  114   5.232   4.570   4.109
   12PRO    HD2  115   5.112   4.671   4.015
   12PRO     CA  116   5.283   4.519   3.799
   12PRO     HA  117   5.233   4.492   3.707
   12PRO     CB  118   5.322   4.667   3.806
   12PRO    HB1  119   5.243   4.727   3.757
   12PRO    HB2  120   5.420   4.689   3.758
   12PRO     CG  121   5.322   4.696   3.957
   12PRO    HG1  122   5.417   4.661   4.002
   12PRO    HG2  123   5.308   4.804   3.979
   12PRO      C  124   5.404   4.426   3.811
   12PRO      O  125   5.449   4.397   3.922
   13GLY      N  126   5.458   4.378   3.697
   13GLY     HN  127   5.416   4.400   3.609
   13GLY     CA  128   5.585   4.307   3.692
   13GLY    HA1  129   5.602   4.277   3.590
   13GLY    HA2  130   5.579   4.223   3.760
   13GLY      C  131   5.704   4.390   3.733
   13GLY      O  132   5.702   4.513   3.726
   14ASP      N  133   5.814   4.323   3.774
   14ASP     HN  134   5.814   4.224   3.781
   14ASP     CA  135   5.937   4.387   3.816
   14ASP     HA  136   5.909   4.451   3.898
   14ASP     CB  137   6.038   4.282   3.870
   14ASP    HB1  138   6.132   4.332   3.902
   14ASP    HB2  139   6.062   4.210   3.790
   14ASP     CG  140   5.984   4.206   3.990
   14ASP    OD1  141   5.895   4.258   4.062
   14ASP    OD2  142   6.037   4.095   4.018
   14ASP      C  143   6.002   4.473   3.703
   14ASP      O  144   5.995   4.433   3.587
   15PRO      N  145   6.063   4.589   3.731
   15PRO     CD  146   6.049   4.661   3.857
   15PRO    HD1  147   6.125   4.623   3.928
   15PRO    HD2  148   5.947   4.649   3.900
   15PRO     CA  149   6.136   4.666   3.631
   15PRO     HA  150   6.074   4.677   3.543
   15PRO     CB  151   6.163   4.802   3.699
   15PRO    HB1  152   6.144   4.886   3.629
   15PRO    HB2  153   6.269   4.809   3.732
   15PRO     CG  154   6.073   4.808   3.822
   15PRO    HG1  155   6.119   4.865   3.906
   15PRO    HG2  156   5.976   4.855   3.795
   15PRO      C  157   6.267   4.602   3.588
   15PRO    OT1  158   6.329   4.526   3.666
   15PRO    OT2  159   6.317   4.638   3.477
   16LIT    LIT  160   0.758   0.072   0.030
   17LIT    LIT  161   2.445   1.507   5.934
   18LIT    LIT  162   4.585   3.454   3.591
   19LIT    LIT  163   6.977   0.021   6.234
   20LIT    LIT  164   0.230   7.745   1.218
   21LIT    LIT  165   2.391   1.887   3.543
   22LIT    LIT  166   7.927   5.758   0.487
   23LIT    LIT  167   7.827   4.712   6.022
   24LIT    LIT  168   2.684   2.194   5.444
   25LIT    LIT  169   4.580   5.733   2.698
   26LIT    LIT  170   3.145   2.402   4.986
   27LIT    LIT  171   3.105   7.557   1.647
   28LIT    LIT  172   2.109   7.891   3.506
   29LIT    LIT  173   0.995   1.499   6.208
   30LIT    LIT  174   0.610   2.719   5.058
   31LIT    LIT  175   5.100   1.449   2.267
   32LIT    LIT  176   2.200   6.695   3.377
   33LIT    LIT  177   0.336   4.955   1.441
   34LIT    LIT  178   1.417   4.204   1.965
   35LIT    LIT  179   0.514   6.648   5.098
   36LIT    LIT  180   0.724   4.787   6.006
   37LIT    LIT  181   5.032   6.732   4.953
   38LIT    LIT  182   2.766   2.364   1.148
   39LIT    LIT  183   4.169   2.092   6.505
   40LIT    LIT  184   3.030   4.972   5.377
   41LIT    LIT  185   7.523   6.775   3.057
   42LIT    LIT  186   3.006   0.737   2.756
   43LIT    LIT  187   1.822   1.706   2.773
   44LIT    LIT  188   8.010   5.018   3.501
   45LIT    LIT  189   3.475   1.318   0.779
   46LIT    LIT  190   0.232   5.182   3.682
   47LIT    LIT  191   8.398   6.411   4.230
   48LIT    LIT  192   6.505   3.017   1.997
   49LIT    LIT  193   6.682   5.700   5.803
   50LIT    LIT  194   1.733   1.665   2.232
   51LIT    LIT  195   4.564   7.830   1.924
   52LIT    LIT  196   3.510   3.687   2.924
   53LIT    LIT  197   5.978   3.584   0.659
   54LIT    LIT  198   8.090   4.706   2.844
   55LIT    LIT  199   7.819   1.547   0.081
   56LIT    LIT  200   0.718   1.855   1.270
   57LIT    LIT  201   3.833   4.216   5.728
   58LIT    LIT  202   5.883   7.040   5.710
   59LIT    LIT  203   2.930   1.867   3.726
   60LIT    LIT  204   5.591   2.354   0.676
   61CLA    CLA  205   6.835   0.300   3.130
   62CLA    CLA  206   6.380   6.591   2.120
   63CLA    CLA  207   7.147   4.417   1.732
   64CLA    CLA  208   3.437   0.135   2.367
   65CLA    CLA  209   8.148   6.021   1.087
   66CLA    CLA  210   0.819   1.334   5.755
   67CLA    CLA  211   4.997   0.816   4.802
   68CLA    CLA  212   5.276   7.418   5.179
   69CLA    CLA  213   3.703   0.581   3.752
   70CLA    CLA  214   1.032   4.526   0.483
   71CLA    CLA  215   4.216   7.836   6.855
   72CLA    CLA  216   4.933   5.501   6.134
   73CLA    CLA  217   5.112   2.040   0.441
   74CLA    CLA  218   7.687   5.532   0.048
   75CLA    CLA  219   2.325   2.878   0.499
   76CLA    CLA  220   5.430   3.199   0.903
   77CLA    CLA  221   3.170   1.825   2.892
   78CLA    CLA  222   7.930   0.170   1.461
   79CLA    CLA  223   2.329   3.805   4.302
   80CLA    CLA  224   2.347   0.489   5.291
   81CLA    CLA  225   5.796   3.108   6.170
   82CLA    CLA  226   3.231   5.128   6.919
   83CLA    CLA  227   1.154   5.189   3.333
   84CLA    CLA  228   0.512   3.401   0.641
   85CLA    CLA  229   8.239   4.303   2.946
   86CLA    CLA  230   8.136   6.552   3.785
   87CLA    CLA  231   1.039   4.982   6.646
   88CLA    CLA  232   3.555   1.049   5.653
   89CLA    CLA  233   1.598   0.971   1.542
   90CLA    CLA  234   2.739   2.040   5.976
   91CLA    CLA  235   0.600   7.950   5.122
   92CLA    CLA  236   6.703   5.909   5.733
   93CLA    CLA  237   3.716   6.239   2.848
   94CLA    CLA  238   1.050   0.334   0.690
   95CLA    CLA  239   5.368   7.455   0.060
   96CLA    CLA  240   8.448   4.868   2.404
   97CLA    CLA  241   6.480   6.976   3.516
   98CLA    CLA  242   7.207   7.262   2.730
   99CLA    CLA  243   6.021   2.411   0.112
  100CLA    CLA  244   4.407   3.477   3.738
  101CLA    CLA  245   7.608   6.352   5.914
  102CLA    CLA  246   7.408   6.406   1.589
  103TIP3   OH2  247   2.958   0.720   2.341
  103TIP3    H1  248   2.948   0.742   2.248
  103TIP3    H2  249   3.045   0.754   2.364
  104TIP3   OH2  250   2.709   0.314   2.578
  104TIP3    H1  251   2.717   0.234   2.630
  104TIP3    H2  252   2.791   0.319   2.530
  105TIP3   OH2  253   3.070   0.485   2.046
  105TIP3    H1  254   3.058   0.436   1.965
  105TIP3    H2  255   3.158   0.462   2.075
  106TIP3   OH2  256   0.363   7.869   2.399
  106TIP3    H1  257   0.420   7.792   2.400
  106TIP3    H2  258   0.409   7.931   2.342
  107TIP3   OH2  259   0.551   7.671   2.432
  107TIP3    H1  260   0.567   7.581   2.458
  107TIP3    H2  261   0.636   7.703   2.401
  108TIP3   OH2  262   2.590   0.656   2.280
  108TIP3    H1  263   2.580   0.561   2.284
  108TIP3    H2  264   2.629   0.679   2.364
  109TIP3   OH2  265   2.978   0.442   2.363
  109TIP3    H1  266   2.996   0.411   2.274
  109TIP3    H2  267   2.969   0.537   2.353
  110TIP3   OH2  268   1.480   7.863   1.482
  110TIP3    H1  269   1.502   7.845   1.573
  110TIP3    H2  270   1.481   7.777   1.440
  111TIP3   OH2  271   4.575   0.092   1.258
  111TIP3    H1  272   4.482   0.088   1.278
  111TIP3    H2  273   4.609   0.164   1.311
  112TIP3   OH2  274   4.137   0.552   1.253
  112TIP3    H1  275   4.171   0.510   1.174
  112TIP3    H2  276   4.129   0.481   1.317
  113TIP3   OH2  277   4.134   0.057   1.525
  113TIP3    H1  278   4.190   0.014   1.461
  113TIP3    H2  279   4.196   0.100   1.585
  114TIP3   OH2  280   3.946  -0.004   1.784
  114TIP3    H1  281   3.869   0.036   1.823
  114TIP3    H2  282   3.982   0.065   1.728
  115TIP3   OH2  283   3.747   0.171   1.871
  115TIP3    H1  284   3.724   0.263   1.870
  115TIP3    H2  285   3.674   0.128   1.916
  116TIP3   OH2  286   4.631   0.378   1.316
  116TIP3    H1  287   4.557   0.372   1.377
  116TIP3    H2  288   4.635   0.471   1.292
  117TIP3   OH2  289   4.312   0.416   1.087
  117TIP3    H1  290   4.393   0.366   1.086
  117TIP3    H2  291   4.335   0.498   1.043
  118TIP3   OH2  292   4.831   0.304   1.709
  118TIP3    H1  293   4.824   0.229   1.650
  118TIP3    H2  294   4.820   0.380   1.653
  119TIP3   OH2  295   1.888   7.832   1.835
  119TIP3    H1  296   1.854   7.912   1.876
  119TIP3    H2  297   1.813   7.797   1.785
  120TIP3   OH2  298   3.837   0.186   1.409
  120TIP3    H1  299   3.749   0.150   1.400
  120TIP3    H2  300   3.893   0.125   1.360
  121TIP3   OH2  301   4.432   0.370   1.494
  121TIP3    H1  302   4.385   0.442   1.536
  121TIP3    H2  303   4.403   0.292   1.542
  122TIP3   OH2  304   3.966   0.279   2.011
  122TIP3    H1  305   3.911   0.331   2.069
  122TIP3    H2  306   3.904   0.224   1.963
  123TIP3   OH2  307   0.884   7.880   2.117
  123TIP3    H1  308   0.896   7.970   2.147
  123TIP3    H2  309   0.853   7.832   2.194
  124TIP3   OH2  310   4.013   0.258   1.191
  124TIP3    H1  311   4.061   0.240   1.110
  124TIP3    H2  312   3.938   0.311   1.163
  125TIP3   OH2  313   3.760   0.425   2.131
  125TIP3    H1  314   3.735   0.442   2.040
  125TIP3    H2  315   3.677   0.411   2.176
  126TIP3   OH2  316   5.065   0.634   1.735
  126TIP3    H1  317   5.072   0.539   1.746
  126TIP3    H2  318   4.987   0.658   1.786
  127TIP3   OH2  319   4.175   0.404   1.882
  127TIP3    H1  320   4.163   0.498   1.894
  127TIP3    H2  321   4.099   0.365   1.925
  128TIP3   OH2  322   4.233   0.490   0.755
  128TIP3    H1  323   4.139   0.505   0.768
  128TIP3    H2  324   4.242   0.395   0.748
  129TIP3   OH2  325   2.129   7.747   1.924
  129TIP3    H1  326   2.055   7.801   1.897
  129TIP3    H2  327   2.104   7.658   1.895
  130TIP3   OH2  328   3.537   0.171   2.056
  130TIP3    H1  329   3.610   0.163   2.117
  130TIP3    H2  330   3.460   0.145   2.107
  131TIP3   OH2  331   1.989   7.521   1.878
  131TIP3    H1  332   1.923   7.506   1.945
  131TIP3    H2  333   1.940   7.554   1.803
  132TIP3   OH2  334   1.598   7.815   2.122
  132TIP3    H1  335   1.573   7.733   2.164
  132TIP3    H2  336   1.693   7.818   2.131
  133TIP3   OH2  337   1.569   7.779   1.721
  133TIP3    H1  338   1.639   7.720   1.692
  133TIP3    H2  339   1.543   7.744   1.807
  134TIP3   OH2  340   4.768   0.976   1.824
  134TIP3    H1  341   4.760   0.989   1.730
  134TIP3    H2  342   4.852   1.015   1.847
  135TIP3   OH2  343   3.723   0.104   2.252
  135TIP3    H1  344   3.795   0.114   2.314
  135TIP3    H2  345   3.644   0.108   2.306
  136TIP3   OH2  346   1.297   7.439   1.911
  136TIP3    H1  347   1.278   7.404   1.824
  136TIP3    H2  348   1.364   7.506   1.895
  137TIP3   OH2  349   4.801   0.109   1.531
  137TIP3    H1  350   4.840   0.120   1.445
  137TIP3    H2  351   4.722   0.057   1.515
  138TIP3   OH2  352   4.285   0.145   1.912
  138TIP3    H1  353   4.335   0.139   1.993
  138TIP3    H2  354   4.252   0.235   1.911
  139TIP3   OH2  355   1.357   7.925   2.179
  139TIP3    H1  356   1.306   7.890   2.106
  139TIP3    H2  357   1.448   7.903   2.156
  140TIP3   OH2  358   4.439   0.417   1.799
  140TIP3    H1  359   4.344   0.411   1.808
  140TIP3    H2  360   4.467   0.470   1.873
  141TIP3   OH2  361   5.088   0.361   1.766
  141TIP3    H1  362   4.994   0.345   1.775
  141TIP3    H2  363   5.111   0.325   1.681
  142TIP3   OH2  364   1.735   7.970   1.514
  142TIP3    H1  365   1.642   7.969   1.490
  142TIP3    H2  366   1.765   7.881   1.493
  143TIP3   OH2  367   3.925   0.513   1.736
  143TIP3    H1  368   3.985   0.575   1.695
  143TIP3    H2  369   3.968   0.428   1.727
  144TIP3   OH2  370   4.363   0.141   1.648
  144TIP3    H1  371   4.341   0.140   1.741
  144TIP3    H2  372   4.452   0.104   1.645
  145TIP3   OH2  373   4.625   0.665   1.661
  145TIP3    H1  374   4.537   0.628   1.671
  145TIP3    H2  375   4.615   0.736   1.598
  146TIP3   OH2  376   3.429   0.340   1.863
  146TIP3    H1  377   3.468   0.277   1.924
  146TIP3    H2  378   3.451   0.426   1.900
  147TIP3   OH2  379   1.499   7.625   1.930
  147TIP3    H1  380   1.474   7.692   1.993
  147TIP3    H2  381   1.572   7.579   1.972
  148TIP3   OH2  382   4.653   0.641   1.257
  148TIP3    H1  383   4.616   0.697   1.189
  148TIP3    H2  384   4.746   0.665   1.259
  149TIP3   OH2  385   3.417   0.684   2.252
  149TIP3    H1  386   3.494   0.703   2.304
  149TIP3    H2  387   3.423   0.590   2.234
  150TIP3   OH2  388   3.876   0.616   2.289
  150TIP3    H1  389   3.970   0.603   2.293
  150TIP3    H2  390   3.844   0.548   2.230
  151TIP3   OH2  391   4.501   0.549   2.030
  151TIP3    H1  392   4.510   0.478   2.094
  151TIP3    H2  393   4.577   0.605   2.047
  152TIP3   OH2  394   4.127   0.177   2.210
  152TIP3    H1  395   4.082   0.197   2.127
  152TIP3    H2  396   4.159   0.087   2.198
  153TIP3   OH2  397   4.602   0.197   1.817
  153TIP3    H1  398   4.682   0.236   1.782
  153TIP3    H2  399   4.536   0.266   1.809
  154TIP3   OH2  400   0.802   7.803   2.369
  154TIP3    H1  401   0.858   7.757   2.431
  154TIP3    H2  402   0.781   7.886   2.412
  155TIP3   OH2  403   1.110   7.736   2.059
  155TIP3    H1  404   1.037   7.798   2.065
  155TIP3    H2  405   1.167   7.773   1.992
  156TIP3   OH2  406   4.484   0.102   2.174
  156TIP3    H1  407   4.554   0.067   2.119
  156TIP3    H2  408   4.481   0.043   2.249
  157TIP3   OH2  409   1.253   7.523   2.158
  157TIP3    H1  410   1.261   7.475   2.076
  157TIP3    H2  411   1.214   7.607   2.133
  158TIP3   OH2  412   1.300   7.853   1.904
  158TIP3    H1  413   1.369   7.843   1.839
  158TIP3    H2  414   1.243   7.921   1.868
  159TIP3   OH2  415   1.860   7.769   2.183
  159TIP3    H1  416   1.858   7.759   2.278
  159TIP3    H2  417   1.922   7.840   2.168
  160TIP3   OH2  418   4.734   0.049   1.999
  160TIP3    H1  419   4.680   0.104   1.941
  160TIP3    H2  420   4.821   0.053   1.961
  161TIP3   OH2  421   1.107   7.655   2.460
  161TIP3    H1  422   1.032   7.596   2.458
  161TIP3    H2  423   1.180   7.602   2.428
  162TIP3   OH2  424   1.518   7.578   2.216
  162TIP3    H1  425   1.541   7.561   2.307
  162TIP3    H2  426   1.427   7.548   2.207
  163TIP3   OH2  427   4.910   0.731   1.248
  163TIP3    H1  428   4.928   0.743   1.341
  163TIP3    H2  429   4.921   0.818   1.210
  164TIP3   OH2  430   4.919   0.742   1.522
  164TIP3    H1  431   4.870   0.660   1.518
  164TIP3    H2  432   4.990   0.724   1.584
  165TIP3   OH2  433   4.953   0.440   2.074
  165TIP3    H1  434   4.882   0.446   2.138
  165TIP3    H2  435   4.999   0.524   2.082
  166TIP3   OH2  436   4.964   0.202   1.319
  166TIP3    H1  437   4.950   0.165   1.232
  166TIP3    H2  438   4.967   0.296   1.304
  167TIP3   OH2  439   4.787   0.498   1.521
  167TIP3    H1  440   4.716   0.543   1.567
  167TIP3    H2  441   4.743   0.446   1.454
  168TIP3   OH2  442   4.994   0.073   1.892
  168TIP3    H1  443   5.066   0.010   1.888
  168TIP3    H2  444   5.003   0.124   1.812
  169TIP3   OH2  445   2.355   7.891   1.915
  169TIP3    H1  446   2.284   7.827   1.916
  169TIP3    H2  447   2.434   7.838   1.925
  170TIP3   OH2  448   0.607   7.414   2.521
  170TIP3    H1  449   0.647   7.346   2.466
  170TIP3    H2  450   0.670   7.429   2.591
  171TIP3   OH2  451   4.543   0.558   1.004
  171TIP3    H1  452   4.593   0.492   0.956
  171TIP3    H2  453   4.558   0.639   0.955
  172TIP3   OH2  454   3.515   0.419   2.267
  172TIP3    H1  455   3.475   0.333   2.279
  172TIP3    H2  456   3.555   0.439   2.351
  173TIP3   OH2  457   3.703   0.446   1.869
  173TIP3    H1  458   3.647   0.453   1.792
  173TIP3    H2  459   3.787   0.483   1.841
  174TIP3   OH2  460   4.158   0.676   1.943
  174TIP3    H1  461   4.200   0.668   2.029
  174TIP3    H2  462   4.218   0.731   1.892
  175TIP3   OH2  463   4.339   0.837   1.817
  175TIP3    H1  464   4.384   0.786   1.749
  175TIP3    H2  465   4.409   0.883   1.862
  176TIP3   OH2  466   3.441   0.748   1.878
  176TIP3    H1  467   3.347   0.763   1.878
  176TIP3    H2  468   3.474   0.801   1.951
  177TIP3   OH2  469   3.639   0.737   1.688
  177TIP3    H1  470   3.582   0.734   1.765
  177TIP3    H2  471   3.649   0.646   1.662
  178TIP3   OH2  472   4.113   0.583   1.552
  178TIP3    H1  473   4.094   0.506   1.499
  178TIP3    H2  474   4.049   0.649   1.524
  179TIP3   OH2  475   4.364   0.658   1.598
  179TIP3    H1  476   4.272   0.631   1.600
  179TIP3    H2  477   4.382   0.672   1.505
  180TIP3   OH2  478   4.578   0.844   1.454
  180TIP3    H1  479   4.558   0.927   1.412
  180TIP3    H2  480   4.562   0.778   1.387
  181TIP3   OH2  481   3.381   0.399   1.491
  181TIP3    H1  482   3.379   0.456   1.568
  181TIP3    H2  483   3.296   0.355   1.491
  182TIP3   OH2  484   3.879   0.454   1.403
  182TIP3    H1  485   3.875   0.358   1.398
  182TIP3    H2  486   3.806   0.479   1.460
  183TIP3   OH2  487   4.824   0.706   1.845
  183TIP3    H1  488   4.757   0.671   1.787
  183TIP3    H2  489   4.807   0.800   1.847
  184TIP3   OH2  490   5.560   0.437   1.330
  184TIP3    H1  491   5.547   0.524   1.293
  184TIP3    H2  492   5.482   0.422   1.383
  185TIP3   OH2  493   5.763   0.527   1.497
  185TIP3    H1  494   5.702   0.593   1.530
  185TIP3    H2  495   5.713   0.479   1.431
  186TIP3   OH2  496   5.561   0.705   1.562
  186TIP3    H1  497   5.539   0.711   1.469
  186TIP3    H2  498   5.476   0.692   1.605
  187TIP3   OH2  499   5.149   0.240   1.529
  187TIP3    H1  500   5.088   0.215   1.460
  187TIP3    H2  501   5.180   0.157   1.565
  188TIP3   OH2  502   4.985   0.467   1.217
  188TIP3    H1  503   5.077   0.479   1.238
  188TIP3    H2  504   4.945   0.552   1.231
  189TIP3   OH2  505   5.937   0.717   1.322
  189TIP3    H1  506   5.947   0.800   1.368
  189TIP3    H2  507   5.910   0.655   1.390
  190TIP3   OH2  508   5.341   0.440   1.499
  190TIP3    H1  509   5.396   0.436   1.577
  190TIP3    H2  510   5.277   0.370   1.510
  191TIP3   OH2  511   6.529   1.224   1.371
  191TIP3    H1  512   6.532   1.220   1.275
  191TIP3    H2  513   6.606   1.274   1.396
  192TIP3   OH2  514   5.494   0.404   1.737
  192TIP3    H1  515   5.582   0.393   1.773
  192TIP3    H2  516   5.435   0.380   1.809
  193TIP3   OH2  517   5.237   0.033   1.683
  193TIP3    H1  518   5.302   0.078   1.737
  193TIP3    H2  519   5.214  -0.045   1.734
  194TIP3   OH2  520   5.744   0.764   1.135
  194TIP3    H1  521   5.776   0.823   1.067
  194TIP3    H2  522   5.821   0.746   1.188
  195TIP3   OH2  523   5.210   0.620   1.312
  195TIP3    H1  524   5.261   0.562   1.370
  195TIP3    H2  525   5.229   0.708   1.343
  196TIP3   OH2  526   5.208   0.945   1.725
  196TIP3    H1  527   5.289   0.958   1.774
  196TIP3    H2  528   5.207   0.852   1.705
  197TIP3   OH2  529   5.666   0.865   1.758
  197TIP3    H1  530   5.759   0.843   1.764
  197TIP3    H2  531   5.635   0.813   1.684
  198TIP3   OH2  532   6.285   0.833   1.533
  198TIP3    H1  533   6.286   0.748   1.577
  198TIP3    H2  534   6.374   0.867   1.544
  199TIP3   OH2  535   5.301   0.362   1.933
  199TIP3    H1  536   5.321   0.268   1.935
  199TIP3    H2  537   5.218   0.368   1.885
  200TIP3   OH2  538   5.921   0.437   1.695
  200TIP3    H1  539   5.867   0.469   1.623
  200TIP3    H2  540   5.962   0.358   1.661
  201TIP3   OH2  541   5.397   0.105   1.901
  201TIP3    H1  542   5.401   0.010   1.906
  201TIP3    H2  543   5.448   0.136   1.976
  202TIP3   OH2  544   4.735   0.739   0.840
  202TIP3    H1  545   4.782   0.736   0.757
  202TIP3    H2  546   4.791   0.690   0.901
  203TIP3   OH2  547   4.930   0.576   0.948
  203TIP3    H1  548   4.929   0.499   1.004
  203TIP3    H2  549   4.997   0.633   0.987
  204TIP3   OH2  550   5.334   0.679   1.722
  204TIP3    H1  551   5.243   0.650   1.724
  204TIP3    H2  552   5.378   0.624   1.786
  205TIP3   OH2  553   5.526   0.711   1.286
  205TIP3    H1  554   5.478   0.788   1.256
  205TIP3    H2  555   5.609   0.714   1.238
  206TIP3   OH2  556   5.954   0.968   1.445
  206TIP3    H1  557   5.999   0.959   1.529
  206TIP3    H2  558   6.018   1.010   1.388
  207TIP3   OH2  559   6.135   1.102   1.286
  207TIP3    H1  560   6.206   1.057   1.240
  207TIP3    H2  561   6.180   1.154   1.353
  208TIP3   OH2  562   5.198   0.943   1.333
  208TIP3    H1  563   5.108   0.965   1.309
  208TIP3    H2  564   5.222   1.009   1.397
  209TIP3   OH2  565   5.428   0.942   1.181
  209TIP3    H1  566   5.343   0.949   1.224
  209TIP3    H2  567   5.411   0.972   1.091
  210TIP3   OH2  568   5.832   0.957   0.953
  210TIP3    H1  569   5.767   1.001   0.899
  210TIP3    H2  570   5.872   1.027   1.004
  211TIP3   OH2  571   5.146   0.724   1.049
  211TIP3    H1  572   5.145   0.704   1.142
  211TIP3    H2  573   5.235   0.705   1.021
  212TIP3   OH2  574   0.828   2.263   2.496
  212TIP3    H1  575   0.805   2.310   2.415
  212TIP3    H2  576   0.909   2.305   2.526
  213TIP3   OH2  577   1.060   1.704   2.775
  213TIP3    H1  578   0.977   1.700   2.822
  213TIP3    H2  579   1.078   1.798   2.766
  214TIP3   OH2  580   2.335   1.652   1.348
  214TIP3    H1  581   2.246   1.630   1.377
  214TIP3    H2  582   2.372   1.700   1.422
  215TIP3   OH2  583   2.026   2.085   1.376
  215TIP3    H1  584   2.028   2.047   1.288
  215TIP3    H2  585   2.003   2.012   1.433
  216TIP3   OH2  586   2.950   0.947   1.768
  216TIP3    H1  587   2.977   1.027   1.813
  216TIP3    H2  588   3.008   0.942   1.692
  217TIP3   OH2  589   3.043   1.172   1.894
  217TIP3    H1  590   2.960   1.218   1.886
  217TIP3    H2  591   3.084   1.207   1.973
  218TIP3   OH2  592   2.462   1.843   1.505
  218TIP3    H1  593   2.391   1.857   1.568
  218TIP3    H2  594   2.459   1.920   1.448
  219TIP3   OH2  595   2.675   1.830   1.866
  219TIP3    H1  596   2.674   1.767   1.794
  219TIP3    H2  597   2.653   1.914   1.825
  220TIP3   OH2  598   2.865   1.480   1.680
  220TIP3    H1  599   2.789   1.538   1.684
  220TIP3    H2  600   2.922   1.519   1.614
  221TIP3   OH2  601   2.565   1.343   2.043
  221TIP3    H1  602   2.558   1.422   2.096
  221TIP3    H2  603   2.525   1.367   1.959
  222TIP3   OH2  604   2.243   1.926   1.642
  222TIP3    H1  605   2.215   2.011   1.676
  222TIP3    H2  606   2.207   1.862   1.705
  223TIP3   OH2  607   1.736   1.825   2.129
  223TIP3    H1  608   1.720   1.902   2.184
  223TIP3    H2  609   1.706   1.850   2.042
  224TIP3   OH2  610   1.601   2.022   2.263
  224TIP3    H1  611   1.574   2.031   2.172
  224TIP3    H2  612   1.519   2.004   2.310
  225TIP3   OH2  613   2.912   2.198   1.891
  225TIP3    H1  614   2.916   2.103   1.904
  225TIP3    H2  615   2.828   2.224   1.929
  226TIP3   OH2  616   2.039   1.979   2.033
  226TIP3    H1  617   2.031   2.074   2.044
  226TIP3    H2  618   1.965   1.944   2.082
  227TIP3   OH2  619   2.801   1.300   2.180
  227TIP3    H1  620   2.720   1.307   2.129
  227TIP3    H2  621   2.823   1.207   2.179
  228TIP3   OH2  622   2.551   1.065   2.040
  228TIP3    H1  623   2.510   1.040   2.123
  228TIP3    H2  624   2.542   1.160   2.036
  229TIP3   OH2  625   2.296   1.316   2.329
  229TIP3    H1  626   2.272   1.239   2.382
  229TIP3    H2  627   2.391   1.321   2.336
  230TIP3   OH2  628   2.272   1.312   1.891
  230TIP3    H1  629   2.249   1.261   1.813
  230TIP3    H2  630   2.233   1.264   1.963
  231TIP3   OH2  631   2.615   2.538   1.973
  231TIP3    H1  632   2.609   2.554   1.878
  231TIP3    H2  633   2.695   2.584   2.000
  232TIP3   OH2  634   1.610   1.634   2.376
  232TIP3    H1  635   1.639   1.603   2.462
  232TIP3    H2  636   1.515   1.634   2.382
  233TIP3   OH2  637   2.648   1.645   1.671
  233TIP3    H1  638   2.620   1.690   1.592
  233TIP3    H2  639   2.574   1.591   1.697
  234TIP3   OH2  640   2.112   1.718   2.108
  234TIP3    H1  641   2.205   1.702   2.127
  234TIP3    H2  642   2.112   1.798   2.056
  235TIP3   OH2  643   2.046   1.422   2.337
  235TIP3    H1  644   2.006   1.361   2.274
  235TIP3    H2  645   2.140   1.408   2.326
  236TIP3   OH2  646   2.299   1.987   1.942
  236TIP3    H1  647   2.203   1.980   1.946
  236TIP3    H2  648   2.323   2.036   2.021
  237TIP3   OH2  649   2.924   1.923   1.929
  237TIP3    H1  650   2.831   1.905   1.937
  237TIP3    H2  651   2.948   1.889   1.843
  238TIP3   OH2  652   2.517   1.431   1.792
  238TIP3    H1  653   2.422   1.441   1.795
  238TIP3    H2  654   2.532   1.358   1.733
  239TIP3   OH2  655   1.811   2.007   1.880
  239TIP3    H1  656   1.815   2.074   1.811
  239TIP3    H2  657   1.900   1.973   1.887
  240TIP3   OH2  658   2.178   1.715   1.815
  240TIP3    H1  659   2.176   1.663   1.895
  240TIP3    H2  660   2.242   1.671   1.760
  241TIP3   OH2  661   2.420   2.231   1.842
  241TIP3    H1  662   2.347   2.170   1.839
  241TIP3    H2  663   2.399   2.298   1.778
  242TIP3   OH2  664   2.191   1.173   2.117
  242TIP3    H1  665   2.240   1.221   2.184
  242TIP3    H2  666   2.232   1.087   2.114
  243TIP3   OH2  667   2.823   1.034   2.066
  243TIP3    H1  668   2.728   1.029   2.062
  243TIP3    H2  669   2.851   1.034   1.974
  244TIP3   OH2  670   2.506   2.338   1.448
  244TIP3    H1  671   2.474   2.333   1.357
  244TIP3    H2  672   2.588   2.289   1.447
  245TIP3   OH2  673   1.247   2.253   2.381
  245TIP3    H1  674   1.327   2.259   2.433
  245TIP3    H2  675   1.236   2.160   2.363
  246TIP3   OH2  676   1.715   2.145   2.482
  246TIP3    H1  677   1.797   2.191   2.465
  246TIP3    H2  678   1.689   2.109   2.398
  247TIP3   OH2  679   2.332   2.101   2.190
  247TIP3    H1  680   2.333   2.025   2.247
  247TIP3    H2  681   2.415   2.146   2.209
  248TIP3   OH2  682   1.355   1.645   2.585
  248TIP3    H1  683   1.398   1.560   2.581
  248TIP3    H2  684   1.265   1.625   2.611
  249TIP3   OH2  685   1.916   1.654   2.291
  249TIP3    H1  686   1.976   1.702   2.234
  249TIP3    H2  687   1.965   1.577   2.318
  250TIP3   OH2  688   2.437   1.754   1.983
  250TIP3    H1  689   2.522   1.775   1.944
  250TIP3    H2  690   2.380   1.827   1.957
  251TIP3   OH2  691   1.516   1.421   2.576
  251TIP3    H1  692   1.523   1.330   2.548
  251TIP3    H2  693   1.527   1.418   2.671
  252TIP3   OH2  694   2.341   1.645   2.347
  252TIP3    H1  695   2.413   1.617   2.290
  252TIP3    H2  696   2.344   1.584   2.420
  253TIP3   OH2  697   2.561   1.327   2.412
  253TIP3    H1  698   2.596   1.238   2.403
  253TIP3    H2  699   2.633   1.384   2.388
  254TIP3   OH2  700   2.575   1.598   2.156
  254TIP3    H1  701   2.519   1.650   2.099
  254TIP3    H2  702   2.663   1.611   2.120
  255TIP3   OH2  703   1.812   1.126   2.611
  255TIP3    H1  704   1.736   1.146   2.666
  255TIP3    H2  705   1.777   1.071   2.541
  256TIP3   OH2  706   2.226   1.093   2.471
  256TIP3    H1  707   2.270   1.086   2.556
  256TIP3    H2  708   2.140   1.055   2.485
  257TIP3   OH2  709   2.446   1.045   2.296
  257TIP3    H1  710   2.371   1.042   2.356
  257TIP3    H2  711   2.520   1.015   2.348
  258TIP3   OH2  712   2.670   1.002   2.463
  258TIP3    H1  713   2.684   0.908   2.474
  258TIP3    H2  714   2.663   1.036   2.553
  259TIP3   OH2  715   2.233   0.801   2.642
  259TIP3    H1  716   2.210   0.736   2.575
  259TIP3    H2  717   2.156   0.857   2.648
  260TIP3   OH2  718   2.744   2.305   1.669
  260TIP3    H1  719   2.703   2.222   1.694
  260TIP3    H2  720   2.836   2.294   1.694
  261TIP3   OH2  721   2.786   1.987   2.234
  261TIP3    H1  722   2.721   1.996   2.304
  261TIP3    H2  723   2.832   2.070   2.233
  262TIP3   OH2  724   2.766   1.763   1.444
  262TIP3    H1  725   2.815   1.681   1.446
  262TIP3    H2  726   2.832   1.830   1.423
  263TIP3   OH2  727   2.615   2.063   1.740
  263TIP3    H1  728   2.534   2.109   1.762
  263TIP3    H2  729   2.614   2.057   1.644
  264TIP3   OH2  730   2.829   1.639   2.052
  264TIP3    H1  731   2.896   1.573   2.034
  264TIP3    H2  732   2.833   1.698   1.977
  265TIP3   OH2  733   3.003   1.427   2.049
  265TIP3    H1  734   2.931   1.382   2.094
  265TIP3    H2  735   3.082   1.386   2.082
  266TIP3   OH2  736   2.757   1.033   1.561
  266TIP3    H1  737   2.831   1.083   1.594
  266TIP3    H2  738   2.717   0.995   1.639
  267TIP3   OH2  739   2.794   1.282   1.857
  267TIP3    H1  740   2.708   1.293   1.899
  267TIP3    H2  741   2.802   1.359   1.801
  268TIP3   OH2  742   3.212   0.820   2.380
  268TIP3    H1  743   3.283   0.770   2.340
  268TIP3    H2  744   3.189   0.885   2.314
  269TIP3   OH2  745   3.092   0.982   2.187
  269TIP3    H1  746   3.018   1.025   2.230
  269TIP3    H2  747   3.052   0.921   2.125
  270TIP3   OH2  748   2.240   2.274   0.918
  270TIP3    H1  749   2.205   2.230   0.840
  270TIP3    H2  750   2.194   2.232   0.991
  271TIP3   OH2  751   1.377   1.956   2.419
  271TIP3    H1  752   1.318   1.882   2.404
  271TIP3    H2  753   1.378   1.967   2.514
  272TIP3   OH2  754   1.565   2.004   1.988
  272TIP3    H1  755   1.503   2.053   1.933
  272TIP3    H2  756   1.648   2.009   1.941
  273TIP3   OH2  757   2.006   2.250   2.090
  273TIP3    H1  758   2.042   2.243   2.178
  273TIP3    H2  759   2.073   2.298   2.041
  274TIP3   OH2  760   2.202   2.396   1.970
  274TIP3    H1  761   2.267   2.351   1.915
  274TIP3    H2  762   2.254   2.455   2.025
  275TIP3   OH2  763   2.979   0.746   2.060
  275TIP3    H1  764   2.891   0.750   2.022
  275TIP3    H2  765   3.003   0.654   2.055
  276TIP3   OH2  766   1.244   2.284   1.999
  276TIP3    H1  767   1.149   2.288   1.984
  276TIP3    H2  768   1.261   2.355   2.060
  277TIP3   OH2  769   1.470   2.247   1.857
  277TIP3    H1  770   1.398   2.258   1.919
  277TIP3    H2  771   1.443   2.296   1.779
  278TIP3   OH2  772   1.823   2.209   1.706
  278TIP3    H1  773   1.879   2.250   1.640
  278TIP3    H2  774   1.817   2.274   1.776
  279TIP3   OH2  775   2.164   2.180   1.727
  279TIP3    H1  776   2.071   2.196   1.712
  279TIP3    H2  777   2.208   2.226   1.655
  280TIP3   OH2  778   2.353   2.417   1.660
  280TIP3    H1  779   2.339   2.508   1.637
  280TIP3    H2  780   2.394   2.378   1.583
  281TIP3   OH2  781   2.740   0.735   2.506
  281TIP3    H1  782   2.766   0.685   2.583
  281TIP3    H2  783   2.814   0.726   2.446
  282TIP3   OH2  784   2.659   2.266   1.991
  282TIP3    H1  785   2.584   2.233   1.942
  282TIP3    H2  786   2.648   2.361   1.990
  283TIP3   OH2  787   3.950   1.683   0.825
  283TIP3    H1  788   3.909   1.765   0.800
  283TIP3    H2  789   3.889   1.644   0.888
  284TIP3   OH2  790   3.949   1.629   1.133
  284TIP3    H1  791   3.976   1.625   1.224
  284TIP3    H2  792   3.854   1.630   1.135
  285TIP3   OH2  793   3.274   1.606   1.580
  285TIP3    H1  794   3.290   1.519   1.617
  285TIP3    H2  795   3.351   1.622   1.525
  286TIP3   OH2  796   4.194   1.944   0.833
  286TIP3    H1  797   4.182   1.882   0.905
  286TIP3    H2  798   4.222   2.025   0.875
  287TIP3   OH2  799   3.210   1.976   1.231
  287TIP3    H1  800   3.167   1.892   1.243
  287TIP3    H2  801   3.303   1.955   1.223
  288TIP3   OH2  802   3.019   1.410   1.105
  288TIP3    H1  803   3.053   1.341   1.162
  288TIP3    H2  804   2.949   1.451   1.155
  289TIP3   OH2  805   3.825   2.404   0.844
  289TIP3    H1  806   3.873   2.343   0.787
  289TIP3    H2  807   3.830   2.364   0.931
  290TIP3   OH2  808   3.726   1.866   1.168
  290TIP3    H1  809   3.744   1.811   1.091
  290TIP3    H2  810   3.811   1.902   1.192
  291TIP3   OH2  811   4.768   1.188   1.161
  291TIP3    H1  812   4.786   1.271   1.205
  291TIP3    H2  813   4.803   1.200   1.073
  292TIP3   OH2  814   4.198   1.385   1.216
  292TIP3    H1  815   4.225   1.296   1.238
  292TIP3    H2  816   4.169   1.380   1.125
  293TIP3   OH2  817   3.564   1.092   1.126
  293TIP3    H1  818   3.471   1.072   1.126
  293TIP3    H2  819   3.583   1.115   1.217
  294TIP3   OH2  820   4.254   1.192   0.839
  294TIP3    H1  821   4.305   1.157   0.913
  294TIP3    H2  822   4.320   1.218   0.775
  295TIP3   OH2  823   3.153   1.206   1.231
  295TIP3    H1  824   3.168   1.229   1.323
  295TIP3    H2  825   3.078   1.148   1.233
  296TIP3   OH2  826   3.586   1.468   1.143
  296TIP3    H1  827   3.658   1.444   1.201
  296TIP3    H2  828   3.592   1.407   1.070
  297TIP3   OH2  829   4.827   1.398   1.340
  297TIP3    H1  830   4.741   1.439   1.330
  297TIP3    H2  831   4.863   1.438   1.420
  298TIP3   OH2  832   3.468   1.015   1.625
  298TIP3    H1  833   3.469   0.922   1.648
  298TIP3    H2  834   3.414   1.055   1.693
  299TIP3   OH2  835   3.826   1.892   0.679
  299TIP3    H1  836   3.908   1.925   0.644
  299TIP3    H2  837   3.774   1.971   0.696
  300TIP3   OH2  838   3.622   1.817   1.425
  300TIP3    H1  839   3.543   1.871   1.437
  300TIP3    H2  840   3.651   1.837   1.336
  301TIP3   OH2  841   4.413   1.126   1.045
  301TIP3    H1  842   4.367   1.124   1.129
  301TIP3    H2  843   4.466   1.205   1.049
  302TIP3   OH2  844   3.348   1.013   1.381
  302TIP3    H1  845   3.408   1.034   1.453
  302TIP3    H2  846   3.358   1.085   1.319
  303TIP3   OH2  847   3.412   1.989   1.488
  303TIP3    H1  848   3.401   2.078   1.453
  303TIP3    H2  849   3.332   1.973   1.538
  304TIP3   OH2  850   4.235   2.192   0.958
  304TIP3    H1  851   4.148   2.185   0.996
  304TIP3    H2  852   4.235   2.277   0.914
  305TIP3   OH2  853   4.580   1.101   1.353
  305TIP3    H1  854   4.488   1.117   1.333
  305TIP3    H2  855   4.626   1.123   1.272
  306TIP3   OH2  856   3.838   0.661   1.241
  306TIP3    H1  857   3.892   0.606   1.298
  306TIP3    H2  858   3.771   0.697   1.300
  307TIP3   OH2  859   3.959   2.253   0.661
  307TIP3    H1  860   3.994   2.165   0.649
  307TIP3    H2  861   4.022   2.310   0.617
  308TIP3   OH2  862   4.059   2.005   0.609
  308TIP3    H1  863   4.116   1.994   0.533
  308TIP3    H2  864   4.116   1.987   0.684
  309TIP3   OH2  865   4.468   2.094   1.311
  309TIP3    H1  866   4.458   2.019   1.254
  309TIP3    H2  867   4.452   2.170   1.255
  310TIP3   OH2  868   3.749   1.583   0.567
  310TIP3    H1  869   3.659   1.592   0.534
  310TIP3    H2  870   3.799   1.553   0.491
  311TIP3   OH2  871   4.660   1.741   1.164
  311TIP3    H1  872   4.576   1.787   1.166
  311TIP3    H2  873   4.693   1.754   1.076
  312TIP3   OH2  874   4.111   1.477   0.654
  312TIP3    H1  875   4.076   1.566   0.649
  312TIP3    H2  876   4.180   1.476   0.587
  313TIP3   OH2  877   4.347   1.608   1.472
  313TIP3    H1  878   4.346   1.690   1.522
  313TIP3    H2  879   4.266   1.611   1.420
  314TIP3   OH2  880   3.395   1.480   0.880
  314TIP3    H1  881   3.319   1.517   0.836
  314TIP3    H2  882   3.361   1.443   0.961
  315TIP3   OH2  883   3.494   2.013   1.107
  315TIP3    H1  884   3.507   2.002   1.013
  315TIP3    H2  885   3.565   1.964   1.147
  316TIP3   OH2  886   3.485   1.559   1.391
  316TIP3    H1  887   3.509   1.521   1.307
  316TIP3    H2  888   3.503   1.652   1.381
  317TIP3   OH2  889   3.996   2.181   1.088
  317TIP3    H1  890   3.986   2.261   1.139
  317TIP3    H2  891   3.982   2.110   1.151
  318TIP3   OH2  892   3.619   2.093   1.639
  318TIP3    H1  893   3.559   2.152   1.684
  318TIP3    H2  894   3.562   2.038   1.585
  319TIP3   OH2  895   3.945   1.471   0.403
  319TIP3    H1  896   3.995   1.544   0.438
  319TIP3    H2  897   3.977   1.461   0.313
  320TIP3   OH2  898   3.399   1.660   1.819
  320TIP3    H1  899   3.398   1.754   1.840
  320TIP3    H2  900   3.332   1.650   1.752
  321TIP3   OH2  901   3.710   2.135   0.678
  321TIP3    H1  902   3.786   2.191   0.665
  321TIP3    H2  903   3.640   2.176   0.627
  322TIP3   OH2  904   3.409   2.251   1.724
  322TIP3    H1  905   3.383   2.259   1.632
  322TIP3    H2  906   3.327   2.234   1.770
  323TIP3   OH2  907   7.133   6.075   6.926
  323TIP3    H1  908   7.135   6.165   6.894
  323TIP3    H2  909   7.224   6.047   6.924
  324TIP3   OH2  910   3.000   1.806   1.699
  324TIP3    H1  911   2.973   1.769   1.615
  324TIP3    H2  912   3.040   1.732   1.745
  325TIP3   OH2  913   2.932   1.969   1.376
  325TIP3    H1  914   2.924   1.982   1.281
  325TIP3    H2  915   2.988   2.040   1.406
  326TIP3   OH2  916   4.704   2.447   1.369
  326TIP3    H1  917   4.708   2.352   1.381
  326TIP3    H2  918   4.623   2.473   1.412
  327TIP3   OH2  919   3.808   2.228   1.495
  327TIP3    H1  920   3.805   2.319   1.524
  327TIP3    H2  921   3.741   2.184   1.547
  328TIP3   OH2  922   3.672   2.404   0.510
  328TIP3    H1  923   3.603   2.383   0.447
  328TIP3    H2  924   3.641   2.484   0.553
  329TIP3   OH2  925   2.995   2.229   0.799
  329TIP3    H1  926   3.051   2.185   0.863
  329TIP3    H2  927   2.938   2.159   0.766
  330TIP3   OH2  928   3.772   2.271   0.131
  330TIP3    H1  929   3.829   2.205   0.091
  330TIP3    H2  930   3.807   2.284   0.218
  331TIP3   OH2  931   3.890   2.328   0.371
  331TIP3    H1  932   3.819   2.346   0.432
  331TIP3    H2  933   3.970   2.346   0.421
  332TIP3   OH2  934   4.589   1.564   1.643
  332TIP3    H1  935   4.510   1.580   1.591
  332TIP3    H2  936   4.608   1.471   1.629
  333TIP3   OH2  937   3.192   1.998   1.654
  333TIP3    H1  938   3.245   1.989   1.733
  333TIP3    H2  939   3.122   1.933   1.665
  334TIP3   OH2  940   3.653   0.785   1.424
  334TIP3    H1  941   3.561   0.769   1.405
  334TIP3    H2  942   3.659   0.782   1.520
  335TIP3   OH2  943   4.131   0.923   1.664
  335TIP3    H1  944   4.197   0.894   1.726
  335TIP3    H2  945   4.047   0.901   1.706
  336TIP3   OH2  946   4.358   1.344   1.566
  336TIP3    H1  947   4.314   1.348   1.651
  336TIP3    H2  948   4.339   1.429   1.527
  337TIP3   OH2  949   4.071   1.473   0.143
  337TIP3    H1  950   3.996   1.458   0.085
  337TIP3    H2  951   4.096   1.564   0.127
  338TIP3   OH2  952   3.581   1.357   1.550
  338TIP3    H1  953   3.510   1.362   1.614
  338TIP3    H2  954   3.572   1.437   1.498
  339TIP3   OH2  955   3.402   1.194   0.912
  339TIP3    H1  956   3.320   1.173   0.957
  339TIP3    H2  957   3.465   1.130   0.946
  340TIP3   OH2  958   3.901   1.355   0.765
  340TIP3    H1  959   3.837   1.351   0.693
  340TIP3    H2  960   3.978   1.397   0.727
  341TIP3   OH2  961   4.080   1.569   1.811
  341TIP3    H1  962   4.052   1.498   1.869
  341TIP3    H2  963   4.174   1.578   1.829
  342TIP3   OH2  964   4.171   1.432   0.912
  342TIP3    H1  965   4.147   1.469   0.827
  342TIP3    H2  966   4.192   1.341   0.893
  343TIP3   OH2  967   3.360   1.374   1.714
  343TIP3    H1  968   3.377   1.419   1.797
  343TIP3    H2  969   3.333   1.286   1.740
  344TIP3   OH2  970   4.074   1.571   1.369
  344TIP3    H1  971   4.117   1.509   1.310
  344TIP3    H2  972   4.055   1.520   1.448
  345TIP3   OH2  973   3.842   1.058   1.040
  345TIP3    H1  974   3.756   1.043   1.079
  345TIP3    H2  975   3.900   0.998   1.088
  346TIP3   OH2  976   4.308   1.116   1.307
  346TIP3    H1  977   4.245   1.134   1.376
  346TIP3    H2  978   4.274   1.039   1.262
  347TIP3   OH2  979   4.410   2.791   1.461
  347TIP3    H1  980   4.405   2.810   1.368
  347TIP3    H2  981   4.489   2.837   1.491
  348TIP3   OH2  982   3.356   1.922   1.887
  348TIP3    H1  983   3.437   1.945   1.933
  348TIP3    H2  984   3.288   1.924   1.954
  349TIP3   OH2  985   3.794   1.365   1.270
  349TIP3    H1  986   3.859   1.345   1.202
  349TIP3    H2  987   3.821   1.314   1.346
  350TIP3   OH2  988   3.833   1.267   1.518
  350TIP3    H1  989   3.750   1.315   1.527
  350TIP3    H2  990   3.900   1.331   1.542
  351TIP3   OH2  991   3.397   1.593   0.556
  351TIP3    H1  992   3.365   1.635   0.475
  351TIP3    H2  993   3.413   1.666   0.615
  352TIP3   OH2  994   4.429   1.890   1.136
  352TIP3    H1  995   4.464   1.933   1.059
  352TIP3    H2  996   4.343   1.858   1.109
  353TIP3   OH2  997   3.936   1.961   1.526
  353TIP3    H1  998   3.977   1.952   1.612
  353TIP3    H2  999   3.889   2.045   1.531
  354TIP3   OH2 1000   4.023   1.230   0.521
  354TIP3    H1 1001   4.115   1.206   0.506
  354TIP3    H2 1002   4.020   1.324   0.508
  355TIP3   OH2 1003   3.133   1.704   1.251
  355TIP3    H1 1004   3.088   1.685   1.169
  355TIP3    H2 1005   3.160   1.619   1.285
  356TIP3   OH2 1006   3.665   1.662   0.295
  356TIP3    H1 1007   3.615   1.740   0.319
  356TIP3    H2 1008   3.612   1.589   0.328
  357TIP3   OH2 1009   3.095   1.596   1.840
  357TIP3    H1 1010   3.144   1.597   1.923
  357TIP3    H2 1011   3.040   1.518   1.846
  358TIP3   OH2 1012   3.849   1.721   1.836
  358TIP3    H1 1013   3.782   1.658   1.810
  358TIP3    H2 1014   3.931   1.681   1.807
  359TIP3   OH2 1015   4.079   2.235   1.417
  359TIP3    H1 1016   3.984   2.226   1.425
  359TIP3    H2 1017   4.106   2.281   1.497
  360TIP3   OH2 1018   4.455   1.345   0.294
  360TIP3    H1 1019   4.425   1.286   0.225
  360TIP3    H2 1020   4.476   1.427   0.248
  361TIP3   OH2 1021   4.718   2.161   1.398
  361TIP3    H1 1022   4.623   2.153   1.393
  361TIP3    H2 1023   4.749   2.131   1.312
  362TIP3   OH2 1024   4.173   2.142   0.217
  362TIP3    H1 1025   4.179   2.072   0.281
  362TIP3    H2 1026   4.211   2.106   0.137
  363TIP3   OH2 1027   4.182   1.776   1.057
  363TIP3    H1 1028   4.098   1.730   1.064
  363TIP3    H2 1029   4.245   1.707   1.038
  364TIP3   OH2 1030   3.267   1.925   0.797
  364TIP3    H1 1031   3.334   1.985   0.829
  364TIP3    H2 1032   3.204   1.919   0.869
  365TIP3   OH2 1033   3.507   1.746   0.778
  365TIP3    H1 1034   3.477   1.833   0.805
  365TIP3    H2 1035   3.454   1.685   0.829
  366TIP3   OH2 1036   3.624   2.313   1.298
  366TIP3    H1 1037   3.663   2.386   1.250
  366TIP3    H2 1038   3.697   2.274   1.347
  367TIP3   OH2 1039   3.259   2.269   0.725
  367TIP3    H1 1040   3.166   2.286   0.740
  367TIP3    H2 1041   3.298   2.356   0.714
  368TIP3   OH2 1042   3.976   1.950   1.253
  368TIP3    H1 1043   3.969   1.949   1.348
  368TIP3    H2 1044   4.059   1.907   1.234
  369TIP3   OH2 1045   4.028   1.853   0.079
  369TIP3    H1 1046   4.061   1.808   0.157
  369TIP3    H2 1047   3.933   1.851   0.088
  370TIP3   OH2 1048   4.228   2.472   1.299
  370TIP3    H1 1049   4.153   2.413   1.303
  370TIP3    H2 1050   4.208   2.531   1.227
  371TIP3   OH2 1051   7.125   6.342   6.876
  371TIP3    H1 1052   7.181   6.417   6.857
  371TIP3    H2 1053   7.040   6.380   6.899
  372TIP3   OH2 1054   3.306   1.108   1.828
  372TIP3    H1 1055   3.212   1.123   1.837
  372TIP3    H2 1056   3.330   1.056   1.904
  373TIP3   OH2 1057   4.200   1.937   0.392
  373TIP3    H1 1058   4.148   1.866   0.355
  373TIP3    H2 1059   4.290   1.904   0.391
  374TIP3   OH2 1060   3.040   2.195   1.496
  374TIP3    H1 1061   3.100   2.145   1.551
  374TIP3    H2 1062   3.069   2.286   1.505
  375TIP3   OH2 1063   3.292   1.753   0.347
  375TIP3    H1 1064   3.237   1.775   0.422
  375TIP3    H2 1065   3.337   1.835   0.325
  376TIP3   OH2 1066   4.150   1.158   1.529
  376TIP3    H1 1067   4.232   1.200   1.556
  376TIP3    H2 1068   4.142   1.081   1.585
  377TIP3   OH2 1069   4.006   0.829   0.607
  377TIP3    H1 1070   3.962   0.828   0.522
  377TIP3    H2 1071   4.053   0.912   0.609
  378TIP3   OH2 1072   3.569   2.169   0.325
  378TIP3    H1 1073   3.541   2.175   0.416
  378TIP3    H2 1074   3.660   2.139   0.329
  379TIP3   OH2 1075   3.605   1.139   0.736
  379TIP3    H1 1076   3.692   1.164   0.705
  379TIP3    H2 1077   3.620   1.062   0.790
  380TIP3   OH2 1078   4.042   1.418   1.587
  380TIP3    H1 1079   4.058   1.466   1.668
  380TIP3    H2 1080   4.086   1.334   1.600
  381TIP3   OH2 1081   3.918   0.827   0.870
  381TIP3    H1 1082   3.852   0.878   0.917
  381TIP3    H2 1083   3.914   0.860   0.780
  382TIP3   OH2 1084   3.284   2.067   0.400
  382TIP3    H1 1085   3.263   2.148   0.353
  382TIP3    H2 1086   3.210   2.054   0.459
  383TIP3   OH2 1087   4.624   1.295   1.562
  383TIP3    H1 1088   4.528   1.300   1.569
  383TIP3    H2 1089   4.640   1.242   1.484
  384TIP3   OH2 1090   4.368   1.579   1.004
  384TIP3    H1 1091   4.290   1.528   0.983
  384TIP3    H2 1092   4.429   1.515   1.040
  385TIP3   OH2 1093   4.254   2.457   0.874
  385TIP3    H1 1094   4.211   2.507   0.805
  385TIP3    H2 1095   4.347   2.476   0.863
  386TIP3   OH2 1096   3.112   0.638   1.528
  386TIP3    H1 1097   3.145   0.667   1.443
  386TIP3    H2 1098   3.191   0.618   1.578
  387TIP3   OH2 1099   2.797   2.024   0.828
  387TIP3    H1 1100   2.719   1.979   0.861
  387TIP3    H2 1101   2.801   2.001   0.735
  388TIP3   OH2 1102   3.038   2.496   1.871
  388TIP3    H1 1103   3.122   2.501   1.917
  388TIP3    H2 1104   3.018   2.403   1.866
  389TIP3   OH2 1105   3.506   2.424   1.915
  389TIP3    H1 1106   3.600   2.407   1.924
  389TIP3    H2 1107   3.478   2.366   1.844
  390TIP3   OH2 1108   3.460   1.964   0.012
  390TIP3    H1 1109   3.488   1.922   0.093
  390TIP3    H2 1110   3.498   1.911  -0.057
  391TIP3   OH2 1111   4.133   2.355   1.660
  391TIP3    H1 1112   4.140   2.285   1.725
  391TIP3    H2 1113   4.208   2.411   1.676
  392TIP3   OH2 1114   6.768   6.110   6.945
  392TIP3    H1 1115   6.829   6.042   6.971
  392TIP3    H2 1116   6.793   6.132   6.855
  393TIP3   OH2 1117   3.155   1.894   2.075
  393TIP3    H1 1118   3.168   1.799   2.086
  393TIP3    H2 1119   3.069   1.902   2.033
  394TIP3   OH2 1120   3.768   1.987   1.844
  394TIP3    H1 1121   3.726   2.006   1.760
  394TIP3    H2 1122   3.806   1.900   1.833
  395TIP3   OH2 1123   3.543   1.628   0.043
  395TIP3    H1 1124   3.584   1.645   0.128
  395TIP3    H2 1125   3.451   1.652   0.056
  396TIP3   OH2 1126   4.247   2.010   1.454
  396TIP3    H1 1127   4.324   2.044   1.409
  396TIP3    H2 1128   4.179   2.077   1.439
  397TIP3   OH2 1129   3.261   1.625   2.065
  397TIP3    H1 1130   3.335   1.626   2.004
  397TIP3    H2 1131   3.298   1.651   2.149
  398TIP3   OH2 1132   3.647   1.549   1.760
  398TIP3    H1 1133   3.564   1.595   1.772
  398TIP3    H2 1134   3.674   1.570   1.670
  399TIP3   OH2 1135   4.128   1.904   1.829
  399TIP3    H1 1136   4.195   1.864   1.773
  399TIP3    H2 1137   4.121   1.845   1.904
  400TIP3   OH2 1138   7.202   5.647   6.880
  400TIP3    H1 1139   7.232   5.598   6.803
  400TIP3    H2 1140   7.108   5.654   6.868
  401TIP3   OH2 1141   3.737   1.309   1.855
  401TIP3    H1 1142   3.731   1.233   1.797
  401TIP3    H2 1143   3.708   1.383   1.801
  402TIP3   OH2 1144   3.725   1.090   1.689
  402TIP3    H1 1145   3.765   1.139   1.617
  402TIP3    H2 1146   3.633   1.079   1.662
  403TIP3   OH2 1147   3.772   1.615   1.526
  403TIP3    H1 1148   3.861   1.629   1.495
  403TIP3    H2 1149   3.723   1.691   1.492
  404TIP3   OH2 1150   4.346   1.588   1.891
  404TIP3    H1 1151   4.391   1.504   1.894
  404TIP3    H2 1152   4.414   1.650   1.863
  405TIP3   OH2 1153   4.374   1.844   1.625
  405TIP3    H1 1154   4.318   1.902   1.573
  405TIP3    H2 1155   4.463   1.861   1.593
  406TIP3   OH2 1156   3.611   1.400   2.082
  406TIP3    H1 1157   3.545   1.333   2.099
  406TIP3    H2 1158   3.645   1.378   1.996
  407TIP3   OH2 1159   3.876   0.882   1.769
  407TIP3    H1 1160   3.828   0.962   1.748
  407TIP3    H2 1161   3.828   0.812   1.725
  408TIP3   OH2 1162   3.996   1.344   1.942
  408TIP3    H1 1163   3.988   1.329   2.037
  408TIP3    H2 1164   3.908   1.326   1.908
  409TIP3   OH2 1165   4.229   1.301   1.799
  409TIP3    H1 1166   4.152   1.301   1.856
  409TIP3    H2 1167   4.301   1.271   1.855
  410TIP3   OH2 1168   4.455   1.246   1.949
  410TIP3    H1 1169   4.470   1.152   1.957
  410TIP3    H2 1170   4.453   1.278   2.039
  411TIP3   OH2 1171   3.455   1.180   2.149
  411TIP3    H1 1172   3.458   1.089   2.119
  411TIP3    H2 1173   3.492   1.177   2.237
  412TIP3   OH2 1174   3.942   0.835   2.024
  412TIP3    H1 1175   4.010   0.769   2.014
  412TIP3    H2 1176   3.914   0.854   1.934
  413TIP3   OH2 1177   4.027   1.068   2.141
  413TIP3    H1 1178   4.001   0.990   2.092
  413TIP3    H2 1179   3.950   1.126   2.138
  414TIP3   OH2 1180   3.220   2.281   0.252
  414TIP3    H1 1181   3.276   2.290   0.174
  414TIP3    H2 1182   3.136   2.317   0.225
  415TIP3   OH2 1183   2.519   2.186   0.828
  415TIP3    H1 1184   2.469   2.236   0.763
  415TIP3    H2 1185   2.595   2.242   0.847
  416TIP3   OH2 1186   4.514   2.538   0.858
  416TIP3    H1 1187   4.544   2.569   0.943
  416TIP3    H2 1188   4.580   2.570   0.796
  417TIP3   OH2 1189   4.540   2.554   1.145
  417TIP3    H1 1190   4.496   2.470   1.135
  417TIP3    H2 1191   4.615   2.536   1.201
  418TIP3   OH2 1192   4.591   2.241   1.718
  418TIP3    H1 1193   4.519   2.250   1.780
  418TIP3    H2 1194   4.636   2.325   1.719
  419TIP3   OH2 1195   4.423   1.780   0.348
  419TIP3    H1 1196   4.487   1.842   0.313
  419TIP3    H2 1197   4.469   1.734   0.419
  420TIP3   OH2 1198   4.554   1.634   0.532
  420TIP3    H1 1199   4.504   1.604   0.608
  420TIP3    H2 1200   4.634   1.672   0.570
  421TIP3   OH2 1201   4.597   2.014   0.955
  421TIP3    H1 1202   4.647   1.944   0.914
  421TIP3    H2 1203   4.602   2.087   0.894
  422TIP3   OH2 1204   4.403   2.308   1.152
  422TIP3    H1 1205   4.335   2.354   1.201
  422TIP3    H2 1206   4.357   2.266   1.079
  423TIP3   OH2 1207   4.494   1.580   0.168
  423TIP3    H1 1208   4.453   1.605   0.085
  423TIP3    H2 1209   4.479   1.655   0.226
  424TIP3   OH2 1210   4.220   1.142   0.147
  424TIP3    H1 1211   4.251   1.214   0.093
  424TIP3    H2 1212   4.126   1.159   0.157
  425TIP3   OH2 1213   4.403   1.528   0.723
  425TIP3    H1 1214   4.402   1.432   0.714
  425TIP3    H2 1215   4.396   1.543   0.817
  426TIP3   OH2 1216   3.010   1.631   1.490
  426TIP3    H1 1217   3.025   1.668   1.404
  426TIP3    H2 1218   3.098   1.618   1.526
  427TIP3   OH2 1219   4.628   1.899   1.529
  427TIP3    H1 1220   4.695   1.832   1.511
  427TIP3    H2 1221   4.646   1.968   1.465
  428TIP3   OH2 1222   4.803   1.688   1.524
  428TIP3    H1 1223   4.729   1.646   1.568
  428TIP3    H2 1224   4.878   1.631   1.545
  429TIP3   OH2 1225   4.404   1.265   0.630
  429TIP3    H1 1226   4.488   1.222   0.620
  429TIP3    H2 1227   4.356   1.246   0.549
  430TIP3   OH2 1228   4.525   1.368   1.084
  430TIP3    H1 1229   4.606   1.388   1.038
  430TIP3    H2 1230   4.538   1.402   1.172
  431TIP3   OH2 1231   4.576   1.520   1.308
  431TIP3    H1 1232   4.495   1.548   1.352
  431TIP3    H2 1233   4.605   1.597   1.261
  432TIP3   OH2 1234   3.190   1.237   2.121
  432TIP3    H1 1235   3.286   1.233   2.128
  432TIP3    H2 1236   3.160   1.155   2.159
  433TIP3   OH2 1237   5.016   1.090   1.856
  433TIP3    H1 1238   5.084   1.043   1.807
  433TIP3    H2 1239   4.988   1.160   1.797
  434TIP3   OH2 1240   4.444   0.963   0.672
  434TIP3    H1 1241   4.500   0.990   0.744
  434TIP3    H2 1242   4.407   0.879   0.700
  435TIP3   OH2 1243   3.151   0.917   1.589
  435TIP3    H1 1244   3.120   0.840   1.541
  435TIP3    H2 1245   3.233   0.941   1.547
  436TIP3   OH2 1246   2.950   1.216   1.609
  436TIP3    H1 1247   2.939   1.264   1.527
  436TIP3    H2 1248   2.927   1.280   1.677
  437TIP3   OH2 1249   4.874   1.233   1.663
  437TIP3    H1 1250   4.788   1.273   1.659
  437TIP3    H2 1251   4.867   1.154   1.610
  438TIP3   OH2 1252   4.113   2.413   0.504
  438TIP3    H1 1253   4.167   2.419   0.425
  438TIP3    H2 1254   4.140   2.488   0.558
  439TIP3   OH2 1255   3.179   0.795   1.867
  439TIP3    H1 1256   3.109   0.785   1.932
  439TIP3    H2 1257   3.137   0.830   1.790
  440TIP3   OH2 1258   3.187   2.216   1.888
  440TIP3    H1 1259   3.093   2.200   1.881
  440TIP3    H2 1260   3.205   2.210   1.982
  441TIP3   OH2 1261   3.394   2.263   1.443
  441TIP3    H1 1262   3.343   2.339   1.415
  441TIP3    H2 1263   3.479   2.275   1.402
  442TIP3   OH2 1264   3.799   2.496   1.573
  442TIP3    H1 1265   3.837   2.490   1.661
  442TIP3    H2 1266   3.862   2.547   1.523
  443TIP3   OH2 1267   3.989   2.649   1.444
  443TIP3    H1 1268   4.054   2.598   1.395
  443TIP3    H2 1269   4.040   2.707   1.500
  444TIP3   OH2 1270   4.804   0.993   1.542
  444TIP3    H1 1271   4.717   0.984   1.503
  444TIP3    H2 1272   4.842   0.906   1.537
  445TIP3   OH2 1273   3.051   2.493   1.486
  445TIP3    H1 1274   2.962   2.516   1.459
  445TIP3    H2 1275   3.076   2.561   1.549
  446TIP3   OH2 1276   3.291   2.500   1.345
  446TIP3    H1 1277   3.203   2.498   1.382
  446TIP3    H2 1278   3.279   2.533   1.256
  447TIP3   OH2 1279   3.709   2.513   1.127
  447TIP3    H1 1280   3.644   2.526   1.058
  447TIP3    H2 1281   3.721   2.600   1.166
  448TIP3   OH2 1282   3.971   2.446   1.172
  448TIP3    H1 1283   3.879   2.468   1.157
  448TIP3    H2 1284   4.021   2.514   1.127
  449TIP3   OH2 1285   4.166   2.626   1.075
  449TIP3    H1 1286   4.162   2.713   1.036
  449TIP3    H2 1287   4.198   2.570   1.004
  450TIP3   OH2 1288   2.939   2.323   1.245
  450TIP3    H1 1289   2.943   2.308   1.339
  450TIP3    H2 1290   3.026   2.299   1.213
  451TIP3   OH2 1291   3.196   2.245   1.225
  451TIP3    H1 1292   3.207   2.155   1.256
  451TIP3    H2 1293   3.285   2.274   1.205
  452TIP3   OH2 1294   3.443   2.281   1.094
  452TIP3    H1 1295   3.450   2.186   1.088
  452TIP3    H2 1296   3.506   2.304   1.163
  453TIP3   OH2 1297   3.992   0.867   1.165
  453TIP3    H1 1298   3.946   0.784   1.175
  453TIP3    H2 1299   4.072   0.857   1.216
  454TIP3   OH2 1300   4.563   0.861   1.120
  454TIP3    H1 1301   4.593   0.926   1.057
  454TIP3    H2 1302   4.473   0.887   1.140
  455TIP3   OH2 1303   4.626   0.986   0.882
  455TIP3    H1 1304   4.684   0.914   0.856
  455TIP3    H2 1305   4.669   1.064   0.848
  456TIP3   OH2 1306   3.723   0.622   0.987
  456TIP3    H1 1307   3.630   0.602   0.982
  456TIP3    H2 1308   3.732   0.679   1.063
  457TIP3   OH2 1309   4.291   0.886   1.150
  457TIP3    H1 1310   4.256   0.926   1.071
  457TIP3    H2 1311   4.275   0.792   1.140
  458TIP3   OH2 1312   4.264   0.741   0.639
  458TIP3    H1 1313   4.172   0.767   0.627
  458TIP3    H2 1314   4.259   0.669   0.702
  459TIP3   OH2 1315   3.469   2.328   0.128
  459TIP3    H1 1316   3.527   2.366   0.062
  459TIP3    H2 1317   3.525   2.269   0.179
  460TIP3   OH2 1318   4.230   2.402   0.253
  460TIP3    H1 1319   4.215   2.308   0.247
  460TIP3    H2 1320   4.190   2.438   0.173
  461TIP3   OH2 1321   3.467   0.911   2.096
  461TIP3    H1 1322   3.429   0.840   2.148
  461TIP3    H2 1323   3.559   0.912   2.120
  462TIP3   OH2 1324   3.723   0.897   2.184
  462TIP3    H1 1325   3.800   0.879   2.130
  462TIP3    H2 1326   3.721   0.826   2.248
  463TIP3   OH2 1327   4.530   0.979   1.965
  463TIP3    H1 1328   4.547   0.950   2.054
  463TIP3    H2 1329   4.615   0.972   1.921
  464TIP3   OH2 1330   4.452   2.517   1.465
  464TIP3    H1 1331   4.378   2.487   1.412
  464TIP3    H2 1332   4.440   2.612   1.471
  465TIP3   OH2 1333   5.665   1.896   0.301
  465TIP3    H1 1334   5.650   1.982   0.261
  465TIP3    H2 1335   5.643   1.834   0.231
  466TIP3   OH2 1336   5.720   1.939   0.640
  466TIP3    H1 1337   5.755   1.889   0.714
  466TIP3    H2 1338   5.688   1.873   0.579
  467TIP3   OH2 1339   5.025   1.765   0.982
  467TIP3    H1 1340   5.065   1.710   1.049
  467TIP3    H2 1341   5.098   1.791   0.925
  468TIP3   OH2 1342   4.994   2.195   0.701
  468TIP3    H1 1343   4.961   2.106   0.705
  468TIP3    H2 1344   5.072   2.190   0.646
  469TIP3   OH2 1345   4.713   1.422   0.449
  469TIP3    H1 1346   4.659   1.499   0.469
  469TIP3    H2 1347   4.660   1.347   0.478
  470TIP3   OH2 1348   4.787   1.706   0.654
  470TIP3    H1 1349   4.835   1.628   0.681
  470TIP3    H2 1350   4.855   1.772   0.638
  471TIP3   OH2 1351   5.615   2.681   0.327
  471TIP3    H1 1352   5.650   2.602   0.286
  471TIP3    H2 1353   5.581   2.651   0.412
  472TIP3   OH2 1354   5.586   2.175   0.617
  472TIP3    H1 1355   5.546   2.148   0.534
  472TIP3    H2 1356   5.641   2.101   0.642
  473TIP3   OH2 1357   5.937   1.619   0.677
  473TIP3    H1 1358   5.964   1.533   0.710
  473TIP3    H2 1359   5.880   1.600   0.602
  474TIP3   OH2 1360   5.266   1.283   0.661
  474TIP3    H1 1361   5.254   1.345   0.590
  474TIP3    H2 1362   5.249   1.197   0.622
  475TIP3   OH2 1363   4.914   1.481   0.755
  475TIP3    H1 1364   4.994   1.467   0.806
  475TIP3    H2 1365   4.927   1.427   0.677
  476TIP3   OH2 1366   5.336   1.674   0.591
  476TIP3    H1 1367   5.431   1.668   0.597
  476TIP3    H2 1368   5.310   1.592   0.549
  477TIP3   OH2 1369   6.530   1.623   0.844
  477TIP3    H1 1370   6.457   1.685   0.838
  477TIP3    H2 1371   6.592   1.665   0.904
  478TIP3   OH2 1372   5.267   1.274   1.095
  478TIP3    H1 1373   5.219   1.319   1.025
  478TIP3    H2 1374   5.216   1.291   1.174
  479TIP3   OH2 1375   5.581   2.104   0.138
  479TIP3    H1 1376   5.570   2.085   0.045
  479TIP3    H2 1377   5.544   2.192   0.149
  480TIP3   OH2 1378   5.384   2.050   0.856
  480TIP3    H1 1379   5.317   2.104   0.899
  480TIP3    H2 1380   5.457   2.110   0.840
  481TIP3   OH2 1381   5.147   1.393   0.879
  481TIP3    H1 1382   5.203   1.468   0.899
  481TIP3    H2 1383   5.189   1.351   0.803
  482TIP3   OH2 1384   5.214   2.231   0.971
  482TIP3    H1 1385   5.197   2.318   0.934
  482TIP3    H2 1386   5.136   2.211   1.023
  483TIP3   OH2 1387   4.604   1.943   0.237
  483TIP3    H1 1388   4.581   1.959   0.146
  483TIP3    H2 1389   4.638   2.027   0.269
  484TIP3   OH2 1390   6.034   2.467   0.444
  484TIP3    H1 1391   6.027   2.407   0.369
  484TIP3    H2 1392   6.018   2.553   0.406
  485TIP3   OH2 1393   5.728   2.492   0.162
  485TIP3    H1 1394   5.795   2.424   0.163
  485TIP3    H2 1395   5.768   2.564   0.112
  486TIP3   OH2 1396   6.228   2.351   0.810
  486TIP3    H1 1397   6.231   2.275   0.751
  486TIP3    H2 1398   6.226   2.427   0.752
  487TIP3   OH2 1399   6.407   1.956   0.630
  487TIP3    H1 1400   6.341   2.025   0.636
  487TIP3    H2 1401   6.434   1.957   0.538
  488TIP3   OH2 1402   6.098   1.873   0.973
  488TIP3    H1 1403   6.101   1.952   1.028
  488TIP3    H2 1404   6.015   1.880   0.926
  489TIP3   OH2 1405   5.107   1.734   0.427
  489TIP3    H1 1406   5.095   1.829   0.414
  489TIP3    H2 1407   5.183   1.728   0.484
  490TIP3   OH2 1408   5.285   2.252   0.565
  490TIP3    H1 1409   5.231   2.214   0.495
  490TIP3    H2 1410   5.315   2.177   0.616
  491TIP3   OH2 1411   5.242   1.814   0.807
  491TIP3    H1 1412   5.274   1.774   0.726
  491TIP3    H2 1413   5.293   1.894   0.816
  492TIP3   OH2 1414   5.410   2.351   1.126
  492TIP3    H1 1415   5.351   2.410   1.173
  492TIP3    H2 1416   5.352   2.294   1.076
  493TIP3   OH2 1417   5.170   1.895   1.261
  493TIP3    H1 1418   5.173   1.988   1.284
  493TIP3    H2 1419   5.076   1.876   1.252
  494TIP3   OH2 1420   5.486   2.367   0.145
  494TIP3    H1 1421   5.571   2.411   0.150
  494TIP3    H2 1422   5.434   2.421   0.086
  495TIP3   OH2 1423   5.201   2.510   1.208
  495TIP3    H1 1424   5.172   2.514   1.117
  495TIP3    H2 1425   5.122   2.491   1.258
  496TIP3   OH2 1426   5.003   1.625   0.202
  496TIP3    H1 1427   4.928   1.680   0.179
  496TIP3    H2 1428   5.034   1.659   0.285
  497TIP3   OH2 1429   4.789   2.055   1.158
  497TIP3    H1 1430   4.723   2.039   1.090
  497TIP3    H2 1431   4.826   1.968   1.177
  498TIP3   OH2 1432   4.667   2.237   0.794
  498TIP3    H1 1433   4.759   2.233   0.769
  498TIP3    H2 1434   4.661   2.316   0.849
  499TIP3   OH2 1435   6.489   2.737   0.862
  499TIP3    H1 1436   6.500   2.642   0.860
  499TIP3    H2 1437   6.402   2.750   0.901
  500TIP3   OH2 1438   5.591   2.499   0.985
  500TIP3    H1 1439   5.589   2.589   1.019
  500TIP3    H2 1440   5.533   2.450   1.043
  501TIP3   OH2 1441   8.204   6.601   6.901
  501TIP3    H1 1442   8.121   6.568   6.866
  501TIP3    H2 1443   8.184   6.690   6.929
  502TIP3   OH2 1444   4.813   2.443   0.321
  502TIP3    H1 1445   4.863   2.437   0.402
  502TIP3    H2 1446   4.778   2.355   0.307
  503TIP3   OH2 1447   8.457   6.579   6.781
  503TIP3    H1 1448   8.369   6.575   6.820
  503TIP3    H2 1449   8.498   6.497   6.805
  504TIP3   OH2 1450   6.348   1.806   1.148
  504TIP3    H1 1451   6.285   1.813   1.076
  504TIP3    H2 1452   6.373   1.714   1.150
  505TIP3   OH2 1453   4.995   2.237   1.136
  505TIP3    H1 1454   5.041   2.225   1.219
  505TIP3    H2 1455   4.921   2.176   1.141
  506TIP3   OH2 1456   5.353   1.058   0.947
  506TIP3    H1 1457   5.269   1.030   0.910
  506TIP3    H2 1458   5.333   1.140   0.993
  507TIP3   OH2 1459   5.917   1.161   1.124
  507TIP3    H1 1460   5.988   1.139   1.184
  507TIP3    H2 1461   5.837   1.141   1.173
  508TIP3   OH2 1462   6.131   1.604   1.040
  508TIP3    H1 1463   6.093   1.598   1.128
  508TIP3    H2 1464   6.108   1.692   1.010
  509TIP3   OH2 1465   5.327   1.590   0.952
  509TIP3    H1 1466   5.285   1.601   1.037
  509TIP3    H2 1467   5.307   1.671   0.904
  510TIP3   OH2 1468   5.211   1.457   0.459
  510TIP3    H1 1469   5.118   1.441   0.477
  510TIP3    H2 1470   5.212   1.495   0.371
  511TIP3   OH2 1471   5.870   1.813   1.271
  511TIP3    H1 1472   5.844   1.745   1.332
  511TIP3    H2 1473   5.963   1.826   1.288
  512TIP3   OH2 1474   5.799   1.554   0.452
  512TIP3    H1 1475   5.815   1.615   0.380
  512TIP3    H2 1476   5.806   1.468   0.412
  513TIP3   OH2 1477   5.157   1.600   1.170
  513TIP3    H1 1478   5.175   1.666   1.238
  513TIP3    H2 1479   5.137   1.520   1.219
  514TIP3   OH2 1480   4.737   1.202   0.759
  514TIP3    H1 1481   4.811   1.218   0.817
  514TIP3    H2 1482   4.771   1.143   0.692
  515TIP3   OH2 1483   4.859   1.136   0.360
  515TIP3    H1 1484   4.866   1.183   0.277
  515TIP3    H2 1485   4.772   1.158   0.392
  516TIP3   OH2 1486   5.842   1.806   0.854
  516TIP3    H1 1487   5.882   1.746   0.791
  516TIP3    H2 1488   5.815   1.750   0.927
  517TIP3   OH2 1489   5.549   1.304   0.652
  517TIP3    H1 1490   5.454   1.292   0.660
  517TIP3    H2 1491   5.575   1.346   0.734
  518TIP3   OH2 1492   4.963   1.346   0.518
  518TIP3    H1 1493   4.882   1.389   0.491
  518TIP3    H2 1494   4.961   1.261   0.475
  519TIP3   OH2 1495   5.959   1.354   0.741
  519TIP3    H1 1496   5.939   1.371   0.833
  519TIP3    H2 1497   5.955   1.259   0.733
  520TIP3   OH2 1498   6.207   3.050   0.954
  520TIP3    H1 1499   6.204   3.058   0.858
  520TIP3    H2 1500   6.288   3.093   0.979
  521TIP3   OH2 1501   5.153   2.155   1.368
  521TIP3    H1 1502   5.233   2.179   1.414
  521TIP3    H2 1503   5.084   2.163   1.434
  522TIP3   OH2 1504   5.604   1.630   0.638
  522TIP3    H1 1505   5.664   1.591   0.574
  522TIP3    H2 1506   5.614   1.576   0.717
  523TIP3   OH2 1507   5.586   1.502   0.897
  523TIP3    H1 1508   5.500   1.541   0.914
  523TIP3    H2 1509   5.647   1.555   0.949
  524TIP3   OH2 1510   5.272   1.931   0.009
  524TIP3    H1 1511   5.227   1.847  -0.006
  524TIP3    H2 1512   5.283   1.936   0.104
  525TIP3   OH2 1513   6.216   2.150   0.626
  525TIP3    H1 1514   6.241   2.196   0.546
  525TIP3    H2 1515   6.132   2.110   0.606
  526TIP3   OH2 1516   5.675   2.214   0.969
  526TIP3    H1 1517   5.750   2.173   1.012
  526TIP3    H2 1518   5.677   2.305   1.000
  527TIP3   OH2 1519   4.988   1.899   0.681
  527TIP3    H1 1520   5.015   1.937   0.598
  527TIP3    H2 1521   5.070   1.869   0.721
  528TIP3   OH2 1522   8.318   6.069   6.821
  528TIP3    H1 1523   8.276   6.151   6.793
  528TIP3    H2 1524   8.245   6.015   6.853
  529TIP3   OH2 1525   4.898   1.829   1.292
  529TIP3    H1 1526   4.903   1.807   1.385
  529TIP3    H2 1527   4.825   1.776   1.259
  530TIP3   OH2 1528   5.634   1.960   1.311
  530TIP3    H1 1529   5.569   1.902   1.273
  530TIP3    H2 1530   5.718   1.923   1.283
  531TIP3   OH2 1531   5.857   2.484   0.910
  531TIP3    H1 1532   5.764   2.498   0.925
  531TIP3    H2 1533   5.900   2.531   0.982
  532TIP3   OH2 1534   6.461   2.453   0.920
  532TIP3    H1 1535   6.368   2.435   0.928
  532TIP3    H2 1536   6.484   2.421   0.832
  533TIP3   OH2 1537   5.991   2.008   0.569
  533TIP3    H1 1538   5.896   1.998   0.578
  533TIP3    H2 1539   6.018   1.930   0.520
  534TIP3   OH2 1540   4.719   1.570   0.001
  534TIP3    H1 1541   4.756   1.653   0.028
  534TIP3    H2 1542   4.647   1.554   0.062
  535TIP3   OH2 1543   5.491   2.506   0.732
  535TIP3    H1 1544   5.479   2.590   0.689
  535TIP3    H2 1545   5.514   2.528   0.822
  536TIP3   OH2 1546   5.000   2.506   0.122
  536TIP3    H1 1547   4.937   2.483   0.190
  536TIP3    H2 1548   5.040   2.588   0.153
  537TIP3   OH2 1549   6.003   2.734   0.791
  537TIP3    H1 1550   5.930   2.674   0.777
  537TIP3    H2 1551   5.997   2.796   0.718
  538TIP3   OH2 1552   5.103   1.346   1.303
  538TIP3    H1 1553   5.007   1.354   1.307
  538TIP3    H2 1554   5.125   1.291   1.378
  539TIP3   OH2 1555   4.828   2.451   0.942
  539TIP3    H1 1556   4.885   2.389   0.987
  539TIP3    H2 1557   4.851   2.537   0.979
  540TIP3   OH2 1558   7.922   5.985   6.586
  540TIP3    H1 1559   7.949   6.056   6.528
  540TIP3    H2 1560   7.927   6.022   6.674
  541TIP3   OH2 1561   7.911   6.100   6.836
  541TIP3    H1 1562   7.983   6.062   6.887
  541TIP3    H2 1563   7.918   6.194   6.852
  542TIP3   OH2 1564   4.809   1.800   0.116
  542TIP3    H1 1565   4.750   1.842   0.178
  542TIP3    H2 1566   4.827   1.867   0.050
  543TIP3   OH2 1567   5.930   1.409   1.007
  543TIP3    H1 1568   6.016   1.448   1.025
  543TIP3    H2 1569   5.931   1.326   1.055
  544TIP3   OH2 1570   8.174   6.294   6.758
  544TIP3    H1 1571   8.091   6.317   6.801
  544TIP3    H2 1572   8.180   6.355   6.684
  545TIP3   OH2 1573   5.779   1.636   1.058
  545TIP3    H1 1574   5.810   1.683   1.135
  545TIP3    H2 1575   5.832   1.556   1.056
  546TIP3   OH2 1576   7.929   6.375   6.851
  546TIP3    H1 1577   7.906   6.435   6.780
  546TIP3    H2 1578   7.892   6.414   6.929
  547TIP3   OH2 1579   6.393   1.541   1.073
  547TIP3    H1 1580   6.299   1.541   1.057
  547TIP3    H2 1581   6.432   1.541   0.986
  548TIP3   OH2 1582   6.079   1.757   0.485
  548TIP3    H1 1583   6.028   1.713   0.553
  548TIP3    H2 1584   6.168   1.725   0.498
  549TIP3   OH2 1585   7.658   5.993   6.851
  549TIP3    H1 1586   7.735   6.050   6.853
  549TIP3    H2 1587   7.682   5.923   6.789
  550TIP3   OH2 1588   6.031   2.738   0.369
  550TIP3    H1 1589   5.987   2.781   0.296
  550TIP3    H2 1590   6.124   2.752   0.353
  551TIP3   OH2 1591   5.095   0.960   0.896
  551TIP3    H1 1592   5.058   0.922   0.816
  551TIP3    H2 1593   5.106   0.885   0.955
  552TIP3   OH2 1594   4.655   2.210   0.283
  552TIP3    H1 1595   4.594   2.251   0.343
  552TIP3    H2 1596   4.632   2.244   0.196
  553TIP3   OH2 1597   4.833   2.754   1.357
  553TIP3    H1 1598   4.916   2.759   1.404
  553TIP3    H2 1599   4.816   2.661   1.346
  554TIP3   OH2 1600   5.300   2.679   1.405
  554TIP3    H1 1601   5.395   2.665   1.410
  554TIP3    H2 1602   5.271   2.623   1.333
  555TIP3   OH2 1603   5.930   2.608   1.146
  555TIP3    H1 1604   5.939   2.538   1.210
  555TIP3    H2 1605   6.005   2.666   1.163
  556TIP3   OH2 1606   4.946   2.148   1.556
  556TIP3    H1 1607   4.965   2.055   1.562
  556TIP3    H2 1608   4.861   2.152   1.512
  557TIP3   OH2 1609   7.785   5.787   6.717
  557TIP3    H1 1610   7.848   5.758   6.783
  557TIP3    H2 1611   7.835   5.841   6.657
  558TIP3   OH2 1612   5.562   2.237   1.328
  558TIP3    H1 1613   5.522   2.258   1.244
  558TIP3    H2 1614   5.601   2.150   1.314
  559TIP3   OH2 1615   6.015   2.262   0.956
  559TIP3    H1 1616   6.096   2.284   0.909
  559TIP3    H2 1617   5.953   2.330   0.931
  560TIP3   OH2 1618   5.064   1.892   1.554
  560TIP3    H1 1619   5.139   1.879   1.496
  560TIP3    H2 1620   5.102   1.910   1.640
  561TIP3   OH2 1621   7.964   5.696   6.910
  561TIP3    H1 1622   7.922   5.673   6.993
  561TIP3    H2 1623   8.004   5.614   6.879
  562TIP3   OH2 1624   5.418   1.775   1.211
  562TIP3    H1 1625   5.337   1.825   1.219
  562TIP3    H2 1626   5.456   1.805   1.128
  563TIP3   OH2 1627   5.930   2.160   1.323
  563TIP3    H1 1628   5.997   2.126   1.264
  563TIP3    H2 1629   5.927   2.097   1.395
  564TIP3   OH2 1630   5.526   1.552   1.327
  564TIP3    H1 1631   5.531   1.478   1.267
  564TIP3    H2 1632   5.492   1.624   1.274
  565TIP3   OH2 1633   5.531   1.346   1.132
  565TIP3    H1 1634   5.560   1.381   1.048
  565TIP3    H2 1635   5.440   1.321   1.117
  566TIP3   OH2 1636   5.550   1.876   0.997
  566TIP3    H1 1637   5.637   1.881   0.959
  566TIP3    H2 1638   5.497   1.937   0.945
  567TIP3   OH2 1639   6.141   1.832   1.371
  567TIP3    H1 1640   6.173   1.744   1.389
  567TIP3    H2 1641   6.211   1.872   1.319
  568TIP3   OH2 1642   6.140   2.104   1.135
  568TIP3    H1 1643   6.084   2.161   1.082
  568TIP3    H2 1644   6.228   2.118   1.100
  569TIP3   OH2 1645   5.406   1.647   1.563
  569TIP3    H1 1646   5.338   1.581   1.576
  569TIP3    H2 1647   5.440   1.628   1.476
  570TIP3   OH2 1648   5.657   1.111   1.217
  570TIP3    H1 1649   5.612   1.191   1.187
  570TIP3    H2 1650   5.595   1.041   1.200
  571TIP3   OH2 1651   5.785   1.599   1.420
  571TIP3    H1 1652   5.779   1.587   1.515
  571TIP3    H2 1653   5.699   1.576   1.387
  572TIP3   OH2 1654   6.026   1.554   1.283
  572TIP3    H1 1655   5.948   1.553   1.338
  572TIP3    H2 1656   6.097   1.525   1.340
  573TIP3   OH2 1657   6.245   1.504   1.443
  573TIP3    H1 1658   6.253   1.410   1.455
  573TIP3    H2 1659   6.247   1.540   1.532
  574TIP3   OH2 1660   5.239   1.426   1.619
  574TIP3    H1 1661   5.247   1.340   1.579
  574TIP3    H2 1662   5.287   1.420   1.701
  575TIP3   OH2 1663   5.718   1.107   1.484
  575TIP3    H1 1664   5.794   1.048   1.483
  575TIP3    H2 1665   5.691   1.111   1.392
  576TIP3   OH2 1666   5.814   1.321   1.627
  576TIP3    H1 1667   5.786   1.250   1.569
  576TIP3    H2 1668   5.743   1.384   1.624
  577TIP3   OH2 1669   7.920   6.559   6.645
  577TIP3    H1 1670   7.958   6.568   6.558
  577TIP3    H2 1671   7.840   6.612   6.642
  578TIP3   OH2 1672   7.393   5.986   6.908
  578TIP3    H1 1673   7.484   6.007   6.890
  578TIP3    H2 1674   7.363   5.937   6.831
  579TIP3   OH2 1675   4.439   2.542   0.365
  579TIP3    H1 1676   4.378   2.488   0.315
  579TIP3    H2 1677   4.481   2.482   0.427
  580TIP3   OH2 1678   4.567   2.382   0.549
  580TIP3    H1 1679   4.566   2.309   0.612
  580TIP3    H2 1680   4.623   2.448   0.590
  581TIP3   OH2 1681   6.293   2.800   0.344
  581TIP3    H1 1682   6.331   2.814   0.431
  581TIP3    H2 1683   6.365   2.816   0.283
  582TIP3   OH2 1684   6.329   2.815   0.633
  582TIP3    H1 1685   6.286   2.730   0.624
  582TIP3    H2 1686   6.412   2.796   0.677
  583TIP3   OH2 1687   6.380   2.499   1.217
  583TIP3    H1 1688   6.309   2.510   1.281
  583TIP3    H2 1689   6.418   2.586   1.208
  584TIP3   OH2 1690   6.349   2.274   0.421
  584TIP3    H1 1691   6.375   2.204   0.361
  584TIP3    H2 1692   6.333   2.350   0.365
  585TIP3   OH2 1693   6.190   2.572   0.647
  585TIP3    H1 1694   6.122   2.614   0.699
  585TIP3    H2 1695   6.142   2.530   0.575
  586TIP3   OH2 1696   4.763   1.792   0.915
  586TIP3    H1 1697   4.757   1.768   0.823
  586TIP3    H2 1698   4.857   1.795   0.933
  587TIP3   OH2 1699   6.378   2.168   1.025
  587TIP3    H1 1700   6.446   2.101   1.036
  587TIP3    H2 1701   6.413   2.224   0.956
  588TIP3   OH2 1702   6.548   1.989   1.133
  588TIP3    H1 1703   6.497   1.909   1.125
  588TIP3    H2 1704   6.633   1.967   1.096
  589TIP3   OH2 1705   6.306   1.631   0.589
  589TIP3    H1 1706   6.354   1.553   0.615
  589TIP3    H2 1707   6.296   1.682   0.670
  590TIP3   OH2 1708   6.316   1.789   0.824
  590TIP3    H1 1709   6.237   1.825   0.864
  590TIP3    H2 1710   6.345   1.856   0.763
  591TIP3   OH2 1711   4.973   1.476   1.573
  591TIP3    H1 1712   5.068   1.475   1.581
  591TIP3    H2 1713   4.944   1.397   1.617
  592TIP3   OH2 1714   6.797   1.329   1.355
  592TIP3    H1 1715   6.885   1.343   1.321
  592TIP3    H2 1716   6.741   1.387   1.302
  593TIP3   OH2 1717   4.949   1.196   0.938
  593TIP3    H1 1718   5.002   1.117   0.931
  593TIP3    H2 1719   5.012   1.268   0.928
  594TIP3   OH2 1720   4.754   1.468   0.982
  594TIP3    H1 1721   4.793   1.456   0.895
  594TIP3    H2 1722   4.772   1.559   1.004
  595TIP3   OH2 1723   6.613   1.471   1.213
  595TIP3    H1 1724   6.528   1.496   1.177
  595TIP3    H2 1725   6.665   1.443   1.137
  596TIP3   OH2 1726   4.819   0.996   0.598
  596TIP3    H1 1727   4.754   0.933   0.566
  596TIP3    H2 1728   4.860   1.030   0.518
  597TIP3   OH2 1729   0.227   6.679   6.951
  597TIP3    H1 1730   0.272   6.599   6.979
  597TIP3    H2 1731   0.242   6.684   6.857
  598TIP3   OH2 1732   4.935   1.014   1.291
  598TIP3    H1 1733   4.893   1.021   1.377
  598TIP3    H2 1734   4.882   1.070   1.234
  599TIP3   OH2 1735   4.982   2.470   1.374
  599TIP3    H1 1736   4.888   2.453   1.364
  599TIP3    H2 1737   4.996   2.469   1.469
  600TIP3   OH2 1738   5.191   2.500   0.918
  600TIP3    H1 1739   5.129   2.561   0.879
  600TIP3    H2 1740   5.277   2.532   0.889
  601TIP3   OH2 1741   5.588   2.764   1.057
  601TIP3    H1 1742   5.624   2.760   1.145
  601TIP3    H2 1743   5.653   2.812   1.006
  602TIP3   OH2 1744   5.792   2.900   0.928
  602TIP3    H1 1745   5.860   2.846   0.886
  602TIP3    H2 1746   5.840   2.959   0.985
  603TIP3   OH2 1747   4.843   2.755   0.974
  603TIP3    H1 1748   4.754   2.780   0.949
  603TIP3    H2 1749   4.873   2.826   1.031
  604TIP3   OH2 1750   5.047   2.692   0.796
  604TIP3    H1 1751   4.975   2.722   0.851
  604TIP3    H2 1752   5.047   2.752   0.721
  605TIP3   OH2 1753   5.482   2.748   0.606
  605TIP3    H1 1754   5.412   2.774   0.547
  605TIP3    H2 1755   5.497   2.825   0.661
  606TIP3   OH2 1756   5.757   2.694   0.646
  606TIP3    H1 1757   5.666   2.723   0.634
  606TIP3    H2 1758   5.808   2.753   0.591
  607TIP3   OH2 1759   5.975   2.904   0.576
  607TIP3    H1 1760   5.948   2.986   0.534
  607TIP3    H2 1761   5.997   2.847   0.502
  608TIP3   OH2 1762   4.749   2.548   0.693
  608TIP3    H1 1763   4.776   2.524   0.782
  608TIP3    H2 1764   4.821   2.517   0.637
  609TIP3   OH2 1765   4.952   2.433   0.556
  609TIP3    H1 1766   4.965   2.349   0.601
  609TIP3    H2 1767   5.041   2.467   0.545
  610TIP3   OH2 1768   5.222   2.521   0.543
  610TIP3    H1 1769   5.250   2.431   0.526
  610TIP3    H2 1770   5.237   2.533   0.637
  611TIP3   OH2 1771   4.539   2.334   0.072
  611TIP3    H1 1772   4.453   2.302   0.043
  611TIP3    H2 1773   4.540   2.426   0.046
  612TIP3   OH2 1774   5.249   1.149   1.537
  612TIP3    H1 1775   5.218   1.082   1.598
  612TIP3    H2 1776   5.342   1.158   1.557
  613TIP3   OH2 1777   5.501   1.158   1.655
  613TIP3    H1 1778   5.578   1.139   1.601
  613TIP3    H2 1779   5.502   1.090   1.723
  614TIP3   OH2 1780   7.487   6.401   6.696
  614TIP3    H1 1781   7.476   6.353   6.779
  614TIP3    H2 1782   7.478   6.333   6.629
  615TIP3   OH2 1783   6.282   1.233   1.480
  615TIP3    H1 1784   6.296   1.201   1.569
  615TIP3    H2 1785   6.369   1.229   1.439
  616TIP3   OH2 1786   6.231   2.774   0.957
  616TIP3    H1 1787   6.156   2.745   0.904
  616TIP3    H2 1788   6.220   2.869   0.963
  617TIP3   OH2 1789   6.861   2.188   0.465
  617TIP3    H1 1790   6.917   2.110   0.463
  617TIP3    H2 1791   6.856   2.216   0.373
  618TIP3   OH2 1792   6.846   2.299   0.223
  618TIP3    H1 1793   6.759   2.289   0.184
  618TIP3    H2 1794   6.865   2.393   0.215
  619TIP3   OH2 1795   7.097   2.477   0.210
  619TIP3    H1 1796   7.090   2.478   0.306
  619TIP3    H2 1797   7.189   2.458   0.193
  620TIP3   OH2 1798   7.040   2.475   0.474
  620TIP3    H1 1799   7.006   2.561   0.449
  620TIP3    H2 1800   6.981   2.445   0.543
  621TIP3   OH2 1801   7.266   2.529   0.630
  621TIP3    H1 1802   7.296   2.615   0.602
  621TIP3    H2 1803   7.194   2.508   0.570
  622TIP3   OH2 1804   6.896   2.380   0.682
  622TIP3    H1 1805   6.940   2.408   0.762
  622TIP3    H2 1806   6.896   2.285   0.687
  623TIP3   OH2 1807   6.914   2.912   0.759
  623TIP3    H1 1808   6.879   2.891   0.673
  623TIP3    H2 1809   6.865   2.857   0.820
  624TIP3   OH2 1810   6.487   2.384   0.649
  624TIP3    H1 1811   6.419   2.390   0.582
  624TIP3    H2 1812   6.532   2.301   0.629
  625TIP3   OH2 1813   6.375   2.522   0.307
  625TIP3    H1 1814   6.429   2.570   0.370
  625TIP3    H2 1815   6.298   2.577   0.295
  626TIP3   OH2 1816   7.383   2.774   0.578
  626TIP3    H1 1817   7.382   2.869   0.580
  626TIP3    H2 1818   7.373   2.752   0.485
  627TIP3   OH2 1819   6.682   2.538   0.759
  627TIP3    H1 1820   6.757   2.479   0.756
  627TIP3    H2 1821   6.613   2.493   0.710
  628TIP3   OH2 1822   6.922   1.861   0.704
  628TIP3    H1 1823   6.831   1.885   0.721
  628TIP3    H2 1824   6.928   1.769   0.732
  629TIP3   OH2 1825   6.933   2.520   0.916
  629TIP3    H1 1826   7.020   2.554   0.938
  629TIP3    H2 1827   6.876   2.597   0.920
  630TIP3   OH2 1828   7.580   2.561   0.534
  630TIP3    H1 1829   7.542   2.615   0.604
  630TIP3    H2 1830   7.585   2.620   0.459
  631TIP3   OH2 1831   6.649   1.911   0.778
  631TIP3    H1 1832   6.670   1.968   0.853
  631TIP3    H2 1833   6.572   1.952   0.738
  632TIP3   OH2 1834   7.392   2.199   0.774
  632TIP3    H1 1835   7.338   2.127   0.741
  632TIP3    H2 1836   7.459   2.211   0.707
  633TIP3   OH2 1837   7.192   2.858   0.265
  633TIP3    H1 1838   7.167   2.918   0.194
  633TIP3    H2 1839   7.284   2.878   0.283
  634TIP3   OH2 1840   6.538   2.654   0.480
  634TIP3    H1 1841   6.595   2.578   0.493
  634TIP3    H2 1842   6.595   2.721   0.445
  635TIP3   OH2 1843   6.625   3.008   0.849
  635TIP3    H1 1844   6.708   3.008   0.898
  635TIP3    H2 1845   6.598   2.916   0.848
  636TIP3   OH2 1846   7.105   2.965   0.949
  636TIP3    H1 1847   7.198   2.949   0.933
  636TIP3    H2 1848   7.062   2.943   0.867
  637TIP3   OH2 1849   6.682   2.434   1.088
  637TIP3    H1 1850   6.653   2.369   1.152
  637TIP3    H2 1851   6.608   2.444   1.028
  638TIP3   OH2 1852   7.378   2.454   0.860
  638TIP3    H1 1853   7.379   2.511   0.784
  638TIP3    H2 1854   7.402   2.368   0.826
  639TIP3   OH2 1855   6.797   1.993   1.007
  639TIP3    H1 1856   6.874   1.963   1.054
  639TIP3    H2 1857   6.799   2.089   1.016
  640TIP3   OH2 1858   7.235   1.995   0.677
  640TIP3    H1 1859   7.205   2.071   0.628
  640TIP3    H2 1860   7.288   1.945   0.614
  641TIP3   OH2 1861   7.023   1.915   1.117
  641TIP3    H1 1862   7.070   1.838   1.150
  641TIP3    H2 1863   7.089   1.962   1.066
  642TIP3   OH2 1864   6.950   1.583   1.102
  642TIP3    H1 1865   6.960   1.574   1.007
  642TIP3    H2 1866   7.030   1.627   1.131
  643TIP3   OH2 1867   6.425   2.602   0.013
  643TIP3    H1 1868   6.339   2.559   0.009
  643TIP3    H2 1869   6.415   2.668   0.083
  644TIP3   OH2 1870   6.521   2.039   0.374
  644TIP3    H1 1871   6.502   2.047   0.280
  644TIP3    H2 1872   6.606   1.995   0.377
  645TIP3   OH2 1873   6.712   1.729   1.017
  645TIP3    H1 1874   6.746   1.818   1.015
  645TIP3    H2 1875   6.727   1.699   1.107
  646TIP3   OH2 1876   6.770   2.747   0.924
  646TIP3    H1 1877   6.698   2.698   0.884
  646TIP3    H2 1878   6.743   2.758   1.016
  647TIP3   OH2 1879   6.984   2.714   0.345
  647TIP3    H1 1880   6.982   2.784   0.410
  647TIP3    H2 1881   7.050   2.743   0.281
  648TIP3   OH2 1882   7.404   3.050   0.573
  648TIP3    H1 1883   7.450   3.052   0.657
  648TIP3    H2 1884   7.472   3.072   0.508
  649TIP3   OH2 1885   7.613   3.112   0.395
  649TIP3    H1 1886   7.676   3.124   0.323
  649TIP3    H2 1887   7.572   3.198   0.405
  650TIP3   OH2 1888   6.653   3.101   0.455
  650TIP3    H1 1889   6.558   3.090   0.446
  650TIP3    H2 1890   6.664   3.141   0.541
  651TIP3   OH2 1891   6.840   3.082   0.264
  651TIP3    H1 1892   6.785   3.084   0.342
  651TIP3    H2 1893   6.825   3.166   0.222
  652TIP3   OH2 1894   6.514   2.813   0.180
  652TIP3    H1 1895   6.579   2.823   0.250
  652TIP3    H2 1896   6.565   2.808   0.100
  653TIP3   OH2 1897   1.038   6.709   6.938
  653TIP3    H1 1898   0.958   6.658   6.922
  653TIP3    H2 1899   1.106   6.662   6.891
  654TIP3   OH2 1900   0.886   2.690   2.076
  654TIP3    H1 1901   0.809   2.733   2.039
  654TIP3    H2 1902   0.927   2.757   2.131
  655TIP3   OH2 1903   0.319   3.508   1.644
  655TIP3    H1 1904   0.232   3.469   1.647
  655TIP3    H2 1905   0.309   3.587   1.592
  656TIP3   OH2 1906   0.529   3.400   1.991
  656TIP3    H1 1907   0.513   3.327   1.932
  656TIP3    H2 1908   0.508   3.478   1.939
  657TIP3   OH2 1909   0.719   3.019   1.833
  657TIP3    H1 1910   0.646   3.081   1.833
  657TIP3    H2 1911   0.726   2.990   1.742
  658TIP3   OH2 1912   0.440   2.913   2.142
  658TIP3    H1 1913   0.425   2.996   2.187
  658TIP3    H2 1914   0.355   2.890   2.105
  659TIP3   OH2 1915   0.754   3.762   2.039
  659TIP3    H1 1916   0.761   3.667   2.048
  659TIP3    H2 1917   0.670   3.784   2.078
  660TIP3   OH2 1918   8.359   3.499   2.161
  660TIP3    H1 1919   8.368   3.592   2.182
  660TIP3    H2 1920   8.265   3.483   2.162
  661TIP3   OH2 1921   0.645   2.879   2.329
  661TIP3    H1 1922   0.571   2.897   2.272
  661TIP3    H2 1923   0.654   2.783   2.327
  662TIP3   OH2 1924   0.105   2.852   2.515
  662TIP3    H1 1925   0.096   2.757   2.515
  662TIP3    H2 1926   0.199   2.868   2.518
  663TIP3   OH2 1927   0.461   4.098   2.126
  663TIP3    H1 1928   0.454   4.116   2.032
  663TIP3    H2 1929   0.538   4.147   2.154
  664TIP3   OH2 1930   0.504   3.195   1.806
  664TIP3    H1 1931   0.529   3.252   1.734
  664TIP3    H2 1932   0.412   3.174   1.790
  665TIP3   OH2 1933   0.040   3.303   2.219
  665TIP3    H1 1934   0.028   3.301   2.314
  665TIP3    H2 1935  -0.024   3.367   2.188
  666TIP3   OH2 1936   0.135   3.569   2.066
  666TIP3    H1 1937   0.043   3.542   2.066
  666TIP3    H2 1938   0.152   3.595   2.157
  667TIP3   OH2 1939   0.774   3.488   2.072
  667TIP3    H1 1940   0.680   3.471   2.078
  667TIP3    H2 1941   0.800   3.447   1.990
  668TIP3   OH2 1942   0.276   3.783   1.966
  668TIP3    H1 1943   0.212   3.713   1.980
  668TIP3    H2 1944   0.240   3.833   1.892
  669TIP3   OH2 1945   0.631   2.612   2.256
  669TIP3    H1 1946   0.568   2.557   2.301
  669TIP3    H2 1947   0.621   2.589   2.164
  670TIP3   OH2 1948   0.301   3.781   1.549
  670TIP3    H1 1949   0.255   3.838   1.487
  670TIP3    H2 1950   0.394   3.796   1.531
  671TIP3   OH2 1951   8.160   3.763   2.460
  671TIP3    H1 1952   8.235   3.712   2.490
  671TIP3    H2 1953   8.087   3.733   2.515
  672TIP3   OH2 1954   0.187   3.654   2.325
  672TIP3    H1 1955   0.191   3.582   2.388
  672TIP3    H2 1956   0.263   3.708   2.345
  673TIP3   OH2 1957   8.369   3.266   2.469
  673TIP3    H1 1958   8.322   3.206   2.412
  673TIP3    H2 1959   8.453   3.223   2.485
  674TIP3   OH2 1960   0.283   3.263   2.100
  674TIP3    H1 1961   0.315   3.348   2.070
  674TIP3    H2 1962   0.193   3.280   2.128
  675TIP3   OH2 1963   0.138   3.193   2.504
  675TIP3    H1 1964   0.205   3.165   2.442
  675TIP3    H2 1965   0.155   3.143   2.583
  676TIP3   OH2 1966   0.384   2.875   2.562
  676TIP3    H1 1967   0.434   2.795   2.578
  676TIP3    H2 1968   0.448   2.936   2.526
  677TIP3   OH2 1969   0.426   3.146   2.295
  677TIP3    H1 1970   0.368   3.191   2.234
  677TIP3    H2 1971   0.514   3.169   2.265
  678TIP3   OH2 1972   0.544   2.568   2.608
  678TIP3    H1 1973   0.550   2.473   2.618
  678TIP3    H2 1974   0.526   2.601   2.696
  679TIP3   OH2 1975   0.571   3.837   1.530
  679TIP3    H1 1976   0.597   3.859   1.619
  679TIP3    H2 1977   0.635   3.882   1.475
  680TIP3   OH2 1978   0.612   3.861   1.808
  680TIP3    H1 1979   0.560   3.780   1.808
  680TIP3    H2 1980   0.679   3.846   1.875
  681TIP3   OH2 1981   0.635   3.542   2.379
  681TIP3    H1 1982   0.564   3.550   2.442
  681TIP3    H2 1983   0.679   3.627   2.382
  682TIP3   OH2 1984   0.627   3.353   1.619
  682TIP3    H1 1985   0.704   3.298   1.605
  682TIP3    H2 1986   0.642   3.430   1.564
  683TIP3   OH2 1987   0.468   3.626   1.839
  683TIP3    H1 1988   0.396   3.672   1.882
  683TIP3    H2 1989   0.428   3.581   1.765
  684TIP3   OH2 1990   0.672   3.203   2.191
  684TIP3    H1 1991   0.740   3.140   2.165
  684TIP3    H2 1992   0.662   3.260   2.114
  685TIP3   OH2 1993   0.852   2.993   2.187
  685TIP3    H1 1994   0.780   2.957   2.239
  685TIP3    H2 1995   0.931   2.955   2.227
  686TIP3   OH2 1996   0.649   2.799   1.985
  686TIP3    H1 1997   0.578   2.835   2.037
  686TIP3    H2 1998   0.676   2.870   1.927
  687TIP3   OH2 1999   1.071   2.423   2.506
  687TIP3    H1 2000   1.131   2.362   2.463
  687TIP3    H2 2001   1.027   2.467   2.435
  688TIP3   OH2 2002   0.918   2.550   2.321
  688TIP3    H1 2003   0.856   2.585   2.384
  688TIP3    H2 2004   0.884   2.576   2.235
  689TIP3   OH2 2005   8.389   3.761   2.221
  689TIP3    H1 2006   8.409   3.771   2.314
  689TIP3    H2 2007   8.453   3.816   2.177
  690TIP3   OH2 2008   0.067   3.936   2.104
  690TIP3    H1 2009   0.143   3.891   2.067
  690TIP3    H2 2010   0.106   4.000   2.165
  691TIP3   OH2 2011   8.508   3.789   1.823
  691TIP3    H1 2012   8.426   3.826   1.856
  691TIP3    H2 2013   8.555   3.864   1.787
  692TIP3   OH2 2014   0.228   3.961   1.750
  692TIP3    H1 2015   0.213   4.044   1.705
  692TIP3    H2 2016   0.249   3.899   1.680
  693TIP3   OH2 2017   0.597   2.302   2.650
  693TIP3    H1 2018   0.601   2.259   2.736
  693TIP3    H2 2019   0.672   2.267   2.602
  694TIP3   OH2 2020   0.502   3.825   2.128
  694TIP3    H1 2021   0.426   3.795   2.078
  694TIP3    H2 2022   0.488   3.919   2.138
  695TIP3   OH2 2023   1.800   3.293   1.032
  695TIP3    H1 2024   1.831   3.382   1.013
  695TIP3    H2 2025   1.713   3.290   0.992
  696TIP3   OH2 2026   1.826   3.245   1.336
  696TIP3    H1 2027   1.858   3.210   1.419
  696TIP3    H2 2028   1.814   3.167   1.281
  697TIP3   OH2 2029   1.084   3.106   1.681
  697TIP3    H1 2030   1.102   3.035   1.743
  697TIP3    H2 2031   1.171   3.135   1.653
  698TIP3   OH2 2032   1.986   3.510   0.985
  698TIP3    H1 2033   2.019   3.446   1.048
  698TIP3    H2 2034   2.024   3.593   1.012
  699TIP3   OH2 2035   1.010   3.526   1.387
  699TIP3    H1 2036   0.980   3.438   1.362
  699TIP3    H2 2037   1.105   3.523   1.377
  700TIP3   OH2 2038   1.721   3.926   1.040
  700TIP3    H1 2039   1.756   3.888   0.960
  700TIP3    H2 2040   1.738   3.862   1.109
  701TIP3   OH2 2041   1.564   3.551   1.323
  701TIP3    H1 2042   1.577   3.554   1.228
  701TIP3    H2 2043   1.652   3.549   1.359
  702TIP3   OH2 2044   2.608   2.741   1.327
  702TIP3    H1 2045   2.624   2.821   1.377
  702TIP3    H2 2046   2.640   2.761   1.239
  703TIP3   OH2 2047   2.017   3.004   1.318
  703TIP3    H1 2048   2.080   2.934   1.334
  703TIP3    H2 2049   1.942   2.960   1.279
  704TIP3   OH2 2050   2.110   2.563   1.046
  704TIP3    H1 2051   2.150   2.649   1.048
  704TIP3    H2 2052   2.119   2.535   0.954
  705TIP3   OH2 2053   1.403   2.923   1.223
  705TIP3    H1 2054   1.475   2.893   1.279
  705TIP3    H2 2055   1.404   2.863   1.148
  706TIP3   OH2 2056   2.663   2.952   1.495
  706TIP3    H1 2057   2.582   3.000   1.481
  706TIP3    H2 2058   2.704   2.996   1.570
  707TIP3   OH2 2059   1.348   2.538   1.848
  707TIP3    H1 2060   1.303   2.507   1.769
  707TIP3    H2 2061   1.281   2.587   1.896
  708TIP3   OH2 2062   1.721   3.493   0.716
  708TIP3    H1 2063   1.709   3.458   0.627
  708TIP3    H2 2064   1.673   3.576   0.716
  709TIP3   OH2 2065   1.439   3.378   1.559
  709TIP3    H1 2066   1.369   3.441   1.579
  709TIP3    H2 2067   1.476   3.410   1.476
  710TIP3   OH2 2068   2.346   2.601   1.223
  710TIP3    H1 2069   2.264   2.562   1.253
  710TIP3    H2 2070   2.334   2.695   1.236
  711TIP3   OH2 2071   1.170   2.622   1.650
  711TIP3    H1 2072   1.253   2.661   1.621
  711TIP3    H2 2073   1.135   2.580   1.572
  712TIP3   OH2 2074   1.246   3.554   1.633
  712TIP3    H1 2075   1.231   3.639   1.592
  712TIP3    H2 2076   1.170   3.540   1.689
  713TIP3   OH2 2077   2.077   3.750   1.107
  713TIP3    H1 2078   1.990   3.746   1.148
  713TIP3    H2 2079   2.076   3.834   1.060
  714TIP3   OH2 2080   2.414   2.648   1.512
  714TIP3    H1 2081   2.326   2.642   1.475
  714TIP3    H2 2082   2.470   2.664   1.437
  715TIP3   OH2 2083   1.734   2.223   1.386
  715TIP3    H1 2084   1.815   2.188   1.423
  715TIP3    H2 2085   1.681   2.247   1.462
  716TIP3   OH2 2086   1.847   3.783   0.841
  716TIP3    H1 2087   1.888   3.703   0.806
  716TIP3    H2 2088   1.902   3.854   0.809
  717TIP3   OH2 2089   1.981   3.578   0.702
  717TIP3    H1 2090   1.898   3.532   0.703
  717TIP3    H2 2091   2.028   3.544   0.778
  718TIP3   OH2 2092   2.310   3.655   1.465
  718TIP3    H1 2093   2.299   3.580   1.408
  718TIP3    H2 2094   2.292   3.731   1.409
  719TIP3   OH2 2095   2.498   3.302   1.327
  719TIP3    H1 2096   2.415   3.350   1.328
  719TIP3    H2 2097   2.533   3.316   1.239
  720TIP3   OH2 2098   1.934   3.004   0.735
  720TIP3    H1 2099   1.875   3.078   0.719
  720TIP3    H2 2100   1.997   3.007   0.662
  721TIP3   OH2 2101   2.192   3.169   1.628
  721TIP3    H1 2102   2.194   3.252   1.674
  721TIP3    H2 2103   2.104   3.164   1.591
  722TIP3   OH2 2104   1.289   3.593   1.292
  722TIP3    H1 2105   1.272   3.533   1.219
  722TIP3    H2 2106   1.381   3.579   1.313
  723TIP3   OH2 2107   1.300   3.148   1.515
  723TIP3    H1 2108   1.292   3.151   1.420
  723TIP3    H2 2109   1.348   3.228   1.537
  724TIP3   OH2 2110   1.843   3.754   1.247
  724TIP3    H1 2111   1.834   3.829   1.306
  724TIP3    H2 2112   1.839   3.677   1.305
  725TIP3   OH2 2113   1.452   3.655   1.790
  725TIP3    H1 2114   1.394   3.716   1.835
  725TIP3    H2 2115   1.394   3.604   1.733
  726TIP3   OH2 2116   1.219   3.205   1.946
  726TIP3    H1 2117   1.221   3.299   1.961
  726TIP3    H2 2118   1.126   3.185   1.932
  727TIP3   OH2 2119   1.567   3.721   0.749
  727TIP3    H1 2120   1.563   3.812   0.779
  727TIP3    H2 2121   1.486   3.681   0.781
  728TIP3   OH2 2122   1.246   3.825   1.876
  728TIP3    H1 2123   1.220   3.824   1.784
  728TIP3    H2 2124   1.168   3.797   1.924
  729TIP3   OH2 2125   2.024   3.652   0.091
  729TIP3    H1 2126   2.096   3.707   0.123
  729TIP3    H2 2127   2.066   3.568   0.070
  730TIP3   OH2 2128   0.844   3.360   1.845
  730TIP3    H1 2129   0.782   3.346   1.774
  730TIP3    H2 2130   0.883   3.274   1.862
  731TIP3   OH2 2131   0.713   3.562   1.455
  731TIP3    H1 2132   0.806   3.571   1.436
  731TIP3    H2 2133   0.689   3.644   1.498
  732TIP3   OH2 2134   2.543   4.006   1.518
  732TIP3    H1 2135   2.548   3.911   1.529
  732TIP3    H2 2136   2.462   4.031   1.563
  733TIP3   OH2 2137   1.656   3.779   1.653
  733TIP3    H1 2138   1.646   3.873   1.670
  733TIP3    H2 2139   1.581   3.739   1.698
  734TIP3   OH2 2140   1.313   3.842   0.590
  734TIP3    H1 2141   1.344   3.807   0.507
  734TIP3    H2 2142   1.374   3.914   0.609
  735TIP3   OH2 2143   0.849   3.775   0.988
  735TIP3    H1 2144   0.878   3.759   1.078
  735TIP3    H2 2145   0.766   3.727   0.981
  736TIP3   OH2 2146   1.551   3.770   0.223
  736TIP3    H1 2147   1.604   3.726   0.156
  736TIP3    H2 2148   1.599   3.851   0.241
  737TIP3   OH2 2149   1.736   3.850   0.567
  737TIP3    H1 2150   1.650   3.849   0.609
  737TIP3    H2 2151   1.798   3.837   0.638
  738TIP3   OH2 2152   2.430   3.129   1.800
  738TIP3    H1 2153   2.354   3.141   1.743
  738TIP3    H2 2154   2.451   3.036   1.792
  739TIP3   OH2 2155   1.042   3.550   1.812
  739TIP3    H1 2156   1.095   3.534   1.891
  739TIP3    H2 2157   0.968   3.489   1.820
  740TIP3   OH2 2158   1.978   2.447   1.821
  740TIP3    H1 2159   2.056   2.428   1.872
  740TIP3    H2 2160   1.905   2.428   1.880
  741TIP3   OH2 2161   2.193   2.902   1.695
  741TIP3    H1 2162   2.158   2.898   1.784
  741TIP3    H2 2163   2.183   2.994   1.669
  742TIP3   OH2 2164   1.358   2.925   1.653
  742TIP3    H1 2165   1.307   2.920   1.734
  742TIP3    H2 2166   1.331   3.008   1.613
  743TIP3   OH2 2167   1.746   2.894   0.894
  743TIP3    H1 2168   1.672   2.911   0.836
  743TIP3    H2 2169   1.823   2.925   0.845
  744TIP3   OH2 2170   1.926   3.123   1.954
  744TIP3    H1 2171   1.900   3.053   2.013
  744TIP3    H2 2172   2.020   3.133   1.969
  745TIP3   OH2 2173   1.965   2.807   1.034
  745TIP3    H1 2174   1.898   2.872   1.015
  745TIP3    H2 2175   1.979   2.761   0.951
  746TIP3   OH2 2176   1.173   2.904   1.856
  746TIP3    H1 2177   1.170   2.959   1.935
  746TIP3    H2 2178   1.160   2.815   1.888
  747TIP3   OH2 2179   1.930   3.112   1.555
  747TIP3    H1 2180   1.955   3.059   1.479
  747TIP3    H2 2181   1.874   3.055   1.607
  748TIP3   OH2 2182   2.103   2.587   1.486
  748TIP3    H1 2183   2.051   2.626   1.556
  748TIP3    H2 2184   2.039   2.546   1.428
  749TIP3   OH2 2185   2.250   4.349   1.611
  749TIP3    H1 2186   2.244   4.367   1.517
  749TIP3    H2 2187   2.329   4.396   1.640
  750TIP3   OH2 2188   1.199   3.468   2.035
  750TIP3    H1 2189   1.280   3.488   2.082
  750TIP3    H2 2190   1.132   3.469   2.103
  751TIP3   OH2 2191   1.634   2.828   1.337
  751TIP3    H1 2192   1.695   2.883   1.286
  751TIP3    H2 2193   1.688   2.792   1.407
  752TIP3   OH2 2194   1.602   2.812   1.668
  752TIP3    H1 2195   1.519   2.860   1.667
  752TIP3    H2 2196   1.667   2.880   1.685
  753TIP3   OH2 2197   2.276   3.453   1.290
  753TIP3    H1 2198   2.312   3.499   1.214
  753TIP3    H2 2199   2.191   3.420   1.261
  754TIP3   OH2 2200   1.772   3.519   1.682
  754TIP3    H1 2201   1.821   3.516   1.764
  754TIP3    H2 2202   1.734   3.607   1.679
  755TIP3   OH2 2203   1.008   3.165   1.408
  755TIP3    H1 2204   1.046   3.114   1.337
  755TIP3    H2 2205   1.070   3.157   1.480
  756TIP3   OH2 2206   0.949   3.121   1.957
  756TIP3    H1 2207   0.943   3.098   2.050
  756TIP3    H2 2208   0.879   3.072   1.915
  757TIP3   OH2 2209   1.695   3.276   1.984
  757TIP3    H1 2210   1.643   3.255   1.906
  757TIP3    H2 2211   1.781   3.237   1.967
  758TIP3   OH2 2212   1.922   3.799   1.570
  758TIP3    H1 2213   1.828   3.786   1.578
  758TIP3    H2 2214   1.947   3.845   1.650
  759TIP3   OH2 2215   2.560   3.724   1.546
  759TIP3    H1 2216   2.465   3.713   1.542
  759TIP3    H2 2217   2.591   3.693   1.461
  760TIP3   OH2 2218   2.068   3.644   0.442
  760TIP3    H1 2219   2.049   3.620   0.533
  760TIP3    H2 2220   2.067   3.561   0.395
  761TIP3   OH2 2221   2.050   3.339   1.194
  761TIP3    H1 2222   1.965   3.306   1.222
  761TIP3    H2 2223   2.100   3.261   1.172
  762TIP3   OH2 2224   1.136   3.540   1.038
  762TIP3    H1 2225   1.124   3.626   0.999
  762TIP3    H2 2226   1.051   3.498   1.031
  763TIP3   OH2 2227   1.298   3.320   0.835
  763TIP3    H1 2228   1.385   3.349   0.862
  763TIP3    H2 2229   1.264   3.272   0.911
  764TIP3   OH2 2230   1.450   3.872   1.447
  764TIP3    H1 2231   1.487   3.943   1.395
  764TIP3    H2 2232   1.524   3.813   1.463
  765TIP3   OH2 2233   1.115   3.786   0.903
  765TIP3    H1 2234   1.029   3.813   0.934
  765TIP3    H2 2235   1.159   3.867   0.880
  766TIP3   OH2 2236   1.825   3.526   1.409
  766TIP3    H1 2237   1.820   3.514   1.504
  766TIP3    H2 2238   1.861   3.444   1.376
  767TIP3   OH2 2239   1.790   3.474   0.268
  767TIP3    H1 2240   1.868   3.442   0.313
  767TIP3    H2 2241   1.722   3.410   0.288
  768TIP3   OH2 2242   2.073   4.032   1.447
  768TIP3    H1 2243   1.995   3.977   1.454
  768TIP3    H2 2244   2.053   4.092   1.376
  769TIP3   OH2 2245   2.179   3.858   0.175
  769TIP3    H1 2246   2.181   3.892   0.085
  769TIP3    H2 2247   2.133   3.925   0.225
  770TIP3   OH2 2248   1.149   2.651   2.000
  770TIP3    H1 2249   1.054   2.654   2.010
  770TIP3    H2 2250   1.180   2.606   2.079
  771TIP3   OH2 2251   2.002   3.375   0.406
  771TIP3    H1 2252   1.947   3.340   0.476
  771TIP3    H2 2253   2.091   3.364   0.438
  772TIP3   OH2 2254   0.888   3.746   1.609
  772TIP3    H1 2255   0.942   3.669   1.628
  772TIP3    H2 2256   0.911   3.808   1.678
  773TIP3   OH2 2257   1.982   2.694   1.711
  773TIP3    H1 2258   2.052   2.745   1.752
  773TIP3    H2 2259   1.980   2.612   1.760
  774TIP3   OH2 2260   1.343   3.643   0.396
  774TIP3    H1 2261   1.357   3.590   0.474
  774TIP3    H2 2262   1.431   3.655   0.359
  775TIP3   OH2 2263   1.814   2.961   1.761
  775TIP3    H1 2264   1.854   3.020   1.824
  775TIP3    H2 2265   1.877   2.889   1.752
  776TIP3   OH2 2266   2.463   2.864   1.714
  776TIP3    H1 2267   2.367   2.858   1.712
  776TIP3    H2 2268   2.491   2.826   1.631
  777TIP3   OH2 2269   2.205   3.120   1.128
  777TIP3    H1 2270   2.120   3.076   1.132
  777TIP3    H2 2271   2.267   3.058   1.166
  778TIP3   OH2 2272   2.100   4.015   1.028
  778TIP3    H1 2273   2.056   4.069   0.962
  778TIP3    H2 2274   2.193   4.027   1.011
  779TIP3   OH2 2275   0.863   4.028   2.019
  779TIP3    H1 2276   0.956   4.027   2.042
  779TIP3    H2 2277   0.834   3.938   2.033
  780TIP3   OH2 2278   1.388   4.016   2.015
  780TIP3    H1 2279   1.459   3.959   2.046
  780TIP3    H2 2280   1.332   3.958   1.964
  781TIP3   OH2 2281   1.970   3.917   1.816
  781TIP3    H1 2282   1.979   3.845   1.878
  781TIP3    H2 2283   2.048   3.970   1.830
  782TIP3   OH2 2284   1.735   3.647   0.069
  782TIP3    H1 2285   1.756   3.594   0.146
  782TIP3    H2 2286   1.820   3.666   0.028
  783TIP3   OH2 2287   0.999   3.449   2.224
  783TIP3    H1 2288   1.009   3.354   2.234
  783TIP3    H2 2289   0.912   3.459   2.184
  784TIP3   OH2 2290   1.608   3.548   1.993
  784TIP3    H1 2291   1.566   3.564   1.908
  784TIP3    H2 2292   1.650   3.462   1.983
  785TIP3   OH2 2293   2.090   3.575   1.613
  785TIP3    H1 2294   2.166   3.605   1.564
  785TIP3    H2 2295   2.021   3.637   1.590
  786TIP3   OH2 2296   1.110   3.186   2.223
  786TIP3    H1 2297   1.183   3.180   2.161
  786TIP3    H2 2298   1.150   3.214   2.305
  787TIP3   OH2 2299   1.453   3.067   1.892
  787TIP3    H1 2300   1.375   3.118   1.916
  787TIP3    H2 2301   1.501   3.123   1.832
  788TIP3   OH2 2302   1.968   3.461   1.980
  788TIP3    H1 2303   2.033   3.422   1.921
  788TIP3    H2 2304   1.966   3.402   2.055
  789TIP3   OH2 2305   1.584   2.856   2.003
  789TIP3    H1 2306   1.583   2.779   1.946
  789TIP3    H2 2307   1.542   2.925   1.951
  790TIP3   OH2 2308   1.603   2.613   1.839
  790TIP3    H1 2309   1.603   2.683   1.774
  790TIP3    H2 2310   1.512   2.587   1.846
  791TIP3   OH2 2311   1.597   3.231   1.729
  791TIP3    H1 2312   1.670   3.204   1.673
  791TIP3    H2 2313   1.547   3.293   1.675
  792TIP3   OH2 2314   2.192   3.144   2.039
  792TIP3    H1 2315   2.242   3.062   2.044
  792TIP3    H2 2316   2.256   3.209   2.011
  793TIP3   OH2 2317   2.216   3.403   1.778
  793TIP3    H1 2318   2.161   3.463   1.727
  793TIP3    H2 2319   2.305   3.420   1.746
  794TIP3   OH2 2320   1.455   2.954   2.232
  794TIP3    H1 2321   1.386   2.891   2.249
  794TIP3    H2 2322   1.484   2.936   2.143
  795TIP3   OH2 2323   1.711   2.375   1.895
  795TIP3    H1 2324   1.678   2.464   1.878
  795TIP3    H2 2325   1.633   2.320   1.890
  796TIP3   OH2 2326   1.844   2.898   2.087
  796TIP3    H1 2327   1.833   2.888   2.181
  796TIP3    H2 2328   1.757   2.882   2.050
  797TIP3   OH2 2329   2.084   2.850   1.941
  797TIP3    H1 2330   2.007   2.858   1.997
  797TIP3    H2 2331   2.156   2.832   2.001
  798TIP3   OH2 2332   2.309   2.812   2.102
  798TIP3    H1 2333   2.326   2.718   2.111
  798TIP3    H2 2334   2.304   2.844   2.192
  799TIP3   OH2 2335   1.297   2.732   2.296
  799TIP3    H1 2336   1.300   2.643   2.260
  799TIP3    H2 2337   1.335   2.725   2.383
  800TIP3   OH2 2338   1.774   2.392   2.160
  800TIP3    H1 2339   1.852   2.337   2.153
  800TIP3    H2 2340   1.737   2.393   2.072
  801TIP3   OH2 2341   1.861   2.619   2.294
  801TIP3    H1 2342   1.831   2.549   2.235
  801TIP3    H2 2343   1.791   2.684   2.291
  802TIP3   OH2 2344   0.659   3.714   1.206
  802TIP3    H1 2345   0.641   3.638   1.261
  802TIP3    H2 2346   0.682   3.783   1.269
  803TIP3   OH2 2347   2.369   4.072   1.012
  803TIP3    H1 2348   2.387   4.109   1.099
  803TIP3    H2 2349   2.420   4.127   0.952
  804TIP3   OH2 2350   2.383   4.109   1.294
  804TIP3    H1 2351   2.336   4.026   1.286
  804TIP3    H2 2352   2.455   4.089   1.354
  805TIP3   OH2 2353   2.433   3.800   1.869
  805TIP3    H1 2354   2.360   3.809   1.930
  805TIP3    H2 2355   2.477   3.885   1.870
  806TIP3   OH2 2356   2.258   3.393   0.515
  806TIP3    H1 2357   2.311   3.464   0.479
  806TIP3    H2 2358   2.308   3.313   0.495
  807TIP3   OH2 2359   2.435   3.180   0.710
  807TIP3    H1 2360   2.360   3.160   0.767
  807TIP3    H2 2361   2.493   3.233   0.765
  808TIP3   OH2 2362   2.439   3.578   1.109
  808TIP3    H1 2363   2.484   3.510   1.059
  808TIP3    H2 2364   2.433   3.653   1.049
  809TIP3   OH2 2365   2.244   3.866   1.302
  809TIP3    H1 2366   2.175   3.912   1.349
  809TIP3    H2 2367   2.199   3.824   1.228
  810TIP3   OH2 2368   2.309   3.021   0.222
  810TIP3    H1 2369   2.215   3.011   0.206
  810TIP3    H2 2370   2.318   3.014   0.317
  811TIP3   OH2 2371   2.217   3.119   0.855
  811TIP3    H1 2372   2.254   3.031   0.845
  811TIP3    H2 2373   2.203   3.128   0.949
  812TIP3   OH2 2374   0.837   3.191   1.610
  812TIP3    H1 2375   0.864   3.191   1.518
  812TIP3    H2 2376   0.914   3.160   1.657
  813TIP3   OH2 2377   2.469   3.455   1.678
  813TIP3    H1 2378   2.535   3.389   1.659
  813TIP3    H2 2379   2.480   3.522   1.610
  814TIP3   OH2 2380   2.645   3.245   1.673
  814TIP3    H1 2381   2.572   3.205   1.720
  814TIP3    H2 2382   2.720   3.188   1.693
  815TIP3   OH2 2383   2.389   2.933   1.208
  815TIP3    H1 2384   2.473   2.971   1.181
  815TIP3    H2 2385   2.385   2.949   1.302
  816TIP3   OH2 2386   2.410   3.073   1.454
  816TIP3    H1 2387   2.333   3.106   1.500
  816TIP3    H2 2388   2.444   3.149   1.406
  817TIP3   OH2 2389   1.038   2.813   2.280
  817TIP3    H1 2390   1.133   2.801   2.279
  817TIP3    H2 2391   1.004   2.739   2.331
  818TIP3   OH2 2392   2.866   2.670   1.993
  818TIP3    H1 2393   2.928   2.611   1.951
  818TIP3    H2 2394   2.830   2.722   1.922
  819TIP3   OH2 2395   2.102   2.467   0.794
  819TIP3    H1 2396   2.157   2.399   0.834
  819TIP3    H2 2397   2.159   2.510   0.730
  820TIP3   OH2 2398   2.721   2.792   1.799
  820TIP3    H1 2399   2.637   2.833   1.819
  820TIP3    H2 2400   2.698   2.717   1.744
  821TIP3   OH2 2401   1.986   3.969   0.708
  821TIP3    H1 2402   2.042   3.943   0.635
  821TIP3    H2 2403   1.984   4.065   0.704
  822TIP3   OH2 2404   1.034   3.778   2.057
  822TIP3    H1 2405   0.943   3.758   2.035
  822TIP3    H2 2406   1.042   3.751   2.148
  823TIP3   OH2 2407   1.223   3.827   1.595
  823TIP3    H1 2408   1.170   3.897   1.558
  823TIP3    H2 2409   1.307   3.835   1.550
  824TIP3   OH2 2410   1.645   4.049   1.723
  824TIP3    H1 2411   1.687   4.041   1.808
  824TIP3    H2 2412   1.706   4.101   1.670
  825TIP3   OH2 2413   1.823   4.208   1.592
  825TIP3    H1 2414   1.878   4.161   1.529
  825TIP3    H2 2415   1.885   4.260   1.644
  826TIP3   OH2 2416   2.633   2.556   1.681
  826TIP3    H1 2417   2.551   2.560   1.631
  826TIP3    H2 2418   2.661   2.465   1.674
  827TIP3   OH2 2419   0.887   4.066   1.646
  827TIP3    H1 2420   0.805   4.105   1.616
  827TIP3    H2 2421   0.881   4.069   1.742
  828TIP3   OH2 2422   1.115   4.053   1.484
  828TIP3    H1 2423   1.033   4.064   1.532
  828TIP3    H2 2424   1.093   4.078   1.394
  829TIP3   OH2 2425   1.541   4.071   1.281
  829TIP3    H1 2426   1.496   4.075   1.197
  829TIP3    H2 2427   1.557   4.162   1.305
  830TIP3   OH2 2428   1.809   4.018   1.335
  830TIP3    H1 2429   1.717   4.024   1.311
  830TIP3    H2 2430   1.855   4.068   1.268
  831TIP3   OH2 2431   2.021   4.192   1.226
  831TIP3    H1 2432   2.005   4.276   1.183
  831TIP3    H2 2433   2.045   4.133   1.154
  832TIP3   OH2 2434   0.808   3.880   1.380
  832TIP3    H1 2435   0.837   3.852   1.466
  832TIP3    H2 2436   0.872   3.842   1.319
  833TIP3   OH2 2437   0.994   3.756   1.228
  833TIP3    H1 2438   1.005   3.672   1.272
  833TIP3    H2 2439   1.082   3.793   1.222
  834TIP3   OH2 2440   1.261   3.855   1.235
  834TIP3    H1 2441   1.273   3.760   1.228
  834TIP3    H2 2442   1.310   3.880   1.313
  835TIP3   OH2 2443   1.847   2.454   1.286
  835TIP3    H1 2444   1.804   2.387   1.339
  835TIP3    H2 2445   1.858   2.412   1.200
  836TIP3   OH2 2446   2.597   2.462   1.111
  836TIP3    H1 2447   2.573   2.485   1.021
  836TIP3    H2 2448   2.530   2.505   1.164
  837TIP3   OH2 2449   2.139   2.393   1.250
  837TIP3    H1 2450   2.116   2.456   1.182
  837TIP3    H2 2451   2.084   2.317   1.232
  838TIP3   OH2 2452   1.344   3.934   0.301
  838TIP3    H1 2453   1.403   3.872   0.258
  838TIP3    H2 2454   1.256   3.903   0.278
  839TIP3   OH2 2455   2.127   3.907   0.483
  839TIP3    H1 2456   2.120   3.813   0.463
  839TIP3    H2 2457   2.081   3.950   0.412
  840TIP3   OH2 2458   1.289   2.467   2.207
  840TIP3    H1 2459   1.256   2.399   2.265
  840TIP3    H2 2460   1.383   2.470   2.225
  841TIP3   OH2 2461   1.543   2.458   2.320
  841TIP3    H1 2462   1.624   2.435   2.274
  841TIP3    H2 2463   1.533   2.389   2.386
  842TIP3   OH2 2464   2.379   2.544   2.121
  842TIP3    H1 2465   2.398   2.512   2.209
  842TIP3    H2 2466   2.463   2.538   2.075
  843TIP3   OH2 2467   2.292   4.076   1.616
  843TIP3    H1 2468   2.219   4.045   1.562
  843TIP3    H2 2469   2.280   4.170   1.622
  844TIP3   OH2 2470   3.569   3.461   0.368
  844TIP3    H1 2471   3.542   3.549   0.342
  844TIP3    H2 2472   3.502   3.403   0.331
  845TIP3   OH2 2473   3.568   3.453   0.777
  845TIP3    H1 2474   3.615   3.436   0.858
  845TIP3    H2 2475   3.527   3.370   0.755
  846TIP3   OH2 2476   2.881   3.333   1.132
  846TIP3    H1 2477   2.912   3.274   1.200
  846TIP3    H2 2478   2.959   3.355   1.081
  847TIP3   OH2 2479   3.828   3.761   0.451
  847TIP3    H1 2480   3.816   3.695   0.519
  847TIP3    H2 2481   3.853   3.840   0.498
  848TIP3   OH2 2482   2.860   3.766   0.840
  848TIP3    H1 2483   2.844   3.671   0.842
  848TIP3    H2 2484   2.953   3.775   0.822
  849TIP3   OH2 2485   2.593   2.966   0.640
  849TIP3    H1 2486   2.565   3.047   0.682
  849TIP3    H2 2487   2.511   2.923   0.615
  850TIP3   OH2 2488   2.654   3.279   0.827
  850TIP3    H1 2489   2.706   3.202   0.853
  850TIP3    H2 2490   2.712   3.328   0.769
  851TIP3   OH2 2491   3.478   4.204   0.460
  851TIP3    H1 2492   3.518   4.139   0.403
  851TIP3    H2 2493   3.469   4.159   0.544
  852TIP3   OH2 2494   3.368   3.677   0.793
  852TIP3    H1 2495   3.408   3.598   0.756
  852TIP3    H2 2496   3.443   3.730   0.822
  853TIP3   OH2 2497   4.397   2.995   0.801
  853TIP3    H1 2498   4.417   3.079   0.844
  853TIP3    H2 2499   4.426   3.007   0.711
  854TIP3   OH2 2500   3.787   3.169   0.830
  854TIP3    H1 2501   3.825   3.084   0.853
  854TIP3    H2 2502   3.747   3.154   0.744
  855TIP3   OH2 2503   3.182   2.889   0.841
  855TIP3    H1 2504   3.153   2.956   0.779
  855TIP3    H2 2505   3.163   2.806   0.797
  856TIP3   OH2 2506   3.831   2.938   0.419
  856TIP3    H1 2507   3.897   2.925   0.487
  856TIP3    H2 2508   3.881   2.970   0.343
  857TIP3   OH2 2509   2.776   3.050   0.916
  857TIP3    H1 2510   2.853   3.039   0.971
  857TIP3    H2 2511   2.789   2.987   0.845
  858TIP3   OH2 2512   3.200   3.257   0.727
  858TIP3    H1 2513   3.294   3.239   0.734
  858TIP3    H2 2514   3.162   3.175   0.697
  859TIP3   OH2 2515   4.458   3.208   0.976
  859TIP3    H1 2516   4.374   3.254   0.965
  859TIP3    H2 2517   4.498   3.251   1.052
  860TIP3   OH2 2518   3.109   2.809   1.240
  860TIP3    H1 2519   3.066   2.859   1.171
  860TIP3    H2 2520   3.058   2.830   1.319
  861TIP3   OH2 2521   3.470   3.677   0.225
  861TIP3    H1 2522   3.433   3.658   0.139
  861TIP3    H2 2523   3.419   3.751   0.257
  862TIP3   OH2 2524   3.217   3.604   1.013
  862TIP3    H1 2525   3.160   3.674   1.045
  862TIP3    H2 2526   3.263   3.643   0.938
  863TIP3   OH2 2527   4.004   2.941   0.631
  863TIP3    H1 2528   3.966   2.918   0.716
  863TIP3    H2 2529   4.060   3.016   0.650
  864TIP3   OH2 2530   3.002   2.952   1.035
  864TIP3    H1 2531   3.052   3.027   1.067
  864TIP3    H2 2532   3.054   2.917   0.963
  865TIP3   OH2 2533   3.054   3.803   1.113
  865TIP3    H1 2534   3.037   3.890   1.078
  865TIP3    H2 2535   2.976   3.782   1.165
  866TIP3   OH2 2536   2.450   3.541   0.362
  866TIP3    H1 2537   2.412   3.583   0.285
  866TIP3    H2 2538   2.482   3.614   0.416
  867TIP3   OH2 2539   3.875   4.005   0.595
  867TIP3    H1 2540   3.788   3.997   0.635
  867TIP3    H2 2541   3.873   4.089   0.549
  868TIP3   OH2 2542   4.193   2.883   0.966
  868TIP3    H1 2543   4.107   2.911   0.935
  868TIP3    H2 2544   4.255   2.914   0.900
  869TIP3   OH2 2545   3.481   2.534   0.962
  869TIP3    H1 2546   3.465   2.443   0.987
  869TIP3    H2 2547   3.414   2.583   1.009
  870TIP3   OH2 2548   3.589   4.044   0.262
  870TIP3    H1 2549   3.635   3.961   0.249
  870TIP3    H2 2550   3.651   4.111   0.234
  871TIP3   OH2 2551   3.732   3.820   0.197
  871TIP3    H1 2552   3.674   3.747   0.176
  871TIP3    H2 2553   3.774   3.795   0.279
  872TIP3   OH2 2554   4.105   3.901   0.943
  872TIP3    H1 2555   4.091   3.826   0.885
  872TIP3    H2 2556   4.089   3.978   0.887
  873TIP3   OH2 2557   3.408   3.305   0.202
  873TIP3    H1 2558   3.332   3.361   0.191
  873TIP3    H2 2559   3.437   3.287   0.112
  874TIP3   OH2 2560   6.207   7.111   6.874
  874TIP3    H1 2561   6.288   7.162   6.884
  874TIP3    H2 2562   6.236   7.020   6.874
  875TIP3   OH2 2563   4.294   3.552   0.803
  875TIP3    H1 2564   4.211   3.600   0.804
  875TIP3    H2 2565   4.331   3.570   0.717
  876TIP3   OH2 2566   3.750   3.382   0.179
  876TIP3    H1 2567   3.695   3.410   0.252
  876TIP3    H2 2568   3.834   3.359   0.220
  877TIP3   OH2 2569   3.981   3.420   1.109
  877TIP3    H1 2570   3.980   3.503   1.157
  877TIP3    H2 2571   3.898   3.419   1.061
  878TIP3   OH2 2572   2.984   3.378   0.595
  878TIP3    H1 2573   2.939   3.310   0.545
  878TIP3    H2 2574   3.063   3.336   0.627
  879TIP3   OH2 2575   3.115   3.798   0.722
  879TIP3    H1 2576   3.091   3.777   0.632
  879TIP3    H2 2577   3.201   3.758   0.734
  880TIP3   OH2 2578   3.098   3.364   0.959
  880TIP3    H1 2579   3.135   3.334   0.877
  880TIP3    H2 2580   3.142   3.447   0.976
  881TIP3   OH2 2581   3.638   3.997   0.728
  881TIP3    H1 2582   3.624   4.077   0.779
  881TIP3    H2 2583   3.622   3.926   0.790
  882TIP3   OH2 2584   3.253   3.906   1.275
  882TIP3    H1 2585   3.194   3.966   1.321
  882TIP3    H2 2586   3.196   3.854   1.218
  883TIP3   OH2 2587   6.442   7.252   6.926
  883TIP3    H1 2588   6.489   7.311   6.985
  883TIP3    H2 2589   6.468   7.279   6.838
  884TIP3   OH2 2590   3.010   3.452   1.413
  884TIP3    H1 2591   3.014   3.545   1.432
  884TIP3    H2 2592   2.916   3.433   1.403
  885TIP3   OH2 2593   3.336   3.915   0.279
  885TIP3    H1 2594   3.414   3.971   0.282
  885TIP3    H2 2595   3.276   3.962   0.222
  886TIP3   OH2 2596   3.044   4.067   1.358
  886TIP3    H1 2597   3.018   4.074   1.266
  886TIP3    H2 2598   2.962   4.049   1.404
  887TIP3   OH2 2599   4.076   2.492   0.020
  887TIP3    H1 2600   4.014   2.520   0.086
  887TIP3    H2 2601   4.114   2.574  -0.013
  888TIP3   OH2 2602   2.813   3.207   0.440
  888TIP3    H1 2603   2.788   3.278   0.381
  888TIP3    H2 2604   2.739   3.146   0.438
  889TIP3   OH2 2605   2.632   3.614   1.308
  889TIP3    H1 2606   2.566   3.600   1.241
  889TIP3    H2 2607   2.667   3.527   1.326
  890TIP3   OH2 2608   2.481   3.808   0.953
  890TIP3    H1 2609   2.576   3.821   0.950
  890TIP3    H2 2610   2.447   3.889   0.991
  891TIP3   OH2 2611   4.338   4.260   1.004
  891TIP3    H1 2612   4.343   4.165   1.016
  891TIP3    H2 2613   4.258   4.286   1.048
  892TIP3   OH2 2614   3.444   4.042   1.132
  892TIP3    H1 2615   3.439   4.134   1.159
  892TIP3    H2 2616   3.376   3.998   1.183
  893TIP3   OH2 2617   3.206   4.156   0.086
  893TIP3    H1 2618   3.158   4.134   0.006
  893TIP3    H2 2619   3.171   4.242   0.112
  894TIP3   OH2 2620   2.663   4.019   0.473
  894TIP3    H1 2621   2.709   4.011   0.557
  894TIP3    H2 2622   2.615   3.936   0.465
  895TIP3   OH2 2623   0.586   0.032   6.709
  895TIP3    H1 2624   0.660  -0.018   6.675
  895TIP3    H2 2625   0.613   0.058   6.797
  896TIP3   OH2 2626   3.466   4.121   0.024
  896TIP3    H1 2627   3.375   4.126   0.053
  896TIP3    H2 2628   3.514   4.088   0.100
  897TIP3   OH2 2629   4.223   3.382   1.282
  897TIP3    H1 2630   4.145   3.391   1.228
  897TIP3    H2 2631   4.244   3.289   1.278
  898TIP3   OH2 2632   2.836   3.797   1.282
  898TIP3    H1 2633   2.885   3.784   1.363
  898TIP3    H2 2634   2.763   3.736   1.288
  899TIP3   OH2 2635   3.263   2.626   1.102
  899TIP3    H1 2636   3.206   2.563   1.057
  899TIP3    H2 2637   3.204   2.692   1.136
  900TIP3   OH2 2638   3.770   2.731   1.285
  900TIP3    H1 2639   3.839   2.707   1.347
  900TIP3    H2 2640   3.688   2.715   1.333
  901TIP3   OH2 2641   3.989   3.154   1.196
  901TIP3    H1 2642   3.948   3.153   1.282
  901TIP3    H2 2643   3.974   3.243   1.163
  902TIP3   OH2 2644   6.511   7.337   6.670
  902TIP3    H1 2645   6.480   7.316   6.582
  902TIP3    H2 2646   6.494   7.431   6.680
  903TIP3   OH2 2647   3.235   2.637   0.069
  903TIP3    H1 2648   3.276   2.629   0.155
  903TIP3    H2 2649   3.286   2.579   0.013
  904TIP3   OH2 2650   3.174   3.149   1.115
  904TIP3    H1 2651   3.130   3.164   1.198
  904TIP3    H2 2652   3.156   3.228   1.063
  905TIP3   OH2 2653   3.068   3.036   0.643
  905TIP3    H1 2654   2.983   2.993   0.656
  905TIP3    H2 2655   3.095   3.008   0.555
  906TIP3   OH2 2656   3.549   3.114   0.339
  906TIP3    H1 2657   3.495   3.181   0.297
  906TIP3    H2 2658   3.603   3.079   0.267
  907TIP3   OH2 2659   3.711   3.369   1.422
  907TIP3    H1 2660   3.684   3.300   1.483
  907TIP3    H2 2661   3.804   3.383   1.441
  908TIP3   OH2 2662   3.690   3.120   0.579
  908TIP3    H1 2663   3.631   3.153   0.511
  908TIP3    H2 2664   3.735   3.047   0.537
  909TIP3   OH2 2665   2.993   3.159   1.323
  909TIP3    H1 2666   3.006   3.223   1.393
  909TIP3    H2 2667   2.974   3.077   1.368
  910TIP3   OH2 2668   5.806   6.619   6.922
  910TIP3    H1 2669   5.894   6.638   6.955
  910TIP3    H2 2670   5.772   6.704   6.894
  911TIP3   OH2 2671   2.605   2.706   0.912
  911TIP3    H1 2672   2.656   2.754   0.977
  911TIP3    H2 2673   2.578   2.772   0.849
  912TIP3   OH2 2674   2.483   2.672   0.335
  912TIP3    H1 2675   2.559   2.697   0.388
  912TIP3    H2 2676   2.409   2.716   0.376
  913TIP3   OH2 2677   3.719   3.368   1.000
  913TIP3    H1 2678   3.748   3.301   0.937
  913TIP3    H2 2679   3.679   3.318   1.071
  914TIP3   OH2 2680   3.433   2.863   0.712
  914TIP3    H1 2681   3.357   2.870   0.769
  914TIP3    H2 2682   3.503   2.832   0.769
  915TIP3   OH2 2683   2.842   2.877   0.713
  915TIP3    H1 2684   2.759   2.909   0.679
  915TIP3    H2 2685   2.860   2.797   0.664
  916TIP3   OH2 2686   3.164   2.940   0.401
  916TIP3    H1 2687   3.251   2.919   0.435
  916TIP3    H2 2688   3.174   2.937   0.306
  917TIP3   OH2 2689   3.868   2.907   0.882
  917TIP3    H1 2690   3.845   2.926   0.972
  917TIP3    H2 2691   3.801   2.845   0.852
  918TIP3   OH2 2692   2.936   2.859   0.138
  918TIP3    H1 2693   2.847   2.825   0.134
  918TIP3    H2 2694   2.927   2.953   0.124
  919TIP3   OH2 2695   4.048   4.605   1.100
  919TIP3    H1 2696   4.043   4.623   1.006
  919TIP3    H2 2697   4.126   4.651   1.129
  920TIP3   OH2 2698   2.993   3.713   1.515
  920TIP3    H1 2699   3.073   3.738   1.561
  920TIP3    H2 2700   2.924   3.721   1.582
  921TIP3   OH2 2701   3.463   3.181   0.777
  921TIP3    H1 2702   3.526   3.131   0.725
  921TIP3    H2 2703   3.460   3.135   0.861
  922TIP3   OH2 2704   3.111   2.677   0.698
  922TIP3    H1 2705   3.070   2.609   0.750
  922TIP3    H2 2706   3.070   2.671   0.612
  923TIP3   OH2 2707   3.433   3.077   1.046
  923TIP3    H1 2708   3.345   3.109   1.069
  923TIP3    H2 2709   3.492   3.130   1.099
  924TIP3   OH2 2710   3.197   3.478   0.168
  924TIP3    H1 2711   3.112   3.440   0.144
  924TIP3    H2 2712   3.183   3.515   0.256
  925TIP3   OH2 2713   4.057   3.693   0.768
  925TIP3    H1 2714   4.091   3.742   0.693
  925TIP3    H2 2715   3.976   3.654   0.736
  926TIP3   OH2 2716   6.570   6.811   6.893
  926TIP3    H1 2717   6.510   6.749   6.936
  926TIP3    H2 2718   6.558   6.892   6.942
  927TIP3   OH2 2719   3.564   3.774   1.166
  927TIP3    H1 2720   3.614   3.769   1.247
  927TIP3    H2 2721   3.525   3.862   1.167
  928TIP3   OH2 2722   3.708   3.024   0.121
  928TIP3    H1 2723   3.800   3.041   0.140
  928TIP3    H2 2724   3.680   3.099   0.069
  929TIP3   OH2 2725   2.869   3.488   0.819
  929TIP3    H1 2726   2.910   3.465   0.736
  929TIP3    H2 2727   2.919   3.439   0.885
  930TIP3   OH2 2728   6.168   7.628   6.916
  930TIP3    H1 2729   6.120   7.711   6.919
  930TIP3    H2 2730   6.118   7.570   6.974
  931TIP3   OH2 2731   2.739   3.385   1.441
  931TIP3    H1 2732   2.746   3.364   1.535
  931TIP3    H2 2733   2.663   3.336   1.411
  932TIP3   OH2 2734   3.475   3.518   1.461
  932TIP3    H1 2735   3.408   3.461   1.422
  932TIP3    H2 2736   3.558   3.481   1.432
  933TIP3   OH2 2737   3.716   4.051   1.056
  933TIP3    H1 2738   3.621   4.043   1.062
  933TIP3    H2 2739   3.742   4.096   1.136
  934TIP3   OH2 2740   6.945   7.126   6.903
  934TIP3    H1 2741   6.893   7.085   6.833
  934TIP3    H2 2742   6.953   7.218   6.876
  935TIP3   OH2 2743   4.353   3.977   1.033
  935TIP3    H1 2744   4.258   3.966   1.028
  935TIP3    H2 2745   4.385   3.947   0.948
  936TIP3   OH2 2746   6.654   7.915   6.820
  936TIP3    H1 2747   6.642   7.879   6.908
  936TIP3    H2 2748   6.638   7.841   6.761
  937TIP3   OH2 2749   3.823   3.561   0.669
  937TIP3    H1 2750   3.732   3.538   0.690
  937TIP3    H2 2751   3.860   3.481   0.631
  938TIP3   OH2 2752   2.964   3.795   0.471
  938TIP3    H1 2753   2.966   3.873   0.417
  938TIP3    H2 2754   2.871   3.779   0.488
  939TIP3   OH2 2755   2.529   3.137   0.080
  939TIP3    H1 2756   2.553   3.223   0.112
  939TIP3    H2 2757   2.450   3.114   0.128
  940TIP3   OH2 2758   3.090   3.559   0.406
  940TIP3    H1 2759   3.054   3.645   0.426
  940TIP3    H2 2760   3.053   3.502   0.473
  941TIP3   OH2 2761   3.253   4.120   0.927
  941TIP3    H1 2762   3.289   4.192   0.876
  941TIP3    H2 2763   3.328   4.084   0.975
  942TIP3   OH2 2764   2.892   4.027   0.325
  942TIP3    H1 2765   2.805   4.033   0.364
  942TIP3    H2 2766   2.925   4.117   0.326
  943TIP3   OH2 2767   3.611   3.772   0.894
  943TIP3    H1 2768   3.600   3.767   0.989
  943TIP3    H2 2769   3.689   3.719   0.876
  944TIP3   OH2 2770   6.437   7.598   6.714
  944TIP3    H1 2771   6.481   7.607   6.798
  944TIP3    H2 2772   6.343   7.603   6.735
  945TIP3   OH2 2773   3.864   4.285   0.937
  945TIP3    H1 2774   3.789   4.226   0.943
  945TIP3    H2 2775   3.843   4.343   0.865
  946TIP3   OH2 2776   2.945   2.901   1.447
  946TIP3    H1 2777   2.850   2.905   1.452
  946TIP3    H2 2778   2.971   2.848   1.524
  947TIP3   OH2 2779   3.764   3.586  -0.006
  947TIP3    H1 2780   3.750   3.521   0.063
  947TIP3    H2 2781   3.859   3.588  -0.018
  948TIP3   OH2 2782   2.683   4.003   1.087
  948TIP3    H1 2783   2.734   3.937   1.133
  948TIP3    H2 2784   2.703   4.085   1.133
  949TIP3   OH2 2785   5.876   7.605   6.764
  949TIP3    H1 2786   5.798   7.594   6.710
  949TIP3    H2 2787   5.842   7.625   6.851
  950TIP3   OH2 2788   2.929   3.663   0.070
  950TIP3    H1 2789   2.976   3.630   0.146
  950TIP3    H2 2790   2.932   3.758   0.079
  951TIP3   OH2 2791   2.685   3.382   0.273
  951TIP3    H1 2792   2.621   3.422   0.332
  951TIP3    H2 2793   2.654   3.403   0.185
  952TIP3   OH2 2794   3.793   2.966   1.140
  952TIP3    H1 2795   3.872   3.010   1.171
  952TIP3    H2 2796   3.786   2.887   1.194
  953TIP3   OH2 2797   3.695   2.707   0.324
  953TIP3    H1 2798   3.637   2.712   0.247
  953TIP3    H2 2799   3.723   2.798   0.338
  954TIP3   OH2 2800   6.022   7.858   6.934
  954TIP3    H1 2801   5.938   7.885   6.970
  954TIP3    H2 2802   6.030   7.907   6.852
  955TIP3   OH2 2803   3.428   2.893   0.443
  955TIP3    H1 2804   3.472   2.971   0.407
  955TIP3    H2 2805   3.435   2.904   0.538
  956TIP3   OH2 2806   3.632   3.201   1.201
  956TIP3    H1 2807   3.660   3.246   1.280
  956TIP3    H2 2808   3.684   3.121   1.199
  957TIP3   OH2 2809   3.557   2.650   0.554
  957TIP3    H1 2810   3.516   2.733   0.580
  957TIP3    H2 2811   3.601   2.671   0.472
  958TIP3   OH2 2812   2.938   3.933   0.073
  958TIP3    H1 2813   2.905   3.998   0.011
  958TIP3    H2 2814   2.918   3.970   0.159
  959TIP3   OH2 2815   3.034   2.672   0.313
  959TIP3    H1 2816   3.013   2.744   0.252
  959TIP3    H2 2817   3.129   2.678   0.324
  960TIP3   OH2 2818   4.257   3.114   1.197
  960TIP3    H1 2819   4.162   3.111   1.199
  960TIP3    H2 2820   4.280   3.083   1.109
  961TIP3   OH2 2821   3.916   3.305   0.578
  961TIP3    H1 2822   3.839   3.250   0.592
  961TIP3    H2 2823   3.985   3.263   0.629
  962TIP3   OH2 2824   5.545   7.631   6.851
  962TIP3    H1 2825   5.613   7.650   6.915
  962TIP3    H2 2826   5.496   7.558   6.889
  963TIP3   OH2 2827   2.676   2.788   0.167
  963TIP3    H1 2828   2.654   2.872   0.208
  963TIP3    H2 2829   2.614   2.726   0.205
  964TIP3   OH2 2830   3.891   4.272   0.513
  964TIP3    H1 2831   3.847   4.324   0.446
  964TIP3    H2 2832   3.984   4.288   0.498
  965TIP3   OH2 2833   2.877   2.535   1.075
  965TIP3    H1 2834   2.891   2.534   0.980
  965TIP3    H2 2835   2.959   2.502   1.111
  966TIP3   OH2 2836   2.508   3.786   0.473
  966TIP3    H1 2837   2.459   3.830   0.543
  966TIP3    H2 2838   2.478   3.828   0.392
  967TIP3   OH2 2839   2.674   4.312   1.508
  967TIP3    H1 2840   2.757   4.316   1.555
  967TIP3    H2 2841   2.656   4.219   1.497
  968TIP3   OH2 2842   3.143   4.236   1.552
  968TIP3    H1 2843   3.237   4.219   1.558
  968TIP3    H2 2844   3.113   4.180   1.481
  969TIP3   OH2 2845   5.978   7.829   6.637
  969TIP3    H1 2846   5.940   7.754   6.683
  969TIP3    H2 2847   6.049   7.791   6.585
  970TIP3   OH2 2848   3.770   4.170   1.298
  970TIP3    H1 2849   3.778   4.099   1.363
  970TIP3    H2 2850   3.846   4.225   1.315
  971TIP3   OH2 2851   2.787   3.707   1.704
  971TIP3    H1 2852   2.804   3.613   1.712
  971TIP3    H2 2853   2.702   3.713   1.661
  972TIP3   OH2 2854   5.640   7.302   6.866
  972TIP3    H1 2855   5.693   7.360   6.922
  972TIP3    H2 2856   5.658   7.333   6.777
  973TIP3   OH2 2857   3.403   3.795   1.478
  973TIP3    H1 2858   3.361   3.817   1.396
  973TIP3    H2 2859   3.439   3.707   1.464
  974TIP3   OH2 2860   6.140   7.526   6.653
  974TIP3    H1 2861   6.142   7.567   6.739
  974TIP3    H2 2862   6.053   7.486   6.647
  975TIP3   OH2 2863   3.884   3.827   1.092
  975TIP3    H1 2864   3.961   3.857   1.045
  975TIP3    H2 2865   3.818   3.894   1.076
  976TIP3   OH2 2866   2.905   3.448   1.703
  976TIP3    H1 2867   2.980   3.438   1.644
  976TIP3    H2 2868   2.944   3.474   1.787
  977TIP3   OH2 2869   2.943   3.379   0.153
  977TIP3    H1 2870   2.862   3.385   0.204
  977TIP3    H2 2871   2.966   3.286   0.156
  978TIP3   OH2 2872   3.258   3.332   1.360
  978TIP3    H1 2873   3.176   3.382   1.370
  978TIP3    H2 2874   3.296   3.365   1.279
  979TIP3   OH2 2875   5.937   7.092   6.819
  979TIP3    H1 2876   5.939   7.000   6.795
  979TIP3    H2 2877   6.029   7.117   6.829
  980TIP3   OH2 2878   3.765   3.717   1.464
  980TIP3    H1 2879   3.834   3.680   1.409
  980TIP3    H2 2880   3.762   3.658   1.540
  981TIP3   OH2 2881   3.368   3.109   1.472
  981TIP3    H1 2882   3.371   3.036   1.410
  981TIP3    H2 2883   3.332   3.182   1.422
  982TIP3   OH2 2884   3.371   2.905   1.274
  982TIP3    H1 2885   3.400   2.941   1.190
  982TIP3    H2 2886   3.282   2.873   1.257
  983TIP3   OH2 2887   3.390   3.441   1.151
  983TIP3    H1 2888   3.479   3.464   1.125
  983TIP3    H2 2889   3.335   3.504   1.104
  984TIP3   OH2 2890   3.980   3.397   1.521
  984TIP3    H1 2891   4.021   3.311   1.527
  984TIP3    H2 2892   4.050   3.455   1.493
  985TIP3   OH2 2893   4.011   3.658   1.262
  985TIP3    H1 2894   3.956   3.717   1.211
  985TIP3    H2 2895   4.100   3.674   1.231
  986TIP3   OH2 2896   3.251   3.203   1.713
  986TIP3    H1 2897   3.181   3.139   1.730
  986TIP3    H2 2898   3.280   3.182   1.624
  987TIP3   OH2 2899   3.506   2.678   1.367
  987TIP3    H1 2900   3.463   2.757   1.334
  987TIP3    H2 2901   3.440   2.609   1.358
  988TIP3   OH2 2902   3.627   3.153   1.569
  988TIP3    H1 2903   3.616   3.142   1.663
  988TIP3    H2 2904   3.541   3.132   1.532
  989TIP3   OH2 2905   3.872   3.111   1.435
  989TIP3    H1 2906   3.793   3.110   1.491
  989TIP3    H2 2907   3.943   3.084   1.493
  990TIP3   OH2 2908   4.101   3.064   1.588
  990TIP3    H1 2909   4.117   2.970   1.596
  990TIP3    H2 2910   4.098   3.096   1.678
  991TIP3   OH2 2911   3.085   2.981   1.775
  991TIP3    H1 2912   3.092   2.893   1.738
  991TIP3    H2 2913   3.123   2.974   1.862
  992TIP3   OH2 2914   3.573   2.658   1.631
  992TIP3    H1 2915   3.643   2.593   1.625
  992TIP3    H2 2916   3.543   2.670   1.541
  993TIP3   OH2 2917   3.659   2.876   1.776
  993TIP3    H1 2918   3.632   2.804   1.719
  993TIP3    H2 2919   3.587   2.938   1.773
  994TIP3   OH2 2920   0.056   0.120   6.824
  994TIP3    H1 2921   0.142   0.115   6.784
  994TIP3    H2 2922  -0.005   0.125   6.750
  995TIP3   OH2 2923   2.549   3.454   0.049
  995TIP3    H1 2924   2.512   3.539   0.073
  995TIP3    H2 2925   2.477   3.407   0.008
  996TIP3   OH2 2926   2.300   4.112   0.526
  996TIP3    H1 2927   2.237   4.052   0.486
  996TIP3    H2 2928   2.346   4.057   0.590
  997TIP3   OH2 2929   2.426   3.938   0.698
  997TIP3    H1 2930   2.401   3.871   0.761
  997TIP3    H2 2931   2.481   3.999   0.747
  998TIP3   OH2 2932   4.159   4.338   0.500
  998TIP3    H1 2933   4.177   4.365   0.590
  998TIP3    H2 2934   4.219   4.390   0.446
  999TIP3   OH2 2935   4.177   4.364   0.780
  999TIP3    H1 2936   4.131   4.280   0.776
  999TIP3    H2 2937   4.252   4.347   0.837
 1000TIP3   OH2 2938   4.227   4.057   1.353
 1000TIP3    H1 2939   4.156   4.066   1.417
 1000TIP3    H2 2940   4.272   4.142   1.355
 1001TIP3   OH2 2941   6.872   7.567   6.915
 1001TIP3    H1 2942   6.930   7.637   6.884
 1001TIP3    H2 2943   6.920   7.528   6.988
 1002TIP3   OH2 2944   4.180   3.425   0.170
 1002TIP3    H1 2945   4.114   3.389   0.229
 1002TIP3    H2 2946   4.245   3.465   0.228
 1003TIP3   OH2 2947   4.227   3.829   0.596
 1003TIP3    H1 2948   4.282   3.761   0.556
 1003TIP3    H2 2949   4.228   3.901   0.532
 1004TIP3   OH2 2950   4.039   4.121   0.790
 1004TIP3    H1 2951   3.970   4.165   0.840
 1004TIP3    H2 2952   3.993   4.079   0.717
 1005TIP3   OH2 2953   6.914   7.356   6.748
 1005TIP3    H1 2954   6.830   7.329   6.712
 1005TIP3    H2 2955   6.895   7.433   6.801
 1006TIP3   OH2 2956   6.807   7.046   6.684
 1006TIP3    H1 2957   6.783   7.067   6.594
 1006TIP3    H2 2958   6.797   6.950   6.690
 1007TIP3   OH2 2959   3.979   3.291   0.309
 1007TIP3    H1 2960   3.988   3.196   0.298
 1007TIP3    H2 2961   3.961   3.302   0.403
 1008TIP3   OH2 2962   2.616   3.352   1.085
 1008TIP3    H1 2963   2.613   3.336   0.991
 1008TIP3    H2 2964   2.709   3.361   1.105
 1009TIP3   OH2 2965   4.266   3.712   1.165
 1009TIP3    H1 2966   4.332   3.645   1.149
 1009TIP3    H2 2967   4.283   3.779   1.099
 1010TIP3   OH2 2968   4.439   3.501   1.161
 1010TIP3    H1 2969   4.366   3.459   1.206
 1010TIP3    H2 2970   4.514   3.444   1.180
 1011TIP3   OH2 2971   6.785   6.779   6.723
 1011TIP3    H1 2972   6.866   6.739   6.757
 1011TIP3    H2 2973   6.725   6.776   6.797
 1012TIP3   OH2 2974   3.985   3.019   0.194
 1012TIP3    H1 2975   4.028   2.935   0.206
 1012TIP3    H2 2976   4.030   3.060   0.120
 1013TIP3   OH2 2977   4.131   3.178   0.708
 1013TIP3    H1 2978   4.212   3.198   0.661
 1013TIP3    H2 2979   4.144   3.216   0.795
 1014TIP3   OH2 2980   4.203   3.328   0.938
 1014TIP3    H1 2981   4.128   3.360   0.988
 1014TIP3    H2 2982   4.236   3.406   0.892
 1015TIP3   OH2 2983   2.820   3.037   1.718
 1015TIP3    H1 2984   2.915   3.035   1.732
 1015TIP3    H2 2985   2.789   2.956   1.758
 1016TIP3   OH2 2986   4.661   2.927   1.480
 1016TIP3    H1 2987   4.723   2.868   1.437
 1016TIP3    H2 2988   4.623   2.979   1.409
 1017TIP3   OH2 2989   4.095   2.766   0.235
 1017TIP3    H1 2990   4.137   2.752   0.319
 1017TIP3    H2 2991   4.027   2.697   0.231
 1018TIP3   OH2 2992   2.777   2.790   1.108
 1018TIP3    H1 2993   2.815   2.702   1.106
 1018TIP3    H2 2994   2.850   2.848   1.089
 1019TIP3   OH2 2995   2.615   3.063   1.143
 1019TIP3    H1 2996   2.664   3.042   1.063
 1019TIP3    H2 2997   2.620   3.159   1.149
 1020TIP3   OH2 2998   4.512   3.045   1.285
 1020TIP3    H1 2999   4.427   3.086   1.299
 1020TIP3    H2 3000   4.492   2.968   1.230
 1021TIP3   OH2 3001   7.031   6.689   6.800
 1021TIP3    H1 3002   7.110   6.634   6.794
 1021TIP3    H2 3003   7.065   6.778   6.811
 1022TIP3   OH2 3004   2.540   2.640   0.643
 1022TIP3    H1 3005   2.508   2.553   0.619
 1022TIP3    H2 3006   2.608   2.660   0.578
 1023TIP3   OH2 3007   3.748   4.231   0.148
 1023TIP3    H1 3008   3.786   4.216   0.061
 1023TIP3    H2 3009   3.784   4.315   0.176
 1024TIP3   OH2 3010   2.795   2.581   1.448
 1024TIP3    H1 3011   2.748   2.573   1.531
 1024TIP3    H2 3012   2.736   2.630   1.391
 1025TIP3   OH2 3013   2.820   4.031   1.522
 1025TIP3    H1 3014   2.727   4.012   1.512
 1025TIP3    H2 3015   2.836   4.023   1.616
 1026TIP3   OH2 3016   3.024   4.077   1.075
 1026TIP3    H1 3017   2.971   4.150   1.041
 1026TIP3    H2 3018   3.109   4.087   1.032
 1027TIP3   OH2 3019   3.436   4.310   1.210
 1027TIP3    H1 3020   3.474   4.304   1.298
 1027TIP3    H2 3021   3.499   4.362   1.160
 1028TIP3   OH2 3022   3.623   4.465   1.080
 1028TIP3    H1 3023   3.687   4.414   1.030
 1028TIP3    H2 3024   3.677   4.521   1.136
 1029TIP3   OH2 3025   4.422   2.805   1.171
 1029TIP3    H1 3026   4.337   2.802   1.127
 1029TIP3    H2 3027   4.456   2.716   1.163
 1030TIP3   OH2 3028   2.687   4.325   1.119
 1030TIP3    H1 3029   2.596   4.342   1.095
 1030TIP3    H2 3030   2.708   4.390   1.185
 1031TIP3   OH2 3031   2.917   4.307   0.967
 1031TIP3    H1 3032   2.833   4.314   1.013
 1031TIP3    H2 3033   2.897   4.333   0.877
 1032TIP3   OH2 3034   3.338   4.325   0.759
 1032TIP3    H1 3035   3.269   4.338   0.694
 1032TIP3    H2 3036   3.350   4.411   0.799
 1033TIP3   OH2 3037   3.603   4.262   0.813
 1033TIP3    H1 3038   3.512   4.280   0.792
 1033TIP3    H2 3039   3.653   4.328   0.765
 1034TIP3   OH2 3040   3.804   4.440   0.715
 1034TIP3    H1 3041   3.795   4.527   0.676
 1034TIP3    H2 3042   3.834   4.384   0.643
 1035TIP3   OH2 3043   2.599   4.107   0.843
 1035TIP3    H1 3044   2.622   4.079   0.932
 1035TIP3    H2 3045   2.672   4.076   0.789
 1036TIP3   OH2 3046   2.804   3.996   0.706
 1036TIP3    H1 3047   2.815   3.913   0.753
 1036TIP3    H2 3048   2.892   4.034   0.704
 1037TIP3   OH2 3049   3.071   4.076   0.718
 1037TIP3    H1 3050   3.091   3.984   0.702
 1037TIP3    H2 3051   3.123   4.099   0.795
 1038TIP3   OH2 3052   3.649   2.733   0.829
 1038TIP3    H1 3053   3.605   2.659   0.871
 1038TIP3    H2 3054   3.706   2.693   0.764
 1039TIP3   OH2 3055   4.133   2.622   0.691
 1039TIP3    H1 3056   4.172   2.678   0.624
 1039TIP3    H2 3057   4.041   2.647   0.693
 1040TIP3   OH2 3058   4.247   2.716   0.459
 1040TIP3    H1 3059   4.318   2.658   0.430
 1040TIP3    H2 3060   4.283   2.804   0.450
 1041TIP3   OH2 3061   2.939   2.492   0.805
 1041TIP3    H1 3062   2.873   2.530   0.746
 1041TIP3    H2 3063   2.948   2.401   0.775
 1042TIP3   OH2 3064   2.848   2.337   0.560
 1042TIP3    H1 3065   2.865   2.309   0.471
 1042TIP3    H2 3066   2.755   2.359   0.562
 1043TIP3   OH2 3067   3.378   2.506   0.700
 1043TIP3    H1 3068   3.435   2.552   0.639
 1043TIP3    H2 3069   3.410   2.532   0.786
 1044TIP3   OH2 3070   3.851   2.617   0.676
 1044TIP3    H1 3071   3.834   2.582   0.589
 1044TIP3    H2 3072   3.844   2.542   0.734
 1045TIP3   OH2 3073   3.908   2.562   0.225
 1045TIP3    H1 3074   3.829   2.608   0.255
 1045TIP3    H2 3075   3.903   2.476   0.268
 1046TIP3   OH2 3076   2.435   3.908   0.243
 1046TIP3    H1 3077   2.355   3.861   0.222
 1046TIP3    H2 3078   2.420   3.998   0.214
 1047TIP3   OH2 3079   2.746   2.531   0.264
 1047TIP3    H1 3080   2.742   2.498   0.174
 1047TIP3    H2 3081   2.785   2.618   0.257
 1048TIP3   OH2 3082   3.314   2.664   0.334
 1048TIP3    H1 3083   3.369   2.591   0.361
 1048TIP3    H2 3084   3.362   2.742   0.364
 1049TIP3   OH2 3085   0.314   0.067   6.741
 1049TIP3    H1 3086   0.406   0.085   6.723
 1049TIP3    H2 3087   0.295  -0.012   6.690
 1050TIP3   OH2 3088   1.032   0.174   6.837
 1050TIP3    H1 3089   1.025   0.079   6.829
 1050TIP3    H2 3090   0.981   0.208   6.764
 1051TIP3   OH2 3091   3.093   2.705   1.689
 1051TIP3    H1 3092   3.057   2.638   1.747
 1051TIP3    H2 3093   3.185   2.712   1.713
 1052TIP3   OH2 3094   3.343   2.712   1.809
 1052TIP3    H1 3095   3.422   2.692   1.760
 1052TIP3    H2 3096   3.337   2.642   1.875
 1053TIP3   OH2 3097   5.346   8.005   6.836
 1053TIP3    H1 3098   5.339   7.958   6.918
 1053TIP3    H2 3099   5.353   7.936   6.769
 1054TIP3   OH2 3100   4.169   2.794   1.602
 1054TIP3    H1 3101   4.186   2.765   1.691
 1054TIP3    H2 3102   4.254   2.789   1.558
 1055TIP3   OH2 3103   4.088   4.331   1.102
 1055TIP3    H1 3104   4.014   4.301   1.050
 1055TIP3    H2 3105   4.076   4.426   1.110
 1056TIP3   OH2 3106   5.341   3.699   0.257
 1056TIP3    H1 3107   5.376   3.687   0.345
 1056TIP3    H2 3108   5.293   3.619   0.238
 1057TIP3   OH2 3109   4.663   3.584   0.624
 1057TIP3    H1 3110   4.698   3.525   0.692
 1057TIP3    H2 3111   4.740   3.612   0.575
 1058TIP3   OH2 3112   4.636   3.994   0.331
 1058TIP3    H1 3113   4.617   3.901   0.333
 1058TIP3    H2 3114   4.732   3.998   0.325
 1059TIP3   OH2 3115   4.345   3.211   0.093
 1059TIP3    H1 3116   4.306   3.293   0.121
 1059TIP3    H2 3117   4.272   3.160   0.058
 1060TIP3   OH2 3118   4.412   3.509   0.304
 1060TIP3    H1 3119   4.462   3.432   0.332
 1060TIP3    H2 3120   4.479   3.572   0.278
 1061TIP3   OH2 3121   5.171   3.927   0.281
 1061TIP3    H1 3122   5.205   3.845   0.247
 1061TIP3    H2 3123   5.248   3.973   0.314
 1062TIP3   OH2 3124   6.177   3.225   0.299
 1062TIP3    H1 3125   6.213   3.300   0.346
 1062TIP3    H2 3126   6.141   3.263   0.218
 1063TIP3   OH2 3127   5.578   3.413   0.339
 1063TIP3    H1 3128   5.621   3.333   0.368
 1063TIP3    H2 3129   5.517   3.384   0.272
 1064TIP3   OH2 3130   4.932   3.079   0.282
 1064TIP3    H1 3131   4.905   3.155   0.230
 1064TIP3    H2 3132   4.880   3.006   0.247
 1065TIP3   OH2 3133   8.429   7.186   6.893
 1065TIP3    H1 3134   8.507   7.185   6.947
 1065TIP3    H2 3135   8.458   7.152   6.808
 1066TIP3   OH2 3136   4.552   3.290   0.402
 1066TIP3    H1 3137   4.635   3.274   0.446
 1066TIP3    H2 3138   4.556   3.236   0.323
 1067TIP3   OH2 3139   4.968   3.501   0.217
 1067TIP3    H1 3140   5.062   3.485   0.222
 1067TIP3    H2 3141   4.930   3.417   0.190
 1068TIP3   OH2 3142   6.266   3.440   0.443
 1068TIP3    H1 3143   6.257   3.513   0.381
 1068TIP3    H2 3144   6.252   3.480   0.529
 1069TIP3   OH2 3145   4.902   3.062   0.727
 1069TIP3    H1 3146   4.858   3.108   0.655
 1069TIP3    H2 3147   4.859   3.095   0.806
 1070TIP3   OH2 3148   5.020   3.856   0.505
 1070TIP3    H1 3149   4.958   3.922   0.537
 1070TIP3    H2 3150   5.062   3.897   0.429
 1071TIP3   OH2 3151   5.825   3.196   0.099
 1071TIP3    H1 3152   5.841   3.123   0.159
 1071TIP3    H2 3153   5.885   3.264   0.129
 1072TIP3   OH2 3154   4.795   3.187   0.500
 1072TIP3    H1 3155   4.851   3.260   0.524
 1072TIP3    H2 3156   4.843   3.140   0.432
 1073TIP3   OH2 3157   4.842   4.042   0.604
 1073TIP3    H1 3158   4.829   4.127   0.562
 1073TIP3    H2 3159   4.764   4.029   0.657
 1074TIP3   OH2 3160   7.040   7.755   6.809
 1074TIP3    H1 3161   7.018   7.786   6.721
 1074TIP3    H2 3162   7.069   7.833   6.856
 1075TIP3   OH2 3163   5.965   3.169   0.471
 1075TIP3    H1 3164   5.879   3.167   0.429
 1075TIP3    H2 3165   6.027   3.170   0.398
 1076TIP3   OH2 3166   5.253   2.782   0.444
 1076TIP3    H1 3167   5.240   2.689   0.461
 1076TIP3    H2 3168   5.181   2.826   0.488
 1077TIP3   OH2 3169   5.906   4.095   0.487
 1077TIP3    H1 3170   5.870   4.057   0.407
 1077TIP3    H2 3171   5.879   4.186   0.486
 1078TIP3   OH2 3172   6.074   3.820   0.414
 1078TIP3    H1 3173   6.159   3.858   0.437
 1078TIP3    H2 3174   6.025   3.893   0.375
 1079TIP3   OH2 3175   4.763   3.627   0.080
 1079TIP3    H1 3176   4.715   3.558   0.035
 1079TIP3    H2 3177   4.839   3.583   0.118
 1080TIP3   OH2 3178   4.900   4.001   0.250
 1080TIP3    H1 3179   4.878   4.011   0.158
 1080TIP3    H2 3180   4.994   3.985   0.251
 1081TIP3   OH2 3181   4.880   3.627   0.448
 1081TIP3    H1 3182   4.915   3.594   0.366
 1081TIP3    H2 3183   4.932   3.705   0.467
 1082TIP3   OH2 3184   5.296   4.236   0.332
 1082TIP3    H1 3185   5.328   4.260   0.245
 1082TIP3    H2 3186   5.347   4.159   0.356
 1083TIP3   OH2 3187   5.036   4.149   0.769
 1083TIP3    H1 3188   4.977   4.212   0.810
 1083TIP3    H2 3189   4.980   4.098   0.710
 1084TIP3   OH2 3190   4.810   3.719   0.888
 1084TIP3    H1 3191   4.809   3.812   0.913
 1084TIP3    H2 3192   4.718   3.695   0.880
 1085TIP3   OH2 3193   4.837   4.325   0.849
 1085TIP3    H1 3194   4.812   4.327   0.756
 1085TIP3    H2 3195   4.755   4.307   0.895
 1086TIP3   OH2 3196   7.425   7.455   6.893
 1086TIP3    H1 3197   7.355   7.513   6.863
 1086TIP3    H2 3198   7.390   7.367   6.881
 1087TIP3   OH2 3199   4.426   3.871   0.794
 1087TIP3    H1 3200   4.359   3.851   0.729
 1087TIP3    H2 3201   4.463   3.786   0.817
 1088TIP3   OH2 3202   4.285   4.056   0.435
 1088TIP3    H1 3203   4.381   4.059   0.434
 1088TIP3    H2 3204   4.259   4.134   0.484
 1089TIP3   OH2 3205   6.096   4.463   0.463
 1089TIP3    H1 3206   6.190   4.462   0.480
 1089TIP3    H2 3207   6.063   4.538   0.513
 1090TIP3   OH2 3208   5.259   4.274   0.674
 1090TIP3    H1 3209   5.251   4.360   0.713
 1090TIP3    H2 3210   5.177   4.229   0.697
 1091TIP3   OH2 3211   4.415   4.237  -0.014
 1091TIP3    H1 3212   4.494   4.242   0.041
 1091TIP3    H2 3213   4.344   4.223   0.049
 1092TIP3   OH2 3214   4.625   4.059   0.772
 1092TIP3    H1 3215   4.676   4.045   0.852
 1092TIP3    H2 3216   4.554   3.994   0.777
 1093TIP3   OH2 3217   5.025   2.866   0.580
 1093TIP3    H1 3218   4.940   2.839   0.546
 1093TIP3    H2 3219   5.007   2.943   0.633
 1094TIP3   OH2 3220   5.556   2.947   0.775
 1094TIP3    H1 3221   5.638   2.942   0.824
 1094TIP3    H2 3222   5.507   3.017   0.818
 1095TIP3   OH2 3223   5.789   3.553   0.690
 1095TIP3    H1 3224   5.758   3.496   0.760
 1095TIP3    H2 3225   5.713   3.567   0.634
 1096TIP3   OH2 3226   4.958   3.392   0.580
 1096TIP3    H1 3227   4.918   3.401   0.666
 1096TIP3    H2 3228   4.940   3.476   0.537
 1097TIP3   OH2 3229   4.832   3.280   0.126
 1097TIP3    H1 3230   4.742   3.259   0.150
 1097TIP3    H2 3231   4.841   3.244   0.037
 1098TIP3   OH2 3232   5.521   3.638   0.916
 1098TIP3    H1 3233   5.487   3.578   0.982
 1098TIP3    H2 3234   5.615   3.645   0.935
 1099TIP3   OH2 3235   5.444   3.348   0.104
 1099TIP3    H1 3236   5.457   3.423   0.046
 1099TIP3    H2 3237   5.488   3.276   0.059
 1100TIP3   OH2 3238   4.794   3.411   0.805
 1100TIP3    H1 3239   4.843   3.464   0.867
 1100TIP3    H2 3240   4.778   3.329   0.851
 1101TIP3   OH2 3241   4.380   2.937   0.383
 1101TIP3    H1 3242   4.450   2.971   0.439
 1101TIP3    H2 3243   4.424   2.911   0.302
 1102TIP3   OH2 3244   7.140   6.934   6.846
 1102TIP3    H1 3245   7.185   6.963   6.767
 1102TIP3    H2 3246   7.079   7.005   6.866
 1103TIP3   OH2 3247   5.452   3.610   0.493
 1103TIP3    H1 3248   5.500   3.548   0.437
 1103TIP3    H2 3249   5.436   3.561   0.574
 1104TIP3   OH2 3250   5.196   3.079   0.175
 1104TIP3    H1 3251   5.115   3.077   0.227
 1104TIP3    H2 3252   5.265   3.086   0.240
 1105TIP3   OH2 3253   4.598   3.143   0.176
 1105TIP3    H1 3254   4.511   3.149   0.136
 1105TIP3    H2 3255   4.630   3.056   0.151
 1106TIP3   OH2 3256   7.698   7.158   6.822
 1106TIP3    H1 3257   7.793   7.147   6.830
 1106TIP3    H2 3258   7.686   7.210   6.743
 1107TIP3   OH2 3259   5.692   3.155   0.379
 1107TIP3    H1 3260   5.672   3.164   0.472
 1107TIP3    H2 3261   5.621   3.101   0.344
 1108TIP3   OH2 3262   5.906   4.885   0.515
 1108TIP3    H1 3263   5.851   4.954   0.477
 1108TIP3    H2 3264   5.927   4.917   0.603
 1109TIP3   OH2 3265   4.786   3.977   1.000
 1109TIP3    H1 3266   4.868   3.998   1.046
 1109TIP3    H2 3267   4.719   3.979   1.069
 1110TIP3   OH2 3268   5.233   3.442   0.253
 1110TIP3    H1 3269   5.298   3.391   0.206
 1110TIP3    H2 3270   5.235   3.407   0.342
 1111TIP3   OH2 3271   4.757   2.902   0.151
 1111TIP3    H1 3272   4.727   2.826   0.200
 1111TIP3    H2 3273   4.789   2.866   0.068
 1112TIP3   OH2 3274   5.231   3.351   0.510
 1112TIP3    H1 3275   5.142   3.352   0.545
 1112TIP3    H2 3276   5.286   3.374   0.585
 1113TIP3   OH2 3277   5.794   4.000   0.256
 1113TIP3    H1 3278   5.779   4.053   0.178
 1113TIP3    H2 3279   5.729   3.930   0.251
 1114TIP3   OH2 3280   5.361   4.011   0.651
 1114TIP3    H1 3281   5.416   3.998   0.728
 1114TIP3    H2 3282   5.321   4.097   0.664
 1115TIP3   OH2 3283   4.637   3.707   0.311
 1115TIP3    H1 3284   4.676   3.695   0.225
 1115TIP3    H2 3285   4.706   3.681   0.373
 1116TIP3   OH2 3286   4.536   3.652   0.931
 1116TIP3    H1 3287   4.553   3.634   1.023
 1116TIP3    H2 3288   4.467   3.591   0.907
 1117TIP3   OH2 3289   5.270   3.772   0.949
 1117TIP3    H1 3290   5.204   3.716   0.909
 1117TIP3    H2 3291   5.354   3.737   0.918
 1118TIP3   OH2 3292   5.527   4.266   0.590
 1118TIP3    H1 3293   5.432   4.256   0.597
 1118TIP3    H2 3294   5.550   4.323   0.664
 1119TIP3   OH2 3295   6.156   4.152   0.596
 1119TIP3    H1 3296   6.069   4.118   0.575
 1119TIP3    H2 3297   6.191   4.181   0.511
 1120TIP3   OH2 3298   5.599   3.809   0.222
 1120TIP3    H1 3299   5.507   3.785   0.216
 1120TIP3    H2 3300   5.646   3.733   0.189
 1121TIP3   OH2 3301   1.937   0.040   6.943
 1121TIP3    H1 3302   1.945   0.119   6.891
 1121TIP3    H2 3303   1.850   0.046   6.984
 1122TIP3   OH2 3304   7.168   7.337   6.639
 1122TIP3    H1 3305   7.179   7.422   6.596
 1122TIP3    H2 3306   7.081   7.342   6.679
 1123TIP3   OH2 3307   7.722   7.819   6.852
 1123TIP3    H1 3308   7.682   7.901   6.880
 1123TIP3    H2 3309   7.679   7.753   6.907
 1124TIP3   OH2 3310   5.022   4.272   0.404
 1124TIP3    H1 3311   5.028   4.367   0.395
 1124TIP3    H2 3312   5.111   4.241   0.387
 1125TIP3   OH2 3313   5.423   4.000   0.383
 1125TIP3    H1 3314   5.413   3.993   0.477
 1125TIP3    H2 3315   5.499   3.946   0.362
 1126TIP3   OH2 3316   5.574   4.511   0.463
 1126TIP3    H1 3317   5.586   4.422   0.496
 1126TIP3    H2 3318   5.522   4.500   0.384
 1127TIP3   OH2 3319   4.743   3.163   0.935
 1127TIP3    H1 3320   4.647   3.163   0.941
 1127TIP3    H2 3321   4.771   3.106   1.007
 1128TIP3   OH2 3322   4.475   4.256   0.583
 1128TIP3    H1 3323   4.530   4.195   0.633
 1128TIP3    H2 3324   4.494   4.342   0.621
 1129TIP3   OH2 3325   5.638   3.202   0.637
 1129TIP3    H1 3326   5.659   3.263   0.707
 1129TIP3    H2 3327   5.573   3.143   0.674
 1130TIP3   OH2 3328   7.973   7.149   6.853
 1130TIP3    H1 3329   8.035   7.216   6.826
 1130TIP3    H2 3330   7.991   7.137   6.946
 1131TIP3   OH2 3331   5.429   3.457   0.718
 1131TIP3    H1 3332   5.455   3.522   0.785
 1131TIP3    H2 3333   5.426   3.374   0.766
 1132TIP3   OH2 3334   5.305   2.873   0.021
 1132TIP3    H1 3335   5.272   2.947   0.072
 1132TIP3    H2 3336   5.386   2.906  -0.018
 1133TIP3   OH2 3337   7.624   6.884   6.763
 1133TIP3    H1 3338   7.616   6.978   6.782
 1133TIP3    H2 3339   7.719   6.868   6.759
 1134TIP3   OH2 3340   6.020   3.393   0.640
 1134TIP3    H1 3341   5.976   3.347   0.711
 1134TIP3    H2 3342   6.026   3.329   0.570
 1135TIP3   OH2 3343   5.707   3.562   0.149
 1135TIP3    H1 3344   5.759   3.493   0.106
 1135TIP3    H2 3345   5.662   3.517   0.221
 1136TIP3   OH2 3346   7.203   7.065   6.616
 1136TIP3    H1 3347   7.200   7.160   6.625
 1136TIP3    H2 3348   7.201   7.049   6.522
 1137TIP3   OH2 3349   4.759   2.784   0.535
 1137TIP3    H1 3350   4.732   2.750   0.450
 1137TIP3    H2 3351   4.749   2.710   0.594
 1138TIP3   OH2 3352   1.437  -0.010   6.901
 1138TIP3    H1 3353   1.396   0.030   6.978
 1138TIP3    H2 3354   1.499   0.056   6.870
 1139TIP3   OH2 3355   4.472   4.569   0.995
 1139TIP3    H1 3356   4.555   4.572   1.044
 1139TIP3    H2 3357   4.456   4.475   0.982
 1140TIP3   OH2 3358   4.940   4.494   1.040
 1140TIP3    H1 3359   5.032   4.469   1.050
 1140TIP3    H2 3360   4.907   4.437   0.970
 1141TIP3   OH2 3361   5.585   4.429   0.800
 1141TIP3    H1 3362   5.579   4.359   0.865
 1141TIP3    H2 3363   5.660   4.481   0.828
 1142TIP3   OH2 3364   4.583   3.963   1.191
 1142TIP3    H1 3365   4.602   3.870   1.197
 1142TIP3    H2 3366   4.497   3.967   1.148
 1143TIP3   OH2 3367   5.199   4.049   0.967
 1143TIP3    H1 3368   5.151   4.069   0.887
 1143TIP3    H2 3369   5.234   3.961   0.953
 1144TIP3   OH2 3370   5.683   4.038   0.652
 1144TIP3    H1 3371   5.763   4.047   0.601
 1144TIP3    H2 3372   5.627   4.110   0.621
 1145TIP3   OH2 3373   4.703   3.706   1.185
 1145TIP3    H1 3374   4.780   3.687   1.131
 1145TIP3    H2 3375   4.738   3.729   1.271
 1146TIP3   OH2 3376   5.051   3.585   0.838
 1146TIP3    H1 3377   4.973   3.641   0.846
 1146TIP3    H2 3378   5.095   3.617   0.760
 1147TIP3   OH2 3379   5.556   3.977   0.964
 1147TIP3    H1 3380   5.595   3.928   0.891
 1147TIP3    H2 3381   5.552   3.914   1.036
 1148TIP3   OH2 3382   5.128   3.357   0.979
 1148TIP3    H1 3383   5.200   3.305   0.943
 1148TIP3    H2 3384   5.115   3.427   0.914
 1149TIP3   OH2 3385   5.198   3.694   0.638
 1149TIP3    H1 3386   5.281   3.696   0.591
 1149TIP3    H2 3387   5.143   3.760   0.595
 1150TIP3   OH2 3388   5.782   3.658   1.027
 1150TIP3    H1 3389   5.825   3.592   1.081
 1150TIP3    H2 3390   5.846   3.730   1.021
 1151TIP3   OH2 3391   5.032   3.464   1.211
 1151TIP3    H1 3392   4.966   3.399   1.234
 1151TIP3    H2 3393   5.060   3.439   1.123
 1152TIP3   OH2 3394   5.432   3.450   1.085
 1152TIP3    H1 3395   5.383   3.430   1.165
 1152TIP3    H2 3396   5.427   3.369   1.034
 1153TIP3   OH2 3397   5.707   3.355   0.866
 1153TIP3    H1 3398   5.626   3.315   0.898
 1153TIP3    H2 3399   5.770   3.339   0.937
 1154TIP3   OH2 3400   5.918   3.317   1.049
 1154TIP3    H1 3401   5.922   3.224   1.072
 1154TIP3    H2 3402   5.896   3.361   1.131
 1155TIP3   OH2 3403   4.874   3.238   1.271
 1155TIP3    H1 3404   4.886   3.155   1.226
 1155TIP3    H2 3405   4.916   3.225   1.356
 1156TIP3   OH2 3406   5.362   2.946   1.100
 1156TIP3    H1 3407   5.425   2.879   1.077
 1156TIP3    H2 3408   5.365   3.009   1.028
 1157TIP3   OH2 3409   5.451   3.144   1.274
 1157TIP3    H1 3410   5.428   3.081   1.206
 1157TIP3    H2 3411   5.384   3.212   1.268
 1158TIP3   OH2 3412   4.068   4.332   0.005
 1158TIP3    H1 3413   4.005   4.278  -0.042
 1158TIP3    H2 3414   4.108   4.273   0.068
 1159TIP3   OH2 3415   4.224   4.184   0.186
 1159TIP3    H1 3416   4.209   4.114   0.249
 1159TIP3    H2 3417   4.266   4.253   0.236
 1160TIP3   OH2 3418   5.956   4.683   0.320
 1160TIP3    H1 3419   5.903   4.617   0.277
 1160TIP3    H2 3420   6.045   4.649   0.316
 1161TIP3   OH2 3421   5.983   4.217   0.939
 1161TIP3    H1 3422   5.932   4.263   1.005
 1161TIP3    H2 3423   6.000   4.283   0.871
 1162TIP3   OH2 3424   5.771   4.517   0.228
 1162TIP3    H1 3425   5.734   4.469   0.302
 1162TIP3    H2 3426   5.748   4.465   0.151
 1163TIP3   OH2 3427   4.400   3.616   0.558
 1163TIP3    H1 3428   4.393   3.582   0.469
 1163TIP3    H2 3429   4.494   3.615   0.576
 1164TIP3   OH2 3430   6.143   3.682   0.678
 1164TIP3    H1 3431   6.229   3.652   0.704
 1164TIP3    H2 3432   6.159   3.763   0.630
 1165TIP3   OH2 3433   5.983   3.415   0.178
 1165TIP3    H1 3434   6.023   3.476   0.115
 1165TIP3    H2 3435   5.972   3.467   0.257
 1166TIP3   OH2 3436   4.612   3.291   1.206
 1166TIP3    H1 3437   4.706   3.290   1.220
 1166TIP3    H2 3438   4.580   3.210   1.246
 1167TIP3   OH2 3439   6.455   3.187   0.961
 1167TIP3    H1 3440   6.517   3.124   0.923
 1167TIP3    H2 3441   6.423   3.237   0.886
 1168TIP3   OH2 3442   4.585   3.000   0.560
 1168TIP3    H1 3443   4.643   2.924   0.563
 1168TIP3    H2 3444   4.644   3.074   0.547
 1169TIP3   OH2 3445   4.374   3.272   0.618
 1169TIP3    H1 3446   4.425   3.263   0.537
 1169TIP3    H2 3447   4.403   3.354   0.656
 1170TIP3   OH2 3448   6.304   3.309   0.766
 1170TIP3    H1 3449   6.234   3.343   0.822
 1170TIP3    H2 3450   6.263   3.235   0.720
 1171TIP3   OH2 3451   4.363   2.775   0.126
 1171TIP3    H1 3452   4.275   2.774   0.165
 1171TIP3    H2 3453   4.355   2.836   0.052
 1172TIP3   OH2 3454   4.586   2.845   0.941
 1172TIP3    H1 3455   4.534   2.842   1.022
 1172TIP3    H2 3456   4.529   2.888   0.878
 1173TIP3   OH2 3457   4.614   4.292   1.013
 1173TIP3    H1 3458   4.521   4.270   1.001
 1173TIP3    H2 3459   4.630   4.275   1.106
 1174TIP3   OH2 3460   4.808   4.319   0.572
 1174TIP3    H1 3461   4.759   4.388   0.527
 1174TIP3    H2 3462   4.886   4.306   0.519
 1175TIP3   OH2 3463   5.236   4.553   0.726
 1175TIP3    H1 3464   5.280   4.551   0.811
 1175TIP3    H2 3465   5.286   4.616   0.674
 1176TIP3   OH2 3466   5.405   4.702   0.567
 1176TIP3    H1 3467   5.464   4.633   0.537
 1176TIP3    H2 3468   5.445   4.734   0.648
 1177TIP3   OH2 3469   6.206   3.055   0.673
 1177TIP3    H1 3470   6.119   3.037   0.638
 1177TIP3    H2 3471   6.253   2.972   0.664
 1178TIP3   OH2 3472   4.468   4.563   0.616
 1178TIP3    H1 3473   4.381   4.591   0.591
 1178TIP3    H2 3474   4.501   4.634   0.672
 1179TIP3   OH2 3475   4.679   4.524   0.445
 1179TIP3    H1 3476   4.596   4.544   0.488
 1179TIP3    H2 3477   4.663   4.542   0.352
 1180TIP3   OH2 3478   5.173   4.575   0.167
 1180TIP3    H1 3479   5.083   4.558   0.138
 1180TIP3    H2 3480   5.163   4.629   0.245
 1181TIP3   OH2 3481   5.432   4.492   0.227
 1181TIP3    H1 3482   5.343   4.497   0.263
 1181TIP3    H2 3483   5.425   4.528   0.139
 1182TIP3   OH2 3484   4.398   4.347   0.333
 1182TIP3    H1 3485   4.421   4.321   0.423
 1182TIP3    H2 3486   4.472   4.317   0.280
 1183TIP3   OH2 3487   4.599   4.227   0.191
 1183TIP3    H1 3488   4.610   4.149   0.246
 1183TIP3    H2 3489   4.685   4.268   0.189
 1184TIP3   OH2 3490   4.854   4.326   0.178
 1184TIP3    H1 3491   4.917   4.320   0.107
 1184TIP3    H2 3492   4.902   4.298   0.256
 1185TIP3   OH2 3493   5.450   2.984   0.294
 1185TIP3    H1 3494   5.403   2.913   0.337
 1185TIP3    H2 3495   5.509   2.940   0.232
 1186TIP3   OH2 3496   5.915   2.927   0.192
 1186TIP3    H1 3497   5.960   2.892   0.114
 1186TIP3    H2 3498   5.823   2.904   0.178
 1187TIP3   OH2 3499   4.672   2.679   0.294
 1187TIP3    H1 3500   4.581   2.649   0.302
 1187TIP3    H2 3501   4.724   2.599   0.290
 1188TIP3   OH2 3502   7.273   6.577   6.894
 1188TIP3    H1 3503   7.329   6.617   6.827
 1188TIP3    H2 3504   7.264   6.644   6.961
 1189TIP3   OH2 3505   5.126   2.741   0.192
 1189TIP3    H1 3506   5.188   2.782   0.131
 1189TIP3    H2 3507   5.162   2.762   0.279
 1190TIP3   OH2 3508   5.651   2.856   0.127
 1190TIP3    H1 3509   5.674   2.803   0.051
 1190TIP3    H2 3510   5.640   2.793   0.198
 1191TIP3   OH2 3511   7.413   6.708   6.703
 1191TIP3    H1 3512   7.455   6.636   6.655
 1191TIP3    H2 3513   7.483   6.772   6.715
 1192TIP3   OH2 3514   7.899   6.886   6.785
 1192TIP3    H1 3515   7.959   6.836   6.838
 1192TIP3    H2 3516   7.929   6.977   6.793
 1193TIP3   OH2 3517   4.887   2.965   1.176
 1193TIP3    H1 3518   4.854   2.897   1.234
 1193TIP3    H2 3519   4.980   2.973   1.199
 1194TIP3   OH2 3520   5.140   2.972   1.292
 1194TIP3    H1 3521   5.215   2.962   1.233
 1194TIP3    H2 3522   5.145   2.897   1.351
 1195TIP3   OH2 3523   5.965   3.048   1.091
 1195TIP3    H1 3524   5.981   3.021   1.181
 1195TIP3    H2 3525   6.051   3.045   1.049
 1196TIP3   OH2 3526   5.906   4.622   0.611
 1196TIP3    H1 3527   5.840   4.570   0.566
 1196TIP3    H2 3528   5.906   4.706   0.565
 1197TIP3   OH2 3529   6.685   3.316   0.213
 1197TIP3    H1 3530   6.625   3.356   0.151
 1197TIP3    H2 3531   6.643   3.327   0.298
 1198TIP3   OH2 3532   6.603   3.967   0.358
 1198TIP3    H1 3533   6.609   4.044   0.415
 1198TIP3    H2 3534   6.532   3.986   0.298
 1199TIP3   OH2 3535   6.332   3.993   0.226
 1199TIP3    H1 3536   6.313   4.064   0.165
 1199TIP3    H2 3537   6.299   4.024   0.310
 1200TIP3   OH2 3538   6.477   4.262   0.272
 1200TIP3    H1 3539   6.532   4.257   0.350
 1200TIP3    H2 3540   6.388   4.264   0.305
 1201TIP3   OH2 3541   7.320   3.129   0.275
 1201TIP3    H1 3542   7.374   3.206   0.287
 1201TIP3    H2 3543   7.234   3.154   0.309
 1202TIP3   OH2 3544   7.265   3.887   0.395
 1202TIP3    H1 3545   7.261   3.805   0.445
 1202TIP3    H2 3546   7.358   3.896   0.371
 1203TIP3   OH2 3547   6.493   3.693   0.361
 1203TIP3    H1 3548   6.562   3.759   0.355
 1203TIP3    H2 3549   6.539   3.614   0.391
 1204TIP3   OH2 3550   6.603   4.199   0.513
 1204TIP3    H1 3551   6.685   4.220   0.556
 1204TIP3    H2 3552   6.536   4.218   0.579
 1205TIP3   OH2 3553   6.329   3.877   0.505
 1205TIP3    H1 3554   6.392   3.905   0.571
 1205TIP3    H2 3555   6.379   3.823   0.445
 1206TIP3   OH2 3556   7.034   4.019   0.456
 1206TIP3    H1 3557   6.980   3.950   0.418
 1206TIP3    H2 3558   7.123   3.998   0.429
 1207TIP3   OH2 3559   6.548   3.406   0.438
 1207TIP3    H1 3560   6.452   3.403   0.441
 1207TIP3    H2 3561   6.576   3.356   0.515
 1208TIP3   OH2 3562   6.252   4.711   0.429
 1208TIP3    H1 3563   6.333   4.754   0.457
 1208TIP3    H2 3564   6.269   4.687   0.337
 1209TIP3   OH2 3565   6.708   4.655   0.527
 1209TIP3    H1 3566   6.772   4.667   0.596
 1209TIP3    H2 3567   6.744   4.703   0.452
 1210TIP3   OH2 3568   6.406   4.192   0.716
 1210TIP3    H1 3569   6.432   4.101   0.725
 1210TIP3    H2 3570   6.322   4.189   0.670
 1211TIP3   OH2 3571   6.989   4.298   0.419
 1211TIP3    H1 3572   6.945   4.277   0.337
 1211TIP3    H2 3573   7.051   4.227   0.433
 1212TIP3   OH2 3574   6.532   3.928   0.692
 1212TIP3    H1 3575   6.616   3.902   0.654
 1212TIP3    H2 3576   6.555   3.964   0.778
 1213TIP3   OH2 3577   6.851   3.852   0.321
 1213TIP3    H1 3578   6.768   3.894   0.345
 1213TIP3    H2 3579   6.869   3.883   0.232
 1214TIP3   OH2 3580   7.261   4.204   0.473
 1214TIP3    H1 3581   7.305   4.288   0.464
 1214TIP3    H2 3582   7.312   4.157   0.539
 1215TIP3   OH2 3583   6.954   3.636   0.457
 1215TIP3    H1 3584   6.950   3.561   0.398
 1215TIP3    H2 3585   6.925   3.710   0.404
 1216TIP3   OH2 3586   6.930   3.430   0.271
 1216TIP3    H1 3587   6.981   3.396   0.197
 1216TIP3    H2 3588   6.841   3.399   0.254
 1217TIP3   OH2 3589   7.576   3.903   0.546
 1217TIP3    H1 3590   7.545   3.821   0.508
 1217TIP3    H2 3591   7.654   3.925   0.495
 1218TIP3   OH2 3592   6.820   3.726   0.685
 1218TIP3    H1 3593   6.760   3.656   0.708
 1218TIP3    H2 3594   6.861   3.697   0.604
 1219TIP3   OH2 3595   7.080   3.219   0.378
 1219TIP3    H1 3596   7.031   3.298   0.354
 1219TIP3    H2 3597   7.015   3.148   0.374
 1220TIP3   OH2 3598   7.224   3.651   0.541
 1220TIP3    H1 3599   7.219   3.654   0.637
 1220TIP3    H2 3600   7.133   3.641   0.513
 1221TIP3   OH2 3601   7.481   3.673   0.434
 1221TIP3    H1 3602   7.397   3.648   0.473
 1221TIP3    H2 3603   7.544   3.611   0.472
 1222TIP3   OH2 3604   7.679   3.537   0.569
 1222TIP3    H1 3605   7.692   3.451   0.609
 1222TIP3    H2 3606   7.690   3.599   0.641
 1223TIP3   OH2 3607   6.662   3.506   0.759
 1223TIP3    H1 3608   6.666   3.416   0.727
 1223TIP3    H2 3609   6.704   3.503   0.845
 1224TIP3   OH2 3610   7.166   3.175   0.633
 1224TIP3    H1 3611   7.246   3.125   0.619
 1224TIP3    H2 3612   7.129   3.185   0.546
 1225TIP3   OH2 3613   7.250   3.401   0.757
 1225TIP3    H1 3614   7.219   3.323   0.711
 1225TIP3    H2 3615   7.176   3.461   0.756
 1226TIP3   OH2 3616   6.389   3.566   0.723
 1226TIP3    H1 3617   6.485   3.569   0.728
 1226TIP3    H2 3618   6.366   3.476   0.744
 1227TIP3   OH2 3619   6.380   3.107   0.450
 1227TIP3    H1 3620   6.327   3.089   0.527
 1227TIP3    H2 3621   6.317   3.126   0.380
 1228TIP3   OH2 3622   6.361   4.417   0.502
 1228TIP3    H1 3623   6.418   4.463   0.441
 1228TIP3    H2 3624   6.365   4.470   0.582
 1229TIP3   OH2 3625   6.680   3.235   0.693
 1229TIP3    H1 3626   6.649   3.160   0.744
 1229TIP3    H2 3627   6.773   3.240   0.714
 1230TIP3   OH2 3628   6.936   3.227   0.792
 1230TIP3    H1 3629   7.015   3.207   0.741
 1230TIP3    H2 3630   6.924   3.151   0.848
 1231TIP3   OH2 3631   0.442   4.304   1.461
 1231TIP3    H1 3632   0.459   4.390   1.498
 1231TIP3    H2 3633   0.487   4.305   1.376
 1232TIP3   OH2 3634   8.406   4.479   1.475
 1232TIP3    H1 3635   8.421   4.390   1.506
 1232TIP3    H2 3636   8.466   4.489   1.401
 1233TIP3   OH2 3637   0.487   4.529   1.622
 1233TIP3    H1 3638   0.425   4.596   1.593
 1233TIP3    H2 3639   0.455   4.503   1.708
 1234TIP3   OH2 3640   0.039   4.245   1.281
 1234TIP3    H1 3641   0.102   4.180   1.312
 1234TIP3    H2 3642   0.086   4.328   1.285
 1235TIP3   OH2 3643   0.227   4.206   1.623
 1235TIP3    H1 3644   0.137   4.216   1.592
 1235TIP3    H2 3645   0.281   4.223   1.546
 1236TIP3   OH2 3646   0.145   5.263   1.588
 1236TIP3    H1 3647   0.144   5.172   1.559
 1236TIP3    H2 3648   0.119   5.313   1.511
 1237TIP3   OH2 3649   0.079   4.734   1.779
 1237TIP3    H1 3650   0.069   4.812   1.834
 1237TIP3    H2 3651  -0.009   4.717   1.746
 1238TIP3   OH2 3652   0.419   5.551   1.696
 1238TIP3    H1 3653   0.420   5.456   1.698
 1238TIP3    H2 3654   0.328   5.575   1.715
 1239TIP3   OH2 3655   0.293   4.664   1.949
 1239TIP3    H1 3656   0.211   4.681   1.903
 1239TIP3    H2 3657   0.303   4.569   1.946
 1240TIP3   OH2 3658   8.364   4.023   1.934
 1240TIP3    H1 3659   8.438   4.000   1.990
 1240TIP3    H2 3660   8.288   4.023   1.993
 1241TIP3   OH2 3661   0.053   4.453   1.830
 1241TIP3    H1 3662   0.026   4.448   1.921
 1241TIP3    H2 3663   0.024   4.540   1.801
 1242TIP3   OH2 3664   8.354   4.687   2.059
 1242TIP3    H1 3665   8.384   4.620   2.119
 1242TIP3    H2 3666   8.396   4.767   2.089
 1243TIP3   OH2 3667   8.347   4.640   1.689
 1243TIP3    H1 3668   8.349   4.590   1.607
 1243TIP3    H2 3669   8.255   4.638   1.716
 1244TIP3   OH2 3670   8.447   4.218   1.570
 1244TIP3    H1 3671   8.396   4.227   1.651
 1244TIP3    H2 3672   8.388   4.170   1.511
 1245TIP3   OH2 3673   8.075   4.302   1.698
 1245TIP3    H1 3674   8.050   4.388   1.666
 1245TIP3    H2 3675   8.165   4.313   1.730
 1246TIP3   OH2 3676   0.148   4.980   1.485
 1246TIP3    H1 3677   0.073   4.986   1.426
 1246TIP3    H2 3678   0.109   4.961   1.571
 1247TIP3   OH2 3679   8.017   4.914   2.180
 1247TIP3    H1 3680   7.946   4.863   2.139
 1247TIP3    H2 3681   8.071   4.850   2.225
 1248TIP3   OH2 3682   0.405   5.271   1.690
 1248TIP3    H1 3683   0.310   5.280   1.682
 1248TIP3    H2 3684   0.432   5.228   1.609
 1249TIP3   OH2 3685   8.334   4.272   1.818
 1249TIP3    H1 3686   8.418   4.316   1.830
 1249TIP3    H2 3687   8.346   4.187   1.861
 1250TIP3   OH2 3688   8.194   4.510   1.902
 1250TIP3    H1 3689   8.250   4.578   1.940
 1250TIP3    H2 3690   8.252   4.434   1.892
 1251TIP3   OH2 3691   0.316   4.391   1.811
 1251TIP3    H1 3692   0.225   4.416   1.827
 1251TIP3    H2 3693   0.310   4.317   1.751
 1252TIP3   OH2 3694   8.324   5.511   2.001
 1252TIP3    H1 3695   8.282   5.501   2.086
 1252TIP3    H2 3696   8.406   5.557   2.019
 1253TIP3   OH2 3697   8.455   5.069   1.699
 1253TIP3    H1 3698   8.470   5.163   1.691
 1253TIP3    H2 3699   8.362   5.058   1.682
 1254TIP3   OH2 3700   7.924   4.109   1.866
 1254TIP3    H1 3701   7.960   4.156   1.791
 1254TIP3    H2 3702   7.870   4.173   1.911
 1255TIP3   OH2 3703   0.105   4.978   1.908
 1255TIP3    H1 3704   0.040   5.012   1.847
 1255TIP3    H2 3705   0.188   4.982   1.859
 1256TIP3   OH2 3706   8.048   3.891   2.012
 1256TIP3    H1 3707   8.016   3.969   1.966
 1256TIP3    H2 3708   7.983   3.824   1.994
 1257TIP3   OH2 3709   8.228   4.433   2.191
 1257TIP3    H1 3710   8.249   4.408   2.281
 1257TIP3    H2 3711   8.201   4.351   2.149
 1258TIP3   OH2 3712   8.474   4.407   2.077
 1258TIP3    H1 3713   8.391   4.405   2.126
 1258TIP3    H2 3714   8.541   4.386   2.142
 1259TIP3   OH2 3715   0.175   4.362   2.257
 1259TIP3    H1 3716   0.179   4.268   2.274
 1259TIP3    H2 3717   0.160   4.402   2.343
 1260TIP3   OH2 3718   8.241   3.985   2.185
 1260TIP3    H1 3719   8.281   3.901   2.209
 1260TIP3    H2 3720   8.159   3.961   2.141
 1261TIP3   OH2 3721   8.255   4.194   2.357
 1261TIP3    H1 3722   8.255   4.124   2.293
 1261TIP3    H2 3723   8.171   4.187   2.401
 1262TIP3   OH2 3724   0.276   5.347   1.999
 1262TIP3    H1 3725   0.202   5.354   2.059
 1262TIP3    H2 3726   0.320   5.432   2.006
 1263TIP3   OH2 3727   0.324   5.002   1.739
 1263TIP3    H1 3728   0.388   4.939   1.770
 1263TIP3    H2 3729   0.362   5.088   1.759
 1264TIP3   OH2 3730   0.489   4.812   1.836
 1264TIP3    H1 3731   0.420   4.763   1.881
 1264TIP3    H2 3732   0.569   4.761   1.850
 1265TIP3   OH2 3733   0.179   4.474   1.368
 1265TIP3    H1 3734   0.253   4.507   1.318
 1265TIP3    H2 3735   0.215   4.456   1.455
 1266TIP3   OH2 3736   0.254   4.682   1.567
 1266TIP3    H1 3737   0.204   4.697   1.647
 1266TIP3    H2 3738   0.188   4.658   1.502
 1267TIP3   OH2 3739   0.718   4.228   2.137
 1267TIP3    H1 3740   0.771   4.163   2.091
 1267TIP3    H2 3741   0.680   4.281   2.067
 1268TIP3   OH2 3742   0.568   4.367   1.956
 1268TIP3    H1 3743   0.508   4.406   2.019
 1268TIP3    H2 3744   0.511   4.322   1.893
 1269TIP3   OH2 3745   0.471   4.098   1.839
 1269TIP3    H1 3746   0.381   4.074   1.815
 1269TIP3    H2 3747   0.520   4.017   1.832
 1270TIP3   OH2 3748   0.171   3.973   1.394
 1270TIP3    H1 3749   0.228   3.996   1.320
 1270TIP3    H2 3750   0.085   3.958   1.354
 1271TIP3   OH2 3751   0.302   4.036   1.166
 1271TIP3    H1 3752   0.317   3.974   1.096
 1271TIP3    H2 3753   0.341   4.118   1.135
 1272TIP3   OH2 3754   0.222   4.092   2.271
 1272TIP3    H1 3755   0.243   4.063   2.360
 1272TIP3    H2 3756   0.307   4.092   2.226
 1273TIP3   OH2 3757   0.152   5.597   1.752
 1273TIP3    H1 3758   0.089   5.527   1.766
 1273TIP3    H2 3759   0.099   5.677   1.746
 1274TIP3   OH2 3760   1.433   4.997   0.553
 1274TIP3    H1 3761   1.381   5.073   0.527
 1274TIP3    H2 3762   1.377   4.922   0.532
 1275TIP3   OH2 3763   1.417   5.014   0.926
 1275TIP3    H1 3764   1.463   4.992   1.008
 1275TIP3    H2 3765   1.375   4.933   0.899
 1276TIP3   OH2 3766   0.714   4.902   1.286
 1276TIP3    H1 3767   0.753   4.837   1.344
 1276TIP3    H2 3768   0.781   4.919   1.220
 1277TIP3   OH2 3769   1.667   5.318   0.619
 1277TIP3    H1 3770   1.658   5.245   0.681
 1277TIP3    H2 3771   1.694   5.391   0.674
 1278TIP3   OH2 3772   0.716   5.341   1.087
 1278TIP3    H1 3773   0.699   5.247   1.082
 1278TIP3    H2 3774   0.796   5.354   1.036
 1279TIP3   OH2 3775   0.555   4.806   0.954
 1279TIP3    H1 3776   0.560   4.727   1.007
 1279TIP3    H2 3777   0.597   4.782   0.871
 1280TIP3   OH2 3778   1.448   5.773   0.692
 1280TIP3    H1 3779   1.482   5.733   0.613
 1280TIP3    H2 3780   1.443   5.701   0.755
 1281TIP3   OH2 3781   1.216   5.226   0.960
 1281TIP3    H1 3782   1.253   5.149   0.917
 1281TIP3    H2 3783   1.292   5.281   0.980
 1282TIP3   OH2 3784   2.239   4.553   0.951
 1282TIP3    H1 3785   2.259   4.639   0.989
 1282TIP3    H2 3786   2.257   4.564   0.857
 1283TIP3   OH2 3787   1.624   4.724   0.980
 1283TIP3    H1 3788   1.664   4.638   0.995
 1283TIP3    H2 3789   1.584   4.716   0.894
 1284TIP3   OH2 3790   0.964   4.401   0.949
 1284TIP3    H1 3791   0.952   4.470   0.884
 1284TIP3    H2 3792   0.920   4.325   0.912
 1285TIP3   OH2 3793   1.683   4.502   0.578
 1285TIP3    H1 3794   1.749   4.486   0.646
 1285TIP3    H2 3795   1.734   4.534   0.503
 1286TIP3   OH2 3796   0.598   4.562   1.068
 1286TIP3    H1 3797   0.683   4.547   1.110
 1286TIP3    H2 3798   0.601   4.509   0.989
 1287TIP3   OH2 3799   1.022   4.799   0.877
 1287TIP3    H1 3800   1.117   4.792   0.881
 1287TIP3    H2 3801   0.994   4.719   0.834
 1288TIP3   OH2 3802   2.305   4.774   1.121
 1288TIP3    H1 3803   2.217   4.809   1.112
 1288TIP3    H2 3804   2.337   4.809   1.204
 1289TIP3   OH2 3805   0.953   4.381   1.402
 1289TIP3    H1 3806   0.907   4.418   1.327
 1289TIP3    H2 3807   0.895   4.399   1.476
 1290TIP3   OH2 3808   1.315   5.220   0.443
 1290TIP3    H1 3809   1.303   5.202   0.350
 1290TIP3    H2 3810   1.377   5.293   0.445
 1291TIP3   OH2 3811   1.064   5.147   1.175
 1291TIP3    H1 3812   1.012   5.219   1.211
 1291TIP3    H2 3813   1.108   5.186   1.099
 1292TIP3   OH2 3814   1.862   4.495   0.781
 1292TIP3    H1 3815   1.827   4.461   0.863
 1292TIP3    H2 3816   1.910   4.574   0.806
 1293TIP3   OH2 3817   0.843   4.488   1.175
 1293TIP3    H1 3818   0.897   4.564   1.198
 1293TIP3    H2 3819   0.886   4.450   1.098
 1294TIP3   OH2 3820   0.910   5.338   1.307
 1294TIP3    H1 3821   0.872   5.413   1.262
 1294TIP3    H2 3822   0.836   5.293   1.347
 1295TIP3   OH2 3823   1.715   5.559   0.759
 1295TIP3    H1 3824   1.628   5.555   0.800
 1295TIP3    H2 3825   1.717   5.645   0.717
 1296TIP3   OH2 3826   2.028   4.457   1.123
 1296TIP3    H1 3827   1.940   4.469   1.089
 1296TIP3    H2 3828   2.086   4.477   1.049
 1297TIP3   OH2 3829   1.297   4.099   1.109
 1297TIP3    H1 3830   1.291   4.008   1.137
 1297TIP3    H2 3831   1.224   4.143   1.153
 1298TIP3   OH2 3832   1.539   5.651   0.460
 1298TIP3    H1 3833   1.521   5.560   0.438
 1298TIP3    H2 3834   1.634   5.659   0.457
 1299TIP3   OH2 3835   1.542   5.387   0.390
 1299TIP3    H1 3836   1.578   5.333   0.320
 1299TIP3    H2 3837   1.587   5.357   0.469
 1300TIP3   OH2 3838   1.951   5.454   1.094
 1300TIP3    H1 3839   1.933   5.380   1.037
 1300TIP3    H2 3840   1.937   5.531   1.039
 1301TIP3   OH2 3841   1.221   4.865   0.323
 1301TIP3    H1 3842   1.182   4.790   0.279
 1301TIP3    H2 3843   1.297   4.888   0.270
 1302TIP3   OH2 3844   1.131   4.637   0.208
 1302TIP3    H1 3845   1.086   4.604   0.286
 1302TIP3    H2 3846   1.143   4.560   0.154
 1303TIP3   OH2 3847   2.137   5.116   0.952
 1303TIP3    H1 3848   2.051   5.159   0.953
 1303TIP3    H2 3849   2.170   5.130   0.864
 1304TIP3   OH2 3850   1.630   4.978   0.366
 1304TIP3    H1 3851   1.568   4.983   0.440
 1304TIP3    H2 3852   1.706   4.932   0.402
 1305TIP3   OH2 3853   1.823   4.980   1.256
 1305TIP3    H1 3854   1.818   5.062   1.305
 1305TIP3    H2 3855   1.740   4.975   1.208
 1306TIP3   OH2 3856   0.816   4.931   0.747
 1306TIP3    H1 3857   0.814   4.880   0.666
 1306TIP3    H2 3858   0.896   4.901   0.792
 1307TIP3   OH2 3859   0.949   5.335   0.933
 1307TIP3    H1 3860   0.934   5.372   0.847
 1307TIP3    H2 3861   1.035   5.293   0.927
 1308TIP3   OH2 3862   0.941   4.908   1.119
 1308TIP3    H1 3863   0.965   4.881   1.030
 1308TIP3    H2 3864   0.981   4.994   1.130
 1309TIP3   OH2 3865   1.477   5.566   0.889
 1309TIP3    H1 3866   1.472   5.631   0.959
 1309TIP3    H2 3867   1.463   5.482   0.933
 1310TIP3   OH2 3868   1.106   5.471   1.437
 1310TIP3    H1 3869   1.047   5.535   1.477
 1310TIP3    H2 3870   1.048   5.411   1.390
 1311TIP3   OH2 3871   1.436   4.943   0.178
 1311TIP3    H1 3872   1.510   4.941   0.239
 1311TIP3    H2 3873   1.475   4.956   0.092
 1312TIP3   OH2 3874   0.866   5.013   1.548
 1312TIP3    H1 3875   0.870   5.090   1.606
 1312TIP3    H2 3876   0.801   5.036   1.482
 1313TIP3   OH2 3877   0.895   5.636   1.502
 1313TIP3    H1 3878   0.861   5.635   1.412
 1313TIP3    H2 3879   0.821   5.610   1.556
 1314TIP3   OH2 3880   2.025   4.052   0.280
 1314TIP3    H1 3881   1.940   4.011   0.266
 1314TIP3    H2 3882   2.025   4.127   0.219
 1315TIP3   OH2 3883   0.435   5.124   1.445
 1315TIP3    H1 3884   0.403   5.184   1.378
 1315TIP3    H2 3885   0.528   5.144   1.452
 1316TIP3   OH2 3886   2.183   5.821   1.155
 1316TIP3    H1 3887   2.188   5.726   1.164
 1316TIP3    H2 3888   2.105   5.846   1.204
 1317TIP3   OH2 3889   1.288   5.597   1.281
 1317TIP3    H1 3890   1.285   5.690   1.306
 1317TIP3    H2 3891   1.224   5.555   1.337
 1318TIP3   OH2 3892   2.066   4.936   1.424
 1318TIP3    H1 3893   1.986   4.947   1.372
 1318TIP3    H2 3894   2.086   4.843   1.418
 1319TIP3   OH2 3895   0.684   5.234   1.480
 1319TIP3    H1 3896   0.741   5.258   1.553
 1319TIP3    H2 3897   0.654   5.317   1.444
 1320TIP3   OH2 3898   1.059   4.177   1.241
 1320TIP3    H1 3899   0.977   4.146   1.202
 1320TIP3    H2 3900   1.033   4.253   1.293
 1321TIP3   OH2 3901   1.606   4.297   1.436
 1321TIP3    H1 3902   1.675   4.264   1.492
 1321TIP3    H2 3903   1.524   4.266   1.476
 1322TIP3   OH2 3904   1.834   4.717   1.350
 1322TIP3    H1 3905   1.790   4.715   1.435
 1322TIP3    H2 3906   1.814   4.803   1.314
 1323TIP3   OH2 3907   1.113   4.212   0.258
 1323TIP3    H1 3908   1.058   4.285   0.230
 1323TIP3    H2 3909   1.127   4.160   0.179
 1324TIP3   OH2 3910   1.009   4.689   1.262
 1324TIP3    H1 3911   0.963   4.704   1.345
 1324TIP3    H2 3912   0.992   4.767   1.210
 1325TIP3   OH2 3913   0.896   4.580   0.753
 1325TIP3    H1 3914   0.808   4.547   0.736
 1325TIP3    H2 3915   0.942   4.568   0.670
 1326TIP3   OH2 3916   1.401   4.709   0.480
 1326TIP3    H1 3917   1.317   4.733   0.439
 1326TIP3    H2 3918   1.416   4.619   0.451
 1327TIP3   OH2 3919   1.554   4.925   1.575
 1327TIP3    H1 3920   1.528   4.855   1.634
 1327TIP3    H2 3921   1.647   4.939   1.593
 1328TIP3   OH2 3922   1.548   4.697   0.718
 1328TIP3    H1 3923   1.479   4.724   0.658
 1328TIP3    H2 3924   1.584   4.618   0.678
 1329TIP3   OH2 3925   0.828   4.721   1.469
 1329TIP3    H1 3926   0.846   4.789   1.534
 1329TIP3    H2 3927   0.804   4.644   1.520
 1330TIP3   OH2 3928   0.440   4.247   1.060
 1330TIP3    H1 3929   0.503   4.279   1.125
 1330TIP3    H2 3930   0.481   4.266   0.976
 1331TIP3   OH2 3931   1.566   4.925   1.149
 1331TIP3    H1 3932   1.591   4.858   1.085
 1331TIP3    H2 3933   1.523   4.876   1.219
 1332TIP3   OH2 3934   1.233   4.372   0.894
 1332TIP3    H1 3935   1.144   4.377   0.929
 1332TIP3    H2 3936   1.289   4.382   0.971
 1333TIP3   OH2 3937   0.634   4.416   0.836
 1333TIP3    H1 3938   0.582   4.403   0.756
 1333TIP3    H2 3939   0.699   4.346   0.833
 1334TIP3   OH2 3940   1.719   4.465   1.042
 1334TIP3    H1 3941   1.685   4.490   1.128
 1334TIP3    H2 3942   1.658   4.397   1.011
 1335TIP3   OH2 3943   1.894   6.165   1.250
 1335TIP3    H1 3944   1.892   6.181   1.156
 1335TIP3    H2 3945   1.973   6.211   1.280
 1336TIP3   OH2 3946   0.858   5.263   1.689
 1336TIP3    H1 3947   0.937   5.290   1.736
 1336TIP3    H2 3948   0.787   5.271   1.753
 1337TIP3   OH2 3949   1.298   4.757   0.922
 1337TIP3    H1 3950   1.294   4.702   0.844
 1337TIP3    H2 3951   1.319   4.696   0.993
 1338TIP3   OH2 3952   0.815   4.213   0.821
 1338TIP3    H1 3953   0.776   4.131   0.852
 1338TIP3    H2 3954   0.868   4.188   0.745
 1339TIP3   OH2 3955   1.271   4.616   1.209
 1339TIP3    H1 3956   1.184   4.654   1.222
 1339TIP3    H2 3957   1.331   4.679   1.251
 1340TIP3   OH2 3958   1.896   5.249   0.919
 1340TIP3    H1 3959   1.928   5.296   0.843
 1340TIP3    H2 3960   1.815   5.207   0.889
 1341TIP3   OH2 3961   1.542   4.396   0.091
 1341TIP3    H1 3962   1.481   4.331   0.125
 1341TIP3    H2 3963   1.562   4.451   0.167
 1342TIP3   OH2 3964   1.413   5.335   1.308
 1342TIP3    H1 3965   1.451   5.324   1.395
 1342TIP3    H2 3966   1.368   5.420   1.312
 1343TIP3   OH2 3967   1.583   4.573   0.288
 1343TIP3    H1 3968   1.670   4.603   0.316
 1343TIP3    H2 3969   1.538   4.652   0.259
 1344TIP3   OH2 3970   0.695   5.052   0.979
 1344TIP3    H1 3971   0.751   5.044   0.902
 1344TIP3    H2 3972   0.659   4.964   0.992
 1345TIP3   OH2 3973   1.325   5.081   1.606
 1345TIP3    H1 3974   1.263   5.041   1.544
 1345TIP3    H2 3975   1.409   5.041   1.584
 1346TIP3   OH2 3976   1.562   5.611   1.204
 1346TIP3    H1 3977   1.467   5.599   1.210
 1346TIP3    H2 3978   1.586   5.653   1.286
 1347TIP3   OH2 3979   1.973   4.669   0.120
 1347TIP3    H1 3980   1.902   4.634   0.066
 1347TIP3    H2 3981   1.990   4.756   0.084
 1348TIP3   OH2 3982   2.198   5.542   1.180
 1348TIP3    H1 3983   2.103   5.525   1.180
 1348TIP3    H2 3984   2.228   5.508   1.096
 1349TIP3   OH2 3985   1.664   5.116   0.820
 1349TIP3    H1 3986   1.574   5.092   0.840
 1349TIP3    H2 3987   1.704   5.036   0.785
 1350TIP3   OH2 3988   1.066   5.688   1.095
 1350TIP3    H1 3989   1.118   5.751   1.044
 1350TIP3    H2 3990   1.131   5.635   1.141
 1351TIP3   OH2 3991   1.465   5.330   1.037
 1351TIP3    H1 3992   1.452   5.326   1.132
 1351TIP3    H2 3993   1.529   5.261   1.019
 1352TIP3   OH2 3994   1.722   5.838   1.096
 1352TIP3    H1 3995   1.645   5.782   1.109
 1352TIP3    H2 3996   1.698   5.897   1.025
 1353TIP3   OH2 3997   0.753   4.448   1.589
 1353TIP3    H1 3998   0.670   4.494   1.601
 1353TIP3    H2 3999   0.734   4.356   1.609
 1354TIP3   OH2 4000   1.665   5.210   0.219
 1354TIP3    H1 4001   1.641   5.135   0.273
 1354TIP3    H2 4002   1.741   5.181   0.169
 1355TIP3   OH2 4003   0.620   5.448   1.336
 1355TIP3    H1 4004   0.653   5.424   1.249
 1355TIP3    H2 4005   0.616   5.543   1.336
 1356TIP3   OH2 4006   1.629   4.535   1.298
 1356TIP3    H1 4007   1.714   4.570   1.324
 1356TIP3    H2 4008   1.621   4.452   1.346
 1357TIP3   OH2 4009   1.567   4.287   0.459
 1357TIP3    H1 4010   1.503   4.313   0.392
 1357TIP3    H2 4011   1.596   4.369   0.498
 1358TIP3   OH2 4012   1.229   4.589   0.721
 1358TIP3    H1 4013   1.181   4.578   0.639
 1358TIP3    H2 4014   1.227   4.502   0.761
 1359TIP3   OH2 4015   1.470   4.762   1.347
 1359TIP3    H1 4016   1.500   4.803   1.428
 1359TIP3    H2 4017   1.522   4.682   1.341
 1360TIP3   OH2 4018   1.391   4.231   0.723
 1360TIP3    H1 4019   1.340   4.294   0.775
 1360TIP3    H2 4020   1.405   4.275   0.639
 1361TIP3   OH2 4021   0.830   4.298   0.415
 1361TIP3    H1 4022   0.884   4.377   0.422
 1361TIP3    H2 4023   0.858   4.243   0.488
 1362TIP3   OH2 4024   2.098   4.663   1.337
 1362TIP3    H1 4025   2.003   4.671   1.347
 1362TIP3    H2 4026   2.110   4.610   1.258
 1363TIP3   OH2 4027   1.765   4.868   0.735
 1363TIP3    H1 4028   1.685   4.815   0.736
 1363TIP3    H2 4029   1.827   4.818   0.788
 1364TIP3   OH2 4030   1.763   5.818   0.668
 1364TIP3    H1 4031   1.741   5.863   0.586
 1364TIP3    H2 4032   1.858   5.825   0.675
 1365TIP3   OH2 4033   0.796   4.089   1.185
 1365TIP3    H1 4034   0.758   4.055   1.105
 1365TIP3    H2 4035   0.789   4.017   1.248
 1366TIP3   OH2 4036   0.494   5.828   1.690
 1366TIP3    H1 4037   0.584   5.831   1.720
 1366TIP3    H2 4038   0.474   5.735   1.681
 1367TIP3   OH2 4039   0.986   5.791   1.711
 1367TIP3    H1 4040   1.079   5.771   1.717
 1367TIP3    H2 4041   0.957   5.744   1.633
 1368TIP3   OH2 4042   1.614   5.726   1.448
 1368TIP3    H1 4043   1.621   5.656   1.513
 1368TIP3    H2 4044   1.689   5.782   1.466
 1369TIP3   OH2 4045   0.632   5.274   1.857
 1369TIP3    H1 4046   0.655   5.182   1.867
 1369TIP3    H2 4047   0.547   5.273   1.813
 1370TIP3   OH2 4048   1.255   5.354   1.635
 1370TIP3    H1 4049   1.209   5.377   1.555
 1370TIP3    H2 4050   1.287   5.265   1.619
 1371TIP3   OH2 4051   1.730   5.385   1.247
 1371TIP3    H1 4052   1.806   5.416   1.198
 1371TIP3    H2 4053   1.661   5.448   1.227
 1372TIP3   OH2 4054   0.757   5.029   1.858
 1372TIP3    H1 4055   0.814   4.966   1.814
 1372TIP3    H2 4056   0.794   5.040   1.945
 1373TIP3   OH2 4057   1.098   4.871   1.513
 1373TIP3    H1 4058   1.021   4.926   1.524
 1373TIP3    H2 4059   1.144   4.908   1.437
 1374TIP3   OH2 4060   1.608   5.276   1.615
 1374TIP3    H1 4061   1.674   5.236   1.558
 1374TIP3    H2 4062   1.603   5.218   1.691
 1375TIP3   OH2 4063   1.222   4.658   1.625
 1375TIP3    H1 4064   1.220   4.585   1.564
 1375TIP3    H2 4065   1.181   4.730   1.578
 1376TIP3   OH2 4066   1.217   4.456   1.432
 1376TIP3    H1 4067   1.244   4.497   1.350
 1376TIP3    H2 4068   1.125   4.434   1.419
 1377TIP3   OH2 4069   1.240   5.003   1.325
 1377TIP3    H1 4070   1.324   5.008   1.278
 1377TIP3    H2 4071   1.180   5.055   1.272
 1378TIP3   OH2 4072   1.821   4.957   1.672
 1378TIP3    H1 4073   1.863   4.870   1.673
 1378TIP3    H2 4074   1.891   5.016   1.643
 1379TIP3   OH2 4075   1.851   5.214   1.417
 1379TIP3    H1 4076   1.797   5.274   1.365
 1379TIP3    H2 4077   1.940   5.228   1.384
 1380TIP3   OH2 4078   1.094   4.769   1.861
 1380TIP3    H1 4079   1.024   4.707   1.882
 1380TIP3    H2 4080   1.117   4.750   1.770
 1381TIP3   OH2 4081   1.341   4.224   1.515
 1381TIP3    H1 4082   1.303   4.305   1.482
 1381TIP3    H2 4083   1.277   4.157   1.494
 1382TIP3   OH2 4084   1.475   4.704   1.724
 1382TIP3    H1 4085   1.454   4.712   1.818
 1382TIP3    H2 4086   1.390   4.686   1.683
 1383TIP3   OH2 4087   1.718   4.674   1.589
 1383TIP3    H1 4088   1.640   4.671   1.644
 1383TIP3    H2 4089   1.789   4.644   1.646
 1384TIP3   OH2 4090   1.945   4.620   1.741
 1384TIP3    H1 4091   1.960   4.526   1.749
 1384TIP3    H2 4092   1.942   4.652   1.831
 1385TIP3   OH2 4093   0.942   4.542   1.916
 1385TIP3    H1 4094   0.947   4.461   1.866
 1385TIP3    H2 4095   0.981   4.521   2.001
 1386TIP3   OH2 4096   1.413   4.177   1.773
 1386TIP3    H1 4097   1.486   4.121   1.747
 1386TIP3    H2 4098   1.369   4.199   1.691
 1387TIP3   OH2 4099   1.457   4.418   1.911
 1387TIP3    H1 4100   1.474   4.414   1.817
 1387TIP3    H2 4101   1.403   4.496   1.923
 1388TIP3   OH2 4102   2.028   5.882   0.665
 1388TIP3    H1 4103   2.042   5.913   0.754
 1388TIP3    H2 4104   2.068   5.949   0.610
 1389TIP3   OH2 4105   2.023   5.921   0.940
 1389TIP3    H1 4106   1.974   5.839   0.934
 1389TIP3    H2 4107   2.093   5.903   1.003
 1390TIP3   OH2 4108   2.068   5.616   1.501
 1390TIP3    H1 4109   1.997   5.623   1.565
 1390TIP3    H2 4110   2.113   5.700   1.505
 1391TIP3   OH2 4111   1.902   5.124   0.100
 1391TIP3    H1 4112   1.972   5.187   0.079
 1391TIP3    H2 4113   1.934   5.077   0.176
 1392TIP3   OH2 4114   2.013   4.991   0.314
 1392TIP3    H1 4115   1.952   4.946   0.373
 1392TIP3    H2 4116   2.080   5.028   0.373
 1393TIP3   OH2 4117   2.068   5.386   0.748
 1393TIP3    H1 4118   2.121   5.318   0.707
 1393TIP3    H2 4119   2.072   5.460   0.687
 1394TIP3   OH2 4120   1.888   5.677   0.943
 1394TIP3    H1 4121   1.822   5.719   0.998
 1394TIP3    H2 4122   1.837   5.631   0.876
 1395TIP3   OH2 4123   7.610   0.881   6.894
 1395TIP3    H1 4124   7.534   0.826   6.871
 1395TIP3    H2 4125   7.572   0.957   6.938
 1396TIP3   OH2 4126   7.453   0.636   6.860
 1396TIP3    H1 4127   7.393   0.660   6.789
 1396TIP3    H2 4128   7.446   0.541   6.866
 1397TIP3   OH2 4129   1.845   4.845   0.473
 1397TIP3    H1 4130   1.850   4.751   0.457
 1397TIP3    H2 4131   1.824   4.853   0.566
 1398TIP3   OH2 4132   0.443   4.867   1.302
 1398TIP3    H1 4133   0.400   4.898   1.222
 1398TIP3    H2 4134   0.537   4.883   1.286
 1399TIP3   OH2 4135   2.105   5.268   1.316
 1399TIP3    H1 4136   2.173   5.202   1.301
 1399TIP3    H2 4137   2.113   5.328   1.242
 1400TIP3   OH2 4138   2.284   5.060   1.312
 1400TIP3    H1 4139   2.209   5.017   1.352
 1400TIP3    H2 4140   2.358   5.003   1.332
 1401TIP3   OH2 4141   1.792   4.377  -0.021
 1401TIP3    H1 4142   1.837   4.303   0.019
 1401TIP3    H2 4143   1.706   4.379   0.020
 1402TIP3   OH2 4144   1.853   4.590   0.363
 1402TIP3    H1 4145   1.892   4.504   0.377
 1402TIP3    H2 4146   1.894   4.622   0.283
 1403TIP3   OH2 4147   1.976   4.734   0.864
 1403TIP3    H1 4148   2.056   4.755   0.816
 1403TIP3    H2 4149   1.990   4.773   0.951
 1404TIP3   OH2 4150   2.049   4.889   1.088
 1404TIP3    H1 4151   1.971   4.918   1.136
 1404TIP3    H2 4152   2.079   4.968   1.042
 1405TIP3   OH2 4153   0.679   4.623   1.901
 1405TIP3    H1 4154   0.773   4.606   1.903
 1405TIP3    H2 4155   0.639   4.538   1.915
 1406TIP3   OH2 4156   2.500   4.486   1.628
 1406TIP3    H1 4157   2.562   4.426   1.587
 1406TIP3    H2 4158   2.463   4.536   1.556
 1407TIP3   OH2 4159   1.957   4.338   0.377
 1407TIP3    H1 4160   1.962   4.293   0.461
 1407TIP3    H2 4161   1.896   4.285   0.326
 1408TIP3   OH2 4162   0.636   4.305   1.250
 1408TIP3    H1 4163   0.688   4.227   1.235
 1408TIP3    H2 4164   0.695   4.378   1.233
 1409TIP3   OH2 4165   0.411   4.587   1.276
 1409TIP3    H1 4166   0.469   4.567   1.203
 1409TIP3    H2 4167   0.425   4.680   1.293
 1410TIP3   OH2 4168   2.354   4.603   1.429
 1410TIP3    H1 4169   2.269   4.644   1.442
 1410TIP3    H2 4170   2.336   4.526   1.375
 1411TIP3   OH2 4171   2.045   4.239   0.070
 1411TIP3    H1 4172   2.026   4.243  -0.024
 1411TIP3    H2 4173   2.087   4.323   0.089
 1412TIP3   OH2 4174   0.638   4.191   1.626
 1412TIP3    H1 4175   0.585   4.166   1.702
 1412TIP3    H2 4176   0.574   4.212   1.558
 1413TIP3   OH2 4177   0.692   5.570   1.671
 1413TIP3    H1 4178   0.597   5.559   1.665
 1413TIP3    H2 4179   0.710   5.571   1.765
 1414TIP3   OH2 4180   0.834   5.612   1.227
 1414TIP3    H1 4181   0.772   5.684   1.216
 1414TIP3    H2 4182   0.910   5.638   1.176
 1415TIP3   OH2 4183   1.281   5.862   1.362
 1415TIP3    H1 4184   1.313   5.855   1.452
 1415TIP3    H2 4185   1.348   5.912   1.316
 1416TIP3   OH2 4186   1.469   6.017   1.239
 1416TIP3    H1 4187   1.524   5.967   1.179
 1416TIP3    H2 4188   1.531   6.068   1.291
 1417TIP3   OH2 4189   2.264   4.359   1.321
 1417TIP3    H1 4190   2.176   4.353   1.283
 1417TIP3    H2 4191   2.300   4.271   1.314
 1418TIP3   OH2 4192   1.195   5.874   0.940
 1418TIP3    H1 4193   1.141   5.881   0.861
 1418TIP3    H2 4194   1.199   5.963   0.975
 1419TIP3   OH2 4195   1.459   5.827   0.994
 1419TIP3    H1 4196   1.365   5.834   0.978
 1419TIP3    H2 4197   1.499   5.871   0.919
 1420TIP3   OH2 4198   1.668   5.990   0.870
 1420TIP3    H1 4199   1.656   6.077   0.831
 1420TIP3    H2 4200   1.692   5.934   0.796
 1421TIP3   OH2 4201   1.507   4.282   0.998
 1421TIP3    H1 4202   1.443   4.213   1.017
 1421TIP3    H2 4203   1.555   4.249   0.922
 1422TIP3   OH2 4204   1.989   4.217   0.879
 1422TIP3    H1 4205   2.021   4.253   0.796
 1422TIP3    H2 4206   1.894   4.217   0.869
 1423TIP3   OH2 4207   2.094   4.268   0.627
 1423TIP3    H1 4208   2.167   4.217   0.592
 1423TIP3    H2 4209   2.116   4.359   0.606
 1424TIP3   OH2 4210   0.695   3.991   0.926
 1424TIP3    H1 4211   0.634   3.959   0.859
 1424TIP3    H2 4212   0.752   3.916   0.944
 1425TIP3   OH2 4213   1.238   4.030   0.849
 1425TIP3    H1 4214   1.263   4.101   0.789
 1425TIP3    H2 4215   1.246   4.069   0.936
 1426TIP3   OH2 4216   1.717   4.186   0.831
 1426TIP3    H1 4217   1.737   4.182   0.738
 1426TIP3    H2 4218   1.684   4.099   0.853
 1427TIP3   OH2 4219   1.784   4.151   0.565
 1427TIP3    H1 4220   1.715   4.195   0.515
 1427TIP3    H2 4221   1.777   4.059   0.539
 1428TIP3   OH2 4222   1.229   4.156   0.491
 1428TIP3    H1 4223   1.197   4.074   0.528
 1428TIP3    H2 4224   1.185   4.163   0.406
 1429TIP3   OH2 4225   2.009   4.349   1.752
 1429TIP3    H1 4226   2.027   4.318   1.841
 1429TIP3    H2 4227   2.094   4.345   1.708
 1430TIP3   OH2 4228   1.939   5.892   1.260
 1430TIP3    H1 4229   1.865   5.860   1.209
 1430TIP3    H2 4230   1.924   5.986   1.267
 1431TIP3   OH2 4231   3.221   5.292   0.065
 1431TIP3    H1 4232   3.193   5.374   0.025
 1431TIP3    H2 4233   3.149   5.232   0.049
 1432TIP3   OH2 4234   3.179   5.264   0.425
 1432TIP3    H1 4235   3.239   5.247   0.498
 1432TIP3    H2 4236   3.145   5.177   0.402
 1433TIP3   OH2 4237   2.504   5.143   0.764
 1433TIP3    H1 4238   2.536   5.085   0.833
 1433TIP3    H2 4239   2.583   5.168   0.716
 1434TIP3   OH2 4240   3.498   5.593   0.040
 1434TIP3    H1 4241   3.457   5.509   0.065
 1434TIP3    H2 4242   3.494   5.646   0.120
 1435TIP3   OH2 4243   2.493   5.565   0.465
 1435TIP3    H1 4244   2.476   5.471   0.470
 1435TIP3    H2 4245   2.588   5.573   0.462
 1436TIP3   OH2 4246   2.193   4.776   0.258
 1436TIP3    H1 4247   2.148   4.858   0.279
 1436TIP3    H2 4248   2.123   4.716   0.232
 1437TIP3   OH2 4249   2.247   5.062   0.451
 1437TIP3    H1 4250   2.295   4.985   0.481
 1437TIP3    H2 4251   2.313   5.116   0.409
 1438TIP3   OH2 4252   3.072   5.964   0.112
 1438TIP3    H1 4253   3.167   5.955   0.105
 1438TIP3    H2 4254   3.055   5.973   0.206
 1439TIP3   OH2 4255   3.004   5.490   0.427
 1439TIP3    H1 4256   3.043   5.406   0.403
 1439TIP3    H2 4257   3.078   5.544   0.454
 1440TIP3   OH2 4258   4.018   4.807   0.456
 1440TIP3    H1 4259   4.036   4.895   0.489
 1440TIP3    H2 4260   4.052   4.808   0.367
 1441TIP3   OH2 4261   3.420   4.980   0.469
 1441TIP3    H1 4262   3.462   4.897   0.492
 1441TIP3    H2 4263   3.386   4.966   0.380
 1442TIP3   OH2 4264   2.772   4.643   0.424
 1442TIP3    H1 4265   2.752   4.716   0.366
 1442TIP3    H2 4266   2.721   4.570   0.389
 1443TIP3   OH2 4267   3.458   4.739   0.056
 1443TIP3    H1 4268   3.523   4.723   0.125
 1443TIP3    H2 4269   3.509   4.774  -0.017
 1444TIP3   OH2 4270   2.395   4.850   0.549
 1444TIP3    H1 4271   2.477   4.833   0.595
 1444TIP3    H2 4272   2.401   4.798   0.469
 1445TIP3   OH2 4273   2.824   5.051   0.362
 1445TIP3    H1 4274   2.918   5.033   0.369
 1445TIP3    H2 4275   2.787   4.971   0.326
 1446TIP3   OH2 4276   4.097   5.024   0.624
 1446TIP3    H1 4277   4.009   5.060   0.617
 1446TIP3    H2 4278   4.134   5.066   0.702
 1447TIP3   OH2 4279   2.753   4.639   0.873
 1447TIP3    H1 4280   2.701   4.672   0.800
 1447TIP3    H2 4281   2.698   4.655   0.950
 1448TIP3   OH2 4282   0.266   1.482   6.857
 1448TIP3    H1 4283   0.192   1.444   6.808
 1448TIP3    H2 4284   0.239   1.572   6.875
 1449TIP3   OH2 4285   2.853   5.415   0.648
 1449TIP3    H1 4286   2.797   5.484   0.682
 1449TIP3    H2 4287   2.900   5.456   0.574
 1450TIP3   OH2 4288   3.632   4.748   0.268
 1450TIP3    H1 4289   3.598   4.721   0.354
 1450TIP3    H2 4290   3.687   4.824   0.286
 1451TIP3   OH2 4291   2.640   4.747   0.645
 1451TIP3    H1 4292   2.696   4.821   0.668
 1451TIP3    H2 4293   2.685   4.704   0.572
 1452TIP3   OH2 4294   2.689   5.614   0.749
 1452TIP3    H1 4295   2.672   5.703   0.717
 1452TIP3    H2 4296   2.612   5.592   0.801
 1453TIP3   OH2 4297   7.750   1.297   6.942
 1453TIP3    H1 4298   7.730   1.304   6.849
 1453TIP3    H2 4299   7.759   1.387   6.972
 1454TIP3   OH2 4300   3.511   5.787   0.228
 1454TIP3    H1 4301   3.423   5.789   0.265
 1454TIP3    H2 4302   3.524   5.875   0.193
 1455TIP3   OH2 4303   3.816   4.699   0.612
 1455TIP3    H1 4304   3.731   4.721   0.575
 1455TIP3    H2 4305   3.880   4.729   0.547
 1456TIP3   OH2 4306   3.098   4.336   0.595
 1456TIP3    H1 4307   3.089   4.244   0.619
 1456TIP3    H2 4308   3.022   4.379   0.636
 1457TIP3   OH2 4309   3.703   5.722   0.652
 1457TIP3    H1 4310   3.764   5.653   0.628
 1457TIP3    H2 4311   3.726   5.796   0.596
 1458TIP3   OH2 4312   0.215   1.136   6.838
 1458TIP3    H1 4313   0.137   1.178   6.800
 1458TIP3    H2 4314   0.285   1.155   6.775
 1459TIP3   OH2 4315   3.909   5.299   0.406
 1459TIP3    H1 4316   3.822   5.338   0.400
 1459TIP3    H2 4317   3.959   5.343   0.337
 1460TIP3   OH2 4318   0.505   1.128   6.807
 1460TIP3    H1 4319   0.483   1.189   6.877
 1460TIP3    H2 4320   0.600   1.118   6.814
 1461TIP3   OH2 4321   3.609   5.230   0.747
 1461TIP3    H1 4322   3.602   5.307   0.803
 1461TIP3    H2 4323   3.529   5.230   0.696
 1462TIP3   OH2 4324   2.621   5.186   0.225
 1462TIP3    H1 4325   2.582   5.126   0.162
 1462TIP3    H2 4326   2.694   5.137   0.263
 1463TIP3   OH2 4327   2.757   5.615   0.366
 1463TIP3    H1 4328   2.725   5.586   0.280
 1463TIP3    H2 4329   2.841   5.570   0.376
 1464TIP3   OH2 4330   2.726   5.178   0.590
 1464TIP3    H1 4331   2.764   5.143   0.510
 1464TIP3    H2 4332   2.777   5.258   0.607
 1465TIP3   OH2 4333   3.280   5.804   0.362
 1465TIP3    H1 4334   3.252   5.881   0.411
 1465TIP3    H2 4335   3.263   5.731   0.421
 1466TIP3   OH2 4336   2.886   5.716   0.914
 1466TIP3    H1 4337   2.827   5.775   0.960
 1466TIP3    H2 4338   2.829   5.663   0.858
 1467TIP3   OH2 4339   2.646   5.270   1.042
 1467TIP3    H1 4340   2.649   5.363   1.066
 1467TIP3    H2 4341   2.553   5.250   1.037
 1468TIP3   OH2 4342   0.156   1.734   6.903
 1468TIP3    H1 4343   0.182   1.810   6.955
 1468TIP3    H2 4344   0.060   1.732   6.909
 1469TIP3   OH2 4345   2.680   5.881   0.995
 1469TIP3    H1 4346   2.653   5.887   0.904
 1469TIP3    H2 4347   2.599   5.863   1.043
 1470TIP3   OH2 4348   2.494   5.024   0.036
 1470TIP3    H1 4349   2.417   5.063  -0.006
 1470TIP3    H2 4350   2.468   4.934   0.055
 1471TIP3   OH2 4351   2.269   5.427   0.943
 1471TIP3    H1 4352   2.200   5.408   0.880
 1471TIP3    H2 4353   2.305   5.342   0.967
 1472TIP3   OH2 4354   2.130   5.621   0.599
 1472TIP3    H1 4355   2.224   5.629   0.612
 1472TIP3    H2 4356   2.093   5.700   0.637
 1473TIP3   OH2 4357   3.918   6.031   0.664
 1473TIP3    H1 4358   3.986   6.034   0.732
 1473TIP3    H2 4359   3.840   6.067   0.707
 1474TIP3   OH2 4360   3.067   5.861   0.770
 1474TIP3    H1 4361   3.064   5.951   0.803
 1474TIP3    H2 4362   3.002   5.814   0.823
 1475TIP3   OH2 4363   2.273   5.800   0.136
 1475TIP3    H1 4364   2.344   5.802   0.200
 1475TIP3    H2 4365   2.204   5.750   0.179
 1476TIP3   OH2 4366   3.845   5.174   0.929
 1476TIP3    H1 4367   3.775   5.189   0.865
 1476TIP3    H2 4368   3.866   5.081   0.919
 1477TIP3   OH2 4369   2.470   5.613   0.917
 1477TIP3    H1 4370   2.520   5.602   0.998
 1477TIP3    H2 4371   2.399   5.550   0.924
 1478TIP3   OH2 4372   2.863   4.428   0.724
 1478TIP3    H1 4373   2.779   4.395   0.692
 1478TIP3    H2 4374   2.840   4.508   0.772
 1479TIP3   OH2 4375   3.402   4.543   0.921
 1479TIP3    H1 4376   3.472   4.518   0.981
 1479TIP3    H2 4377   3.321   4.524   0.969
 1480TIP3   OH2 4378   3.623   4.966   0.835
 1480TIP3    H1 4379   3.583   4.965   0.922
 1480TIP3    H2 4380   3.606   5.054   0.802
 1481TIP3   OH2 4381   0.186   0.483   6.646
 1481TIP3    H1 4382   0.153   0.466   6.734
 1481TIP3    H2 4383   0.111   0.468   6.588
 1482TIP3   OH2 4384   2.798   4.954   0.737
 1482TIP3    H1 4385   2.750   4.963   0.819
 1482TIP3    H2 4386   2.778   5.035   0.689
 1483TIP3   OH2 4387   2.683   4.839   0.254
 1483TIP3    H1 4388   2.596   4.810   0.280
 1483TIP3    H2 4389   2.696   4.804   0.166
 1484TIP3   OH2 4390   0.339   0.913   6.924
 1484TIP3    H1 4391   0.279   0.984   6.901
 1484TIP3    H2 4392   0.416   0.929   6.871
 1485TIP3   OH2 4393   3.345   5.184   1.060
 1485TIP3    H1 4394   3.320   5.115   1.120
 1485TIP3    H2 4395   3.438   5.199   1.079
 1486TIP3   OH2 4396   3.329   4.929   0.215
 1486TIP3    H1 4397   3.261   4.952   0.151
 1486TIP3    H2 4398   3.374   4.855   0.176
 1487TIP3   OH2 4399   2.626   4.971   0.952
 1487TIP3    H1 4400   2.650   5.032   1.022
 1487TIP3    H2 4401   2.609   4.888   0.997
 1488TIP3   OH2 4402   8.360   0.436   6.608
 1488TIP3    H1 4403   8.344   0.427   6.702
 1488TIP3    H2 4404   8.319   0.359   6.569
 1489TIP3   OH2 4405   2.215   4.498   0.536
 1489TIP3    H1 4406   2.291   4.526   0.586
 1489TIP3    H2 4407   2.251   4.462   0.455
 1490TIP3   OH2 4408   2.172   4.491   0.046
 1490TIP3    H1 4409   2.223   4.530  -0.025
 1490TIP3    H2 4410   2.105   4.557   0.066
 1491TIP3   OH2 4411   3.350   5.182   0.634
 1491TIP3    H1 4412   3.381   5.116   0.572
 1491TIP3    H2 4413   3.314   5.131   0.707
 1492TIP3   OH2 4414   3.038   4.639   0.308
 1492TIP3    H1 4415   2.960   4.637   0.363
 1492TIP3    H2 4416   3.111   4.628   0.369
 1493TIP3   OH2 4417   2.451   4.710   0.318
 1493TIP3    H1 4418   2.361   4.716   0.287
 1493TIP3    H2 4419   2.477   4.619   0.301
 1494TIP3   OH2 4420   8.372   0.709   6.950
 1494TIP3    H1 4421   8.467   0.717   6.940
 1494TIP3    H2 4422   8.336   0.735   6.865
 1495TIP3   OH2 4423   3.502   4.716   0.520
 1495TIP3    H1 4424   3.475   4.735   0.610
 1495TIP3    H2 4425   3.435   4.657   0.487
 1496TIP3   OH2 4426   8.220   0.743   6.719
 1496TIP3    H1 4427   8.130   0.714   6.737
 1496TIP3    H2 4428   8.251   0.684   6.651
 1497TIP3   OH2 4429   3.670   6.428   0.819
 1497TIP3    H1 4430   3.657   6.436   0.724
 1497TIP3    H2 4431   3.745   6.484   0.838
 1498TIP3   OH2 4432   2.630   5.532   1.149
 1498TIP3    H1 4433   2.711   5.553   1.197
 1498TIP3    H2 4434   2.562   5.535   1.216
 1499TIP3   OH2 4435   3.094   4.989   0.414
 1499TIP3    H1 4436   3.162   4.941   0.366
 1499TIP3    H2 4437   3.092   4.948   0.500
 1500TIP3   OH2 4438   2.597   4.468   0.291
 1500TIP3    H1 4439   2.565   4.394   0.344
 1500TIP3    H2 4440   2.627   4.427   0.210
 1501TIP3   OH2 4441   3.065   4.896   0.682
 1501TIP3    H1 4442   2.977   4.927   0.705
 1501TIP3    H2 4443   3.124   4.949   0.737
 1502TIP3   OH2 4444   8.493   1.264   6.745
 1502TIP3    H1 4445   8.427   1.199   6.723
 1502TIP3    H2 4446   8.462   1.303   6.827
 1503TIP3   OH2 4447   3.683   5.451   0.403
 1503TIP3    H1 4448   3.700   5.515   0.335
 1503TIP3    H2 4449   3.594   5.420   0.386
 1504TIP3   OH2 4450   3.184   5.584   0.796
 1504TIP3    H1 4451   3.235   5.566   0.875
 1504TIP3    H2 4452   3.139   5.666   0.815
 1505TIP3   OH2 4453   2.497   5.284   0.451
 1505TIP3    H1 4454   2.533   5.259   0.366
 1505TIP3    H2 4455   2.556   5.244   0.515
 1506TIP3   OH2 4456   2.375   5.203   1.079
 1506TIP3    H1 4457   2.382   5.181   1.172
 1506TIP3    H2 4458   2.302   5.149   1.047
 1507TIP3   OH2 4459   3.110   5.333   1.097
 1507TIP3    H1 4460   3.044   5.274   1.062
 1507TIP3    H2 4461   3.193   5.295   1.070
 1508TIP3   OH2 4462   3.337   5.851   0.709
 1508TIP3    H1 4463   3.241   5.846   0.713
 1508TIP3    H2 4464   3.362   5.883   0.795
 1509TIP3   OH2 4465   3.967   5.725   0.778
 1509TIP3    H1 4466   3.889   5.778   0.794
 1509TIP3    H2 4467   4.001   5.756   0.694
 1510TIP3   OH2 4468   3.438   5.358   0.315
 1510TIP3    H1 4469   3.344   5.340   0.318
 1510TIP3    H2 4470   3.476   5.281   0.272
 1511TIP3   OH2 4471   2.607   5.586   0.132
 1511TIP3    H1 4472   2.589   5.659   0.073
 1511TIP3    H2 4473   2.520   5.556   0.160
 1512TIP3   OH2 4474   7.840   0.889   6.744
 1512TIP3    H1 4475   7.882   0.970   6.772
 1512TIP3    H2 4476   7.757   0.888   6.793
 1513TIP3   OH2 4477   2.739   5.363   0.045
 1513TIP3    H1 4478   2.701   5.447   0.068
 1513TIP3    H2 4479   2.704   5.302   0.110
 1514TIP3   OH2 4480   2.888   5.936   0.567
 1514TIP3    H1 4481   2.926   6.010   0.519
 1514TIP3    H2 4482   2.960   5.902   0.620
 1515TIP3   OH2 4483   8.186   1.789   6.925
 1515TIP3    H1 4484   8.091   1.798   6.937
 1515TIP3    H2 4485   8.217   1.879   6.915
 1516TIP3   OH2 4486   3.247   5.583   0.526
 1516TIP3    H1 4487   3.230   5.577   0.620
 1516TIP3    H2 4488   3.314   5.517   0.510
 1517TIP3   OH2 4489   3.431   6.091   0.622
 1517TIP3    H1 4490   3.408   6.011   0.669
 1517TIP3    H2 4491   3.372   6.092   0.546
 1518TIP3   OH2 4492   2.580   4.719   1.080
 1518TIP3    H1 4493   2.485   4.726   1.084
 1518TIP3    H2 4494   2.603   4.662   1.154
 1519TIP3   OH2 4495   2.331   5.810   0.732
 1519TIP3    H1 4496   2.379   5.745   0.783
 1519TIP3    H2 4497   2.345   5.892   0.779
 1520TIP3   OH2 4498   7.949   1.130   6.841
 1520TIP3    H1 4499   7.883   1.180   6.889
 1520TIP3    H2 4500   7.982   1.190   6.775
 1521TIP3   OH2 4501   3.425   4.779   0.778
 1521TIP3    H1 4502   3.506   4.822   0.808
 1521TIP3    H2 4503   3.419   4.700   0.833
 1522TIP3   OH2 4504   0.465   0.525   6.896
 1522TIP3    H1 4505   0.427   0.554   6.813
 1522TIP3    H2 4506   0.516   0.600   6.926
 1523TIP3   OH2 4507   2.986   4.721   0.046
 1523TIP3    H1 4508   3.051   4.785   0.017
 1523TIP3    H2 4509   3.005   4.706   0.138
 1524TIP3   OH2 4510   3.268   5.016   0.837
 1524TIP3    H1 4511   3.296   5.059   0.918
 1524TIP3    H2 4512   3.318   4.934   0.834
 1525TIP3   OH2 4513   3.133   4.425   0.147
 1525TIP3    H1 4514   3.111   4.503   0.199
 1525TIP3    H2 4515   3.197   4.456   0.083
 1526TIP3   OH2 4516   8.316   0.432   6.889
 1526TIP3    H1 4517   8.307   0.523   6.918
 1526TIP3    H2 4518   8.410   0.414   6.896
 1527TIP3   OH2 4519   3.888   4.912   0.833
 1527TIP3    H1 4520   3.793   4.915   0.836
 1527TIP3    H2 4521   3.909   4.874   0.748
 1528TIP3   OH2 4522   3.550   5.117   0.217
 1528TIP3    H1 4523   3.475   5.058   0.220
 1528TIP3    H2 4524   3.616   5.074   0.271
 1529TIP3   OH2 4525   7.926   0.627   6.753
 1529TIP3    H1 4526   7.893   0.716   6.743
 1529TIP3    H2 4527   7.897   0.581   6.675
 1530TIP3   OH2 4528   3.569   6.032   0.132
 1530TIP3    H1 4529   3.514   6.079   0.068
 1530TIP3    H2 4530   3.654   6.076   0.126
 1531TIP3   OH2 4531   2.601   4.342   0.687
 1531TIP3    H1 4532   2.574   4.311   0.600
 1531TIP3    H2 4533   2.589   4.266   0.744
 1532TIP3   OH2 4534   2.094   5.573   0.047
 1532TIP3    H1 4535   2.019   5.627   0.074
 1532TIP3    H2 4536   2.145   5.630  -0.011
 1533TIP3   OH2 4537   2.314   6.124   1.146
 1533TIP3    H1 4538   2.397   6.128   1.193
 1533TIP3    H2 4539   2.296   6.030   1.137
 1534TIP3   OH2 4540   2.782   6.052   1.186
 1534TIP3    H1 4541   2.874   6.029   1.197
 1534TIP3    H2 4542   2.751   5.996   1.116
 1535TIP3   OH2 4543   3.412   5.978   0.937
 1535TIP3    H1 4544   3.413   5.908   1.002
 1535TIP3    H2 4545   3.483   6.036   0.962
 1536TIP3   OH2 4546   2.425   5.524   1.339
 1536TIP3    H1 4547   2.444   5.430   1.347
 1536TIP3    H2 4548   2.339   5.527   1.297
 1537TIP3   OH2 4549   3.042   5.609   1.116
 1537TIP3    H1 4550   2.995   5.628   1.035
 1537TIP3    H2 4551   3.076   5.521   1.104
 1538TIP3   OH2 4552   3.480   5.609   0.753
 1538TIP3    H1 4553   3.558   5.651   0.716
 1538TIP3    H2 4554   3.409   5.670   0.733
 1539TIP3   OH2 4555   2.544   5.267   1.338
 1539TIP3    H1 4556   2.621   5.243   1.288
 1539TIP3    H2 4557   2.578   5.289   1.425
 1540TIP3   OH2 4558   8.301   1.057   6.734
 1540TIP3    H1 4559   8.263   1.049   6.821
 1540TIP3    H2 4560   8.294   0.968   6.697
 1541TIP3   OH2 4561   2.893   5.148   0.998
 1541TIP3    H1 4562   2.811   5.196   1.005
 1541TIP3    H2 4563   2.931   5.177   0.915
 1542TIP3   OH2 4564   3.400   5.528   1.104
 1542TIP3    H1 4565   3.467   5.491   1.047
 1542TIP3    H2 4566   3.399   5.471   1.181
 1543TIP3   OH2 4567   3.006   4.924   1.109
 1543TIP3    H1 4568   3.009   4.851   1.048
 1543TIP3    H2 4569   2.968   4.996   1.059
 1544TIP3   OH2 4570   3.013   4.721   0.910
 1544TIP3    H1 4571   3.041   4.757   0.826
 1544TIP3    H2 4572   2.922   4.695   0.896
 1545TIP3   OH2 4573   3.025   5.249   0.784
 1545TIP3    H1 4574   3.115   5.268   0.757
 1545TIP3    H2 4575   2.972   5.314   0.738
 1546TIP3   OH2 4576   3.614   5.208   1.161
 1546TIP3    H1 4577   3.652   5.121   1.167
 1546TIP3    H2 4578   3.682   5.262   1.121
 1547TIP3   OH2 4579   3.615   5.454   0.927
 1547TIP3    H1 4580   3.562   5.509   0.870
 1547TIP3    H2 4581   3.704   5.461   0.892
 1548TIP3   OH2 4582   2.887   5.017   1.349
 1548TIP3    H1 4583   2.818   4.953   1.368
 1548TIP3    H2 4584   2.917   4.994   1.261
 1549TIP3   OH2 4585   3.136   4.485   1.002
 1549TIP3    H1 4586   3.095   4.566   0.971
 1549TIP3    H2 4587   3.070   4.418   0.989
 1550TIP3   OH2 4588   3.263   4.969   1.207
 1550TIP3    H1 4589   3.252   4.957   1.302
 1550TIP3    H2 4590   3.177   4.947   1.171
 1551TIP3   OH2 4591   3.508   4.926   1.075
 1551TIP3    H1 4592   3.430   4.924   1.131
 1551TIP3    H2 4593   3.579   4.897   1.133
 1552TIP3   OH2 4594   3.742   4.880   1.224
 1552TIP3    H1 4595   3.756   4.785   1.232
 1552TIP3    H2 4596   3.737   4.911   1.315
 1553TIP3   OH2 4597   2.723   4.796   1.412
 1553TIP3    H1 4598   2.728   4.708   1.375
 1553TIP3    H2 4599   2.762   4.787   1.500
 1554TIP3   OH2 4600   3.211   4.473   1.266
 1554TIP3    H1 4601   3.280   4.408   1.260
 1554TIP3    H2 4602   3.177   4.481   1.177
 1555TIP3   OH2 4603   3.296   4.691   1.413
 1555TIP3    H1 4604   3.269   4.619   1.355
 1555TIP3    H2 4605   3.223   4.752   1.410
 1556TIP3   OH2 4606   7.718   1.279   6.672
 1556TIP3    H1 4607   7.783   1.308   6.608
 1556TIP3    H2 4608   7.678   1.202   6.632
 1557TIP3   OH2 4609   1.904   5.753   0.149
 1557TIP3    H1 4610   1.815   5.732   0.177
 1557TIP3    H2 4611   1.955   5.750   0.229
 1558TIP3   OH2 4612   2.086   5.748   0.352
 1558TIP3    H1 4613   2.087   5.677   0.417
 1558TIP3    H2 4614   2.129   5.821   0.396
 1559TIP3   OH2 4615   3.717   6.185   0.427
 1559TIP3    H1 4616   3.668   6.103   0.434
 1559TIP3    H2 4617   3.809   6.160   0.438
 1560TIP3   OH2 4618   3.850   5.879   0.993
 1560TIP3    H1 4619   3.784   5.882   1.062
 1560TIP3    H2 4620   3.899   5.961   1.002
 1561TIP3   OH2 4621   3.791   5.632   0.225
 1561TIP3    H1 4622   3.853   5.595   0.162
 1561TIP3    H2 4623   3.722   5.671   0.171
 1562TIP3   OH2 4624   3.594   5.942   0.444
 1562TIP3    H1 4625   3.529   5.959   0.513
 1562TIP3    H2 4626   3.550   5.884   0.382
 1563TIP3   OH2 4627   0.765   1.087   6.882
 1563TIP3    H1 4628   0.789   0.996   6.870
 1563TIP3    H2 4629   0.766   1.101   6.977
 1564TIP3   OH2 4630   2.240   5.174   0.703
 1564TIP3    H1 4631   2.230   5.137   0.615
 1564TIP3    H2 4632   2.334   5.173   0.720
 1565TIP3   OH2 4633   3.864   5.476   0.828
 1565TIP3    H1 4634   3.938   5.415   0.831
 1565TIP3    H2 4635   3.895   5.547   0.771
 1566TIP3   OH2 4636   4.073   5.306   0.866
 1566TIP3    H1 4637   3.999   5.250   0.890
 1566TIP3    H2 4638   4.148   5.247   0.863
 1567TIP3   OH2 4639   0.799   0.821   6.800
 1567TIP3    H1 4640   0.833   0.733   6.812
 1567TIP3    H2 4641   0.819   0.842   6.709
 1568TIP3   OH2 4642   3.750   4.982   0.362
 1568TIP3    H1 4643   3.837   4.994   0.324
 1568TIP3    H2 4644   3.759   5.012   0.452
 1569TIP3   OH2 4645   3.834   5.123   0.597
 1569TIP3    H1 4646   3.758   5.164   0.639
 1569TIP3    H2 4647   3.865   5.187   0.533
 1570TIP3   OH2 4648   2.457   4.853   1.362
 1570TIP3    H1 4649   2.552   4.849   1.374
 1570TIP3    H2 4650   2.425   4.771   1.399
 1571TIP3   OH2 4651   4.299   4.742   1.117
 1571TIP3    H1 4652   4.361   4.681   1.076
 1571TIP3    H2 4653   4.261   4.790   1.045
 1572TIP3   OH2 4654   0.871   0.563   6.834
 1572TIP3    H1 4655   0.931   0.542   6.905
 1572TIP3    H2 4656   0.811   0.489   6.831
 1573TIP3   OH2 4657   2.430   4.560   0.700
 1573TIP3    H1 4658   2.485   4.482   0.707
 1573TIP3    H2 4659   2.492   4.632   0.686
 1574TIP3   OH2 4660   2.218   4.826   0.769
 1574TIP3    H1 4661   2.266   4.815   0.687
 1574TIP3    H2 4662   2.248   4.911   0.802
 1575TIP3   OH2 4663   4.150   4.855   0.920
 1575TIP3    H1 4664   4.066   4.896   0.942
 1575TIP3    H2 4665   4.126   4.780   0.866
 1576TIP3   OH2 4666   2.225   4.363   0.285
 1576TIP3    H1 4667   2.136   4.351   0.318
 1576TIP3    H2 4668   2.215   4.416   0.206
 1577TIP3   OH2 4669   2.425   4.400   1.090
 1577TIP3    H1 4670   2.372   4.393   1.170
 1577TIP3    H2 4671   2.367   4.445   1.027
 1578TIP3   OH2 4672   2.459   5.846   1.161
 1578TIP3    H1 4673   2.366   5.826   1.151
 1578TIP3    H2 4674   2.477   5.830   1.253
 1579TIP3   OH2 4675   2.659   5.888   0.713
 1579TIP3    H1 4676   2.606   5.959   0.679
 1579TIP3    H2 4677   2.744   5.899   0.670
 1580TIP3   OH2 4678   3.067   6.122   0.856
 1580TIP3    H1 4679   3.107   6.115   0.942
 1580TIP3    H2 4680   3.125   6.179   0.806
 1581TIP3   OH2 4681   3.246   6.282   0.726
 1581TIP3    H1 4682   3.312   6.224   0.688
 1581TIP3    H2 4683   3.295   6.341   0.783
 1582TIP3   OH2 4684   4.057   4.614   0.810
 1582TIP3    H1 4685   3.969   4.609   0.772
 1582TIP3    H2 4686   4.092   4.526   0.802
 1583TIP3   OH2 4687   2.330   6.135   0.759
 1583TIP3    H1 4688   2.239   6.152   0.736
 1583TIP3    H2 4689   2.351   6.200   0.825
 1584TIP3   OH2 4690   2.553   6.115   0.601
 1584TIP3    H1 4691   2.471   6.124   0.650
 1584TIP3    H2 4692   2.531   6.146   0.513
 1585TIP3   OH2 4693   2.969   6.139   0.392
 1585TIP3    H1 4694   2.893   6.156   0.337
 1585TIP3    H2 4695   2.984   6.222   0.438
 1586TIP3   OH2 4696   3.224   6.060   0.443
 1586TIP3    H1 4697   3.134   6.088   0.430
 1586TIP3    H2 4698   3.276   6.120   0.390
 1587TIP3   OH2 4699   3.402   6.222   0.328
 1587TIP3    H1 4700   3.400   6.316   0.348
 1587TIP3    H2 4701   3.487   6.208   0.287
 1588TIP3   OH2 4702   2.256   5.928   0.487
 1588TIP3    H1 4703   2.274   5.896   0.575
 1588TIP3    H2 4704   2.328   5.892   0.434
 1589TIP3   OH2 4705   2.452   5.806   0.343
 1589TIP3    H1 4706   2.460   5.722   0.387
 1589TIP3    H2 4707   2.540   5.842   0.342
 1590TIP3   OH2 4708   2.718   5.890   0.352
 1590TIP3    H1 4709   2.735   5.797   0.341
 1590TIP3    H2 4710   2.765   5.913   0.433
 1591TIP3   OH2 4711   3.267   4.541   0.441
 1591TIP3    H1 4712   3.228   4.468   0.489
 1591TIP3    H2 4713   3.336   4.502   0.388
 1592TIP3   OH2 4714   3.770   4.453   0.345
 1592TIP3    H1 4715   3.808   4.499   0.270
 1592TIP3    H2 4716   3.676   4.468   0.338
 1593TIP3   OH2 4717   3.885   4.517   0.100
 1593TIP3    H1 4718   3.954   4.459   0.066
 1593TIP3    H2 4719   3.918   4.605   0.084
 1594TIP3   OH2 4720   2.520   4.250   0.440
 1594TIP3    H1 4721   2.430   4.219   0.449
 1594TIP3    H2 4722   2.573   4.171   0.434
 1595TIP3   OH2 4723   2.335   4.142   0.141
 1595TIP3    H1 4724   2.355   4.187   0.059
 1595TIP3    H2 4725   2.297   4.209   0.197
 1596TIP3   OH2 4726   2.978   4.286   0.337
 1596TIP3    H1 4727   3.029   4.330   0.269
 1596TIP3    H2 4728   3.020   4.313   0.419
 1597TIP3   OH2 4729   3.485   4.430   0.310
 1597TIP3    H1 4730   3.496   4.399   0.220
 1597TIP3    H2 4731   3.486   4.351   0.363
 1598TIP3   OH2 4732   0.693   0.359   6.856
 1598TIP3    H1 4733   0.606   0.399   6.860
 1598TIP3    H2 4734   0.679   0.270   6.887
 1599TIP3   OH2 4735   8.097   0.251   6.843
 1599TIP3    H1 4736   8.141   0.166   6.837
 1599TIP3    H2 4737   8.167   0.314   6.859
 1600TIP3   OH2 4738   0.089   0.458   6.905
 1600TIP3    H1 4739   0.149   0.407   6.959
 1600TIP3    H2 4740   0.110   0.550   6.926
 1601TIP3   OH2 4741   2.729   4.521   1.329
 1601TIP3    H1 4742   2.694   4.454   1.387
 1601TIP3    H2 4743   2.822   4.528   1.353
 1602TIP3   OH2 4744   2.981   4.527   1.447
 1602TIP3    H1 4745   3.060   4.506   1.398
 1602TIP3    H2 4746   2.974   4.457   1.512
 1603TIP3   OH2 4747   3.805   4.609   1.238
 1603TIP3    H1 4748   3.822   4.579   1.328
 1603TIP3    H2 4749   3.891   4.604   1.195
 1604TIP3   OH2 4750   3.694   6.146   0.767
 1604TIP3    H1 4751   3.611   6.123   0.726
 1604TIP3    H2 4752   3.687   6.240   0.785
 1605TIP3   OH2 4753   4.313   5.347   0.198
 1605TIP3    H1 4754   4.330   5.267   0.246
 1605TIP3    H2 4755   4.313   5.416   0.265
 1606TIP3   OH2 4756   4.064   5.043   0.020
 1606TIP3    H1 4757   4.159   5.047   0.023
 1606TIP3    H2 4758   4.037   5.124  -0.022
 1607TIP3   OH2 4759   4.534   4.814   0.416
 1607TIP3    H1 4760   4.488   4.847   0.338
 1607TIP3    H2 4761   4.492   4.859   0.489
 1608TIP3   OH2 4762   4.449   4.907   0.176
 1608TIP3    H1 4763   4.508   4.982   0.174
 1608TIP3    H2 4764   4.479   4.851   0.105
 1609TIP3   OH2 4765   4.501   5.913   0.285
 1609TIP3    H1 4766   4.471   5.920   0.195
 1609TIP3    H2 4767   4.427   5.876   0.333
 1610TIP3   OH2 4768   4.896   4.615   0.117
 1610TIP3    H1 4769   4.858   4.528   0.118
 1610TIP3    H2 4770   4.846   4.664   0.183
 1611TIP3   OH2 4771   4.684   5.920   0.476
 1611TIP3    H1 4772   4.660   6.006   0.511
 1611TIP3    H2 4773   4.624   5.907   0.402
 1612TIP3   OH2 4774   4.458   5.517   0.617
 1612TIP3    H1 4775   4.441   5.606   0.585
 1612TIP3    H2 4776   4.374   5.472   0.610
 1613TIP3   OH2 4777   4.445   6.203   0.364
 1613TIP3    H1 4778   4.418   6.183   0.275
 1613TIP3    H2 4779   4.540   6.188   0.364
 1614TIP3   OH2 4780   4.078   5.699   0.331
 1614TIP3    H1 4781   4.029   5.709   0.249
 1614TIP3    H2 4782   4.130   5.619   0.318
 1615TIP3   OH2 4783   5.662   5.400   0.398
 1615TIP3    H1 4784   5.750   5.386   0.362
 1615TIP3    H2 4785   5.629   5.312   0.415
 1616TIP3   OH2 4786   4.220   5.944   0.335
 1616TIP3    H1 4787   4.239   5.976   0.423
 1616TIP3    H2 4788   4.163   5.869   0.349
 1617TIP3   OH2 4789   4.596   4.633   0.199
 1617TIP3    H1 4790   4.502   4.617   0.196
 1617TIP3    H2 4791   4.606   4.701   0.266
 1618TIP3   OH2 4792   5.196   4.766   0.399
 1618TIP3    H1 4793   5.269   4.736   0.452
 1618TIP3    H2 4794   5.137   4.808   0.462
 1619TIP3   OH2 4795   5.429   5.214   0.286
 1619TIP3    H1 4796   5.451   5.195   0.377
 1619TIP3    H2 4797   5.351   5.162   0.268
 1620TIP3   OH2 4798   4.576   5.147   0.169
 1620TIP3    H1 4799   4.608   5.136   0.259
 1620TIP3    H2 4800   4.571   5.242   0.157
 1621TIP3   OH2 4801   5.106   5.389   0.481
 1621TIP3    H1 4802   5.117   5.349   0.567
 1621TIP3    H2 4803   5.168   5.461   0.480
 1622TIP3   OH2 4804   4.354   5.179   0.416
 1622TIP3    H1 4805   4.369   5.260   0.465
 1622TIP3    H2 4806   4.334   5.114   0.483
 1623TIP3   OH2 4807   4.002   4.758   0.043
 1623TIP3    H1 4808   4.066   4.771   0.113
 1623TIP3    H2 4809   3.997   4.842  -0.001
 1624TIP3   OH2 4810   4.391   5.858   0.758
 1624TIP3    H1 4811   4.466   5.838   0.814
 1624TIP3    H2 4812   4.316   5.818   0.804
 1625TIP3   OH2 4813   4.840   5.038   0.122
 1625TIP3    H1 4814   4.795   5.120   0.103
 1625TIP3    H2 4815   4.933   5.057   0.105
 1626TIP3   OH2 4816   4.935   5.739   0.291
 1626TIP3    H1 4817   5.028   5.746   0.271
 1626TIP3    H2 4818   4.892   5.792   0.224
 1627TIP3   OH2 4819   4.162   5.465   0.645
 1627TIP3    H1 4820   4.179   5.449   0.738
 1627TIP3    H2 4821   4.068   5.454   0.635
 1628TIP3   OH2 4822   4.945   5.593   0.615
 1628TIP3    H1 4823   4.872   5.536   0.640
 1628TIP3    H2 4824   5.019   5.534   0.603
 1629TIP3   OH2 4825   4.370   4.959   0.594
 1629TIP3    H1 4826   4.275   4.958   0.599
 1629TIP3    H2 4827   4.399   4.911   0.672
 1630TIP3   OH2 4828   4.144   6.142   0.164
 1630TIP3    H1 4829   4.165   6.084   0.237
 1630TIP3    H2 4830   4.181   6.227   0.189
 1631TIP3   OH2 4831   5.269   4.998   0.249
 1631TIP3    H1 4832   5.362   4.974   0.240
 1631TIP3    H2 4833   5.229   4.921   0.289
 1632TIP3   OH2 4834   5.106   5.236   0.253
 1632TIP3    H1 4835   5.119   5.274   0.340
 1632TIP3    H2 4836   5.146   5.150   0.258
 1633TIP3   OH2 4837   4.331   4.579   0.205
 1633TIP3    H1 4838   4.315   4.552   0.114
 1633TIP3    H2 4839   4.345   4.497   0.252
 1634TIP3   OH2 4840   4.220   6.433   0.616
 1634TIP3    H1 4841   4.227   6.414   0.710
 1634TIP3    H2 4842   4.162   6.365   0.582
 1635TIP3   OH2 4843   4.475   6.235   0.705
 1635TIP3    H1 4844   4.534   6.279   0.766
 1635TIP3    H2 4845   4.533   6.202   0.636
 1636TIP3   OH2 4846   4.201   5.750   0.915
 1636TIP3    H1 4847   4.227   5.658   0.913
 1636TIP3    H2 4848   4.112   5.750   0.878
 1637TIP3   OH2 4849   4.931   5.853   0.556
 1637TIP3    H1 4850   4.841   5.871   0.532
 1637TIP3    H2 4851   4.932   5.760   0.580
 1638TIP3   OH2 4852   4.336   5.499   0.867
 1638TIP3    H1 4853   4.404   5.497   0.800
 1638TIP3    H2 4854   4.380   5.531   0.945
 1639TIP3   OH2 4855   4.595   5.374   0.401
 1639TIP3    H1 4856   4.580   5.432   0.477
 1639TIP3    H2 4857   4.677   5.406   0.363
 1640TIP3   OH2 4858   5.238   5.810   0.680
 1640TIP3    H1 4859   5.234   5.750   0.606
 1640TIP3    H2 4860   5.228   5.753   0.757
 1641TIP3   OH2 4861   4.764   5.138   0.702
 1641TIP3    H1 4862   4.769   5.043   0.707
 1641TIP3    H2 4863   4.774   5.158   0.608
 1642TIP3   OH2 4864   4.790   4.925   0.537
 1642TIP3    H1 4865   4.867   4.952   0.487
 1642TIP3    H2 4866   4.718   4.978   0.503
 1643TIP3   OH2 4867   4.847   5.459   0.291
 1643TIP3    H1 4868   4.938   5.476   0.267
 1643TIP3    H2 4869   4.804   5.544   0.281
 1644TIP3   OH2 4870   5.409   5.312   0.720
 1644TIP3    H1 4871   5.432   5.249   0.652
 1644TIP3    H2 4872   5.435   5.397   0.683
 1645TIP3   OH2 4873   4.639   5.305   0.875
 1645TIP3    H1 4874   4.567   5.280   0.933
 1645TIP3    H2 4875   4.653   5.227   0.820
 1646TIP3   OH2 4876   4.862   4.673   0.582
 1646TIP3    H1 4877   4.833   4.763   0.569
 1646TIP3    H2 4878   4.795   4.619   0.540
 1647TIP3   OH2 4879   5.064   5.191   0.703
 1647TIP3    H1 4880   5.096   5.210   0.791
 1647TIP3    H2 4881   4.969   5.179   0.714
 1648TIP3   OH2 4882   5.258   5.138   0.519
 1648TIP3    H1 4883   5.187   5.166   0.577
 1648TIP3    H2 4884   5.317   5.088   0.576
 1649TIP3   OH2 4885   5.634   5.116   0.860
 1649TIP3    H1 4886   5.569   5.058   0.821
 1649TIP3    H2 4887   5.585   5.169   0.923
 1650TIP3   OH2 4888   4.514   5.040   0.912
 1650TIP3    H1 4889   4.522   4.954   0.872
 1650TIP3    H2 4890   4.559   5.032   0.996
 1651TIP3   OH2 4891   5.015   4.713   0.797
 1651TIP3    H1 4892   5.082   4.645   0.797
 1651TIP3    H2 4893   4.957   4.691   0.724
 1652TIP3   OH2 4894   5.090   4.947   0.916
 1652TIP3    H1 4895   5.053   4.866   0.881
 1652TIP3    H2 4896   5.015   5.007   0.921
 1653TIP3   OH2 4897   4.041   5.410   0.199
 1653TIP3    H1 4898   4.023   5.388   0.107
 1653TIP3    H2 4899   4.135   5.396   0.209
 1654TIP3   OH2 4900   4.253   5.102   0.854
 1654TIP3    H1 4901   4.348   5.099   0.867
 1654TIP3    H2 4902   4.222   5.018   0.888
 1655TIP3   OH2 4903   6.037   5.100   0.623
 1655TIP3    H1 4904   6.078   5.054   0.696
 1655TIP3    H2 4905   6.085   5.071   0.546
 1656TIP3   OH2 4906   4.191   4.805   0.238
 1656TIP3    H1 4907   4.235   4.720   0.235
 1656TIP3    H2 4908   4.260   4.869   0.223
 1657TIP3   OH2 4909   4.004   5.051   0.292
 1657TIP3    H1 4910   4.030   5.045   0.201
 1657TIP3    H2 4911   4.015   5.144   0.315
 1658TIP3   OH2 4912   5.763   5.082   0.384
 1658TIP3    H1 4913   5.835   5.144   0.383
 1658TIP3    H2 4914   5.777   5.028   0.306
 1659TIP3   OH2 4915   4.217   4.660   0.582
 1659TIP3    H1 4916   4.166   4.651   0.663
 1659TIP3    H2 4917   4.158   4.706   0.522
 1660TIP3   OH2 4918   4.159   6.053   0.783
 1660TIP3    H1 4919   4.201   6.010   0.709
 1660TIP3    H2 4920   4.223   6.049   0.853
 1661TIP3   OH2 4921   5.823   4.898   0.198
 1661TIP3    H1 4922   5.754   4.838   0.169
 1661TIP3    H2 4923   5.894   4.840   0.227
 1662TIP3   OH2 4924   4.239   6.390   0.230
 1662TIP3    H1 4925   4.206   6.458   0.288
 1662TIP3    H2 4926   4.208   6.416   0.143
 1663TIP3   OH2 4927   1.460   0.480   6.894
 1663TIP3    H1 4928   1.371   0.445   6.890
 1663TIP3    H2 4929   1.516   0.405   6.871
 1664TIP3   OH2 4930   4.525   4.776   0.814
 1664TIP3    H1 4931   4.490   4.707   0.871
 1664TIP3    H2 4932   4.618   4.780   0.836
 1665TIP3   OH2 4933   4.775   4.782   0.941
 1665TIP3    H1 4934   4.857   4.752   0.901
 1665TIP3    H2 4935   4.756   4.717   1.008
 1666TIP3   OH2 4936   5.519   4.765   0.805
 1666TIP3    H1 4937   5.565   4.743   0.886
 1666TIP3    H2 4938   5.583   4.814   0.753
 1667TIP3   OH2 4939   0.358   6.021   1.819
 1667TIP3    H1 4940   0.403   5.950   1.772
 1667TIP3    H2 4941   0.291   6.052   1.757
 1668TIP3   OH2 4942   1.872   6.344   0.599
 1668TIP3    H1 4943   1.869   6.436   0.572
 1668TIP3    H2 4944   1.864   6.295   0.517
 1669TIP3   OH2 4945   1.963   6.603   0.750
 1669TIP3    H1 4946   1.910   6.618   0.671
 1669TIP3    H2 4947   1.900   6.571   0.815
 1670TIP3   OH2 4948   1.686   6.256   0.778
 1670TIP3    H1 4949   1.608   6.308   0.757
 1670TIP3    H2 4950   1.750   6.280   0.712
 1671TIP3   OH2 4951   1.711   6.769   1.106
 1671TIP3    H1 4952   1.638   6.806   1.055
 1671TIP3    H2 4953   1.705   6.674   1.091
 1672TIP3   OH2 4954   1.239   6.096   1.104
 1672TIP3    H1 4955   1.309   6.066   1.163
 1672TIP3    H2 4956   1.159   6.063   1.144
 1673TIP3   OH2 4957   1.530   6.573   0.996
 1673TIP3    H1 4958   1.493   6.526   1.071
 1673TIP3    H2 4959   1.461   6.569   0.929
 1674TIP3   OH2 4960   1.193   6.776   1.302
 1674TIP3    H1 4961   1.153   6.690   1.300
 1674TIP3    H2 4962   1.285   6.760   1.322
 1675TIP3   OH2 4963   1.351   6.297   0.965
 1675TIP3    H1 4964   1.383   6.344   1.042
 1675TIP3    H2 4965   1.315   6.216   1.000
 1676TIP3   OH2 4966   1.774   6.486   0.917
 1676TIP3    H1 4967   1.688   6.522   0.940
 1676TIP3    H2 4968   1.754   6.400   0.880
 1677TIP3   OH2 4969   1.166   7.141   1.365
 1677TIP3    H1 4970   1.106   7.114   1.295
 1677TIP3    H2 4971   1.121   7.118   1.446
 1678TIP3   OH2 4972   1.473   6.740   1.324
 1678TIP3    H1 4973   1.527   6.662   1.330
 1678TIP3    H2 4974   1.527   6.803   1.276
 1679TIP3   OH2 4975   1.550   6.969   0.986
 1679TIP3    H1 4976   1.492   7.014   0.924
 1679TIP3    H2 4977   1.628   7.024   0.989
 1680TIP3   OH2 4978   0.977   6.010   1.146
 1680TIP3    H1 4979   0.920   6.063   1.090
 1680TIP3    H2 4980   0.943   5.921   1.137
 1681TIP3   OH2 4981   1.188   6.497   1.355
 1681TIP3    H1 4982   1.204   6.492   1.450
 1681TIP3    H2 4983   1.092   6.498   1.347
 1682TIP3   OH2 4984   1.404   6.443   1.202
 1682TIP3    H1 4985   1.326   6.449   1.258
 1682TIP3    H2 4986   1.476   6.429   1.263
 1683TIP3   OH2 4987   1.607   6.437   1.386
 1683TIP3    H1 4988   1.617   6.342   1.397
 1683TIP3    H2 4989   1.591   6.470   1.474
 1684TIP3   OH2 4990   1.068   6.038   1.406
 1684TIP3    H1 4991   1.132   5.967   1.400
 1684TIP3    H2 4992   1.019   6.034   1.324
 1685TIP3   OH2 4993   1.135   6.246   1.569
 1685TIP3    H1 4994   1.114   6.174   1.510
 1685TIP3    H2 4995   1.058   6.302   1.567
 1686TIP3   OH2 4996   1.705   7.416   1.139
 1686TIP3    H1 4997   1.621   7.379   1.166
 1686TIP3    H2 4998   1.699   7.508   1.163
 1687TIP3   OH2 4999   1.795   7.099   0.894
 1687TIP3    H1 5000   1.838   7.022   0.933
 1687TIP3    H2 5001   1.863   7.140   0.841
 1688TIP3   OH2 5002   1.927   6.878   0.978
 1688TIP3    H1 5003   1.859   6.832   1.028
 1688TIP3    H2 5004   2.006   6.824   0.990
 1689TIP3   OH2 5005   2.144   6.299   1.270
 1689TIP3    H1 5006   2.205   6.237   1.229
 1689TIP3    H2 5007   2.112   6.352   1.197
 1690TIP3   OH2 5008   2.014   6.428   1.069
 1690TIP3    H1 5009   1.935   6.472   1.101
 1690TIP3    H2 5010   1.981   6.359   1.011
 1691TIP3   OH2 5011   1.908   6.175   0.964
 1691TIP3    H1 5012   1.822   6.171   0.924
 1691TIP3    H2 5013   1.941   6.086   0.960
 1692TIP3   OH2 5014   1.739   5.967   0.440
 1692TIP3    H1 5015   1.785   6.048   0.421
 1692TIP3    H2 5016   1.647   5.986   0.422
 1693TIP3   OH2 5017   1.306   6.847   1.053
 1693TIP3    H1 5018   1.293   6.854   1.147
 1693TIP3    H2 5019   1.393   6.884   1.037
 1694TIP3   OH2 5020   0.838   6.091   1.658
 1694TIP3    H1 5021   0.892   6.059   1.585
 1694TIP3    H2 5022   0.803   6.013   1.699
 1695TIP3   OH2 5023   1.654   6.163   1.390
 1695TIP3    H1 5024   1.670   6.132   1.480
 1695TIP3    H2 5025   1.740   6.158   1.348
 1696TIP3   OH2 5026   2.217   6.991   0.451
 1696TIP3    H1 5027   2.223   6.911   0.502
 1696TIP3    H2 5028   2.256   6.969   0.367
 1697TIP3   OH2 5029   2.420   6.480   0.082
 1697TIP3    H1 5030   2.367   6.541   0.030
 1697TIP3    H2 5031   2.403   6.394   0.042
 1698TIP3   OH2 5032   3.707   6.788   0.166
 1698TIP3    H1 5033   3.708   6.883   0.156
 1698TIP3    H2 5034   3.722   6.773   0.259
 1699TIP3   OH2 5035   2.394   6.440   0.529
 1699TIP3    H1 5036   2.345   6.477   0.456
 1699TIP3    H2 5037   2.339   6.456   0.606
 1700TIP3   OH2 5038   2.520   7.250   0.327
 1700TIP3    H1 5039   2.427   7.251   0.307
 1700TIP3    H2 5040   2.559   7.315   0.269
 1701TIP3   OH2 5041   2.280   6.551   0.308
 1701TIP3    H1 5042   2.330   6.630   0.329
 1701TIP3    H2 5043   2.323   6.515   0.230
 1702TIP3   OH2 5044   3.353   6.501   0.350
 1702TIP3    H1 5045   3.264   6.496   0.317
 1702TIP3    H2 5046   3.407   6.515   0.273
 1703TIP3   OH2 5047   2.732   6.150   0.238
 1703TIP3    H1 5048   2.725   6.059   0.266
 1703TIP3    H2 5049   2.657   6.194   0.279
 1704TIP3   OH2 5050   3.200   7.069   0.410
 1704TIP3    H1 5051   3.195   7.152   0.457
 1704TIP3    H2 5052   3.113   7.058   0.372
 1705TIP3   OH2 5053   2.403   6.998   0.214
 1705TIP3    H1 5054   2.418   6.963   0.127
 1705TIP3    H2 5055   2.482   7.048   0.234
 1706TIP3   OH2 5056   2.564   7.455   0.528
 1706TIP3    H1 5057   2.498   7.524   0.521
 1706TIP3    H2 5058   2.532   7.386   0.469
 1707TIP3   OH2 5059   2.330   7.106   0.703
 1707TIP3    H1 5060   2.320   7.191   0.745
 1707TIP3    H2 5061   2.249   7.094   0.652
 1708TIP3   OH2 5062   3.459   6.988   0.491
 1708TIP3    H1 5063   3.395   7.003   0.421
 1708TIP3    H2 5064   3.482   6.895   0.483
 1709TIP3   OH2 5065   2.153   7.361   0.585
 1709TIP3    H1 5066   2.194   7.339   0.669
 1709TIP3    H2 5067   2.062   7.334   0.595
 1710TIP3   OH2 5068   2.502   6.244   0.361
 1710TIP3    H1 5069   2.416   6.215   0.330
 1710TIP3    H2 5070   2.483   6.321   0.414
 1711TIP3   OH2 5071   3.031   6.345   0.561
 1711TIP3    H1 5072   3.104   6.333   0.622
 1711TIP3    H2 5073   2.953   6.327   0.613
 1712TIP3   OH2 5074   3.204   6.775   0.441
 1712TIP3    H1 5075   3.191   6.751   0.532
 1712TIP3    H2 5076   3.198   6.871   0.440
 1713TIP3   OH2 5077   2.435   6.767   0.373
 1713TIP3    H1 5078   2.398   6.785   0.460
 1713TIP3    H2 5079   2.416   6.845   0.322
 1714TIP3   OH2 5080   2.990   6.991   0.703
 1714TIP3    H1 5081   2.969   6.922   0.766
 1714TIP3    H2 5082   3.085   6.985   0.691
 1715TIP3   OH2 5083   2.275   6.769   0.606
 1715TIP3    H1 5084   2.340   6.809   0.663
 1715TIP3    H2 5085   2.250   6.688   0.650
 1716TIP3   OH2 5086   2.969   6.971   0.281
 1716TIP3    H1 5087   2.931   6.919   0.210
 1716TIP3    H2 5088   2.946   6.923   0.361
 1717TIP3   OH2 5089   2.687   6.491  -0.022
 1717TIP3    H1 5090   2.602   6.492   0.022
 1717TIP3    H2 5091   2.748   6.459   0.045
 1718TIP3   OH2 5092   3.119   6.504   0.187
 1718TIP3    H1 5093   3.071   6.551   0.255
 1718TIP3    H2 5094   3.055   6.445   0.148
 1719TIP3   OH2 5095   2.283   7.354   0.826
 1719TIP3    H1 5096   2.360   7.366   0.882
 1719TIP3    H2 5097   2.209   7.351   0.887
 1720TIP3   OH2 5098   2.837   6.782   0.131
 1720TIP3    H1 5099   2.810   6.736   0.051
 1720TIP3    H2 5100   2.794   6.734   0.202
 1721TIP3   OH2 5101   8.056   2.217   6.927
 1721TIP3    H1 5102   8.018   2.136   6.961
 1721TIP3    H2 5103   8.106   2.189   6.850
 1722TIP3   OH2 5104   2.695   6.687   0.350
 1722TIP3    H1 5105   2.605   6.719   0.356
 1722TIP3    H2 5106   2.746   6.748   0.404
 1723TIP3   OH2 5107   2.843   7.416   0.466
 1723TIP3    H1 5108   2.857   7.395   0.559
 1723TIP3    H2 5109   2.754   7.453   0.463
 1724TIP3   OH2 5110   2.031   7.054   0.740
 1724TIP3    H1 5111   2.080   7.041   0.822
 1724TIP3    H2 5112   2.002   6.966   0.715
 1725TIP3   OH2 5113   2.757   7.132   0.733
 1725TIP3    H1 5114   2.706   7.098   0.659
 1725TIP3    H2 5115   2.846   7.098   0.718
 1726TIP3   OH2 5116   2.224   6.522   0.734
 1726TIP3    H1 5117   2.132   6.546   0.742
 1726TIP3    H2 5118   2.241   6.465   0.809
 1727TIP3   OH2 5119   3.007   6.583   0.427
 1727TIP3    H1 5120   3.090   6.629   0.443
 1727TIP3    H2 5121   3.014   6.502   0.478
 1728TIP3   OH2 5122   2.885   6.826   0.496
 1728TIP3    H1 5123   2.918   6.865   0.577
 1728TIP3    H2 5124   2.928   6.740   0.491
 1729TIP3   OH2 5125   3.497   6.720   0.472
 1729TIP3    H1 5126   3.426   6.656   0.465
 1729TIP3    H2 5127   3.550   6.705   0.394
 1730TIP3   OH2 5128   2.240   6.157   0.330
 1730TIP3    H1 5129   2.220   6.118   0.245
 1730TIP3    H2 5130   2.238   6.084   0.391
 1731TIP3   OH2 5131   2.064   7.300   0.982
 1731TIP3    H1 5132   2.105   7.215   0.962
 1731TIP3    H2 5133   1.995   7.279   1.044
 1732TIP3   OH2 5134   2.667   7.394   0.774
 1732TIP3    H1 5135   2.636   7.413   0.686
 1732TIP3    H2 5136   2.713   7.311   0.766
 1733TIP3   OH2 5137   3.105   7.390   0.394
 1733TIP3    H1 5138   3.145   7.477   0.388
 1733TIP3    H2 5139   3.011   7.407   0.398
 1734TIP3   OH2 5140   2.202   7.062   0.965
 1734TIP3    H1 5141   2.283   7.029   0.926
 1734TIP3    H2 5142   2.226   7.085   1.055
 1735TIP3   OH2 5143   2.514   6.927   0.620
 1735TIP3    H1 5144   2.455   6.996   0.651
 1735TIP3    H2 5145   2.570   6.971   0.555
 1736TIP3   OH2 5146   2.996   7.341   0.773
 1736TIP3    H1 5147   3.067   7.314   0.715
 1736TIP3    H2 5148   3.006   7.286   0.851
 1737TIP3   OH2 5149   2.648   6.734   0.756
 1737TIP3    H1 5150   2.651   6.655   0.702
 1737TIP3    H2 5151   2.606   6.800   0.700
 1738TIP3   OH2 5152   2.651   6.523   0.571
 1738TIP3    H1 5153   2.678   6.561   0.488
 1738TIP3    H2 5154   2.560   6.497   0.557
 1739TIP3   OH2 5155   2.681   7.068   0.458
 1739TIP3    H1 5156   2.764   7.057   0.412
 1739TIP3    H2 5157   2.636   7.138   0.411
 1740TIP3   OH2 5158   3.297   7.045   0.921
 1740TIP3    H1 5159   3.279   6.983   0.851
 1740TIP3    H2 5160   3.324   7.125   0.875
 1741TIP3   OH2 5161   3.213   7.279   0.610
 1741TIP3    H1 5162   3.168   7.326   0.540
 1741TIP3    H2 5163   3.306   7.283   0.588
 1742TIP3   OH2 5164   2.522   6.838   0.986
 1742TIP3    H1 5165   2.460   6.769   1.007
 1742TIP3    H2 5166   2.558   6.812   0.901
 1743TIP3   OH2 5167   2.772   6.286   0.645
 1743TIP3    H1 5168   2.731   6.369   0.620
 1743TIP3    H2 5169   2.703   6.220   0.631
 1744TIP3   OH2 5170   2.907   6.775   0.845
 1744TIP3    H1 5171   2.903   6.766   0.940
 1744TIP3    H2 5172   2.818   6.758   0.814
 1745TIP3   OH2 5173   3.130   6.685   0.694
 1745TIP3    H1 5174   3.055   6.701   0.752
 1745TIP3    H2 5175   3.205   6.677   0.753
 1746TIP3   OH2 5176   3.357   6.684   0.860
 1746TIP3    H1 5177   3.372   6.590   0.869
 1746TIP3    H2 5178   3.349   6.716   0.950
 1747TIP3   OH2 5179   2.380   6.606   1.046
 1747TIP3    H1 5180   2.377   6.519   1.008
 1747TIP3    H2 5181   2.415   6.593   1.134
 1748TIP3   OH2 5182   2.845   6.287   0.908
 1748TIP3    H1 5183   2.915   6.222   0.906
 1748TIP3    H2 5184   2.812   6.290   0.819
 1749TIP3   OH2 5185   2.930   6.506   1.050
 1749TIP3    H1 5186   2.904   6.433   0.993
 1749TIP3    H2 5187   2.856   6.567   1.047
 1750TIP3   OH2 5188   3.418   7.744   0.645
 1750TIP3    H1 5189   3.353   7.727   0.713
 1750TIP3    H2 5190   3.435   7.838   0.651
 1751TIP3   OH2 5191   3.440   7.342   0.475
 1751TIP3    H1 5192   3.516   7.291   0.503
 1751TIP3    H2 5193   3.431   7.322   0.382
 1752TIP3   OH2 5194   3.666   7.197   0.492
 1752TIP3    H1 5195   3.673   7.103   0.476
 1752TIP3    H2 5196   3.756   7.228   0.491
 1753TIP3   OH2 5197   2.122   6.694   1.045
 1753TIP3    H1 5198   2.215   6.674   1.039
 1753TIP3    H2 5199   2.079   6.609   1.048
 1754TIP3   OH2 5200   3.908   6.565   0.836
 1754TIP3    H1 5201   3.942   6.476   0.832
 1754TIP3    H2 5202   3.948   6.609   0.761
 1755TIP3   OH2 5203   2.067   6.372   0.333
 1755TIP3    H1 5204   2.117   6.291   0.341
 1755TIP3    H2 5205   2.128   6.442   0.355
 1756TIP3   OH2 5206   3.783   6.660   0.398
 1756TIP3    H1 5207   3.761   6.690   0.486
 1756TIP3    H2 5208   3.780   6.564   0.403
 1757TIP3   OH2 5209   2.068   6.205   0.732
 1757TIP3    H1 5210   2.022   6.200   0.816
 1757TIP3    H2 5211   2.013   6.261   0.677
 1758TIP3   OH2 5212   3.628   6.430   0.337
 1758TIP3    H1 5213   3.568   6.453   0.407
 1758TIP3    H2 5214   3.683   6.360   0.374
 1759TIP3   OH2 5215   2.906   6.335   0.104
 1759TIP3    H1 5216   2.852   6.275   0.155
 1759TIP3    H2 5217   2.925   6.289   0.023
 1760TIP3   OH2 5218   2.181   6.051   0.083
 1760TIP3    H1 5219   2.085   6.043   0.081
 1760TIP3    H2 5220   2.211   5.960   0.086
 1761TIP3   OH2 5221   8.294   2.045   6.924
 1761TIP3    H1 5222   8.383   2.040   6.888
 1761TIP3    H2 5223   8.303   2.096   7.004
 1762TIP3   OH2 5224   2.368   6.332   0.965
 1762TIP3    H1 5225   2.330   6.266   1.024
 1762TIP3    H2 5226   2.460   6.338   0.991
 1763TIP3   OH2 5227   2.617   6.340   1.087
 1763TIP3    H1 5228   2.697   6.319   1.039
 1763TIP3    H2 5229   2.609   6.271   1.152
 1764TIP3   OH2 5230   3.412   6.418   0.900
 1764TIP3    H1 5231   3.424   6.390   0.991
 1764TIP3    H2 5232   3.500   6.420   0.864
 1765TIP3   OH2 5233   3.956   7.549   0.359
 1765TIP3    H1 5234   3.891   7.495   0.404
 1765TIP3    H2 5235   3.926   7.639   0.371
 1766TIP3   OH2 5236   3.912   7.289   0.471
 1766TIP3    H1 5237   3.958   7.217   0.429
 1766TIP3    H2 5238   3.978   7.333   0.524
 1767TIP3   OH2 5239   4.342   7.019   0.357
 1767TIP3    H1 5240   4.326   7.073   0.435
 1767TIP3    H2 5241   4.435   6.999   0.361
 1768TIP3   OH2 5242   4.178   6.886   0.547
 1768TIP3    H1 5243   4.233   6.889   0.469
 1768TIP3    H2 5244   4.240   6.893   0.620
 1769TIP3   OH2 5245   4.680   6.787   0.481
 1769TIP3    H1 5246   4.687   6.714   0.419
 1769TIP3    H2 5247   4.615   6.845   0.442
 1770TIP3   OH2 5248   3.980   6.843   0.365
 1770TIP3    H1 5249   4.046   6.838   0.434
 1770TIP3    H2 5250   3.936   6.758   0.368
 1771TIP3   OH2 5251   3.748   6.527   0.109
 1771TIP3    H1 5252   3.713   6.495   0.192
 1771TIP3    H2 5253   3.730   6.621   0.110
 1772TIP3   OH2 5254   4.156   6.588   0.410
 1772TIP3    H1 5255   4.186   6.532   0.481
 1772TIP3    H2 5256   4.226   6.651   0.397
 1773TIP3   OH2 5257   4.452   6.573   0.726
 1773TIP3    H1 5258   4.464   6.538   0.637
 1773TIP3    H2 5259   4.396   6.510   0.770
 1774TIP3   OH2 5260   1.290   0.050   3.997
 1774TIP3    H1 5261   1.299  -0.029   4.050
 1774TIP3    H2 5262   1.374   0.059   3.952
 1775TIP3   OH2 5263   1.083   0.419   3.983
 1775TIP3    H1 5264   1.163   0.367   3.975
 1775TIP3    H2 5265   1.110   0.498   4.030
 1776TIP3   OH2 5266   7.780   7.571   4.468
 1776TIP3    H1 5267   7.713   7.504   4.479
 1776TIP3    H2 5268   7.820   7.581   4.554
 1777TIP3   OH2 5269   1.349   0.318   4.036
 1777TIP3    H1 5270   1.317   0.229   4.051
 1777TIP3    H2 5271   1.400   0.312   3.955
 1778TIP3   OH2 5272   1.786   0.171   4.539
 1778TIP3    H1 5273   1.814   0.107   4.473
 1778TIP3    H2 5274   1.720   0.224   4.495
 1779TIP3   OH2 5275   7.669   7.825   4.339
 1779TIP3    H1 5276   7.610   7.754   4.363
 1779TIP3    H2 5277   7.699   7.802   4.251
 1780TIP3   OH2 5278   1.142   0.205   4.219
 1780TIP3    H1 5279   1.109   0.294   4.228
 1780TIP3    H2 5280   1.216   0.200   4.280
 1781TIP3   OH2 5281   1.937   0.612   4.540
 1781TIP3    H1 5282   1.953   0.518   4.551
 1781TIP3    H2 5283   1.854   0.627   4.584
 1782TIP3   OH2 5284   0.996   0.279   4.629
 1782TIP3    H1 5285   1.065   0.322   4.679
 1782TIP3    H2 5286   0.947   0.228   4.694
 1783TIP3   OH2 5287   7.464   7.711   4.893
 1783TIP3    H1 5288   7.405   7.786   4.893
 1783TIP3    H2 5289   7.410   7.638   4.925
 1784TIP3   OH2 5290   1.628   0.928   4.633
 1784TIP3    H1 5291   1.622   0.942   4.539
 1784TIP3    H2 5292   1.710   0.970   4.659
 1785TIP3   OH2 5293   7.303   7.905   4.341
 1785TIP3    H1 5294   7.365   7.977   4.332
 1785TIP3    H2 5295   7.218   7.944   4.323
 1786TIP3   OH2 5296   1.425   0.384   4.616
 1786TIP3    H1 5297   1.343   0.340   4.594
 1786TIP3    H2 5298   1.413   0.411   4.707
 1787TIP3   OH2 5299   1.990   0.345   4.563
 1787TIP3    H1 5300   1.909   0.295   4.579
 1787TIP3    H2 5301   2.027   0.306   4.483
 1788TIP3   OH2 5302   7.087   7.848   4.141
 1788TIP3    H1 5303   7.039   7.814   4.216
 1788TIP3    H2 5304   7.129   7.771   4.102
 1789TIP3   OH2 5305   0.923   0.515   4.510
 1789TIP3    H1 5306   0.958   0.484   4.427
 1789TIP3    H2 5307   0.935   0.442   4.571
 1790TIP3   OH2 5308   1.312   0.163   4.440
 1790TIP3    H1 5309   1.241   0.145   4.502
 1790TIP3    H2 5310   1.352   0.078   4.423
 1791TIP3   OH2 5311   1.440   0.660   4.489
 1791TIP3    H1 5312   1.479   0.578   4.458
 1791TIP3    H2 5313   1.433   0.714   4.411
 1792TIP3   OH2 5314   1.516   0.680   4.054
 1792TIP3    H1 5315   1.466   0.678   3.973
 1792TIP3    H2 5316   1.607   0.693   4.026
 1793TIP3   OH2 5317   1.407   0.443   4.893
 1793TIP3    H1 5318   1.441   0.376   4.952
 1793TIP3    H2 5319   1.472   0.514   4.898
 1794TIP3   OH2 5320   1.544   0.146   4.673
 1794TIP3    H1 5321   1.637   0.151   4.649
 1794TIP3    H2 5322   1.505   0.226   4.637
 1795TIP3   OH2 5323   7.303   7.941   4.813
 1795TIP3    H1 5324   7.244   8.007   4.775
 1795TIP3    H2 5325   7.388   7.959   4.773
 1796TIP3   OH2 5326   1.782   0.666   4.029
 1796TIP3    H1 5327   1.808   0.698   4.115
 1796TIP3    H2 5328   1.853   0.694   3.971
 1797TIP3   OH2 5329   1.815   0.731   4.304
 1797TIP3    H1 5330   1.763   0.656   4.335
 1797TIP3    H2 5331   1.893   0.729   4.360
 1798TIP3   OH2 5332   1.794   0.365   4.866
 1798TIP3    H1 5333   1.731   0.371   4.937
 1798TIP3    H2 5334   1.846   0.445   4.873
 1799TIP3   OH2 5335   1.721   0.165   4.094
 1799TIP3    H1 5336   1.799   0.117   4.066
 1799TIP3    H2 5337   1.729   0.250   4.052
 1800TIP3   OH2 5338   1.664   0.521   4.383
 1800TIP3    H1 5339   1.648   0.442   4.434
 1800TIP3    H2 5340   1.659   0.492   4.292
 1801TIP3   OH2 5341   7.544   8.004   4.716
 1801TIP3    H1 5342   7.629   7.960   4.713
 1801TIP3    H2 5343   7.547   8.067   4.645
 1802TIP3   OH2 5344   7.762   7.867   4.786
 1802TIP3    H1 5345   7.737   7.851   4.877
 1802TIP3    H2 5346   7.808   7.786   4.760
 1803TIP3   OH2 5347   7.319   7.460   4.265
 1803TIP3    H1 5348   7.360   7.419   4.189
 1803TIP3    H2 5349   7.373   7.537   4.282
 1804TIP3   OH2 5350   7.450   7.672   4.401
 1804TIP3    H1 5351   7.367   7.718   4.409
 1804TIP3    H2 5352   7.490   7.679   4.488
 1805TIP3   OH2 5353   1.361   0.561   3.589
 1805TIP3    H1 5354   1.309   0.485   3.562
 1805TIP3    H2 5355   1.338   0.574   3.681
 1806TIP3   OH2 5356   1.004   0.673   4.811
 1806TIP3    H1 5357   1.056   0.633   4.880
 1806TIP3    H2 5358   1.068   0.709   4.749
 1807TIP3   OH2 5359   1.248   0.737   4.672
 1807TIP3    H1 5360   1.322   0.717   4.615
 1807TIP3    H2 5361   1.275   0.817   4.718
 1808TIP3   OH2 5362   0.967   0.682   4.123
 1808TIP3    H1 5363   0.877   0.671   4.154
 1808TIP3    H2 5364   1.015   0.716   4.198
 1809TIP3   OH2 5365   1.235   0.588   4.142
 1809TIP3    H1 5366   1.192   0.561   4.223
 1809TIP3    H2 5367   1.299   0.653   4.169
 1810TIP3   OH2 5368   1.395   0.802   4.259
 1810TIP3    H1 5369   1.381   0.890   4.224
 1810TIP3    H2 5370   1.445   0.757   4.191
 1811TIP3   OH2 5371   1.688   0.660   4.649
 1811TIP3    H1 5372   1.618   0.624   4.596
 1811TIP3    H2 5373   1.667   0.753   4.658
 1812TIP3   OH2 5374   2.935   0.001   3.388
 1812TIP3    H1 5375   2.906   0.091   3.371
 1812TIP3    H2 5376   2.870  -0.054   3.345
 1813TIP3   OH2 5377   0.096   8.036   3.800
 1813TIP3    H1 5378   0.148   8.014   3.877
 1813TIP3    H2 5379   0.053   7.954   3.776
 1814TIP3   OH2 5380   7.915   7.961   4.166
 1814TIP3    H1 5381   7.949   7.902   4.233
 1814TIP3    H2 5382   7.984   8.027   4.155
 1815TIP3   OH2 5383   3.191   0.324   3.459
 1815TIP3    H1 5384   3.177   0.260   3.529
 1815TIP3    H2 5385   3.218   0.404   3.504
 1816TIP3   OH2 5386   2.229   0.302   3.846
 1816TIP3    H1 5387   2.218   0.208   3.855
 1816TIP3    H2 5388   2.324   0.315   3.845
 1817TIP3   OH2 5389   7.661   7.923   3.821
 1817TIP3    H1 5390   7.678   7.847   3.766
 1817TIP3    H2 5391   7.746   7.967   3.828
 1818TIP3   OH2 5392   2.844   0.765   3.483
 1818TIP3    H1 5393   2.889   0.699   3.431
 1818TIP3    H2 5394   2.844   0.731   3.572
 1819TIP3   OH2 5395   2.748   0.244   3.806
 1819TIP3    H1 5396   2.789   0.161   3.780
 1819TIP3    H2 5397   2.821   0.299   3.835
 1820TIP3   OH2 5398   0.344   7.735   3.863
 1820TIP3    H1 5399   0.411   7.667   3.863
 1820TIP3    H2 5400   0.296   7.721   3.781
 1821TIP3   OH2 5401   8.104   7.390   3.847
 1821TIP3    H1 5402   8.087   7.435   3.765
 1821TIP3    H2 5403   8.024   7.339   3.863
 1822TIP3   OH2 5404   0.288   7.533   3.491
 1822TIP3    H1 5405   0.363   7.475   3.503
 1822TIP3    H2 5406   0.283   7.546   3.396
 1823TIP3   OH2 5407   7.849   7.609   3.885
 1823TIP3    H1 5408   7.942   7.615   3.908
 1823TIP3    H2 5409   7.843   7.648   3.798
 1824TIP3   OH2 5410   8.220   7.799   3.732
 1824TIP3    H1 5411   8.313   7.788   3.748
 1824TIP3    H2 5412   8.187   7.711   3.714
 1825TIP3   OH2 5413   0.973   7.776   3.985
 1825TIP3    H1 5414   0.889   7.821   3.978
 1825TIP3    H2 5415   1.007   7.802   4.071
 1826TIP3   OH2 5416   2.822   0.219   3.265
 1826TIP3    H1 5417   2.801   0.207   3.173
 1826TIP3    H2 5418   2.787   0.306   3.287
 1827TIP3   OH2 5419   2.603   0.162   4.024
 1827TIP3    H1 5420   2.546   0.230   4.059
 1827TIP3    H2 5421   2.650   0.204   3.952
 1828TIP3   OH2 5422   8.099   7.625   3.978
 1828TIP3    H1 5423   8.164   7.643   4.046
 1828TIP3    H2 5424   8.123   7.539   3.944
 1829TIP3   OH2 5425   2.436   0.359   4.118
 1829TIP3    H1 5426   2.421   0.447   4.083
 1829TIP3    H2 5427   2.367   0.348   4.184
 1830TIP3   OH2 5428   3.244   0.565   3.597
 1830TIP3    H1 5429   3.161   0.558   3.645
 1830TIP3    H2 5430   3.246   0.655   3.566
 1831TIP3   OH2 5431   2.982   0.614   3.293
 1831TIP3    H1 5432   3.009   0.525   3.269
 1831TIP3    H2 5433   3.063   0.656   3.321
 1832TIP3   OH2 5434   3.096   0.386   3.204
 1832TIP3    H1 5435   3.098   0.312   3.143
 1832TIP3    H2 5436   3.131   0.351   3.286
 1833TIP3   OH2 5437   3.467   0.483   3.931
 1833TIP3    H1 5438   3.454   0.396   3.894
 1833TIP3    H2 5439   3.530   0.525   3.872
 1834TIP3   OH2 5440   8.446   7.872   3.208
 1834TIP3    H1 5441   8.367   7.921   3.187
 1834TIP3    H2 5442   8.490   7.861   3.124
 1835TIP3   OH2 5443   3.674   0.139   3.839
 1835TIP3    H1 5444   3.590   0.186   3.833
 1835TIP3    H2 5445   3.710   0.143   3.750
 1836TIP3   OH2 5446   0.289   7.973   3.192
 1836TIP3    H1 5447   0.227   7.989   3.263
 1836TIP3    H2 5448   0.374   7.966   3.236
 1837TIP3   OH2 5449   3.341  -0.003   4.108
 1837TIP3    H1 5450   3.331   0.077   4.160
 1837TIP3    H2 5451   3.254  -0.016   4.068
 1838TIP3   OH2 5452   8.036   7.956   3.610
 1838TIP3    H1 5453   8.000   7.891   3.550
 1838TIP3    H2 5454   8.108   7.910   3.654
 1839TIP3   OH2 5455   2.494   0.357   3.738
 1839TIP3    H1 5456   2.476   0.330   3.648
 1839TIP3    H2 5457   2.580   0.321   3.757
 1840TIP3   OH2 5458   8.143   7.941   3.963
 1840TIP3    H1 5459   8.180   7.893   3.889
 1840TIP3    H2 5460   8.201   8.017   3.974
 1841TIP3   OH2 5461   3.008   0.555   3.736
 1841TIP3    H1 5462   3.002   0.636   3.786
 1841TIP3    H2 5463   2.998   0.486   3.800
 1842TIP3   OH2 5464   2.629   0.467   4.288
 1842TIP3    H1 5465   2.571   0.526   4.336
 1842TIP3    H2 5466   2.571   0.415   4.233
 1843TIP3   OH2 5467   0.148   7.818   3.010
 1843TIP3    H1 5468   0.200   7.875   3.066
 1843TIP3    H2 5469   0.178   7.838   2.921
 1844TIP3   OH2 5470   2.396   0.065   4.396
 1844TIP3    H1 5471   2.409   0.149   4.440
 1844TIP3    H2 5472   2.313   0.032   4.430
 1845TIP3   OH2 5473   2.718   0.476   3.285
 1845TIP3    H1 5474   2.782   0.544   3.304
 1845TIP3    H2 5475   2.660   0.515   3.220
 1846TIP3   OH2 5476   2.423   0.633   4.374
 1846TIP3    H1 5477   2.385   0.625   4.287
 1846TIP3    H2 5478   2.350   0.616   4.434
 1847TIP3   OH2 5479   2.075   0.203   4.345
 1847TIP3    H1 5480   1.992   0.166   4.314
 1847TIP3    H2 5481   2.117   0.130   4.391
 1848TIP3   OH2 5482   1.868   0.371   3.951
 1848TIP3    H1 5483   1.961   0.379   3.972
 1848TIP3    H2 5484   1.826   0.440   4.002
 1849TIP3   OH2 5485   3.719   0.832   4.006
 1849TIP3    H1 5486   3.713   0.741   3.977
 1849TIP3    H2 5487   3.639   0.846   4.056
 1850TIP3   OH2 5488   2.816   0.606   4.143
 1850TIP3    H1 5489   2.815   0.696   4.176
 1850TIP3    H2 5490   2.752   0.560   4.197
 1851TIP3   OH2 5491   2.618   0.725   3.095
 1851TIP3    H1 5492   2.572   0.696   3.016
 1851TIP3    H2 5493   2.571   0.804   3.122
 1852TIP3   OH2 5494   2.031   0.583   3.486
 1852TIP3    H1 5495   2.078   0.564   3.567
 1852TIP3    H2 5496   1.975   0.506   3.473
 1853TIP3   OH2 5497   2.841   0.630   2.749
 1853TIP3    H1 5498   2.874   0.548   2.714
 1853TIP3    H2 5499   2.811   0.609   2.838
 1854TIP3   OH2 5500   2.872   0.660   3.031
 1854TIP3    H1 5501   2.782   0.672   3.061
 1854TIP3    H2 5502   2.917   0.619   3.105
 1855TIP3   OH2 5503   0.754   7.967   4.259
 1855TIP3    H1 5504   0.670   8.009   4.237
 1855TIP3    H2 5505   0.772   7.911   4.184
 1856TIP3   OH2 5506   2.242   0.406   4.305
 1856TIP3    H1 5507   2.289   0.405   4.388
 1856TIP3    H2 5508   2.179   0.334   4.313
 1857TIP3   OH2 5509   0.516   7.767   4.260
 1857TIP3    H1 5510   0.534   7.819   4.338
 1857TIP3    H2 5511   0.515   7.830   4.188
 1858TIP3   OH2 5512   0.240   7.875   2.750
 1858TIP3    H1 5513   0.193   7.872   2.668
 1858TIP3    H2 5514   0.312   7.938   2.735
 1859TIP3   OH2 5515   8.244   7.771   4.160
 1859TIP3    H1 5516   8.180   7.770   4.231
 1859TIP3    H2 5517   8.209   7.832   4.096
 1860TIP3   OH2 5518   8.097   7.559   3.615
 1860TIP3    H1 5519   8.024   7.541   3.556
 1860TIP3    H2 5520   8.175   7.539   3.563
 1861TIP3   OH2 5521   0.025   7.680   3.383
 1861TIP3    H1 5522  -0.012   7.748   3.327
 1861TIP3    H2 5523   0.108   7.658   3.341
 1862TIP3   OH2 5524   0.254   7.963   4.428
 1862TIP3    H1 5525   0.224   7.893   4.485
 1862TIP3    H2 5526   0.346   7.975   4.450
 1863TIP3   OH2 5527   0.196   7.747   3.623
 1863TIP3    H1 5528   0.138   7.788   3.559
 1863TIP3    H2 5529   0.224   7.665   3.582
 1864TIP3   OH2 5530   8.033   7.770   4.349
 1864TIP3    H1 5531   8.076   7.824   4.415
 1864TIP3    H2 5532   7.979   7.709   4.398
 1865TIP3   OH2 5533   0.248   7.939   4.014
 1865TIP3    H1 5534   0.285   7.872   3.957
 1865TIP3    H2 5535   0.216   7.891   4.090
 1866TIP3   OH2 5536   3.422   1.168   4.120
 1866TIP3    H1 5537   3.421   1.169   4.024
 1866TIP3    H2 5538   3.504   1.210   4.144
 1867TIP3   OH2 5539   2.382   0.302   4.540
 1867TIP3    H1 5540   2.463   0.318   4.588
 1867TIP3    H2 5541   2.316   0.289   4.607
 1868TIP3   OH2 5542  -0.017   7.771   3.801
 1868TIP3    H1 5543   0.058   7.737   3.752
 1868TIP3    H2 5544  -0.011   7.729   3.887
 1869TIP3   OH2 5545   8.485   7.677   4.060
 1869TIP3    H1 5546   8.403   7.705   4.100
 1869TIP3    H2 5547   8.553   7.711   4.119
 1870TIP3   OH2 5548   2.545   0.002   3.174
 1870TIP3    H1 5549   2.459  -0.025   3.141
 1870TIP3    H2 5550   2.526   0.041   3.259
 1871TIP3   OH2 5551   3.430   0.257   3.776
 1871TIP3    H1 5552   3.446   0.304   3.695
 1871TIP3    H2 5553   3.345   0.215   3.763
 1872TIP3   OH2 5554   2.946   0.337   4.181
 1872TIP3    H1 5555   2.986   0.315   4.265
 1872TIP3    H2 5556   2.904   0.422   4.195
 1873TIP3   OH2 5557   0.254   7.643   3.230
 1873TIP3    H1 5558   0.338   7.690   3.228
 1873TIP3    H2 5559   0.214   7.662   3.145
 1874TIP3   OH2 5560   2.243   0.020   3.844
 1874TIP3    H1 5561   2.281   0.003   3.758
 1874TIP3    H2 5562   2.308  -0.014   3.906
 1875TIP3   OH2 5563   2.685   0.176   3.017
 1875TIP3    H1 5564   2.644   0.262   3.029
 1875TIP3    H2 5565   2.634   0.118   3.073
 1876TIP3   OH2 5566   7.811   8.001   4.496
 1876TIP3    H1 5567   7.852   7.976   4.579
 1876TIP3    H2 5568   7.769   7.921   4.464
 1877TIP3   OH2 5569   2.852   0.094   4.484
 1877TIP3    H1 5570   2.784   0.037   4.449
 1877TIP3    H2 5571   2.934   0.058   4.450
 1878TIP3   OH2 5572   3.090   0.620   4.063
 1878TIP3    H1 5573   2.995   0.606   4.069
 1878TIP3    H2 5574   3.114   0.659   4.146
 1879TIP3   OH2 5575   0.648   7.722   2.965
 1879TIP3    H1 5576   0.580   7.683   2.910
 1879TIP3    H2 5577   0.661   7.809   2.929
 1880TIP3   OH2 5578   3.728   0.510   4.049
 1880TIP3    H1 5579   3.635   0.528   4.060
 1880TIP3    H2 5580   3.742   0.514   3.954
 1881TIP3   OH2 5581   3.180   0.143   3.698
 1881TIP3    H1 5582   3.090   0.121   3.721
 1881TIP3    H2 5583   3.215   0.063   3.659
 1882TIP3   OH2 5584   2.339   0.355   3.478
 1882TIP3    H1 5585   2.336   0.433   3.421
 1882TIP3    H2 5586   2.251   0.350   3.515
 1883TIP3   OH2 5587   2.446   0.112   3.403
 1883TIP3    H1 5588   2.423   0.202   3.425
 1883TIP3    H2 5589   2.431   0.063   3.483
 1884TIP3   OH2 5590   2.631   0.682   3.942
 1884TIP3    H1 5591   2.674   0.749   3.889
 1884TIP3    H2 5592   2.701   0.645   3.996
 1885TIP3   OH2 5593   2.259   0.587   3.329
 1885TIP3    H1 5594   2.174   0.594   3.373
 1885TIP3    H2 5595   2.295   0.676   3.332
 1886TIP3   OH2 5596   2.990   0.337   3.910
 1886TIP3    H1 5597   2.978   0.333   4.004
 1886TIP3    H2 5598   3.071   0.287   3.894
 1887TIP3   OH2 5599   2.972   0.231   2.789
 1887TIP3    H1 5600   3.023   0.210   2.867
 1887TIP3    H2 5601   2.894   0.175   2.795
 1888TIP3   OH2 5602   3.212   0.874   3.990
 1888TIP3    H1 5603   3.168   0.790   3.986
 1888TIP3    H2 5604   3.223   0.901   3.899
 1889TIP3   OH2 5605   3.167   0.771   2.659
 1889TIP3    H1 5606   3.254   0.791   2.695
 1889TIP3    H2 5607   3.179   0.775   2.564
 1890TIP3   OH2 5608   3.129   0.168   3.011
 1890TIP3    H1 5609   3.119   0.095   3.073
 1890TIP3    H2 5610   3.222   0.169   2.991
 1891TIP3   OH2 5611   2.073   0.556   4.104
 1891TIP3    H1 5612   2.135   0.497   4.147
 1891TIP3    H2 5613   2.070   0.633   4.161
 1892TIP3   OH2 5614   2.320   0.205   3.039
 1892TIP3    H1 5615   2.311   0.179   3.131
 1892TIP3    H2 5616   2.300   0.299   3.040
 1893TIP3   OH2 5617   2.560   0.421   3.019
 1893TIP3    H1 5618   2.472   0.436   3.054
 1893TIP3    H2 5619   2.547   0.414   2.924
 1894TIP3   OH2 5620   8.328   7.504   3.465
 1894TIP3    H1 5621   8.391   7.570   3.435
 1894TIP3    H2 5622   8.381   7.426   3.482
 1895TIP3   OH2 5623   0.181   7.783   4.230
 1895TIP3    H1 5624   0.193   7.850   4.296
 1895TIP3    H2 5625   0.243   7.714   4.254
 1896TIP3   OH2 5626   2.295   0.479   3.077
 1896TIP3    H1 5627   2.268   0.549   3.018
 1896TIP3    H2 5628   2.278   0.513   3.165
 1897TIP3   OH2 5629   0.422   7.912   3.601
 1897TIP3    H1 5630   0.348   7.854   3.615
 1897TIP3    H2 5631   0.494   7.872   3.650
 1898TIP3   OH2 5632   3.260   0.836   3.519
 1898TIP3    H1 5633   3.217   0.894   3.457
 1898TIP3    H2 5634   3.353   0.858   3.513
 1899TIP3   OH2 5635   1.880   0.356   3.436
 1899TIP3    H1 5636   1.835   0.305   3.503
 1899TIP3    H2 5637   1.896   0.293   3.365
 1900TIP3   OH2 5638   2.048   0.870   4.532
 1900TIP3    H1 5639   2.130   0.872   4.582
 1900TIP3    H2 5640   2.016   0.781   4.543
 1901TIP3   OH2 5641   2.518   0.814   4.559
 1901TIP3    H1 5642   2.606   0.784   4.581
 1901TIP3    H2 5643   2.488   0.755   4.490
 1902TIP3   OH2 5644   2.512   0.405   2.745
 1902TIP3    H1 5645   2.447   0.335   2.744
 1902TIP3    H2 5646   2.578   0.377   2.681
 1903TIP3   OH2 5647   3.147   0.726   4.308
 1903TIP3    H1 5648   3.149   0.655   4.373
 1903TIP3    H2 5649   3.223   0.780   4.329
 1904TIP3   OH2 5650   3.005   0.455   2.639
 1904TIP3    H1 5651   3.008   0.372   2.687
 1904TIP3    H2 5652   3.015   0.430   2.547
 1905TIP3   OH2 5653   2.189   0.261   4.734
 1905TIP3    H1 5654   2.189   0.166   4.743
 1905TIP3    H2 5655   2.108   0.280   4.687
 1906TIP3   OH2 5656   2.782   0.364   4.496
 1906TIP3    H1 5657   2.736   0.379   4.413
 1906TIP3    H2 5658   2.817   0.275   4.488
 1907TIP3   OH2 5659   2.715   0.102   2.757
 1907TIP3    H1 5660   2.701   0.129   2.848
 1907TIP3    H2 5661   2.682   0.012   2.754
 1908TIP3   OH2 5662   3.258   0.395   4.092
 1908TIP3    H1 5663   3.332   0.432   4.044
 1908TIP3    H2 5664   3.188   0.459   4.082
 1909TIP3   OH2 5665   8.007   8.013   4.695
 1909TIP3    H1 5666   8.079   7.951   4.689
 1909TIP3    H2 5667   8.014   8.049   4.784
 1910TIP3   OH2 5668   8.307   7.949   4.389
 1910TIP3    H1 5669   8.227   8.002   4.386
 1910TIP3    H2 5670   8.347   7.962   4.303
 1911TIP3   OH2 5671   3.136   0.275   4.483
 1911TIP3    H1 5672   3.212   0.242   4.435
 1911TIP3    H2 5673   3.128   0.216   4.559
 1912TIP3   OH2 5674   0.454   8.005   2.614
 1912TIP3    H1 5675   0.413   7.952   2.547
 1912TIP3    H2 5676   0.503   8.072   2.566
 1913TIP3   OH2 5677   8.376   7.710   4.496
 1913TIP3    H1 5678   8.358   7.645   4.428
 1913TIP3    H2 5679   8.356   7.794   4.454
 1914TIP3   OH2 5680   2.782   0.010   4.168
 1914TIP3    H1 5681   2.868   0.018   4.125
 1914TIP3    H2 5682   2.725   0.069   4.118
 1915TIP3   OH2 5683   0.529   7.977   4.490
 1915TIP3    H1 5684   0.580   7.940   4.562
 1915TIP3    H2 5685   0.555   8.069   4.486
 1916TIP3   OH2 5686   3.378   0.227   4.268
 1916TIP3    H1 5687   3.322   0.286   4.218
 1916TIP3    H2 5688   3.466   0.244   4.234
 1917TIP3   OH2 5689   8.202   7.816   4.696
 1917TIP3    H1 5690   8.219   7.778   4.782
 1917TIP3    H2 5691   8.273   7.783   4.640
 1918TIP3   OH2 5692   0.146   7.750   4.557
 1918TIP3    H1 5693   0.155   7.713   4.645
 1918TIP3    H2 5694   0.055   7.732   4.533
 1919TIP3   OH2 5695   2.276   0.690   2.898
 1919TIP3    H1 5696   2.370   0.684   2.880
 1919TIP3    H2 5697   2.239   0.726   2.817
 1920TIP3   OH2 5698   1.641   0.648   3.524
 1920TIP3    H1 5699   1.556   0.604   3.519
 1920TIP3    H2 5700   1.690   0.597   3.589
 1921TIP3   OH2 5701   1.786   0.525   3.722
 1921TIP3    H1 5702   1.781   0.446   3.775
 1921TIP3    H2 5703   1.848   0.581   3.768
 1922TIP3   OH2 5704   3.516   0.936   3.511
 1922TIP3    H1 5705   3.549   0.939   3.601
 1922TIP3    H2 5706   3.596   0.934   3.457
 1923TIP3   OH2 5707   3.555   0.935   3.791
 1923TIP3    H1 5708   3.496   0.861   3.790
 1923TIP3    H2 5709   3.633   0.903   3.837
 1924TIP3   OH2 5710   3.596   0.618   4.371
 1924TIP3    H1 5711   3.526   0.626   4.435
 1924TIP3    H2 5712   3.643   0.702   4.377
 1925TIP3   OH2 5713   3.406   0.152   2.978
 1925TIP3    H1 5714   3.470   0.216   2.946
 1925TIP3    H2 5715   3.446   0.115   3.056
 1926TIP3   OH2 5716   3.535   0.035   3.185
 1926TIP3    H1 5717   3.471   0.008   3.251
 1926TIP3    H2 5718   3.607   0.075   3.236
 1927TIP3   OH2 5719   3.379   0.725   3.797
 1927TIP3    H1 5720   3.371   0.668   3.874
 1927TIP3    H2 5721   3.368   0.665   3.723
 1928TIP3   OH2 5722   0.627   7.952   2.818
 1928TIP3    H1 5723   0.562   7.958   2.748
 1928TIP3    H2 5724   0.605   8.023   2.878
 1929TIP3   OH2 5725   0.486   7.641   2.762
 1929TIP3    H1 5726   0.441   7.701   2.702
 1929TIP3    H2 5727   0.433   7.562   2.761
 1930TIP3   OH2 5728   0.516   7.935   3.346
 1930TIP3    H1 5729   0.527   7.843   3.324
 1930TIP3    H2 5730   0.486   7.934   3.437
 1931TIP3   OH2 5731   1.971   0.038   4.068
 1931TIP3    H1 5732   1.963  -0.026   3.997
 1931TIP3    H2 5733   2.063   0.033   4.095
 1932TIP3   OH2 5734   3.628   0.281   4.170
 1932TIP3    H1 5735   3.694   0.212   4.164
 1932TIP3    H2 5736   3.663   0.352   4.117
 1933TIP3   OH2 5737   3.831   0.107   4.189
 1933TIP3    H1 5738   3.796   0.020   4.210
 1933TIP3    H2 5739   3.896   0.123   4.257
 1934TIP3   OH2 5740   0.527   7.696   3.213
 1934TIP3    H1 5741   0.518   7.601   3.207
 1934TIP3    H2 5742   0.577   7.721   3.135
 1935TIP3   OH2 5743   0.649   7.832   3.730
 1935TIP3    H1 5744   0.725   7.857   3.678
 1935TIP3    H2 5745   0.671   7.859   3.819
 1936TIP3   OH2 5746   0.741   7.931   3.972
 1936TIP3    H1 5747   0.657   7.962   4.007
 1936TIP3    H2 5748   0.780   8.009   3.932
 1937TIP3   OH2 5749   7.878   7.624   4.728
 1937TIP3    H1 5750   7.958   7.654   4.772
 1937TIP3    H2 5751   7.861   7.537   4.764
 1938TIP3   OH2 5752   7.627   7.552   4.211
 1938TIP3    H1 5753   7.650   7.614   4.141
 1938TIP3    H2 5754   7.707   7.544   4.262
 1939TIP3   OH2 5755   2.217   0.596   4.553
 1939TIP3    H1 5756   2.123   0.594   4.538
 1939TIP3    H2 5757   2.227   0.577   4.646
 1940TIP3   OH2 5758   2.398   0.630   4.081
 1940TIP3    H1 5759   2.346   0.705   4.052
 1940TIP3    H2 5760   2.485   0.645   4.044
 1941TIP3   OH2 5761   2.818   0.872   4.225
 1941TIP3    H1 5762   2.856   0.860   4.313
 1941TIP3    H2 5763   2.885   0.921   4.177
 1942TIP3   OH2 5764   3.003   1.028   4.092
 1942TIP3    H1 5765   3.070   0.972   4.052
 1942TIP3    H2 5766   3.052   1.085   4.152
 1943TIP3   OH2 5767   2.061   0.891   4.130
 1943TIP3    H1 5768   1.970   0.914   4.109
 1943TIP3    H2 5769   2.083   0.946   4.205
 1944TIP3   OH2 5770   2.290   0.865   3.982
 1944TIP3    H1 5771   2.208   0.871   4.031
 1944TIP3    H2 5772   2.267   0.888   3.892
 1945TIP3   OH2 5773   2.715   0.884   3.766
 1945TIP3    H1 5774   2.638   0.898   3.711
 1945TIP3    H2 5775   2.723   0.966   3.815
 1946TIP3   OH2 5776   2.980   0.819   3.813
 1946TIP3    H1 5777   2.891   0.847   3.794
 1946TIP3    H2 5778   3.035   0.891   3.784
 1947TIP3   OH2 5779   3.188   1.006   3.733
 1947TIP3    H1 5780   3.180   1.088   3.685
 1947TIP3    H2 5781   3.219   0.943   3.668
 1948TIP3   OH2 5782   2.001   0.667   3.859
 1948TIP3    H1 5783   2.029   0.635   3.945
 1948TIP3    H2 5784   2.063   0.627   3.798
 1949TIP3   OH2 5785   2.185   0.535   3.709
 1949TIP3    H1 5786   2.193   0.453   3.758
 1949TIP3    H2 5787   2.272   0.574   3.715
 1950TIP3   OH2 5788   2.448   0.633   3.736
 1950TIP3    H1 5789   2.469   0.541   3.721
 1950TIP3    H2 5790   2.499   0.657   3.813
 1951TIP3   OH2 5791   1.708   0.506   3.235
 1951TIP3    H1 5792   1.644   0.435   3.227
 1951TIP3    H2 5793   1.748   0.492   3.321
 1952TIP3   OH2 5794   2.539   0.666   2.824
 1952TIP3    H1 5795   2.596   0.705   2.757
 1952TIP3    H2 5796   2.527   0.576   2.796
 1953TIP3   OH2 5797   3.465   0.891   4.117
 1953TIP3    H1 5798   3.383   0.865   4.075
 1953TIP3    H2 5799   3.455   0.984   4.134
 1954TIP3   OH2 5800   4.733   0.267   2.885
 1954TIP3    H1 5801   4.716   0.360   2.868
 1954TIP3    H2 5802   4.659   0.222   2.844
 1955TIP3   OH2 5803   4.743   0.297   3.260
 1955TIP3    H1 5804   4.767   0.308   3.352
 1955TIP3    H2 5805   4.701   0.211   3.256
 1956TIP3   OH2 5806   4.055   0.195   3.624
 1956TIP3    H1 5807   4.061   0.123   3.687
 1956TIP3    H2 5808   4.091   0.271   3.670
 1957TIP3   OH2 5809   4.994   0.584   2.954
 1957TIP3    H1 5810   4.981   0.523   3.027
 1957TIP3    H2 5811   5.022   0.665   2.995
 1958TIP3   OH2 5812   4.022   0.565   3.313
 1958TIP3    H1 5813   4.006   0.472   3.329
 1958TIP3    H2 5814   4.116   0.575   3.322
 1959TIP3   OH2 5815   0.858   7.826   3.161
 1959TIP3    H1 5816   0.802   7.904   3.164
 1959TIP3    H2 5817   0.830   7.780   3.082
 1960TIP3   OH2 5818   3.771   0.119   3.303
 1960TIP3    H1 5819   3.837   0.058   3.336
 1960TIP3    H2 5820   3.821   0.194   3.272
 1961TIP3   OH2 5821   4.647   1.022   2.965
 1961TIP3    H1 5822   4.680   0.948   2.914
 1961TIP3    H2 5823   4.634   0.986   3.053
 1962TIP3   OH2 5824   4.539   0.503   3.292
 1962TIP3    H1 5825   4.578   0.428   3.247
 1962TIP3    H2 5826   4.614   0.551   3.329
 1963TIP3   OH2 5827   2.158   7.981   3.341
 1963TIP3    H1 5828   2.249   7.988   3.311
 1963TIP3    H2 5829   2.105   8.006   3.266
 1964TIP3   OH2 5830   1.528   7.589   3.263
 1964TIP3    H1 5831   1.479   7.660   3.305
 1964TIP3    H2 5832   1.464   7.520   3.250
 1965TIP3   OH2 5833   2.066   7.718   3.002
 1965TIP3    H1 5834   2.159   7.700   3.016
 1965TIP3    H2 5835   2.065   7.785   2.933
 1966TIP3   OH2 5836   1.145   7.990   3.406
 1966TIP3    H1 5837   1.158   7.965   3.498
 1966TIP3    H2 5838   1.196   7.925   3.357
 1967TIP3   OH2 5839   4.389   0.100   3.167
 1967TIP3    H1 5840   4.477   0.074   3.194
 1967TIP3    H2 5841   4.350   0.019   3.133
 1968TIP3   OH2 5842   5.602   0.013   3.480
 1968TIP3    H1 5843   5.524   0.069   3.484
 1968TIP3    H2 5844   5.647   0.030   3.563
 1969TIP3   OH2 5845   4.647   0.490   2.726
 1969TIP3    H1 5846   4.604   0.461   2.646
 1969TIP3    H2 5847   4.593   0.562   2.758
 1970TIP3   OH2 5848   4.387   0.423   3.511
 1970TIP3    H1 5849   4.327   0.488   3.548
 1970TIP3    H2 5850   4.430   0.468   3.439
 1971TIP3   OH2 5851   1.263   7.806   3.590
 1971TIP3    H1 5852   1.339   7.864   3.590
 1971TIP3    H2 5853   1.273   7.753   3.511
 1972TIP3   OH2 5854   4.224   0.619   3.610
 1972TIP3    H1 5855   4.206   0.708   3.579
 1972TIP3    H2 5856   4.151   0.599   3.669
 1973TIP3   OH2 5857   3.604   0.319   2.874
 1973TIP3    H1 5858   3.570   0.334   2.785
 1973TIP3    H2 5859   3.630   0.407   2.904
 1974TIP3   OH2 5860   5.044   0.825   3.094
 1974TIP3    H1 5861   4.959   0.814   3.138
 1974TIP3    H2 5862   5.039   0.911   3.053
 1975TIP3   OH2 5863   4.747   0.852   2.763
 1975TIP3    H1 5864   4.798   0.772   2.750
 1975TIP3    H2 5865   4.806   0.922   2.735
 1976TIP3   OH2 5866   4.893   0.629   2.699
 1976TIP3    H1 5867   4.822   0.565   2.695
 1976TIP3    H2 5868   4.940   0.607   2.780
 1977TIP3   OH2 5869   5.273   0.725   3.447
 1977TIP3    H1 5870   5.263   0.649   3.389
 1977TIP3    H2 5871   5.258   0.800   3.390
 1978TIP3   OH2 5872   4.559   0.135   2.712
 1978TIP3    H1 5873   4.475   0.177   2.694
 1978TIP3    H2 5874   4.602   0.132   2.626
 1979TIP3   OH2 5875   1.687   7.960   2.407
 1979TIP3    H1 5876   1.754   8.019   2.443
 1979TIP3    H2 5877   1.722   7.872   2.422
 1980TIP3   OH2 5878   5.467   0.374   3.290
 1980TIP3    H1 5879   5.384   0.421   3.297
 1980TIP3    H2 5880   5.506   0.406   3.209
 1981TIP3   OH2 5881   4.908   0.213   2.679
 1981TIP3    H1 5882   4.853   0.235   2.755
 1981TIP3    H2 5883   4.997   0.212   2.713
 1982TIP3   OH2 5884   5.148   0.268   3.576
 1982TIP3    H1 5885   5.145   0.333   3.646
 1982TIP3    H2 5886   5.096   0.307   3.505
 1983TIP3   OH2 5887   4.137   0.195   3.092
 1983TIP3    H1 5888   4.100   0.133   3.029
 1983TIP3    H2 5889   4.223   0.158   3.114
 1984TIP3   OH2 5890   4.291   0.620   3.223
 1984TIP3    H1 5891   4.270   0.590   3.134
 1984TIP3    H2 5892   4.378   0.583   3.241
 1985TIP3   OH2 5893   4.329   0.167   3.426
 1985TIP3    H1 5894   4.343   0.167   3.332
 1985TIP3    H2 5895   4.340   0.258   3.452
 1986TIP3   OH2 5896   4.812   0.809   3.233
 1986TIP3    H1 5897   4.796   0.891   3.279
 1986TIP3    H2 5898   4.793   0.741   3.297
 1987TIP3   OH2 5899   4.422   0.720   3.776
 1987TIP3    H1 5900   4.364   0.779   3.824
 1987TIP3    H2 5901   4.363   0.668   3.721
 1988TIP3   OH2 5902   4.743   0.085   2.503
 1988TIP3    H1 5903   4.801   0.144   2.552
 1988TIP3    H2 5904   4.776   0.089   2.413
 1989TIP3   OH2 5905   4.170   0.306   3.866
 1989TIP3    H1 5906   4.178   0.392   3.908
 1989TIP3    H2 5907   4.090   0.268   3.903
 1990TIP3   OH2 5908   4.504   0.724   2.774
 1990TIP3    H1 5909   4.583   0.778   2.779
 1990TIP3    H2 5910   4.440   0.780   2.730
 1991TIP3   OH2 5911   4.214   0.882   3.860
 1991TIP3    H1 5912   4.184   0.885   3.769
 1991TIP3    H2 5913   4.135   0.861   3.911
 1992TIP3   OH2 5914   4.010   0.030   2.885
 1992TIP3    H1 5915   3.944   0.086   2.845
 1992TIP3    H2 5916   3.962  -0.046   2.916
 1993TIP3   OH2 5917   5.090   0.674   2.120
 1993TIP3    H1 5918   5.094   0.766   2.093
 1993TIP3    H2 5919   5.179   0.641   2.108
 1994TIP3   OH2 5920   3.645   0.603   3.428
 1994TIP3    H1 5921   3.733   0.565   3.428
 1994TIP3    H2 5922   3.619   0.607   3.520
 1995TIP3   OH2 5923   5.509   1.074   3.507
 1995TIP3    H1 5924   5.515   0.980   3.524
 1995TIP3    H2 5925   5.429   1.101   3.552
 1996TIP3   OH2 5926   4.612   0.857   3.632
 1996TIP3    H1 5927   4.611   0.947   3.664
 1996TIP3    H2 5928   4.545   0.812   3.684
 1997TIP3   OH2 5929   4.396   0.976   2.583
 1997TIP3    H1 5930   4.344   0.953   2.505
 1997TIP3    H2 5931   4.357   1.057   2.614
 1998TIP3   OH2 5932   3.824   0.821   2.970
 1998TIP3    H1 5933   3.869   0.819   3.054
 1998TIP3    H2 5934   3.781   0.736   2.963
 1999TIP3   OH2 5935   4.593   0.894   2.222
 1999TIP3    H1 5936   4.642   0.820   2.187
 1999TIP3    H2 5937   4.624   0.904   2.312
 2000TIP3   OH2 5938   4.651   0.939   2.490
 2000TIP3    H1 5939   4.562   0.948   2.526
 2000TIP3    H2 5940   4.701   0.897   2.560
 2001TIP3   OH2 5941   5.384   0.205   3.755
 2001TIP3    H1 5942   5.309   0.264   3.744
 2001TIP3    H2 5943   5.367   0.134   3.693
 2002TIP3   OH2 5944   4.019   0.615   3.784
 2002TIP3    H1 5945   4.047   0.598   3.874
 2002TIP3    H2 5946   3.926   0.592   3.784
 2003TIP3   OH2 5947   5.218  -0.003   3.638
 2003TIP3    H1 5948   5.178  -0.029   3.721
 2003TIP3    H2 5949   5.174   0.079   3.614
 2004TIP3   OH2 5950   4.836   0.071   2.251
 2004TIP3    H1 5951   4.790   0.072   2.167
 2004TIP3    H2 5952   4.921   0.109   2.233
 2005TIP3   OH2 5953   4.292  -0.016   3.619
 2005TIP3    H1 5954   4.240   0.018   3.691
 2005TIP3    H2 5955   4.294   0.056   3.555
 2006TIP3   OH2 5956   1.391   7.916   3.078
 2006TIP3    H1 5957   1.298   7.895   3.077
 2006TIP3    H2 5958   1.424   7.885   2.994
 2007TIP3   OH2 5959   1.860   7.969   2.862
 2007TIP3    H1 5960   1.801   8.035   2.825
 2007TIP3    H2 5961   1.913   7.940   2.788
 2008TIP3   OH2 5962   4.878   0.238   3.836
 2008TIP3    H1 5963   4.846   0.163   3.887
 2008TIP3    H2 5964   4.963   0.260   3.876
 2009TIP3   OH2 5965   4.850   0.039   3.089
 2009TIP3    H1 5966   4.792   0.103   3.048
 2009TIP3    H2 5967   4.794  -0.036   3.105
 2010TIP3   OH2 5968   1.272   8.003   3.822
 2010TIP3    H1 5969   1.214   8.061   3.872
 2010TIP3    H2 5970   1.223   7.921   3.815
 2011TIP3   OH2 5971   0.958   7.711   2.917
 2011TIP3    H1 5972   0.940   7.686   2.826
 2011TIP3    H2 5973   0.943   7.630   2.967
 2012TIP3   OH2 5974   4.839   0.281   3.524
 2012TIP3    H1 5975   4.882   0.196   3.525
 2012TIP3    H2 5976   4.858   0.319   3.609
 2013TIP3   OH2 5977   1.136   7.805   3.105
 2013TIP3    H1 5978   1.045   7.829   3.125
 2013TIP3    H2 5979   1.129   7.739   3.037
 2014TIP3   OH2 5980   1.461   7.821   2.836
 2014TIP3    H1 5981   1.544   7.781   2.810
 2014TIP3    H2 5982   1.404   7.806   2.761
 2015TIP3   OH2 5983   1.277   7.777   2.634
 2015TIP3    H1 5984   1.201   7.744   2.586
 2015TIP3    H2 5985   1.331   7.819   2.567
 2016TIP3   OH2 5986   5.219   1.421   3.606
 2016TIP3    H1 5987   5.217   1.442   3.513
 2016TIP3    H2 5988   5.298   1.465   3.638
 2017TIP3   OH2 5989   4.174   0.541   4.019
 2017TIP3    H1 5990   4.253   0.561   4.068
 2017TIP3    H2 5991   4.105   0.534   4.085
 2018TIP3   OH2 5992   4.636   0.048   3.301
 2018TIP3    H1 5993   4.673  -0.036   3.275
 2018TIP3    H2 5994   4.598   0.032   3.387
 2019TIP3   OH2 5995   4.572  -0.004   3.586
 2019TIP3    H1 5996   4.488  -0.036   3.619
 2019TIP3    H2 5997   4.573   0.089   3.609
 2020TIP3   OH2 5998   4.322   0.267   2.659
 2020TIP3    H1 5999   4.251   0.206   2.642
 2020TIP3    H2 6000   4.303   0.302   2.746
 2021TIP3   OH2 6001   5.230   0.513   3.273
 2021TIP3    H1 6002   5.262   0.566   3.200
 2021TIP3    H2 6003   5.144   0.482   3.244
 2022TIP3   OH2 6004   1.839   7.740   2.464
 2022TIP3    H1 6005   1.811   7.656   2.499
 2022TIP3    H2 6006   1.896   7.777   2.532
 2023TIP3   OH2 6007   4.743   0.588   3.678
 2023TIP3    H1 6008   4.783   0.576   3.764
 2023TIP3    H2 6009   4.697   0.671   3.684
 2024TIP3   OH2 6010   2.006   7.881   2.643
 2024TIP3    H1 6011   2.077   7.902   2.703
 2024TIP3    H2 6012   1.989   7.961   2.595
 2025TIP3   OH2 6013   4.015   0.287   3.333
 2025TIP3    H1 6014   4.062   0.250   3.257
 2025TIP3    H2 6015   4.045   0.234   3.407
 2026TIP3   OH2 6016   4.483   0.421   2.503
 2026TIP3    H1 6017   4.439   0.506   2.501
 2026TIP3    H2 6018   4.425   0.365   2.555
 2027TIP3   OH2 6019   3.934   0.163   3.938
 2027TIP3    H1 6020   3.921   0.158   4.033
 2027TIP3    H2 6021   3.845   0.162   3.902
 2028TIP3   OH2 6022   4.635   0.344   3.951
 2028TIP3    H1 6023   4.568   0.279   3.928
 2028TIP3    H2 6024   4.712   0.317   3.902
 2029TIP3   OH2 6025   4.884   0.858   3.549
 2029TIP3    H1 6026   4.789   0.852   3.563
 2029TIP3    H2 6027   4.916   0.905   3.626
 2030TIP3   OH2 6028   2.412   7.972   2.418
 2030TIP3    H1 6029   2.344   7.941   2.358
 2030TIP3    H2 6030   2.431   8.061   2.389
 2031TIP3   OH2 6031   5.524   0.787   3.539
 2031TIP3    H1 6032   5.428   0.781   3.532
 2031TIP3    H2 6033   5.555   0.763   3.452
 2032TIP3   OH2 6034   5.007   0.753   2.382
 2032TIP3    H1 6035   4.983   0.687   2.447
 2032TIP3    H2 6036   5.028   0.702   2.303
 2033TIP3   OH2 6037   4.990   0.404   3.179
 2033TIP3    H1 6038   4.899   0.379   3.199
 2033TIP3    H2 6039   5.025   0.329   3.131
 2034TIP3   OH2 6040   4.138   0.608   2.968
 2034TIP3    H1 6041   4.128   0.685   2.912
 2034TIP3    H2 6042   4.054   0.600   3.013
 2035TIP3   OH2 6043   0.836   7.986   2.641
 2035TIP3    H1 6044   0.895   8.053   2.674
 2035TIP3    H2 6045   0.762   7.987   2.703
 2036TIP3   OH2 6046   4.245   0.365   2.897
 2036TIP3    H1 6047   4.219   0.455   2.918
 2036TIP3    H2 6048   4.210   0.313   2.969
 2037TIP3   OH2 6049   4.422   0.939   3.431
 2037TIP3    H1 6050   4.462   1.010   3.381
 2037TIP3    H2 6051   4.494   0.904   3.483
 2038TIP3   OH2 6052   4.054   0.839   2.818
 2038TIP3    H1 6053   3.970   0.844   2.863
 2038TIP3    H2 6054   4.090   0.928   2.823
 2039TIP3   OH2 6055   4.781   0.586   3.405
 2039TIP3    H1 6056   4.767   0.584   3.499
 2039TIP3    H2 6057   4.869   0.551   3.392
 2040TIP3   OH2 6058   4.764   0.475   2.268
 2040TIP3    H1 6059   4.814   0.447   2.345
 2040TIP3    H2 6060   4.678   0.435   2.280
 2041TIP3   OH2 6061   5.032   1.097   3.440
 2041TIP3    H1 6062   4.958   1.037   3.447
 2041TIP3    H2 6063   5.008   1.158   3.370
 2042TIP3   OH2 6064   5.098   0.952   2.084
 2042TIP3    H1 6065   5.076   1.001   2.005
 2042TIP3    H2 6066   5.023   0.967   2.142
 2043TIP3   OH2 6067   4.930   0.391   2.467
 2043TIP3    H1 6068   4.917   0.340   2.546
 2043TIP3    H2 6069   5.025   0.406   2.463
 2044TIP3   OH2 6070   3.832   0.818   3.596
 2044TIP3    H1 6071   3.783   0.745   3.634
 2044TIP3    H2 6072   3.916   0.816   3.642
 2045TIP3   OH2 6073   4.126   0.446   2.283
 2045TIP3    H1 6074   4.135   0.354   2.256
 2045TIP3    H2 6075   4.106   0.441   2.376
 2046TIP3   OH2 6076   4.066   0.458   2.552
 2046TIP3    H1 6077   4.133   0.426   2.613
 2046TIP3    H2 6078   4.070   0.554   2.562
 2047TIP3   OH2 6079   3.813   0.176   2.763
 2047TIP3    H1 6080   3.747   0.216   2.820
 2047TIP3    H2 6081   3.825   0.239   2.692
 2048TIP3   OH2 6082   4.341   0.652   2.497
 2048TIP3    H1 6083   4.255   0.673   2.532
 2048TIP3    H2 6084   4.360   0.725   2.437
 2049TIP3   OH2 6085   1.732   7.737   2.850
 2049TIP3    H1 6086   1.776   7.821   2.856
 2049TIP3    H2 6087   1.695   7.722   2.937
 2050TIP3   OH2 6088   4.086   0.730   2.568
 2050TIP3    H1 6089   4.064   0.801   2.507
 2050TIP3    H2 6090   4.074   0.770   2.655
 2051TIP3   OH2 6091   5.080   0.172   3.058
 2051TIP3    H1 6092   4.997   0.127   3.074
 2051TIP3    H2 6093   5.141   0.134   3.121
 2052TIP3   OH2 6094   3.812   0.346   2.538
 2052TIP3    H1 6095   3.886   0.406   2.546
 2052TIP3    H2 6096   3.845   0.275   2.483
 2053TIP3   OH2 6097   0.841   7.718   2.641
 2053TIP3    H1 6098   0.847   7.814   2.641
 2053TIP3    H2 6099   0.750   7.700   2.663
 2054TIP3   OH2 6100   5.061   1.093   3.013
 2054TIP3    H1 6101   5.021   1.143   2.941
 2054TIP3    H2 6102   5.155   1.108   3.002
 2055TIP3   OH2 6103   3.657   0.591   2.953
 2055TIP3    H1 6104   3.629   0.615   3.041
 2055TIP3    H2 6105   3.598   0.640   2.895
 2056TIP3   OH2 6106   3.844   1.127   4.011
 2056TIP3    H1 6107   3.927   1.126   4.060
 2056TIP3    H2 6108   3.821   1.034   4.002
 2057TIP3   OH2 6109   4.313   1.058   4.048
 2057TIP3    H1 6110   4.404   1.032   4.062
 2057TIP3    H2 6111   4.282   0.999   3.978
 2058TIP3   OH2 6112   4.286   0.643   2.180
 2058TIP3    H1 6113   4.239   0.571   2.221
 2058TIP3    H2 6114   4.361   0.601   2.137
 2059TIP3   OH2 6115   4.959   0.984   3.776
 2059TIP3    H1 6116   4.946   0.918   3.845
 2059TIP3    H2 6117   5.027   1.042   3.810
 2060TIP3   OH2 6118   4.729   0.690   2.105
 2060TIP3    H1 6119   4.756   0.620   2.164
 2060TIP3    H2 6120   4.784   0.679   2.027
 2061TIP3   OH2 6121   3.959   0.531   4.202
 2061TIP3    H1 6122   3.991   0.441   4.207
 2061TIP3    H2 6123   3.875   0.524   4.157
 2062TIP3   OH2 6124   3.947   0.145   2.415
 2062TIP3    H1 6125   3.999   0.120   2.491
 2062TIP3    H2 6126   4.011   0.156   2.345
 2063TIP3   OH2 6127   4.577   0.617   3.980
 2063TIP3    H1 6128   4.528   0.639   3.901
 2063TIP3    H2 6129   4.605   0.527   3.967
 2064TIP3   OH2 6130   4.500   0.370   2.233
 2064TIP3    H1 6131   4.481   0.379   2.326
 2064TIP3    H2 6132   4.485   0.278   2.214
 2065TIP3   OH2 6133   5.047   0.627   3.574
 2065TIP3    H1 6134   5.125   0.669   3.537
 2065TIP3    H2 6135   4.980   0.695   3.571
 2066TIP3   OH2 6136   4.099   0.290   4.170
 2066TIP3    H1 6137   4.191   0.271   4.153
 2066TIP3    H2 6138   4.077   0.237   4.246
 2067TIP3   OH2 6139   4.124   0.081   2.622
 2067TIP3    H1 6140   4.099   0.045   2.708
 2067TIP3    H2 6141   4.167   0.008   2.578
 2068TIP3   OH2 6142   4.419   0.176   3.846
 2068TIP3    H1 6143   4.336   0.221   3.857
 2068TIP3    H2 6144   4.458   0.215   3.767
 2069TIP3   OH2 6145   1.419   7.912   2.450
 2069TIP3    H1 6146   1.384   7.912   2.361
 2069TIP3    H2 6147   1.512   7.932   2.439
 2070TIP3   OH2 6148   4.929   0.539   3.957
 2070TIP3    H1 6149   5.020   0.522   3.933
 2070TIP3    H2 6150   4.916   0.491   4.038
 2071TIP3   OH2 6151   5.053   0.196   2.128
 2071TIP3    H1 6152   5.038   0.151   2.044
 2071TIP3    H2 6153   5.025   0.286   2.112
 2072TIP3   OH2 6154   1.716   7.947   3.899
 2072TIP3    H1 6155   1.652   7.880   3.877
 2072TIP3    H2 6156   1.669   8.030   3.888
 2073TIP3   OH2 6157   4.573   0.264   3.631
 2073TIP3    H1 6158   4.657   0.293   3.595
 2073TIP3    H2 6159   4.509   0.326   3.595
 2074TIP3   OH2 6160   5.129   0.229   3.969
 2074TIP3    H1 6161   5.123   0.203   4.061
 2074TIP3    H2 6162   5.192   0.302   3.969
 2075TIP3   OH2 6163   5.190   0.478   3.751
 2075TIP3    H1 6164   5.127   0.533   3.704
 2075TIP3    H2 6165   5.275   0.504   3.717
 2076TIP3   OH2 6166   4.403   0.123   4.181
 2076TIP3    H1 6167   4.357   0.099   4.261
 2076TIP3    H2 6168   4.482   0.069   4.181
 2077TIP3   OH2 6169   4.793   0.028   3.980
 2077TIP3    H1 6170   4.809   0.006   4.072
 2077TIP3    H2 6171   4.709  -0.013   3.960
 2078TIP3   OH2 6172   4.073   0.935   2.382
 2078TIP3    H1 6173   4.164   0.917   2.357
 2078TIP3    H2 6174   4.038   0.986   2.310
 2079TIP3   OH2 6175   3.544   0.332   2.602
 2079TIP3    H1 6176   3.635   0.333   2.574
 2079TIP3    H2 6177   3.501   0.268   2.546
 2080TIP3   OH2 6178   3.454   0.895   3.010
 2080TIP3    H1 6179   3.456   0.836   2.935
 2080TIP3    H2 6180   3.495   0.845   3.081
 2081TIP3   OH2 6181   3.600   0.750   3.197
 2081TIP3    H1 6182   3.592   0.685   3.267
 2081TIP3    H2 6183   3.649   0.822   3.237
 2082TIP3   OH2 6184   5.327   1.160   3.002
 2082TIP3    H1 6185   5.347   1.182   3.093
 2082TIP3    H2 6186   5.387   1.215   2.951
 2083TIP3   OH2 6187   5.350   1.181   3.283
 2083TIP3    H1 6188   5.302   1.098   3.280
 2083TIP3    H2 6189   5.421   1.164   3.345
 2084TIP3   OH2 6190   5.388   0.873   3.858
 2084TIP3    H1 6191   5.316   0.882   3.921
 2084TIP3    H2 6192   5.434   0.957   3.862
 2085TIP3   OH2 6193   5.206   0.414   2.463
 2085TIP3    H1 6194   5.266   0.480   2.428
 2085TIP3    H2 6195   5.253   0.375   2.536
 2086TIP3   OH2 6196   5.360   0.295   2.652
 2086TIP3    H1 6197   5.290   0.275   2.714
 2086TIP3    H2 6198   5.430   0.332   2.705
 2087TIP3   OH2 6199   5.388   0.657   3.099
 2087TIP3    H1 6200   5.445   0.591   3.060
 2087TIP3    H2 6201   5.389   0.729   3.036
 2088TIP3   OH2 6202   5.209   0.941   3.289
 2088TIP3    H1 6203   5.141   0.983   3.343
 2088TIP3    H2 6204   5.161   0.898   3.219
 2089TIP3   OH2 6205   5.261   0.200   2.300
 2089TIP3    H1 6206   5.188   0.196   2.239
 2089TIP3    H2 6207   5.240   0.275   2.356
 2090TIP3   OH2 6208   2.253   7.885   2.217
 2090TIP3    H1 6209   2.268   7.912   2.126
 2090TIP3    H2 6210   2.229   7.793   2.211
 2091TIP3   OH2 6211   5.155   0.197   2.799
 2091TIP3    H1 6212   5.187   0.109   2.778
 2091TIP3    H2 6213   5.138   0.195   2.893
 2092TIP3   OH2 6214   3.783   0.146   3.587
 2092TIP3    H1 6215   3.755   0.161   3.496
 2092TIP3    H2 6216   3.872   0.179   3.590
 2093TIP3   OH2 6217   5.438   0.538   3.659
 2093TIP3    H1 6218   5.504   0.469   3.647
 2093TIP3    H2 6219   5.470   0.611   3.607
 2094TIP3   OH2 6220   5.626   0.345   3.662
 2094TIP3    H1 6221   5.591   0.260   3.690
 2094TIP3    H2 6222   5.694   0.364   3.728
 2095TIP3   OH2 6223   2.391   7.971   2.686
 2095TIP3    H1 6224   2.350   7.885   2.701
 2095TIP3    H2 6225   2.394   7.979   2.591
 2096TIP3   OH2 6226   5.247   0.069   3.240
 2096TIP3    H1 6227   5.316   0.070   3.175
 2096TIP3    H2 6228   5.290   0.091   3.322
 2097TIP3   OH2 6229   5.382   0.176   3.454
 2097TIP3    H1 6230   5.306   0.212   3.501
 2097TIP3    H2 6231   5.420   0.252   3.409
 2098TIP3   OH2 6232   1.037   7.849   4.249
 2098TIP3    H1 6233   1.120   7.893   4.267
 2098TIP3    H2 6234   1.049   7.760   4.283
 2099TIP3   OH2 6235   0.898   7.890   3.623
 2099TIP3    H1 6236   0.945   7.851   3.549
 2099TIP3    H2 6237   0.916   7.984   3.617
 2100TIP3   OH2 6238   4.904   1.041   2.656
 2100TIP3    H1 6239   4.971   1.038   2.587
 2100TIP3    H2 6240   4.931   1.113   2.713
 2101TIP3   OH2 6241   3.995   0.847   4.030
 2101TIP3    H1 6242   3.901   0.833   4.019
 2101TIP3    H2 6243   4.012   0.822   4.121
 2102TIP3   OH2 6244   4.190   0.892   3.574
 2102TIP3    H1 6245   4.137   0.965   3.542
 2102TIP3    H2 6246   4.276   0.904   3.534
 2103TIP3   OH2 6247   4.611   1.123   3.712
 2103TIP3    H1 6248   4.647   1.114   3.800
 2103TIP3    H2 6249   4.675   1.177   3.666
 2104TIP3   OH2 6250   4.799   1.280   3.583
 2104TIP3    H1 6251   4.867   1.222   3.549
 2104TIP3    H2 6252   4.846   1.339   3.642
 2105TIP3   OH2 6253   3.862   1.181   3.599
 2105TIP3    H1 6254   3.767   1.192   3.586
 2105TIP3    H2 6255   3.877   1.210   3.689
 2106TIP3   OH2 6256   4.090   1.123   3.463
 2106TIP3    H1 6257   4.009   1.139   3.511
 2106TIP3    H2 6258   4.070   1.147   3.372
 2107TIP3   OH2 6259   4.510   1.143   3.259
 2107TIP3    H1 6260   4.435   1.156   3.201
 2107TIP3    H2 6261   4.521   1.227   3.304
 2108TIP3   OH2 6262   4.775   1.075   3.306
 2108TIP3    H1 6263   4.682   1.096   3.291
 2108TIP3    H2 6264   4.823   1.148   3.268
 2109TIP3   OH2 6265   4.976   1.259   3.218
 2109TIP3    H1 6266   4.971   1.345   3.178
 2109TIP3    H2 6267   5.005   1.201   3.148
 2110TIP3   OH2 6268   3.767   0.923   3.351
 2110TIP3    H1 6269   3.786   0.898   3.441
 2110TIP3    H2 6270   3.840   0.887   3.300
 2111TIP3   OH2 6271   3.968   0.808   3.203
 2111TIP3    H1 6272   3.977   0.724   3.247
 2111TIP3    H2 6273   4.055   0.848   3.209
 2112TIP3   OH2 6274   4.238   0.894   3.222
 2112TIP3    H1 6275   4.258   0.801   3.209
 2112TIP3    H2 6276   4.287   0.918   3.301
 2113TIP3   OH2 6277   3.491   0.726   2.770
 2113TIP3    H1 6278   3.486   0.649   2.713
 2113TIP3    H2 6279   3.502   0.799   2.710
 2114TIP3   OH2 6280   4.333   0.872   2.317
 2114TIP3    H1 6281   4.416   0.901   2.280
 2114TIP3    H2 6282   4.306   0.799   2.262
 2115TIP3   OH2 6283   5.020   1.023   2.397
 2115TIP3    H1 6284   5.025   0.928   2.394
 2115TIP3    H2 6285   4.927   1.043   2.387
 2116TIP3   OH2 6286   3.648   0.719   2.392
 2116TIP3    H1 6287   3.665   0.759   2.477
 2116TIP3    H2 6288   3.730   0.675   2.370
 2117TIP3   OH2 6289   5.260   1.146   3.603
 2117TIP3    H1 6290   5.182   1.115   3.557
 2117TIP3    H2 6291   5.245   1.240   3.615
 2118TIP3   OH2 6292   6.522   0.507   2.372
 2118TIP3    H1 6293   6.502   0.601   2.365
 2118TIP3    H2 6294   6.450   0.464   2.324
 2119TIP3   OH2 6295   6.518   0.558   2.746
 2119TIP3    H1 6296   6.545   0.545   2.837
 2119TIP3    H2 6297   6.493   0.471   2.716
 2120TIP3   OH2 6298   5.830   0.443   3.106
 2120TIP3    H1 6299   5.851   0.380   3.175
 2120TIP3    H2 6300   5.902   0.506   3.108
 2121TIP3   OH2 6301   6.789   0.837   2.446
 2121TIP3    H1 6302   6.774   0.776   2.518
 2121TIP3    H2 6303   6.817   0.918   2.487
 2122TIP3   OH2 6304   5.814   0.817   2.814
 2122TIP3    H1 6305   5.799   0.722   2.817
 2122TIP3    H2 6306   5.909   0.826   2.807
 2123TIP3   OH2 6307   5.487   0.061   2.594
 2123TIP3    H1 6308   5.450   0.148   2.602
 2123TIP3    H2 6309   5.423   0.003   2.636
 2124TIP3   OH2 6310   5.583   0.368   2.791
 2124TIP3    H1 6311   5.631   0.300   2.838
 2124TIP3    H2 6312   5.649   0.435   2.773
 2125TIP3   OH2 6313   6.446   1.274   2.455
 2125TIP3    H1 6314   6.476   1.207   2.394
 2125TIP3    H2 6315   6.449   1.231   2.540
 2126TIP3   OH2 6316   6.334   0.764   2.783
 2126TIP3    H1 6317   6.376   0.686   2.748
 2126TIP3    H2 6318   6.406   0.818   2.814
 2127TIP3   OH2 6319   6.722   0.318   2.816
 2127TIP3    H1 6320   6.770   0.264   2.878
 2127TIP3    H2 6321   6.744   0.282   2.730
 2128TIP3   OH2 6322   3.274   7.871   2.752
 2128TIP3    H1 6323   3.269   7.967   2.758
 2128TIP3    H2 6324   3.223   7.850   2.674
 2129TIP3   OH2 6325   0.676   2.518   1.989
 2129TIP3    H1 6326   0.767   2.524   2.021
 2129TIP3    H2 6327   0.658   2.605   1.954
 2130TIP3   OH2 6328   5.721   0.196   2.957
 2130TIP3    H1 6329   5.762   0.188   3.043
 2130TIP3    H2 6330   5.794   0.189   2.895
 2131TIP3   OH2 6331   6.173   0.343   2.667
 2131TIP3    H1 6332   6.268   0.332   2.677
 2131TIP3    H2 6333   6.145   0.264   2.622
 2132TIP3   OH2 6334   7.388   0.278   2.962
 2132TIP3    H1 6335   7.303   0.322   2.960
 2132TIP3    H2 6336   7.420   0.291   3.051
 2133TIP3   OH2 6337   6.401   0.734   2.245
 2133TIP3    H1 6338   6.393   0.728   2.150
 2133TIP3    H2 6339   6.360   0.818   2.267
 2134TIP3   OH2 6340   6.185   0.679   2.999
 2134TIP3    H1 6341   6.128   0.748   3.034
 2134TIP3    H2 6342   6.234   0.721   2.929
 2135TIP3   OH2 6343   5.930   0.045   3.070
 2135TIP3    H1 6344   5.992   0.118   3.061
 2135TIP3    H2 6345   5.926   0.006   2.983
 2136TIP3   OH2 6346   6.018   0.874   3.102
 2136TIP3    H1 6347   6.002   0.964   3.070
 2136TIP3    H2 6348   5.941   0.855   3.156
 2137TIP3   OH2 6349   5.400   0.578   2.358
 2137TIP3    H1 6350   5.372   0.594   2.268
 2137TIP3    H2 6351   5.433   0.662   2.388
 2138TIP3   OH2 6352   6.839   1.080   2.585
 2138TIP3    H1 6353   6.753   1.070   2.625
 2138TIP3    H2 6354   6.836   1.166   2.541
 2139TIP3   OH2 6355   6.543   1.112   2.249
 2139TIP3    H1 6356   6.593   1.031   2.236
 2139TIP3    H2 6357   6.601   1.182   2.220
 2140TIP3   OH2 6358   6.697   0.895   2.189
 2140TIP3    H1 6359   6.685   0.812   2.143
 2140TIP3    H2 6360   6.733   0.869   2.274
 2141TIP3   OH2 6361   7.076   0.977   2.932
 2141TIP3    H1 6362   7.058   0.900   2.877
 2141TIP3    H2 6363   7.058   1.052   2.875
 2142TIP3   OH2 6364   6.355   0.375   2.193
 2142TIP3    H1 6365   6.279   0.429   2.173
 2142TIP3    H2 6366   6.398   0.362   2.109
 2143TIP3   OH2 6367   7.256   0.632   2.770
 2143TIP3    H1 6368   7.173   0.677   2.778
 2143TIP3    H2 6369   7.290   0.657   2.684
 2144TIP3   OH2 6370   6.711   0.446   2.181
 2144TIP3    H1 6371   6.657   0.471   2.256
 2144TIP3    H2 6372   6.794   0.419   2.219
 2145TIP3   OH2 6373   6.968   0.565   3.057
 2145TIP3    H1 6374   6.923   0.638   3.100
 2145TIP3    H2 6375   6.913   0.489   3.077
 2146TIP3   OH2 6376   5.938   0.452   2.567
 2146TIP3    H1 6377   5.905   0.387   2.505
 2146TIP3    H2 6378   6.020   0.415   2.599
 2147TIP3   OH2 6379   6.077   0.866   2.714
 2147TIP3    H1 6380   6.061   0.848   2.621
 2147TIP3    H2 6381   6.165   0.833   2.729
 2148TIP3   OH2 6382   6.061   0.456   2.901
 2148TIP3    H1 6383   6.107   0.427   2.822
 2148TIP3    H2 6384   6.110   0.533   2.931
 2149TIP3   OH2 6385   6.602   1.071   2.717
 2149TIP3    H1 6386   6.591   1.149   2.771
 2149TIP3    H2 6387   6.591   0.998   2.777
 2150TIP3   OH2 6388   6.219   0.981   3.261
 2150TIP3    H1 6389   6.160   1.039   3.309
 2150TIP3    H2 6390   6.162   0.927   3.208
 2151TIP3   OH2 6391   6.565   0.304   2.000
 2151TIP3    H1 6392   6.622   0.354   2.059
 2151TIP3    H2 6393   6.572   0.349   1.916
 2152TIP3   OH2 6394   5.967   0.563   3.353
 2152TIP3    H1 6395   5.980   0.646   3.399
 2152TIP3    H2 6396   5.876   0.540   3.371
 2153TIP3   OH2 6397   6.292   0.995   2.257
 2153TIP3    H1 6398   6.377   1.038   2.263
 2153TIP3    H2 6399   6.237   1.055   2.208
 2154TIP3   OH2 6400   6.009   1.140   3.348
 2154TIP3    H1 6401   5.982   1.146   3.256
 2154TIP3    H2 6402   5.928   1.122   3.396
 2155TIP3   OH2 6403   5.806   0.284   2.371
 2155TIP3    H1 6404   5.735   0.337   2.336
 2155TIP3    H2 6405   5.762   0.211   2.414
 2156TIP3   OH2 6406   6.800   0.927   1.646
 2156TIP3    H1 6407   6.833   1.015   1.628
 2156TIP3    H2 6408   6.874   0.870   1.626
 2157TIP3   OH2 6409   5.595   0.694   3.294
 2157TIP3    H1 6410   5.526   0.674   3.230
 2157TIP3    H2 6411   5.631   0.609   3.318
 2158TIP3   OH2 6412   5.452   0.879   2.929
 2158TIP3    H1 6413   5.548   0.877   2.923
 2158TIP3    H2 6414   5.433   0.957   2.982
 2159TIP3   OH2 6415   7.306   1.345   2.986
 2159TIP3    H1 6416   7.314   1.250   2.994
 2159TIP3    H2 6417   7.226   1.366   3.034
 2160TIP3   OH2 6418   6.409   1.119   3.118
 2160TIP3    H1 6419   6.405   1.209   3.150
 2160TIP3    H2 6420   6.343   1.073   3.170
 2161TIP3   OH2 6421   6.183   1.218   2.088
 2161TIP3    H1 6422   6.145   1.199   2.003
 2161TIP3    H2 6423   6.151   1.306   2.109
 2162TIP3   OH2 6424   5.623   1.073   2.459
 2162TIP3    H1 6425   5.671   1.067   2.542
 2162TIP3    H2 6426   5.581   0.988   2.449
 2163TIP3   OH2 6427   6.375   1.140   1.724
 2163TIP3    H1 6428   6.428   1.073   1.681
 2163TIP3    H2 6429   6.416   1.153   1.809
 2164TIP3   OH2 6430   6.439   1.195   1.987
 2164TIP3    H1 6431   6.353   1.195   2.030
 2164TIP3    H2 6432   6.498   1.160   2.053
 2165TIP3   OH2 6433   7.158   0.463   3.233
 2165TIP3    H1 6434   7.099   0.523   3.188
 2165TIP3    H2 6435   7.155   0.382   3.182
 2166TIP3   OH2 6436   5.800   0.876   3.269
 2166TIP3    H1 6437   5.850   0.867   3.351
 2166TIP3    H2 6438   5.728   0.813   3.279
 2167TIP3   OH2 6439   7.117   0.191   3.166
 2167TIP3    H1 6440   7.091   0.147   3.247
 2167TIP3    H2 6441   7.034   0.220   3.128
 2168TIP3   OH2 6442   6.101   0.258   3.085
 2168TIP3    H1 6443   6.086   0.296   3.171
 2168TIP3    H2 6444   6.074   0.327   3.024
 2169TIP3   OH2 6445   6.027   0.150   2.528
 2169TIP3    H1 6446   5.938   0.116   2.526
 2169TIP3    H2 6447   6.057   0.146   2.437
 2170TIP3   OH2 6448   6.540   0.187   2.276
 2170TIP3    H1 6449   6.468   0.249   2.279
 2170TIP3    H2 6450   6.575   0.195   2.188
 2171TIP3   OH2 6451   6.679   0.497   3.414
 2171TIP3    H1 6452   6.666   0.402   3.422
 2171TIP3    H2 6453   6.774   0.509   3.411
 2172TIP3   OH2 6454   6.671   0.294   2.538
 2172TIP3    H1 6455   6.605   0.342   2.489
 2172TIP3    H2 6456   6.642   0.203   2.536
 2173TIP3   OH2 6457   5.908   0.271   3.304
 2173TIP3    H1 6458   5.942   0.342   3.359
 2173TIP3    H2 6459   5.913   0.193   3.359
 2174TIP3   OH2 6460   2.761   7.973   2.366
 2174TIP3    H1 6461   2.708   7.896   2.347
 2174TIP3    H2 6462   2.718   8.014   2.442
 2175TIP3   OH2 6463   6.615   0.494   2.996
 2175TIP3    H1 6464   6.660   0.437   2.934
 2175TIP3    H2 6465   6.655   0.474   3.081
 2176TIP3   OH2 6466   5.769   0.050   2.587
 2176TIP3    H1 6467   5.674   0.061   2.589
 2176TIP3    H2 6468   5.783  -0.043   2.605
 2177TIP3   OH2 6469   6.075   0.032   2.277
 2177TIP3    H1 6470   6.142  -0.001   2.336
 2177TIP3    H2 6471   5.997  -0.019   2.297
 2178TIP3   OH2 6472   3.021   7.946   2.014
 2178TIP3    H1 6473   2.929   7.967   2.029
 2178TIP3    H2 6474   3.068   8.025   2.042
 2179TIP3   OH2 6475   7.014   1.680   3.091
 2179TIP3    H1 6476   7.011   1.697   2.997
 2179TIP3    H2 6477   7.093   1.725   3.121
 2180TIP3   OH2 6478   5.963   0.804   3.499
 2180TIP3    H1 6479   6.045   0.821   3.546
 2180TIP3    H2 6480   5.896   0.802   3.567
 2181TIP3   OH2 6481   6.441   0.290   2.731
 2181TIP3    H1 6482   6.534   0.268   2.723
 2181TIP3    H2 6483   6.423   0.285   2.825
 2182TIP3   OH2 6484   6.359   0.275   2.991
 2182TIP3    H1 6485   6.278   0.278   3.040
 2182TIP3    H2 6486   6.427   0.302   3.053
 2183TIP3   OH2 6487   6.125   0.522   2.134
 2183TIP3    H1 6488   6.054   0.459   2.121
 2183TIP3    H2 6489   6.106   0.562   2.219
 2184TIP3   OH2 6490   7.020   0.774   2.757
 2184TIP3    H1 6491   7.047   0.821   2.679
 2184TIP3    H2 6492   6.933   0.741   2.736
 2185TIP3   OH2 6493   6.530   0.848   3.154
 2185TIP3    H1 6494   6.584   0.830   3.231
 2185TIP3    H2 6495   6.497   0.937   3.167
 2186TIP3   OH2 6496   5.808   0.532   2.796
 2186TIP3    H1 6497   5.849   0.515   2.711
 2186TIP3    H2 6498   5.871   0.501   2.860
 2187TIP3   OH2 6499   6.290   0.679   1.975
 2187TIP3    H1 6500   6.243   0.763   1.978
 2187TIP3    H2 6501   6.238   0.621   2.031
 2188TIP3   OH2 6502   5.709   0.478   3.420
 2188TIP3    H1 6503   5.743   0.471   3.509
 2188TIP3    H2 6504   5.647   0.406   3.412
 2189TIP3   OH2 6505   6.437   0.611   3.438
 2189TIP3    H1 6506   6.396   0.583   3.356
 2189TIP3    H2 6507   6.527   0.579   3.431
 2190TIP3   OH2 6508   6.681   1.135   3.038
 2190TIP3    H1 6509   6.586   1.120   3.046
 2190TIP3    H2 6510   6.706   1.173   3.122
 2191TIP3   OH2 6511   7.323   1.067   3.008
 2191TIP3    H1 6512   7.229   1.047   3.007
 2191TIP3    H2 6513   7.355   1.033   2.924
 2192TIP3   OH2 6514   6.786   1.012   1.922
 2192TIP3    H1 6515   6.766   0.958   1.998
 2192TIP3    H2 6516   6.778   0.953   1.847
 2193TIP3   OH2 6517   6.772   0.667   2.672
 2193TIP3    H1 6518   6.683   0.636   2.692
 2193TIP3    H2 6519   6.816   0.591   2.636
 2194TIP3   OH2 6520   5.945   0.867   2.457
 2194TIP3    H1 6521   5.945   0.944   2.400
 2194TIP3    H2 6522   5.852   0.852   2.475
 2195TIP3   OH2 6523   5.488   0.190   2.149
 2195TIP3    H1 6524   5.537   0.267   2.176
 2195TIP3    H2 6525   5.410   0.190   2.205
 2196TIP3   OH2 6526   6.036   0.621   2.369
 2196TIP3    H1 6527   6.023   0.712   2.395
 2196TIP3    H2 6528   6.006   0.570   2.444
 2197TIP3   OH2 6529   6.219   1.192   2.916
 2197TIP3    H1 6530   6.257   1.264   2.866
 2197TIP3    H2 6531   6.292   1.157   2.967
 2198TIP3   OH2 6532   5.853   1.095   2.306
 2198TIP3    H1 6533   5.769   1.100   2.350
 2198TIP3    H2 6534   5.887   1.185   2.309
 2199TIP3   OH2 6535   6.582   0.849   2.884
 2199TIP3    H1 6536   6.568   0.840   2.978
 2199TIP3    H2 6537   6.657   0.792   2.865
 2200TIP3   OH2 6538   6.525   0.716   1.818
 2200TIP3    H1 6539   6.596   0.706   1.882
 2200TIP3    H2 6540   6.445   0.711   1.870
 2201TIP3   OH2 6541   6.833   1.356   2.928
 2201TIP3    H1 6542   6.761   1.294   2.939
 2201TIP3    H2 6543   6.805   1.412   2.856
 2202TIP3   OH2 6544   6.880   1.183   1.585
 2202TIP3    H1 6545   6.885   1.221   1.498
 2202TIP3    H2 6546   6.816   1.237   1.632
 2203TIP3   OH2 6547   6.706   0.672   2.022
 2203TIP3    H1 6548   6.703   0.593   2.077
 2203TIP3    H2 6549   6.799   0.683   2.001
 2204TIP3   OH2 6550   5.641   1.077   3.076
 2204TIP3    H1 6551   5.693   1.012   3.124
 2204TIP3    H2 6552   5.660   1.160   3.121
 2205TIP3   OH2 6553   5.912   0.715   1.769
 2205TIP3    H1 6554   5.926   0.625   1.739
 2205TIP3    H2 6555   5.900   0.707   1.864
 2206TIP3   OH2 6556   5.870   0.716   2.044
 2206TIP3    H1 6557   5.947   0.691   2.094
 2206TIP3    H2 6558   5.868   0.811   2.047
 2207TIP3   OH2 6559   5.602   0.422   2.251
 2207TIP3    H1 6560   5.536   0.464   2.306
 2207TIP3    H2 6561   5.618   0.484   2.180
 2208TIP3   OH2 6562   6.132   0.898   1.979
 2208TIP3    H1 6563   6.052   0.933   2.017
 2208TIP3    H2 6564   6.145   0.950   1.899
 2209TIP3   OH2 6565   3.568   7.971   2.332
 2209TIP3    H1 6566   3.627   8.045   2.321
 2209TIP3    H2 6567   3.537   7.978   2.423
 2210TIP3   OH2 6568   6.542   0.292   3.198
 2210TIP3    H1 6569   6.538   0.284   3.293
 2210TIP3    H2 6570   6.635   0.295   3.178
 2211TIP3   OH2 6571   5.881   0.988   2.054
 2211TIP3    H1 6572   5.855   1.057   1.992
 2211TIP3    H2 6573   5.871   1.029   2.140
 2212TIP3   OH2 6574   6.893   0.445   2.562
 2212TIP3    H1 6575   6.813   0.392   2.558
 2212TIP3    H2 6576   6.953   0.392   2.615
 2213TIP3   OH2 6577   5.616   0.600   2.036
 2213TIP3    H1 6578   5.688   0.662   2.044
 2213TIP3    H2 6579   5.649   0.532   1.977
 2214TIP3   OH2 6580   2.749   7.960   2.070
 2214TIP3    H1 6581   2.730   8.041   2.118
 2214TIP3    H2 6582   2.666   7.913   2.068
 2215TIP3   OH2 6583   6.858   1.348   2.506
 2215TIP3    H1 6584   6.816   1.398   2.436
 2215TIP3    H2 6585   6.952   1.360   2.491
 2216TIP3   OH2 6586   5.467   0.840   2.433
 2216TIP3    H1 6587   5.411   0.865   2.507
 2216TIP3    H2 6588   5.422   0.876   2.356
 2217TIP3   OH2 6589   5.643   1.386   3.498
 2217TIP3    H1 6590   5.725   1.393   3.546
 2217TIP3    H2 6591   5.627   1.292   3.490
 2218TIP3   OH2 6592   6.109   1.311   3.540
 2218TIP3    H1 6593   6.202   1.290   3.551
 2218TIP3    H2 6594   6.080   1.254   3.469
 2219TIP3   OH2 6595   6.078   0.921   1.686
 2219TIP3    H1 6596   6.029   0.844   1.713
 2219TIP3    H2 6597   6.152   0.886   1.637
 2220TIP3   OH2 6598   6.738   1.241   3.285
 2220TIP3    H1 6599   6.744   1.171   3.350
 2220TIP3    H2 6600   6.814   1.297   3.302
 2221TIP3   OH2 6601   6.529   0.966   1.575
 2221TIP3    H1 6602   6.606   0.926   1.615
 2221TIP3    H2 6603   6.564   1.023   1.507
 2222TIP3   OH2 6604   5.761   0.787   3.692
 2222TIP3    H1 6605   5.790   0.695   3.697
 2222TIP3    H2 6606   5.674   0.782   3.652
 2223TIP3   OH2 6607   5.748   0.397   1.907
 2223TIP3    H1 6608   5.803   0.364   1.978
 2223TIP3    H2 6609   5.809   0.414   1.835
 2224TIP3   OH2 6610   6.369   0.878   3.469
 2224TIP3    H1 6611   6.326   0.898   3.385
 2224TIP3    H2 6612   6.404   0.790   3.458
 2225TIP3   OH2 6613   6.228   0.623   1.705
 2225TIP3    H1 6614   6.259   0.643   1.793
 2225TIP3    H2 6615   6.188   0.536   1.713
 2226TIP3   OH2 6616   6.847   0.908   3.076
 2226TIP3    H1 6617   6.927   0.937   3.032
 2226TIP3    H2 6618   6.783   0.976   3.056
 2227TIP3   OH2 6619   5.890   0.532   3.640
 2227TIP3    H1 6620   5.985   0.526   3.636
 2227TIP3    H2 6621   5.866   0.483   3.719
 2228TIP3   OH2 6622   5.941   0.304   2.126
 2228TIP3    H1 6623   5.894   0.305   2.209
 2228TIP3    H2 6624   6.010   0.239   2.137
 2229TIP3   OH2 6625   6.189   0.403   3.321
 2229TIP3    H1 6626   6.123   0.469   3.341
 2229TIP3    H2 6627   6.255   0.449   3.269
 2230TIP3   OH2 6628   6.740   0.797   3.446
 2230TIP3    H1 6629   6.814   0.762   3.396
 2230TIP3    H2 6630   6.728   0.735   3.518
 2231TIP3   OH2 6631   6.338   0.171   3.378
 2231TIP3    H1 6632   6.288   0.106   3.328
 2231TIP3    H2 6633   6.298   0.254   3.354
 2232TIP3   OH2 6634   6.363   0.545   3.168
 2232TIP3    H1 6635   6.447   0.534   3.124
 2232TIP3    H2 6636   6.311   0.600   3.109
 2233TIP3   OH2 6637   6.946   0.523   3.465
 2233TIP3    H1 6638   6.951   0.462   3.538
 2233TIP3    H2 6639   7.021   0.500   3.410
 2234TIP3   OH2 6640   6.974   0.767   3.268
 2234TIP3    H1 6641   6.919   0.821   3.211
 2234TIP3    H2 6642   7.061   0.771   3.227
 2235TIP3   OH2 6643   6.179   0.408   3.671
 2235TIP3    H1 6644   6.138   0.366   3.747
 2235TIP3    H2 6645   6.256   0.354   3.653
 2236TIP3   OH2 6646   6.588   0.241   3.468
 2236TIP3    H1 6647   6.604   0.242   3.562
 2236TIP3    H2 6648   6.501   0.202   3.458
 2237TIP3   OH2 6649   5.855   1.198   1.874
 2237TIP3    H1 6650   5.950   1.191   1.859
 2237TIP3    H2 6651   5.822   1.240   1.794
 2238TIP3   OH2 6652   5.347   0.583   2.086
 2238TIP3    H1 6653   5.437   0.603   2.064
 2238TIP3    H2 6654   5.328   0.501   2.040
 2239TIP3   OH2 6655   5.246   1.164   2.476
 2239TIP3    H1 6656   5.175   1.109   2.442
 2239TIP3    H2 6657   5.288   1.111   2.543
 2240TIP3   OH2 6658   5.372   1.024   2.680
 2240TIP3    H1 6659   5.358   0.955   2.744
 2240TIP3    H2 6660   5.432   1.085   2.722
 2241TIP3   OH2 6661   7.126   1.401   2.487
 2241TIP3    H1 6662   7.149   1.436   2.573
 2241TIP3    H2 6663   7.187   1.445   2.427
 2242TIP3   OH2 6664   7.144   1.439   2.768
 2242TIP3    H1 6665   7.098   1.355   2.763
 2242TIP3    H2 6666   7.218   1.422   2.826
 2243TIP3   OH2 6667   7.189   1.135   3.339
 2243TIP3    H1 6668   7.118   1.139   3.403
 2243TIP3    H2 6669   7.232   1.220   3.345
 2244TIP3   OH2 6670   6.975   0.689   1.989
 2244TIP3    H1 6671   7.039   0.755   1.965
 2244TIP3    H2 6672   7.023   0.628   2.045
 2245TIP3   OH2 6673   7.114   0.525   2.161
 2245TIP3    H1 6674   7.052   0.464   2.201
 2245TIP3    H2 6675   7.173   0.549   2.232
 2246TIP3   OH2 6676   7.189   0.904   2.579
 2246TIP3    H1 6677   7.241   0.839   2.532
 2246TIP3    H2 6678   7.193   0.982   2.523
 2247TIP3   OH2 6679   7.006   1.195   2.777
 2247TIP3    H1 6680   6.939   1.239   2.830
 2247TIP3    H2 6681   6.958   1.152   2.707
 2248TIP3   OH2 6682   6.940   0.360   2.308
 2248TIP3    H1 6683   7.020   0.308   2.320
 2248TIP3    H2 6684   6.928   0.404   2.392
 2249TIP3   OH2 6685   5.566   0.456   3.051
 2249TIP3    H1 6686   5.556   0.428   2.960
 2249TIP3    H2 6687   5.660   0.457   3.066
 2250TIP3   OH2 6688   7.222   0.794   3.148
 2250TIP3    H1 6689   7.288   0.725   3.138
 2250TIP3    H2 6690   7.234   0.850   3.072
 2251TIP3   OH2 6691   7.419   0.608   3.158
 2251TIP3    H1 6692   7.384   0.520   3.173
 2251TIP3    H2 6693   7.492   0.616   3.220
 2252TIP3   OH2 6694   7.088   0.303   2.697
 2252TIP3    H1 6695   7.157   0.341   2.642
 2252TIP3    H2 6696   7.099   0.346   2.782
 2253TIP3   OH2 6697   7.161   0.430   2.925
 2253TIP3    H1 6698   7.087   0.469   2.971
 2253TIP3    H2 6699   7.204   0.503   2.880
 2254TIP3   OH2 6700   5.673   0.089   3.781
 2254TIP3    H1 6701   5.732   0.129   3.845
 2254TIP3    H2 6702   5.672  -0.004   3.803
 2255TIP3   OH2 6703   5.503   0.133   3.133
 2255TIP3    H1 6704   5.565   0.156   3.063
 2255TIP3    H2 6705   5.508   0.207   3.194
 2256TIP3   OH2 6706   6.687   1.311   2.141
 2256TIP3    H1 6707   6.743   1.303   2.063
 2256TIP3    H2 6708   6.731   1.377   2.194
 2257TIP3   OH2 6709   5.785   1.106   3.511
 2257TIP3    H1 6710   5.692   1.085   3.505
 2257TIP3    H2 6711   5.807   1.091   3.603
 2258TIP3   OH2 6712   5.989   1.148   3.063
 2258TIP3    H1 6713   5.938   1.223   3.030
 2258TIP3    H2 6714   6.075   1.157   3.022
 2259TIP3   OH2 6715   6.403   1.385   3.201
 2259TIP3    H1 6716   6.441   1.376   3.289
 2259TIP3    H2 6717   6.467   1.436   3.152
 2260TIP3   OH2 6718   6.592   1.537   3.069
 2260TIP3    H1 6719   6.655   1.482   3.024
 2260TIP3    H2 6720   6.644   1.594   3.126
 2261TIP3   OH2 6721   5.651   1.395   3.106
 2261TIP3    H1 6722   5.560   1.416   3.085
 2261TIP3    H2 6723   5.674   1.458   3.174
 2262TIP3   OH2 6724   5.882   1.379   2.956
 2262TIP3    H1 6725   5.799   1.386   3.003
 2262TIP3    H2 6726   5.862   1.406   2.867
 2263TIP3   OH2 6727   6.305   1.398   2.749
 2263TIP3    H1 6728   6.236   1.413   2.684
 2263TIP3    H2 6729   6.317   1.484   2.791
 2264TIP3   OH2 6730   6.571   1.337   2.800
 2264TIP3    H1 6731   6.479   1.355   2.781
 2264TIP3    H2 6732   6.619   1.406   2.755
 2265TIP3   OH2 6733   6.771   1.517   2.705
 2265TIP3    H1 6734   6.766   1.603   2.664
 2265TIP3    H2 6735   6.801   1.459   2.636
 2266TIP3   OH2 6736   5.566   1.177   2.826
 2266TIP3    H1 6737   5.585   1.151   2.916
 2266TIP3    H2 6738   5.638   1.141   2.774
 2267TIP3   OH2 6739   5.769   1.057   2.691
 2267TIP3    H1 6740   5.779   0.973   2.735
 2267TIP3    H2 6741   5.856   1.097   2.694
 2268TIP3   OH2 6742   6.035   1.145   2.710
 2268TIP3    H1 6743   6.055   1.053   2.696
 2268TIP3    H2 6744   6.087   1.170   2.786
 2269TIP3   OH2 6745   5.335   0.961   2.229
 2269TIP3    H1 6746   5.258   0.944   2.174
 2269TIP3    H2 6747   5.335   1.056   2.240
 2270TIP3   OH2 6748   6.120   1.153   1.820
 2270TIP3    H1 6749   6.208   1.173   1.789
 2270TIP3    H2 6750   6.090   1.082   1.763
 2271TIP3   OH2 6751   6.841   1.276   1.912
 2271TIP3    H1 6752   6.830   1.181   1.914
 2271TIP3    H2 6753   6.794   1.304   1.833
 2272TIP3   OH2 6754   5.444   0.973   1.867
 2272TIP3    H1 6755   5.451   0.969   1.962
 2272TIP3    H2 6756   5.521   0.927   1.834
 2273TIP3   OH2 6757   7.057   1.406   3.090
 2273TIP3    H1 6758   6.982   1.375   3.040
 2273TIP3    H2 6759   7.041   1.500   3.101
 2274TIP3   OH2 6760   7.587   1.083   2.315
 2274TIP3    H1 6761   7.547   0.996   2.309
 2274TIP3    H2 6762   7.640   1.079   2.395
 2275TIP3   OH2 6763   7.375   0.569   2.283
 2275TIP3    H1 6764   7.396   0.476   2.281
 2275TIP3    H2 6765   7.380   0.597   2.192
 2276TIP3   OH2 6766   7.188   0.850   1.922
 2276TIP3    H1 6767   7.245   0.827   1.848
 2276TIP3    H2 6768   7.205   0.943   1.938
 2277TIP3   OH2 6769   7.767   1.469   2.846
 2277TIP3    H1 6770   7.746   1.437   2.758
 2277TIP3    H2 6771   7.703   1.427   2.902
 2278TIP3   OH2 6772   7.393   0.951   2.769
 2278TIP3    H1 6773   7.318   0.925   2.715
 2278TIP3    H2 6774   7.425   0.868   2.806
 2279TIP3   OH2 6775   7.246   1.144   2.437
 2279TIP3    H1 6776   7.336   1.173   2.453
 2279TIP3    H2 6777   7.191   1.216   2.467
 2280TIP3   OH2 6778   7.406   1.355   1.942
 2280TIP3    H1 6779   7.466   1.344   2.016
 2280TIP3    H2 6780   7.372   1.267   1.926
 2281TIP3   OH2 6781   7.574   1.156   2.743
 2281TIP3    H1 6782   7.636   1.136   2.812
 2281TIP3    H2 6783   7.510   1.085   2.747
 2282TIP3   OH2 6784   7.733   1.052   2.955
 2282TIP3    H1 6785   7.826   1.054   2.976
 2282TIP3    H2 6786   7.697   0.984   3.012
 2283TIP3   OH2 6787   7.490   0.738   2.911
 2283TIP3    H1 6788   7.523   0.740   3.001
 2283TIP3    H2 6789   7.427   0.666   2.910
 2284TIP3   OH2 6790   7.443   1.332   2.563
 2284TIP3    H1 6791   7.491   1.275   2.622
 2284TIP3    H2 6792   7.461   1.421   2.594
 2285TIP3   OH2 6793   7.246   1.121   1.927
 2285TIP3    H1 6794   7.204   1.170   1.998
 2285TIP3    H2 6795   7.205   1.154   1.847
 2286TIP3   OH2 6796   7.426   1.633   2.979
 2286TIP3    H1 6797   7.509   1.632   3.026
 2286TIP3    H2 6798   7.401   1.540   2.974
 2287TIP3   OH2 6799   7.525   1.055   3.195
 2287TIP3    H1 6800   7.564   0.969   3.182
 2287TIP3    H2 6801   7.448   1.056   3.138
 2288TIP3   OH2 6802   7.686   0.828   3.137
 2288TIP3    H1 6803   7.723   0.743   3.113
 2288TIP3    H2 6804   7.702   0.835   3.231
 2289TIP3   OH2 6805   7.044   1.433   2.000
 2289TIP3    H1 6806   6.979   1.379   1.956
 2289TIP3    H2 6807   7.089   1.372   2.060
 2290TIP3   OH2 6808   7.178   1.261   2.169
 2290TIP3    H1 6809   7.169   1.192   2.235
 2290TIP3    H2 6810   7.236   1.326   2.211
 2291TIP3   OH2 6811   7.373   0.701   2.524
 2291TIP3    H1 6812   7.365   0.654   2.441
 2291TIP3    H2 6813   7.466   0.719   2.533
 2292TIP3   OH2 6814   7.456   0.339   3.231
 2292TIP3    H1 6815   7.551   0.350   3.224
 2292TIP3    H2 6816   7.445   0.261   3.285
 2293TIP3   OH2 6817   7.324   0.389   2.586
 2293TIP3    H1 6818   7.390   0.383   2.517
 2293TIP3    H2 6819   7.362   0.450   2.650
 2294TIP3   OH2 6820   7.582   1.363   3.026
 2294TIP3    H1 6821   7.492   1.350   2.994
 2294TIP3    H2 6822   7.590   1.302   3.099
 2295TIP3   OH2 6823   7.441   1.629   2.599
 2295TIP3    H1 6824   7.353   1.658   2.574
 2295TIP3    H2 6825   7.474   1.698   2.656
 2296TIP3   OH2 6826   7.664   1.564   2.440
 2296TIP3    H1 6827   7.589   1.592   2.493
 2296TIP3    H2 6828   7.665   1.624   2.366
 2297TIP3   OH2 6829   7.356   1.430   2.315
 2297TIP3    H1 6830   7.387   1.409   2.403
 2297TIP3    H2 6831   7.426   1.401   2.257
 2298TIP3   OH2 6832   7.557   1.315   2.172
 2298TIP3    H1 6833   7.565   1.230   2.215
 2298TIP3    H2 6834   7.640   1.359   2.191
 2299TIP3   OH2 6835   7.139   1.212   1.686
 2299TIP3    H1 6836   7.051   1.182   1.664
 2299TIP3    H2 6837   7.137   1.306   1.670
 2300TIP3   OH2 6838   7.245   1.196   1.401
 2300TIP3    H1 6839   7.221   1.202   1.493
 2300TIP3    H2 6840   7.330   1.151   1.401
 2301TIP3   OH2 6841   0.790   1.593   3.530
 2301TIP3    H1 6842   0.751   1.672   3.492
 2301TIP3    H2 6843   0.724   1.561   3.590
 2302TIP3   OH2 6844   0.787   1.570   3.941
 2302TIP3    H1 6845   0.832   1.557   4.024
 2302TIP3    H2 6846   0.749   1.485   3.920
 2303TIP3   OH2 6847   0.071   1.455   4.308
 2303TIP3    H1 6848   0.107   1.386   4.365
 2303TIP3    H2 6849   0.149   1.498   4.272
 2304TIP3   OH2 6850   1.049   1.878   3.614
 2304TIP3    H1 6851   1.027   1.812   3.679
 2304TIP3    H2 6852   1.068   1.957   3.665
 2305TIP3   OH2 6853   0.069   1.856   4.005
 2305TIP3    H1 6854   0.055   1.762   4.009
 2305TIP3    H2 6855   0.165   1.865   4.000
 2306TIP3   OH2 6856   0.696   2.320   3.626
 2306TIP3    H1 6857   0.729   2.248   3.571
 2306TIP3    H2 6858   0.675   2.278   3.709
 2307TIP3   OH2 6859   0.588   1.793   3.960
 2307TIP3    H1 6860   0.627   1.713   3.925
 2307TIP3    H2 6861   0.662   1.846   3.988
 2308TIP3   OH2 6862   1.617   1.120   3.954
 2308TIP3    H1 6863   1.633   1.203   4.000
 2308TIP3    H2 6864   1.634   1.140   3.862
 2309TIP3   OH2 6865   1.012   1.304   3.998
 2309TIP3    H1 6866   1.071   1.231   4.017
 2309TIP3    H2 6867   0.967   1.278   3.917
 2310TIP3   OH2 6868   1.055   1.089   3.577
 2310TIP3    H1 6869   1.125   1.084   3.642
 2310TIP3    H2 6870   1.101   1.105   3.494
 2311TIP3   OH2 6871   0.405   1.344   3.882
 2311TIP3    H1 6872   0.501   1.351   3.890
 2311TIP3    H2 6873   0.389   1.250   3.873
 2312TIP3   OH2 6874   1.668   1.325   4.142
 2312TIP3    H1 6875   1.588   1.374   4.123
 2312TIP3    H2 6876   1.657   1.296   4.233
 2313TIP3   OH2 6877   0.377   0.981   4.407
 2313TIP3    H1 6878   0.291   1.021   4.394
 2313TIP3    H2 6879   0.389   0.978   4.502
 2314TIP3   OH2 6880   0.667   1.801   3.401
 2314TIP3    H1 6881   0.638   1.777   3.313
 2314TIP3    H2 6882   0.613   1.877   3.425
 2315TIP3   OH2 6883   0.432   1.720   4.178
 2315TIP3    H1 6884   0.374   1.787   4.213
 2315TIP3    H2 6885   0.477   1.763   4.105
 2316TIP3   OH2 6886   1.233   1.089   3.776
 2316TIP3    H1 6887   1.279   1.017   3.819
 2316TIP3    H2 6888   1.274   1.168   3.813
 2317TIP3   OH2 6889   0.195   1.056   4.190
 2317TIP3    H1 6890   0.263   1.123   4.199
 2317TIP3    H2 6891   0.223   1.004   4.115
 2318TIP3   OH2 6892   0.266   1.914   4.282
 2318TIP3    H1 6893   0.251   2.004   4.251
 2318TIP3    H2 6894   0.187   1.893   4.332
 2319TIP3   OH2 6895   1.093   2.121   3.761
 2319TIP3    H1 6896   1.008   2.112   3.804
 2319TIP3    H2 6897   1.088   2.206   3.715
 2320TIP3   OH2 6898   1.423   1.046   4.143
 2320TIP3    H1 6899   1.333   1.063   4.115
 2320TIP3    H2 6900   1.475   1.055   4.063
 2321TIP3   OH2 6901   0.699   0.563   4.127
 2321TIP3    H1 6902   0.712   0.482   4.078
 2321TIP3    H2 6903   0.615   0.597   4.096
 2322TIP3   OH2 6904   0.796   2.150   3.425
 2322TIP3    H1 6905   0.845   2.069   3.411
 2322TIP3    H2 6906   0.855   2.220   3.397
 2323TIP3   OH2 6907   0.960   1.940   3.356
 2323TIP3    H1 6908   0.936   1.858   3.313
 2323TIP3    H2 6909   0.993   1.913   3.442
 2324TIP3   OH2 6910   1.324   2.017   4.109
 2324TIP3    H1 6911   1.305   1.942   4.052
 2324TIP3    H2 6912   1.306   2.093   4.054
 2325TIP3   OH2 6913   1.512   1.682   3.967
 2325TIP3    H1 6914   1.426   1.724   3.966
 2325TIP3    H2 6915   1.545   1.695   3.878
 2326TIP3   OH2 6916   0.970   1.511   3.342
 2326TIP3    H1 6917   0.908   1.537   3.411
 2326TIP3    H2 6918   1.046   1.478   3.390
 2327TIP3   OH2 6919   1.196   1.546   4.271
 2327TIP3    H1 6920   1.192   1.626   4.324
 2327TIP3    H2 6921   1.112   1.543   4.225
 2328TIP3   OH2 6922   0.201   1.492   3.770
 2328TIP3    H1 6923   0.165   1.436   3.702
 2328TIP3    H2 6924   0.276   1.444   3.804
 2329TIP3   OH2 6925   0.334   1.909   3.893
 2329TIP3    H1 6926   0.308   1.889   3.804
 2329TIP3    H2 6927   0.421   1.869   3.903
 2330TIP3   OH2 6928   0.306   1.485   4.111
 2330TIP3    H1 6929   0.344   1.452   4.030
 2330TIP3    H2 6930   0.355   1.565   4.130
 2331TIP3   OH2 6931   0.861   2.114   3.898
 2331TIP3    H1 6932   0.841   2.193   3.949
 2331TIP3    H2 6933   0.842   2.042   3.958
 2332TIP3   OH2 6934   0.464   2.024   4.441
 2332TIP3    H1 6935   0.406   2.085   4.486
 2332TIP3    H2 6936   0.406   1.972   4.386
 2333TIP3   OH2 6937   0.232   1.586   4.547
 2333TIP3    H1 6938   0.231   1.671   4.591
 2333TIP3    H2 6939   0.140   1.560   4.545
 2334TIP3   OH2 6940   0.536   2.052   3.418
 2334TIP3    H1 6941   0.624   2.085   3.431
 2334TIP3    H2 6942   0.485   2.130   3.392
 2335TIP3   OH2 6943   0.259   2.188   4.535
 2335TIP3    H1 6944   0.232   2.193   4.443
 2335TIP3    H2 6945   0.184   2.148   4.579
 2336TIP3   OH2 6946   1.123   1.975   2.759
 2336TIP3    H1 6947   1.118   2.070   2.756
 2336TIP3    H2 6948   1.214   1.954   2.741
 2337TIP3   OH2 6949   8.359   1.709   4.459
 2337TIP3    H1 6950   8.317   1.669   4.383
 2337TIP3    H2 6951   8.397   1.635   4.507
 2338TIP3   OH2 6952   8.239   1.891   4.044
 2338TIP3    H1 6953   8.333   1.892   4.058
 2338TIP3    H2 6954   8.202   1.939   4.118
 2339TIP3   OH2 6955   1.555   2.381   4.172
 2339TIP3    H1 6956   1.561   2.286   4.184
 2339TIP3    H2 6957   1.475   2.406   4.218
 2340TIP3   OH2 6958   0.659   2.159   4.301
 2340TIP3    H1 6959   0.655   2.250   4.332
 2340TIP3    H2 6960   0.588   2.115   4.348
 2341TIP3   OH2 6961   0.438   2.274   3.266
 2341TIP3    H1 6962   0.396   2.255   3.183
 2341TIP3    H2 6963   0.402   2.359   3.292
 2342TIP3   OH2 6964   8.361   2.119   3.634
 2342TIP3    H1 6965   8.429   2.106   3.700
 2342TIP3    H2 6966   8.283   2.080   3.672
 2343TIP3   OH2 6967   0.628   2.178   2.898
 2343TIP3    H1 6968   0.688   2.113   2.861
 2343TIP3    H2 6969   0.663   2.195   2.986
 2344TIP3   OH2 6970   0.690   2.238   3.162
 2344TIP3    H1 6971   0.603   2.243   3.202
 2344TIP3    H2 6972   0.746   2.201   3.231
 2345TIP3   OH2 6973   1.448   1.500   4.441
 2345TIP3    H1 6974   1.365   1.509   4.394
 2345TIP3    H2 6975   1.468   1.406   4.437
 2346TIP3   OH2 6976   0.047   1.911   4.450
 2346TIP3    H1 6977   0.095   1.894   4.532
 2346TIP3    H2 6978  -0.024   1.847   4.451
 2347TIP3   OH2 6979   0.351   0.782   4.222
 2347TIP3    H1 6980   0.365   0.693   4.255
 2347TIP3    H2 6981   0.341   0.836   4.301
 2348TIP3   OH2 6982   0.972   0.929   4.520
 2348TIP3    H1 6983   1.012   0.854   4.476
 2348TIP3    H2 6984   0.887   0.897   4.550
 2349TIP3   OH2 6985   1.213   1.292   4.381
 2349TIP3    H1 6986   1.169   1.289   4.466
 2349TIP3    H2 6987   1.188   1.376   4.344
 2350TIP3   OH2 6988   0.381   1.267   4.258
 2350TIP3    H1 6989   0.332   1.270   4.339
 2350TIP3    H2 6990   0.352   1.343   4.209
 2351TIP3   OH2 6991   0.757   1.270   3.516
 2351TIP3    H1 6992   0.670   1.263   3.475
 2351TIP3    H2 6993   0.816   1.283   3.442
 2352TIP3   OH2 6994   0.926   1.497   4.601
 2352TIP3    H1 6995   0.898   1.427   4.659
 2352TIP3    H2 6996   1.020   1.506   4.618
 2353TIP3   OH2 6997   0.914   1.253   3.743
 2353TIP3    H1 6998   0.840   1.281   3.689
 2353TIP3    H2 6999   0.962   1.190   3.688
 2354TIP3   OH2 7000   0.219   1.283   4.479
 2354TIP3    H1 7001   0.263   1.348   4.534
 2354TIP3    H2 7002   0.178   1.223   4.541
 2355TIP3   OH2 7003   0.934   1.497   4.169
 2355TIP3    H1 7004   0.963   1.429   4.107
 2355TIP3    H2 7005   0.897   1.448   4.242
 2356TIP3   OH2 7006   0.589   1.026   3.835
 2356TIP3    H1 7007   0.506   1.011   3.880
 2356TIP3    H2 7008   0.642   0.949   3.854
 2357TIP3   OH2 7009   1.156   1.077   4.094
 2357TIP3    H1 7010   1.102   1.087   4.172
 2357TIP3    H2 7011   1.099   1.032   4.031
 2358TIP3   OH2 7012   1.263   2.723   4.266
 2358TIP3    H1 7013   1.257   2.744   4.173
 2358TIP3    H2 7014   1.341   2.770   4.296
 2359TIP3   OH2 7015   0.211   1.832   4.686
 2359TIP3    H1 7016   0.294   1.841   4.734
 2359TIP3    H2 7017   0.153   1.895   4.726
 2360TIP3   OH2 7018   0.674   1.310   3.930
 2360TIP3    H1 7019   0.684   1.228   3.883
 2360TIP3    H2 7020   0.673   1.285   4.022
 2361TIP3   OH2 7021   0.653   1.254   4.196
 2361TIP3    H1 7022   0.560   1.262   4.219
 2361TIP3    H2 7023   0.698   1.307   4.262
 2362TIP3   OH2 7024   1.270   1.811   3.932
 2362TIP3    H1 7025   1.298   1.860   3.855
 2362TIP3    H2 7026   1.188   1.769   3.906
 2363TIP3   OH2 7027   0.783   1.895   4.330
 2363TIP3    H1 7028   0.818   1.879   4.418
 2363TIP3    H2 7029   0.739   1.980   4.337
 2364TIP3   OH2 7030   0.064   1.579   3.999
 2364TIP3    H1 7031   0.093   1.558   3.911
 2364TIP3    H2 7032   0.127   1.536   4.056
 2365TIP3   OH2 7033   0.552   1.734   3.155
 2365TIP3    H1 7034   0.500   1.813   3.144
 2365TIP3    H2 7035   0.490   1.668   3.184
 2366TIP3   OH2 7036   8.468   1.516   4.632
 2366TIP3    H1 7037   8.513   1.526   4.716
 2366TIP3    H2 7038   8.380   1.489   4.655
 2367TIP3   OH2 7039   0.686   1.639   4.627
 2367TIP3    H1 7040   0.619   1.578   4.596
 2367TIP3    H2 7041   0.769   1.599   4.602
 2368TIP3   OH2 7042   0.933   2.174   4.226
 2368TIP3    H1 7043   0.838   2.159   4.229
 2368TIP3    H2 7044   0.954   2.216   4.309
 2369TIP3   OH2 7045   1.338   1.209   3.090
 2369TIP3    H1 7046   1.257   1.162   3.070
 2369TIP3    H2 7047   1.322   1.298   3.057
 2370TIP3   OH2 7048   1.571   2.100   4.198
 2370TIP3    H1 7049   1.476   2.085   4.197
 2370TIP3    H2 7050   1.601   2.066   4.113
 2371TIP3   OH2 7051   1.075   2.037   3.048
 2371TIP3    H1 7052   1.032   1.987   3.117
 2371TIP3    H2 7053   1.052   1.992   2.967
 2372TIP3   OH2 7054   1.038   1.678   3.839
 2372TIP3    H1 7055   0.949   1.653   3.863
 2372TIP3    H2 7056   1.076   1.599   3.801
 2373TIP3   OH2 7057   0.191   1.907   3.648
 2373TIP3    H1 7058   0.189   1.979   3.585
 2373TIP3    H2 7059   0.109   1.918   3.698
 2374TIP3   OH2 7060   0.340   1.677   3.609
 2374TIP3    H1 7061   0.292   1.760   3.605
 2374TIP3    H2 7062   0.288   1.622   3.669
 2375TIP3   OH2 7063   0.468   2.240   4.095
 2375TIP3    H1 7064   0.504   2.311   4.043
 2375TIP3    H2 7065   0.543   2.204   4.142
 2376TIP3   OH2 7066   0.118   2.135   3.508
 2376TIP3    H1 7067   0.024   2.138   3.525
 2376TIP3    H2 7068   0.143   2.227   3.498
 2377TIP3   OH2 7069   0.831   1.888   4.060
 2377TIP3    H1 7070   0.818   1.885   4.155
 2377TIP3    H2 7071   0.903   1.828   4.043
 2378TIP3   OH2 7072   0.829   1.767   2.947
 2378TIP3    H1 7073   0.883   1.752   3.025
 2378TIP3    H2 7074   0.739   1.752   2.978
 2379TIP3   OH2 7075   1.082   2.400   4.105
 2379TIP3    H1 7076   1.008   2.339   4.116
 2379TIP3    H2 7077   1.055   2.457   4.033
 2380TIP3   OH2 7078   1.142   2.252   2.749
 2380TIP3    H1 7079   1.173   2.322   2.692
 2380TIP3    H2 7080   1.065   2.288   2.793
 2381TIP3   OH2 7081   0.991   1.717   3.162
 2381TIP3    H1 7082   0.969   1.645   3.221
 2381TIP3    H2 7083   1.086   1.710   3.150
 2382TIP3   OH2 7084   8.435   2.112   4.234
 2382TIP3    H1 7085   8.458   2.048   4.300
 2382TIP3    H2 7086   8.434   2.196   4.281
 2383TIP3   OH2 7087   1.009   1.112   4.324
 2383TIP3    H1 7088   1.086   1.159   4.355
 2383TIP3    H2 7089   0.989   1.050   4.395
 2384TIP3   OH2 7090   0.392   1.953   3.158
 2384TIP3    H1 7091   0.383   1.982   3.249
 2384TIP3    H2 7092   0.379   2.033   3.107
 2385TIP3   OH2 7093   0.849   1.343   4.376
 2385TIP3    H1 7094   0.875   1.381   4.460
 2385TIP3    H2 7095   0.892   1.257   4.374
 2386TIP3   OH2 7096   1.472   1.229   4.342
 2386TIP3    H1 7097   1.379   1.243   4.364
 2386TIP3    H2 7098   1.471   1.163   4.274
 2387TIP3   OH2 7099   1.133   1.431   3.743
 2387TIP3    H1 7100   1.055   1.377   3.758
 2387TIP3    H2 7101   1.201   1.390   3.797
 2388TIP3   OH2 7102   1.107   2.390   3.681
 2388TIP3    H1 7103   1.064   2.439   3.611
 2388TIP3    H2 7104   1.201   2.403   3.665
 2389TIP3   OH2 7105   8.423   2.361   4.664
 2389TIP3    H1 7106   8.501   2.391   4.712
 2389TIP3    H2 7107   8.369   2.439   4.656
 2390TIP3   OH2 7108   0.371   2.353   4.721
 2390TIP3    H1 7109   0.460   2.319   4.727
 2390TIP3    H2 7110   0.330   2.303   4.652
 2391TIP3   OH2 7111   0.979   2.290   4.474
 2391TIP3    H1 7112   0.992   2.217   4.535
 2391TIP3    H2 7113   1.057   2.344   4.485
 2392TIP3   OH2 7114   0.805   1.998   2.794
 2392TIP3    H1 7115   0.812   1.915   2.841
 2392TIP3    H2 7116   0.868   1.991   2.723
 2393TIP3   OH2 7117   8.464   1.808   4.861
 2393TIP3    H1 7118   8.515   1.729   4.843
 2393TIP3    H2 7119   8.419   1.826   4.779
 2394TIP3   OH2 7120   0.621   1.914   4.639
 2394TIP3    H1 7121   0.572   1.931   4.559
 2394TIP3    H2 7122   0.652   1.823   4.630
 2395TIP3   OH2 7123   1.103   1.946   4.262
 2395TIP3    H1 7124   1.178   1.978   4.213
 2395TIP3    H2 7125   1.034   2.010   4.245
 2396TIP3   OH2 7126   0.100   1.559   4.872
 2396TIP3    H1 7127   0.158   1.484   4.871
 2396TIP3    H2 7128   0.111   1.597   4.960
 2397TIP3   OH2 7129   0.476   1.462   4.523
 2397TIP3    H1 7130   0.395   1.514   4.527
 2397TIP3    H2 7131   0.515   1.486   4.439
 2398TIP3   OH2 7132   0.984   1.836   4.633
 2398TIP3    H1 7133   1.046   1.792   4.575
 2398TIP3    H2 7134   0.976   1.778   4.709
 2399TIP3   OH2 7135   0.594   1.239   4.627
 2399TIP3    H1 7136   0.612   1.180   4.554
 2399TIP3    H2 7137   0.553   1.316   4.587
 2400TIP3   OH2 7138   0.632   1.074   4.409
 2400TIP3    H1 7139   0.659   1.115   4.327
 2400TIP3    H2 7140   0.542   1.046   4.394
 2401TIP3   OH2 7141   0.608   1.552   4.305
 2401TIP3    H1 7142   0.697   1.579   4.281
 2401TIP3    H2 7143   0.551   1.616   4.262
 2402TIP3   OH2 7144   1.193   1.511   4.695
 2402TIP3    H1 7145   1.214   1.418   4.704
 2402TIP3    H2 7146   1.275   1.551   4.667
 2403TIP3   OH2 7147   1.225   1.776   4.434
 2403TIP3    H1 7148   1.172   1.836   4.383
 2403TIP3    H2 7149   1.314   1.790   4.402
 2404TIP3   OH2 7150   0.493   1.340   4.879
 2404TIP3    H1 7151   0.400   1.336   4.903
 2404TIP3    H2 7152   0.497   1.300   4.792
 2405TIP3   OH2 7153   0.707   0.854   4.557
 2405TIP3    H1 7154   0.676   0.932   4.511
 2405TIP3    H2 7155   0.708   0.786   4.491
 2406TIP3   OH2 7156   0.841   1.282   4.742
 2406TIP3    H1 7157   0.832   1.263   4.835
 2406TIP3    H2 7158   0.756   1.259   4.704
 2407TIP3   OH2 7159   1.087   1.242   4.613
 2407TIP3    H1 7160   1.006   1.229   4.662
 2407TIP3    H2 7161   1.154   1.197   4.664
 2408TIP3   OH2 7162   1.330   1.196   4.750
 2408TIP3    H1 7163   1.344   1.103   4.762
 2408TIP3    H2 7164   1.321   1.231   4.839
 2409TIP3   OH2 7165   0.765   0.800   4.816
 2409TIP3    H1 7166   0.844   0.746   4.810
 2409TIP3    H2 7167   0.736   0.812   4.726
 2410TIP3   OH2 7168   0.889   1.012   4.927
 2410TIP3    H1 7169   0.850   0.936   4.885
 2410TIP3    H2 7170   0.817   1.073   4.940
 2411TIP3   OH2 7171   8.171   2.039   3.813
 2411TIP3    H1 7172   8.193   1.971   3.877
 2411TIP3    H2 7173   8.130   2.109   3.864
 2412TIP3   OH2 7174   1.378   2.446   3.667
 2412TIP3    H1 7175   1.393   2.475   3.757
 2412TIP3    H2 7176   1.421   2.512   3.613
 2413TIP3   OH2 7177   1.392   2.480   3.947
 2413TIP3    H1 7178   1.345   2.397   3.944
 2413TIP3    H2 7179   1.463   2.465   4.009
 2414TIP3   OH2 7180   1.443   2.177   4.515
 2414TIP3    H1 7181   1.372   2.183   4.578
 2414TIP3    H2 7182   1.488   2.261   4.520
 2415TIP3   OH2 7183   1.269   1.677   3.128
 2415TIP3    H1 7184   1.328   1.750   3.110
 2415TIP3    H2 7185   1.303   1.638   3.208
 2416TIP3   OH2 7186   1.385   1.546   3.338
 2416TIP3    H1 7187   1.316   1.506   3.391
 2416TIP3    H2 7188   1.446   1.582   3.402
 2417TIP3   OH2 7189   1.450   1.951   3.763
 2417TIP3    H1 7190   1.501   1.885   3.715
 2417TIP3    H2 7191   1.443   2.025   3.703
 2418TIP3   OH2 7192   1.255   2.238   3.957
 2418TIP3    H1 7193   1.187   2.281   4.008
 2418TIP3    H2 7194   1.208   2.196   3.885
 2419TIP3   OH2 7195   1.272   1.456   2.966
 2419TIP3    H1 7196   1.192   1.463   2.915
 2419TIP3    H2 7197   1.268   1.530   3.027
 2420TIP3   OH2 7198   1.194   1.407   3.475
 2420TIP3    H1 7199   1.204   1.313   3.462
 2420TIP3    H2 7200   1.175   1.416   3.569
 2421TIP3   OH2 7201   8.321   1.515   4.201
 2421TIP3    H1 7202   8.359   1.544   4.118
 2421TIP3    H2 7203   8.396   1.481   4.251
 2422TIP3   OH2 7204   1.479   1.827   4.333
 2422TIP3    H1 7205   1.547   1.762   4.318
 2422TIP3    H2 7206   1.489   1.889   4.261
 2423TIP3   OH2 7207   1.665   1.624   4.328
 2423TIP3    H1 7208   1.589   1.579   4.366
 2423TIP3    H2 7209   1.740   1.571   4.354
 2424TIP3   OH2 7210   1.237   1.141   3.373
 2424TIP3    H1 7211   1.271   1.054   3.392
 2424TIP3    H2 7212   1.280   1.166   3.291
 2425TIP3   OH2 7213   1.348   1.314   3.877
 2425TIP3    H1 7214   1.433   1.327   3.835
 2425TIP3    H2 7215   1.360   1.345   3.967
 2426TIP3   OH2 7216   1.421   1.457   4.104
 2426TIP3    H1 7217   1.344   1.481   4.156
 2426TIP3    H2 7218   1.448   1.539   4.062
 2427TIP3   OH2 7219   1.874   1.057   4.639
 2427TIP3    H1 7220   1.938   0.991   4.612
 2427TIP3    H2 7221   1.854   1.105   4.559
 2428TIP3   OH2 7222   1.322   0.880   3.418
 2428TIP3    H1 7223   1.366   0.868   3.502
 2428TIP3    H2 7224   1.261   0.806   3.412
 2429TIP3   OH2 7225   1.740   1.194   4.439
 2429TIP3    H1 7226   1.668   1.225   4.494
 2429TIP3    H2 7227   1.704   1.116   4.396
 2430TIP3   OH2 7228   0.947   2.343   3.314
 2430TIP3    H1 7229   1.002   2.338   3.236
 2430TIP3    H2 7230   0.982   2.417   3.364
 2431TIP3   OH2 7231   0.057   2.079   4.710
 2431TIP3    H1 7232  -0.021   2.097   4.657
 2431TIP3    H2 7233   0.038   2.119   4.795
 2432TIP3   OH2 7234   0.246   2.187   4.253
 2432TIP3    H1 7235   0.179   2.245   4.217
 2432TIP3    H2 7236   0.325   2.209   4.203
 2433TIP3   OH2 7237   0.658   2.423   4.391
 2433TIP3    H1 7238   0.699   2.423   4.478
 2433TIP3    H2 7239   0.717   2.476   4.337
 2434TIP3   OH2 7240   0.838   2.579   4.251
 2434TIP3    H1 7241   0.899   2.529   4.197
 2434TIP3    H2 7242   0.894   2.636   4.304
 2435TIP3   OH2 7243   1.649   0.946   4.344
 2435TIP3    H1 7244   1.563   0.924   4.308
 2435TIP3    H2 7245   1.700   0.865   4.334
 2436TIP3   OH2 7246   8.452   2.393   4.300
 2436TIP3    H1 7247   8.365   2.398   4.260
 2436TIP3    H2 7248   8.455   2.467   4.361
 2437TIP3   OH2 7249   0.159   2.425   4.123
 2437TIP3    H1 7250   0.080   2.417   4.177
 2437TIP3    H2 7251   0.126   2.437   4.034
 2438TIP3   OH2 7252   0.556   2.442   3.924
 2438TIP3    H1 7253   0.484   2.451   3.862
 2438TIP3    H2 7254   0.566   2.529   3.963
 2439TIP3   OH2 7255   0.819   2.380   3.981
 2439TIP3    H1 7256   0.727   2.397   3.960
 2439TIP3    H2 7257   0.867   2.446   3.931
 2440TIP3   OH2 7258   1.022   2.558   3.883
 2440TIP3    H1 7259   1.014   2.645   3.842
 2440TIP3    H2 7260   1.050   2.501   3.812
 2441TIP3   OH2 7261   8.362   2.226   3.989
 2441TIP3    H1 7262   8.367   2.186   4.076
 2441TIP3    H2 7263   8.407   2.164   3.932
 2442TIP3   OH2 7264   0.035   2.070   3.840
 2442TIP3    H1 7265   0.041   1.998   3.902
 2442TIP3    H2 7266   0.116   2.119   3.852
 2443TIP3   OH2 7267   0.291   2.186   3.882
 2443TIP3    H1 7268   0.313   2.093   3.873
 2443TIP3    H2 7269   0.335   2.213   3.963
 2444TIP3   OH2 7270   0.740   0.804   3.895
 2444TIP3    H1 7271   0.789   0.829   3.973
 2444TIP3    H2 7272   0.802   0.814   3.823
 2445TIP3   OH2 7273   1.353   0.862   3.868
 2445TIP3    H1 7274   1.408   0.853   3.790
 2445TIP3    H2 7275   1.271   0.819   3.845
 2446TIP3   OH2 7276   1.492   0.856   3.635
 2446TIP3    H1 7277   1.552   0.791   3.598
 2446TIP3    H2 7278   1.529   0.940   3.609
 2447TIP3   OH2 7279   1.109   0.734   3.835
 2447TIP3    H1 7280   1.052   0.780   3.774
 2447TIP3    H2 7281   1.061   0.736   3.918
 2448TIP3   OH2 7282   0.375   2.190   3.007
 2448TIP3    H1 7283   0.459   2.189   2.962
 2448TIP3    H2 7284   0.310   2.189   2.937
 2449TIP3   OH2 7285   1.097   2.309   3.080
 2449TIP3    H1 7286   1.092   2.214   3.071
 2449TIP3    H2 7287   1.046   2.342   3.006
 2450TIP3   OH2 7288   1.400   0.936   4.789
 2450TIP3    H1 7289   1.418   0.902   4.876
 2450TIP3    H2 7290   1.482   0.927   4.741
 2451TIP3   OH2 7291   1.304   2.450   4.269
 2451TIP3    H1 7292   1.230   2.419   4.218
 2451TIP3    H2 7293   1.291   2.544   4.276
 2452TIP3   OH2 7294   2.550   1.837   3.049
 2452TIP3    H1 7295   2.517   1.920   3.015
 2452TIP3    H2 7296   2.497   1.770   3.005
 2453TIP3   OH2 7297   2.526   1.763   3.480
 2453TIP3    H1 7298   2.603   1.729   3.524
 2453TIP3    H2 7299   2.535   1.734   3.389
 2454TIP3   OH2 7300   1.914   1.727   3.763
 2454TIP3    H1 7301   1.930   1.644   3.807
 2454TIP3    H2 7302   1.934   1.793   3.830
 2455TIP3   OH2 7303   2.826   2.131   3.107
 2455TIP3    H1 7304   2.906   2.080   3.106
 2455TIP3    H2 7305   2.851   2.213   3.150
 2456TIP3   OH2 7306   1.863   2.125   3.481
 2456TIP3    H1 7307   1.847   2.032   3.493
 2456TIP3    H2 7308   1.958   2.133   3.475
 2457TIP3   OH2 7309   1.566   1.351   3.251
 2457TIP3    H1 7310   1.502   1.417   3.281
 2457TIP3    H2 7311   1.513   1.274   3.232
 2458TIP3   OH2 7312   1.617   1.624   3.472
 2458TIP3    H1 7313   1.663   1.544   3.496
 2458TIP3    H2 7314   1.684   1.677   3.427
 2459TIP3   OH2 7315   2.489   2.576   3.113
 2459TIP3    H1 7316   2.522   2.506   3.056
 2459TIP3    H2 7317   2.486   2.536   3.200
 2460TIP3   OH2 7318   2.406   2.034   3.416
 2460TIP3    H1 7319   2.423   2.038   3.322
 2460TIP3    H2 7320   2.476   2.086   3.455
 2461TIP3   OH2 7321   3.388   1.373   3.452
 2461TIP3    H1 7322   3.425   1.446   3.501
 2461TIP3    H2 7323   3.431   1.377   3.367
 2462TIP3   OH2 7324   2.767   1.554   3.485
 2462TIP3    H1 7325   2.818   1.476   3.507
 2462TIP3    H2 7326   2.750   1.546   3.391
 2463TIP3   OH2 7327   2.128   1.211   3.455
 2463TIP3    H1 7328   2.109   1.278   3.389
 2463TIP3    H2 7329   2.085   1.132   3.423
 2464TIP3   OH2 7330   2.838   1.298   3.063
 2464TIP3    H1 7331   2.902   1.293   3.133
 2464TIP3    H2 7332   2.885   1.338   2.989
 2465TIP3   OH2 7333   1.762   1.408   3.557
 2465TIP3    H1 7334   1.839   1.380   3.608
 2465TIP3    H2 7335   1.762   1.351   3.481
 2466TIP3   OH2 7336   2.220   1.592   3.348
 2466TIP3    H1 7337   2.307   1.553   3.332
 2466TIP3    H2 7338   2.159   1.520   3.331
 2467TIP3   OH2 7339   3.488   1.579   3.611
 2467TIP3    H1 7340   3.459   1.659   3.566
 2467TIP3    H2 7341   3.522   1.609   3.695
 2468TIP3   OH2 7342   2.122   1.197   3.894
 2468TIP3    H1 7343   2.064   1.226   3.824
 2468TIP3    H2 7344   2.070   1.206   3.974
 2469TIP3   OH2 7345   2.424   2.037   2.909
 2469TIP3    H1 7346   2.451   2.042   2.817
 2469TIP3    H2 7347   2.387   2.123   2.927
 2470TIP3   OH2 7348   2.253   1.949   3.665
 2470TIP3    H1 7349   2.206   1.914   3.740
 2470TIP3    H2 7350   2.220   2.038   3.656
 2471TIP3   OH2 7351   3.023   1.310   3.258
 2471TIP3    H1 7352   3.058   1.252   3.326
 2471TIP3    H2 7353   3.067   1.394   3.273
 2472TIP3   OH2 7354   1.998   1.314   3.675
 2472TIP3    H1 7355   2.045   1.394   3.700
 2472TIP3    H2 7356   2.050   1.278   3.603
 2473TIP3   OH2 7357   2.072   2.162   3.759
 2473TIP3    H1 7358   2.056   2.251   3.727
 2473TIP3    H2 7359   1.995   2.142   3.814
 2474TIP3   OH2 7360   1.454   1.869   3.013
 2474TIP3    H1 7361   1.384   1.892   2.953
 2474TIP3    H2 7362   1.475   1.951   3.058
 2475TIP3   OH2 7363   2.879   2.377   3.248
 2475TIP3    H1 7364   2.792   2.371   3.288
 2475TIP3    H2 7365   2.880   2.462   3.205
 2476TIP3   OH2 7366   3.189   1.271   3.625
 2476TIP3    H1 7367   3.102   1.292   3.591
 2476TIP3    H2 7368   3.249   1.294   3.555
 2477TIP3   OH2 7369   2.466   0.892   3.612
 2477TIP3    H1 7370   2.463   0.800   3.638
 2477TIP3    H2 7371   2.391   0.932   3.655
 2478TIP3   OH2 7372   2.587   2.406   2.915
 2478TIP3    H1 7373   2.633   2.324   2.896
 2478TIP3    H2 7374   2.646   2.475   2.884
 2479TIP3   OH2 7375   2.719   2.177   2.850
 2479TIP3    H1 7376   2.748   2.108   2.790
 2479TIP3    H2 7377   2.755   2.152   2.935
 2480TIP3   OH2 7378   3.112   2.282   3.603
 2480TIP3    H1 7379   3.113   2.207   3.544
 2480TIP3    H2 7380   3.100   2.358   3.546
 2481TIP3   OH2 7381   2.409   1.682   2.864
 2481TIP3    H1 7382   2.337   1.740   2.841
 2481TIP3    H2 7383   2.462   1.677   2.784
 2482TIP3   OH2 7384   2.380   1.474   2.575
 2482TIP3    H1 7385   2.446   1.526   2.620
 2482TIP3    H2 7386   2.430   1.408   2.527
 2483TIP3   OH2 7387   3.333   1.923   3.466
 2483TIP3    H1 7388   3.244   1.958   3.471
 2483TIP3    H2 7389   3.359   1.936   3.374
 2484TIP3   OH2 7390   2.741   1.770   2.850
 2484TIP3    H1 7391   2.691   1.799   2.926
 2484TIP3    H2 7392   2.819   1.728   2.887
 2485TIP3   OH2 7393   2.004   1.740   3.260
 2485TIP3    H1 7394   1.967   1.679   3.197
 2485TIP3    H2 7395   2.083   1.697   3.292
 2486TIP3   OH2 7396   2.122   2.170   3.375
 2486TIP3    H1 7397   2.093   2.155   3.285
 2486TIP3    H2 7398   2.210   2.132   3.378
 2487TIP3   OH2 7399   2.641   2.366   3.385
 2487TIP3    H1 7400   2.632   2.453   3.424
 2487TIP3    H2 7401   2.633   2.305   3.459
 2488TIP3   OH2 7402   2.263   2.271   3.929
 2488TIP3    H1 7403   2.206   2.332   3.976
 2488TIP3    H2 7404   2.204   2.221   3.873
 2489TIP3   OH2 7405   2.595   1.629   2.665
 2489TIP3    H1 7406   2.653   1.684   2.717
 2489TIP3    H2 7407   2.625   1.640   2.574
 2490TIP3   OH2 7408   2.002   1.846   4.020
 2490TIP3    H1 7409   2.014   1.931   4.064
 2490TIP3    H2 7410   1.918   1.815   4.052
 2491TIP3   OH2 7411   2.334   2.299   2.924
 2491TIP3    H1 7412   2.420   2.340   2.929
 2491TIP3    H2 7413   2.280   2.364   2.878
 2492TIP3   OH2 7414   2.058   2.435   4.012
 2492TIP3    H1 7415   2.029   2.444   3.921
 2492TIP3    H2 7416   1.977   2.419   4.061
 2493TIP3   OH2 7417   1.856   1.580   3.061
 2493TIP3    H1 7418   1.772   1.615   3.088
 2493TIP3    H2 7419   1.853   1.488   3.086
 2494TIP3   OH2 7420   2.924   2.224   2.265
 2494TIP3    H1 7421   2.923   2.317   2.242
 2494TIP3    H2 7422   3.013   2.195   2.243
 2495TIP3   OH2 7423   1.645   1.982   3.963
 2495TIP3    H1 7424   1.574   1.971   3.900
 2495TIP3    H2 7425   1.671   1.893   3.987
 2496TIP3   OH2 7426   1.487   2.189   3.606
 2496TIP3    H1 7427   1.579   2.211   3.624
 2496TIP3    H2 7428   1.438   2.265   3.637
 2497TIP3   OH2 7429   3.350   2.632   3.660
 2497TIP3    H1 7430   3.355   2.537   3.672
 2497TIP3    H2 7431   3.270   2.658   3.705
 2498TIP3   OH2 7432   2.449   2.415   3.785
 2498TIP3    H1 7433   2.448   2.506   3.815
 2498TIP3    H2 7434   2.383   2.371   3.839
 2499TIP3   OH2 7435   2.231   2.521   2.746
 2499TIP3    H1 7436   2.191   2.508   2.660
 2499TIP3    H2 7437   2.199   2.607   2.774
 2500TIP3   OH2 7438   1.665   2.377   3.118
 2500TIP3    H1 7439   1.710   2.375   3.202
 2500TIP3    H2 7440   1.610   2.299   3.118
 2501TIP3   OH2 7441   2.435   2.442   2.372
 2501TIP3    H1 7442   2.486   2.370   2.337
 2501TIP3    H2 7443   2.471   2.457   2.460
 2502TIP3   OH2 7444   2.485   2.495   2.640
 2502TIP3    H1 7445   2.402   2.497   2.688
 2502TIP3    H2 7446   2.550   2.471   2.707
 2503TIP3   OH2 7447   1.853   2.162   3.929
 2503TIP3    H1 7448   1.897   2.160   4.014
 2503TIP3    H2 7449   1.778   2.104   3.939
 2504TIP3   OH2 7450   2.235   0.992   3.740
 2504TIP3    H1 7451   2.153   0.955   3.707
 2504TIP3    H2 7452   2.208   1.065   3.795
 2505TIP3   OH2 7453   2.775   1.093   3.936
 2505TIP3    H1 7454   2.850   1.071   3.991
 2505TIP3    H2 7455   2.698   1.072   3.989
 2506TIP3   OH2 7456   2.679   1.640   2.408
 2506TIP3    H1 7457   2.636   1.631   2.323
 2506TIP3    H2 7458   2.764   1.681   2.388
 2507TIP3   OH2 7459   2.369   1.035   2.702
 2507TIP3    H1 7460   2.348   1.041   2.795
 2507TIP3    H2 7461   2.347   0.946   2.677
 2508TIP3   OH2 7462   2.040   1.401   3.273
 2508TIP3    H1 7463   1.955   1.363   3.298
 2508TIP3    H2 7464   2.058   1.363   3.187
 2509TIP3   OH2 7465   2.538   1.471   2.989
 2509TIP3    H1 7466   2.493   1.544   2.946
 2509TIP3    H2 7467   2.601   1.440   2.924
 2510TIP3   OH2 7468   2.727   1.747   4.085
 2510TIP3    H1 7469   2.700   1.674   4.141
 2510TIP3    H2 7470   2.820   1.760   4.106
 2511TIP3   OH2 7471   2.693   1.492   3.222
 2511TIP3    H1 7472   2.631   1.506   3.150
 2511TIP3    H2 7473   2.754   1.427   3.189
 2512TIP3   OH2 7474   1.983   1.522   3.945
 2512TIP3    H1 7475   1.969   1.583   4.017
 2512TIP3    H2 7476   1.975   1.435   3.985
 2513TIP3   OH2 7477   2.039   0.989   2.678
 2513TIP3    H1 7478   2.041   0.991   2.773
 2513TIP3    H2 7479   1.958   1.034   2.654
 2514TIP3   OH2 7480   1.597   1.088   3.529
 2514TIP3    H1 7481   1.673   1.101   3.585
 2514TIP3    H2 7482   1.629   1.033   3.457
 2515TIP3   OH2 7483   1.594   1.077   3.103
 2515TIP3    H1 7484   1.637   1.036   3.028
 2515TIP3    H2 7485   1.512   1.111   3.067
 2516TIP3   OH2 7486   2.799   1.741   3.678
 2516TIP3    H1 7487   2.801   1.681   3.603
 2516TIP3    H2 7488   2.738   1.700   3.740
 2517TIP3   OH2 7489   2.385   1.238   3.335
 2517TIP3    H1 7490   2.312   1.214   3.392
 2517TIP3    H2 7491   2.461   1.195   3.374
 2518TIP3   OH2 7492   1.815   1.261   3.328
 2518TIP3    H1 7493   1.727   1.269   3.291
 2518TIP3    H2 7494   1.839   1.169   3.314
 2519TIP3   OH2 7495   2.076   1.289   3.030
 2519TIP3    H1 7496   2.171   1.290   3.018
 2519TIP3    H2 7497   2.041   1.298   2.941
 2520TIP3   OH2 7498   2.907   1.314   3.564
 2520TIP3    H1 7499   2.872   1.321   3.653
 2520TIP3    H2 7500   2.862   1.238   3.526
 2521TIP3   OH2 7501   1.946   1.315   2.789
 2521TIP3    H1 7502   1.888   1.249   2.752
 2521TIP3    H2 7503   1.999   1.345   2.715
 2522TIP3   OH2 7504   3.060   2.977   3.753
 2522TIP3    H1 7505   3.055   3.002   3.660
 2522TIP3    H2 7506   3.138   3.023   3.785
 2523TIP3   OH2 7507   2.010   2.088   4.165
 2523TIP3    H1 7508   2.090   2.109   4.214
 2523TIP3    H2 7509   1.940   2.089   4.231
 2524TIP3   OH2 7510   1.971   1.018   3.320
 2524TIP3    H1 7511   1.933   0.949   3.375
 2524TIP3    H2 7512   1.998   0.973   3.240
 2525TIP3   OH2 7513   2.177   1.833   2.809
 2525TIP3    H1 7514   2.117   1.758   2.805
 2525TIP3    H2 7515   2.161   1.872   2.895
 2526TIP3   OH2 7516   3.090   2.061   3.440
 2526TIP3    H1 7517   3.126   2.102   3.362
 2526TIP3    H2 7518   3.006   2.024   3.411
 2527TIP3   OH2 7519   2.632   1.128   2.706
 2527TIP3    H1 7520   2.537   1.116   2.703
 2527TIP3    H2 7521   2.644   1.222   2.718
 2528TIP3   OH2 7522   2.575   2.147   3.819
 2528TIP3    H1 7523   2.615   2.136   3.905
 2528TIP3    H2 7524   2.535   2.234   3.823
 2529TIP3   OH2 7525   2.703   1.389   2.773
 2529TIP3    H1 7526   2.798   1.389   2.788
 2529TIP3    H2 7527   2.687   1.469   2.723
 2530TIP3   OH2 7528   1.870   1.841   3.492
 2530TIP3    H1 7529   1.922   1.807   3.420
 2530TIP3    H2 7530   1.902   1.794   3.569
 2531TIP3   OH2 7531   2.334   1.980   2.627
 2531TIP3    H1 7532   2.289   2.065   2.633
 2531TIP3    H2 7533   2.292   1.927   2.694
 2532TIP3   OH2 7534   1.753   1.745   4.090
 2532TIP3    H1 7535   1.754   1.725   4.184
 2532TIP3    H2 7536   1.675   1.701   4.057
 2533TIP3   OH2 7537   2.485   1.892   4.109
 2533TIP3    H1 7538   2.418   1.832   4.076
 2533TIP3    H2 7539   2.568   1.849   4.087
 2534TIP3   OH2 7540   2.720   2.411   3.713
 2534TIP3    H1 7541   2.625   2.414   3.723
 2534TIP3    H2 7542   2.754   2.462   3.786
 2535TIP3   OH2 7543   3.124   1.487   2.612
 2535TIP3    H1 7544   3.069   1.442   2.548
 2535TIP3    H2 7545   3.130   1.577   2.579
 2536TIP3   OH2 7546   3.366   2.344   3.689
 2536TIP3    H1 7547   3.271   2.332   3.688
 2536TIP3    H2 7548   3.394   2.318   3.602
 2537TIP3   OH2 7549   2.845   2.298   2.522
 2537TIP3    H1 7550   2.834   2.222   2.579
 2537TIP3    H2 7551   2.871   2.261   2.438
 2538TIP3   OH2 7552   2.843   1.940   3.383
 2538TIP3    H1 7553   2.784   1.973   3.315
 2538TIP3    H2 7554   2.874   1.856   3.349
 2539TIP3   OH2 7555   1.981   2.165   3.126
 2539TIP3    H1 7556   1.983   2.239   3.065
 2539TIP3    H2 7557   1.893   2.167   3.164
 2540TIP3   OH2 7558   1.525   1.460   2.852
 2540TIP3    H1 7559   1.552   1.551   2.869
 2540TIP3    H2 7560   1.439   1.452   2.894
 2541TIP3   OH2 7561   2.074   1.915   3.048
 2541TIP3    H1 7562   2.051   2.005   3.069
 2541TIP3    H2 7563   2.053   1.866   3.128
 2542TIP3   OH2 7564   2.266   2.492   3.579
 2542TIP3    H1 7565   2.300   2.566   3.529
 2542TIP3    H2 7566   2.339   2.465   3.634
 2543TIP3   OH2 7567   1.897   2.389   2.966
 2543TIP3    H1 7568   1.812   2.397   3.009
 2543TIP3    H2 7569   1.934   2.478   2.970
 2544TIP3   OH2 7570   2.625   2.122   3.550
 2544TIP3    H1 7571   2.617   2.132   3.645
 2544TIP3    H2 7572   2.718   2.102   3.535
 2545TIP3   OH2 7573   2.618   2.028   2.452
 2545TIP3    H1 7574   2.681   2.010   2.522
 2545TIP3    H2 7575   2.532   2.012   2.491
 2546TIP3   OH2 7576   2.872   2.659   3.587
 2546TIP3    H1 7577   2.793   2.604   3.587
 2546TIP3    H2 7578   2.858   2.722   3.517
 2547TIP3   OH2 7579   2.932   2.498   2.232
 2547TIP3    H1 7580   2.961   2.561   2.166
 2547TIP3    H2 7581   2.858   2.542   2.276
 2548TIP3   OH2 7582   1.947   1.282   4.096
 2548TIP3    H1 7583   1.852   1.294   4.108
 2548TIP3    H2 7584   1.973   1.229   4.172
 2549TIP3   OH2 7585   2.791   1.973   2.663
 2549TIP3    H1 7586   2.774   1.901   2.725
 2549TIP3    H2 7587   2.885   1.967   2.645
 2550TIP3   OH2 7588   1.695   2.374   3.734
 2550TIP3    H1 7589   1.748   2.313   3.785
 2550TIP3    H2 7590   1.704   2.458   3.780
 2551TIP3   OH2 7591   1.981   1.975   2.415
 2551TIP3    H1 7592   2.067   1.934   2.401
 2551TIP3    H2 7593   1.973   1.983   2.510
 2552TIP3   OH2 7594   1.949   1.992   2.692
 2552TIP3    H1 7595   2.032   1.980   2.738
 2552TIP3    H2 7596   1.929   2.085   2.703
 2553TIP3   OH2 7597   1.652   1.744   2.860
 2553TIP3    H1 7598   1.596   1.759   2.937
 2553TIP3    H2 7599   1.635   1.819   2.803
 2554TIP3   OH2 7600   2.801   1.343   3.822
 2554TIP3    H1 7601   2.840   1.389   3.897
 2554TIP3    H2 7602   2.788   1.253   3.853
 2555TIP3   OH2 7603   2.718   1.068   2.967
 2555TIP3    H1 7604   2.688   1.089   2.879
 2555TIP3    H2 7605   2.754   1.150   3.001
 2556TIP3   OH2 7606   2.178   2.203   2.643
 2556TIP3    H1 7607   2.094   2.227   2.683
 2556TIP3    H2 7608   2.205   2.280   2.594
 2557TIP3   OH2 7609   2.352   1.285   3.066
 2557TIP3    H1 7610   2.420   1.348   3.041
 2557TIP3    H2 7611   2.367   1.271   3.160
 2558TIP3   OH2 7612   2.646   1.606   3.854
 2558TIP3    H1 7613   2.670   1.641   3.940
 2558TIP3    H2 7614   2.677   1.515   3.856
 2559TIP3   OH2 7615   2.527   0.986   3.157
 2559TIP3    H1 7616   2.545   1.039   3.235
 2559TIP3    H2 7617   2.591   1.016   3.092
 2560TIP3   OH2 7618   1.918   2.269   2.719
 2560TIP3    H1 7619   1.899   2.338   2.655
 2560TIP3    H2 7620   1.909   2.312   2.804
 2561TIP3   OH2 7621   2.039   1.016   2.955
 2561TIP3    H1 7622   2.031   1.100   3.001
 2561TIP3    H2 7623   2.131   0.992   2.966
 2562TIP3   OH2 7624   3.220   1.540   3.805
 2562TIP3    H1 7625   3.174   1.490   3.873
 2562TIP3    H2 7626   3.250   1.474   3.744
 2563TIP3   OH2 7627   2.928   1.710   3.265
 2563TIP3    H1 7628   2.908   1.683   3.175
 2563TIP3    H2 7629   3.002   1.655   3.291
 2564TIP3   OH2 7630   1.649   1.960   2.696
 2564TIP3    H1 7631   1.654   2.037   2.753
 2564TIP3    H2 7632   1.693   1.987   2.616
 2565TIP3   OH2 7633   1.602   1.205   2.764
 2565TIP3    H1 7634   1.590   1.283   2.819
 2565TIP3    H2 7635   1.560   1.135   2.814
 2566TIP3   OH2 7636   2.902   2.644   3.166
 2566TIP3    H1 7637   2.860   2.692   3.095
 2566TIP3    H2 7638   2.995   2.661   3.155
 2567TIP3   OH2 7639   1.977   0.900   3.705
 2567TIP3    H1 7640   1.941   0.866   3.623
 2567TIP3    H2 7641   1.975   0.825   3.764
 2568TIP3   OH2 7642   1.494   2.137   3.097
 2568TIP3    H1 7643   1.451   2.175   3.174
 2568TIP3    H2 7644   1.454   2.182   3.023
 2569TIP3   OH2 7645   1.683   2.684   4.161
 2569TIP3    H1 7646   1.765   2.689   4.209
 2569TIP3    H2 7647   1.663   2.591   4.155
 2570TIP3   OH2 7648   2.149   2.612   4.207
 2570TIP3    H1 7649   2.244   2.607   4.214
 2570TIP3    H2 7650   2.126   2.552   4.136
 2571TIP3   OH2 7651   2.121   2.208   2.330
 2571TIP3    H1 7652   2.077   2.131   2.365
 2571TIP3    H2 7653   2.198   2.173   2.285
 2572TIP3   OH2 7654   2.786   2.540   3.946
 2572TIP3    H1 7655   2.790   2.473   4.015
 2572TIP3    H2 7656   2.860   2.598   3.965
 2573TIP3   OH2 7657   2.566   2.231   2.255
 2573TIP3    H1 7658   2.615   2.174   2.315
 2573TIP3    H2 7659   2.621   2.235   2.177
 2574TIP3   OH2 7660   1.802   2.081   4.353
 2574TIP3    H1 7661   1.821   1.988   4.361
 2574TIP3    H2 7662   1.715   2.085   4.313
 2575TIP3   OH2 7663   1.834   1.697   2.580
 2575TIP3    H1 7664   1.903   1.640   2.546
 2575TIP3    H2 7665   1.827   1.767   2.514
 2576TIP3   OH2 7666   2.420   2.166   4.131
 2576TIP3    H1 7667   2.372   2.188   4.051
 2576TIP3    H2 7668   2.449   2.076   4.118
 2577TIP3   OH2 7669   2.253   1.903   2.377
 2577TIP3    H1 7670   2.291   1.926   2.462
 2577TIP3    H2 7671   2.283   1.814   2.360
 2578TIP3   OH2 7672   2.884   2.186   3.722
 2578TIP3    H1 7673   2.963   2.227   3.686
 2578TIP3    H2 7674   2.820   2.257   3.726
 2579TIP3   OH2 7675   1.931   1.825   4.351
 2579TIP3    H1 7676   1.996   1.757   4.331
 2579TIP3    H2 7677   1.953   1.853   4.440
 2580TIP3   OH2 7678   1.989   1.617   2.812
 2580TIP3    H1 7679   1.985   1.576   2.898
 2580TIP3    H2 7680   2.034   1.553   2.757
 2581TIP3   OH2 7681   2.268   1.733   4.003
 2581TIP3    H1 7682   2.187   1.771   4.039
 2581TIP3    H2 7683   2.245   1.708   3.914
 2582TIP3   OH2 7684   2.102   1.457   2.609
 2582TIP3    H1 7685   2.078   1.436   2.518
 2582TIP3    H2 7686   2.197   1.458   2.609
 2583TIP3   OH2 7687   2.792   2.096   4.135
 2583TIP3    H1 7688   2.888   2.098   4.145
 2583TIP3    H2 7689   2.763   2.031   4.199
 2584TIP3   OH2 7690   2.904   1.750   2.291
 2584TIP3    H1 7691   2.890   1.704   2.208
 2584TIP3    H2 7692   2.875   1.840   2.274
 2585TIP3   OH2 7693   2.384   1.500   4.124
 2585TIP3    H1 7694   2.382   1.422   4.069
 2585TIP3    H2 7695   2.349   1.570   4.068
 2586TIP3   OH2 7696   2.377   1.281   3.946
 2586TIP3    H1 7697   2.416   1.281   3.859
 2586TIP3    H2 7698   2.288   1.251   3.932
 2587TIP3   OH2 7699   2.990   1.765   4.198
 2587TIP3    H1 7700   3.015   1.684   4.243
 2587TIP3    H2 7701   3.073   1.811   4.183
 2588TIP3   OH2 7702   3.029   1.988   3.834
 2588TIP3    H1 7703   2.982   2.071   3.824
 2588TIP3    H2 7704   3.121   2.013   3.835
 2589TIP3   OH2 7705   2.256   1.583   4.360
 2589TIP3    H1 7706   2.195   1.513   4.384
 2589TIP3    H2 7707   2.293   1.555   4.276
 2590TIP3   OH2 7708   2.509   1.037   4.017
 2590TIP3    H1 7709   2.459   1.118   4.006
 2590TIP3    H2 7710   2.444   0.967   4.008
 2591TIP3   OH2 7711   2.645   1.527   4.221
 2591TIP3    H1 7712   2.642   1.510   4.315
 2591TIP3    H2 7713   2.556   1.508   4.190
 2592TIP3   OH2 7714   2.875   1.465   4.057
 2592TIP3    H1 7715   2.807   1.469   4.124
 2592TIP3    H2 7716   2.956   1.452   4.105
 2593TIP3   OH2 7717   3.114   1.437   4.209
 2593TIP3    H1 7718   3.128   1.344   4.226
 2593TIP3    H2 7719   3.102   1.476   4.296
 2594TIP3   OH2 7720   2.112   1.351   4.425
 2594TIP3    H1 7721   2.110   1.261   4.391
 2594TIP3    H2 7722   2.149   1.342   4.513
 2595TIP3   OH2 7723   2.600   1.040   4.277
 2595TIP3    H1 7724   2.669   0.973   4.277
 2595TIP3    H2 7725   2.562   1.036   4.190
 2596TIP3   OH2 7726   2.674   1.258   4.425
 2596TIP3    H1 7727   2.651   1.183   4.370
 2596TIP3    H2 7728   2.596   1.314   4.424
 2597TIP3   OH2 7729   1.907   2.462   2.520
 2597TIP3    H1 7730   2.002   2.463   2.507
 2597TIP3    H2 7731   1.873   2.523   2.454
 2598TIP3   OH2 7732   1.380   1.894   2.700
 2598TIP3    H1 7733   1.474   1.914   2.699
 2598TIP3    H2 7734   1.375   1.804   2.668
 2599TIP3   OH2 7735   1.301   2.466   3.170
 2599TIP3    H1 7736   1.233   2.414   3.126
 2599TIP3    H2 7737   1.343   2.404   3.230
 2600TIP3   OH2 7738   1.443   2.297   3.339
 2600TIP3    H1 7739   1.428   2.233   3.409
 2600TIP3    H2 7740   1.490   2.368   3.382
 2601TIP3   OH2 7741   3.164   2.723   3.152
 2601TIP3    H1 7742   3.190   2.753   3.239
 2601TIP3    H2 7743   3.229   2.759   3.093
 2602TIP3   OH2 7744   3.188   2.744   3.436
 2602TIP3    H1 7745   3.146   2.658   3.428
 2602TIP3    H2 7746   3.261   2.728   3.496
 2603TIP3   OH2 7747   3.237   2.432   4.007
 2603TIP3    H1 7748   3.168   2.443   4.073
 2603TIP3    H2 7749   3.283   2.516   4.006
 2604TIP3   OH2 7750   3.063   1.950   2.629
 2604TIP3    H1 7751   3.129   2.012   2.599
 2604TIP3    H2 7752   3.097   1.918   2.713
 2605TIP3   OH2 7753   3.238   2.187   3.243
 2605TIP3    H1 7754   3.286   2.117   3.198
 2605TIP3    H2 7755   3.241   2.260   3.182
 2606TIP3   OH2 7756   3.051   2.497   3.442
 2606TIP3    H1 7757   2.983   2.543   3.492
 2606TIP3    H2 7758   3.004   2.456   3.369
 2607TIP3   OH2 7759   3.111   1.726   2.472
 2607TIP3    H1 7760   3.039   1.731   2.409
 2607TIP3    H2 7761   3.097   1.801   2.531
 2608TIP3   OH2 7762   2.965   1.379   2.416
 2608TIP3    H1 7763   2.926   1.421   2.340
 2608TIP3    H2 7764   2.954   1.285   2.400
 2609TIP3   OH2 7765   2.945   1.637   2.983
 2609TIP3    H1 7766   2.980   1.554   2.951
 2609TIP3    H2 7767   3.015   1.701   2.967
 2610TIP3   OH2 7768   1.630   1.731   3.724
 2610TIP3    H1 7769   1.612   1.697   3.637
 2610TIP3    H2 7770   1.726   1.739   3.727
 2611TIP3   OH2 7771   3.287   2.076   3.822
 2611TIP3    H1 7772   3.346   2.001   3.827
 2611TIP3    H2 7773   3.327   2.134   3.758
 2612TIP3   OH2 7774   3.421   1.844   3.876
 2612TIP3    H1 7775   3.366   1.767   3.867
 2612TIP3    H2 7776   3.511   1.811   3.870
 2613TIP3   OH2 7777   2.924   1.106   2.373
 2613TIP3    H1 7778   2.994   1.086   2.436
 2613TIP3    H2 7779   2.846   1.063   2.410
 2614TIP3   OH2 7780   2.984   1.376   2.833
 2614TIP3    H1 7781   3.029   1.294   2.849
 2614TIP3    H2 7782   3.035   1.420   2.765
 2615TIP3   OH2 7783   3.145   1.548   3.338
 2615TIP3    H1 7784   3.224   1.581   3.295
 2615TIP3    H2 7785   3.172   1.534   3.429
 2616TIP3   OH2 7786   1.856   1.446   4.412
 2616TIP3    H1 7787   1.949   1.424   4.413
 2616TIP3    H2 7788   1.812   1.362   4.426
 2617TIP3   OH2 7789   3.668   1.306   4.123
 2617TIP3    H1 7790   3.732   1.240   4.095
 2617TIP3    H2 7791   3.643   1.352   4.043
 2618TIP3   OH2 7792   3.103   1.128   2.889
 2618TIP3    H1 7793   3.147   1.120   2.974
 2618TIP3    H2 7794   3.064   1.042   2.875
 2619TIP3   OH2 7795   1.803   1.116   3.706
 2619TIP3    H1 7796   1.856   1.037   3.720
 2619TIP3    H2 7797   1.867   1.188   3.705
 2620TIP3   OH2 7798   1.598   1.384   3.788
 2620TIP3    H1 7799   1.639   1.378   3.702
 2620TIP3    H2 7800   1.624   1.470   3.821
 2621TIP3   OH2 7801   3.516   1.432   3.929
 2621TIP3    H1 7802   3.449   1.463   3.990
 2621TIP3    H2 7803   3.478   1.354   3.889
 2622TIP3   OH2 7804   3.156   1.074   2.515
 2622TIP3    H1 7805   3.216   1.001   2.497
 2622TIP3    H2 7806   3.213   1.149   2.529
 2623TIP3   OH2 7807   1.595   0.909   3.316
 2623TIP3    H1 7808   1.504   0.888   3.335
 2623TIP3    H2 7809   1.591   0.968   3.241
 2624TIP3   OH2 7810   2.730   2.601   2.797
 2624TIP3    H1 7811   2.787   2.594   2.720
 2624TIP3    H2 7812   2.769   2.670   2.850
 2625TIP3   OH2 7813   1.804   0.979   4.100
 2625TIP3    H1 7814   1.755   0.973   4.182
 2625TIP3    H2 7815   1.741   1.017   4.037
 2626TIP3   OH2 7816   1.834   2.398   4.173
 2626TIP3    H1 7817   1.739   2.384   4.166
 2626TIP3    H2 7818   1.852   2.390   4.267
 2627TIP3   OH2 7819   2.037   2.438   3.724
 2627TIP3    H1 7820   1.981   2.510   3.693
 2627TIP3    H2 7821   2.122   2.454   3.682
 2628TIP3   OH2 7822   2.449   2.681   3.862
 2628TIP3    H1 7823   2.486   2.677   3.950
 2628TIP3    H2 7824   2.511   2.734   3.812
 2629TIP3   OH2 7825   2.637   2.835   3.733
 2629TIP3    H1 7826   2.706   2.787   3.686
 2629TIP3    H2 7827   2.686   2.893   3.792
 2630TIP3   OH2 7828   3.429   1.173   3.837
 2630TIP3    H1 7829   3.342   1.152   3.803
 2630TIP3    H2 7830   3.479   1.092   3.826
 2631TIP3   OH2 7831   1.697   2.693   3.771
 2631TIP3    H1 7832   1.606   2.711   3.747
 2631TIP3    H2 7833   1.718   2.760   3.837
 2632TIP3   OH2 7834   1.926   2.670   3.620
 2632TIP3    H1 7835   1.845   2.680   3.668
 2632TIP3    H2 7836   1.907   2.703   3.532
 2633TIP3   OH2 7837   2.350   2.698   3.412
 2633TIP3    H1 7838   2.280   2.715   3.348
 2633TIP3    H2 7839   2.363   2.782   3.456
 2634TIP3   OH2 7840   2.616   2.631   3.457
 2634TIP3    H1 7841   2.524   2.655   3.442
 2634TIP3    H2 7842   2.666   2.702   3.416
 2635TIP3   OH2 7843   2.815   2.814   3.366
 2635TIP3    H1 7844   2.810   2.902   3.328
 2635TIP3    H2 7845   2.846   2.759   3.295
 2636TIP3   OH2 7846   1.610   2.478   3.486
 2636TIP3    H1 7847   1.629   2.451   3.576
 2636TIP3    H2 7848   1.684   2.444   3.435
 2637TIP3   OH2 7849   1.813   2.359   3.349
 2637TIP3    H1 7850   1.822   2.279   3.400
 2637TIP3    H2 7851   1.898   2.402   3.356
 2638TIP3   OH2 7852   2.078   2.449   3.375
 2638TIP3    H1 7853   2.098   2.356   3.365
 2638TIP3    H2 7854   2.129   2.477   3.450
 2639TIP3   OH2 7855   2.591   1.071   3.422
 2639TIP3    H1 7856   2.568   1.011   3.493
 2639TIP3    H2 7857   2.684   1.055   3.406
 2640TIP3   OH2 7858   3.132   1.016   3.354
 2640TIP3    H1 7859   3.172   1.034   3.270
 2640TIP3    H2 7860   3.038   1.017   3.337
 2641TIP3   OH2 7861   3.256   1.069   3.110
 2641TIP3    H1 7862   3.323   1.006   3.083
 2641TIP3    H2 7863   3.299   1.154   3.104
 2642TIP3   OH2 7864   1.872   0.806   3.467
 2642TIP3    H1 7865   1.784   0.769   3.465
 2642TIP3    H2 7866   1.930   0.729   3.461
 2643TIP3   OH2 7867   1.752   0.760   3.134
 2643TIP3    H1 7868   1.745   0.666   3.153
 2643TIP3    H2 7869   1.709   0.803   3.208
 2644TIP3   OH2 7870   2.355   0.846   3.346
 2644TIP3    H1 7871   2.408   0.893   3.282
 2644TIP3    H2 7872   2.395   0.866   3.430
 2645TIP3   OH2 7873   2.846   0.994   3.339
 2645TIP3    H1 7874   2.832   0.958   3.251
 2645TIP3    H2 7875   2.850   0.917   3.396
 2646TIP3   OH2 7876   2.939   0.875   2.880
 2646TIP3    H1 7877   2.873   0.944   2.888
 2646TIP3    H2 7878   2.919   0.815   2.951
 2647TIP3   OH2 7879   1.391   2.264   2.876
 2647TIP3    H1 7880   1.303   2.236   2.852
 2647TIP3    H2 7881   1.395   2.356   2.851
 2648TIP3   OH2 7882   1.769   0.936   2.922
 2648TIP3    H1 7883   1.758   0.859   2.978
 2648TIP3    H2 7884   1.863   0.955   2.926
 2649TIP3   OH2 7885   2.317   1.032   2.971
 2649TIP3    H1 7886   2.371   0.978   3.029
 2649TIP3    H2 7887   2.331   1.122   3.002
 2650TIP3   OH2 7888   2.179   2.432   2.476
 2650TIP3    H1 7889   2.263   2.461   2.440
 2650TIP3    H2 7890   2.150   2.361   2.418
 2651TIP3   OH2 7891   2.882   2.566   2.567
 2651TIP3    H1 7892   2.875   2.471   2.556
 2651TIP3    H2 7893   2.841   2.602   2.489
 2652TIP3   OH2 7894   2.108   1.074   4.351
 2652TIP3    H1 7895   2.070   1.008   4.409
 2652TIP3    H2 7896   2.200   1.080   4.378
 2653TIP3   OH2 7897   2.354   1.079   4.480
 2653TIP3    H1 7898   2.436   1.053   4.439
 2653TIP3    H2 7899   2.339   1.014   4.549
 2654TIP3   OH2 7900   1.477   2.280   2.529
 2654TIP3    H1 7901   1.466   2.312   2.618
 2654TIP3    H2 7902   1.559   2.231   2.531
 2655TIP3   OH2 7903   3.179   1.174   4.257
 2655TIP3    H1 7904   3.193   1.141   4.346
 2655TIP3    H2 7905   3.264   1.163   4.214
 2656TIP3   OH2 7906   3.098   2.704   3.755
 2656TIP3    H1 7907   3.023   2.675   3.704
 2656TIP3    H2 7908   3.088   2.799   3.761
 2657TIP3   OH2 7909   4.376   2.087   2.502
 2657TIP3    H1 7910   4.346   2.176   2.480
 2657TIP3    H2 7911   4.303   2.031   2.476
 2658TIP3   OH2 7912   4.374   2.080   2.917
 2658TIP3    H1 7913   4.421   2.065   2.999
 2658TIP3    H2 7914   4.330   1.998   2.899
 2659TIP3   OH2 7915   3.672   1.955   3.268
 2659TIP3    H1 7916   3.704   1.895   3.336
 2659TIP3    H2 7917   3.750   1.977   3.218
 2660TIP3   OH2 7918   4.635   2.388   2.596
 2660TIP3    H1 7919   4.624   2.324   2.666
 2660TIP3    H2 7920   4.660   2.469   2.642
 2661TIP3   OH2 7921   3.659   2.390   2.976
 2661TIP3    H1 7922   3.646   2.295   2.977
 2661TIP3    H2 7923   3.753   2.401   2.965
 2662TIP3   OH2 7924   3.345   1.587   2.779
 2662TIP3    H1 7925   3.312   1.665   2.823
 2662TIP3    H2 7926   3.269   1.553   2.731
 2663TIP3   OH2 7927   4.287   2.833   2.603
 2663TIP3    H1 7928   4.319   2.767   2.541
 2663TIP3    H2 7929   4.287   2.788   2.688
 2664TIP3   OH2 7930   4.176   2.306   2.935
 2664TIP3    H1 7931   4.216   2.228   2.898
 2664TIP3    H2 7932   4.250   2.360   2.964
 2665TIP3   OH2 7933   5.205   1.631   2.943
 2665TIP3    H1 7934   5.225   1.712   2.992
 2665TIP3    H2 7935   5.232   1.650   2.853
 2666TIP3   OH2 7936   4.592   1.800   2.965
 2666TIP3    H1 7937   4.627   1.714   2.992
 2666TIP3    H2 7938   4.551   1.783   2.880
 2667TIP3   OH2 7939   3.943   1.459   2.922
 2667TIP3    H1 7940   3.921   1.533   2.866
 2667TIP3    H2 7941   3.886   1.388   2.891
 2668TIP3   OH2 7942   4.636   1.556   2.559
 2668TIP3    H1 7943   4.700   1.548   2.629
 2668TIP3    H2 7944   4.683   1.602   2.489
 2669TIP3   OH2 7945   3.563   1.653   3.072
 2669TIP3    H1 7946   3.653   1.633   3.098
 2669TIP3    H2 7947   3.559   1.633   2.979
 2670TIP3   OH2 7948   3.991   1.869   2.864
 2670TIP3    H1 7949   4.085   1.851   2.872
 2670TIP3    H2 7950   3.954   1.788   2.827
 2671TIP3   OH2 7951   5.267   1.843   3.114
 2671TIP3    H1 7952   5.180   1.883   3.108
 2671TIP3    H2 7953   5.305   1.880   3.194
 2672TIP3   OH2 7954   3.931   1.453   3.375
 2672TIP3    H1 7955   3.874   1.484   3.305
 2672TIP3    H2 7956   3.879   1.461   3.455
 2673TIP3   OH2 7957   4.267   2.304   2.368
 2673TIP3    H1 7958   4.227   2.281   2.283
 2673TIP3    H2 7959   4.218   2.381   2.397
 2674TIP3   OH2 7960   4.024   2.228   3.153
 2674TIP3    H1 7961   3.968   2.298   3.186
 2674TIP3    H2 7962   4.071   2.267   3.080
 2675TIP3   OH2 7963   4.811   1.570   2.769
 2675TIP3    H1 7964   4.765   1.547   2.850
 2675TIP3    H2 7965   4.862   1.648   2.792
 2676TIP3   OH2 7966   3.812   1.555   3.147
 2676TIP3    H1 7967   3.866   1.629   3.171
 2676TIP3    H2 7968   3.858   1.513   3.075
 2677TIP3   OH2 7969   3.862   2.433   3.252
 2677TIP3    H1 7970   3.844   2.521   3.219
 2677TIP3    H2 7971   3.785   2.411   3.304
 2678TIP3   OH2 7972   3.241   2.129   2.500
 2678TIP3    H1 7973   3.206   2.150   2.413
 2678TIP3    H2 7974   3.270   2.214   2.534
 2679TIP3   OH2 7975   4.680   2.635   2.736
 2679TIP3    H1 7976   4.593   2.627   2.775
 2679TIP3    H2 7977   4.678   2.719   2.691
 2680TIP3   OH2 7978   5.000   1.516   3.105
 2680TIP3    H1 7979   4.914   1.546   3.075
 2680TIP3    H2 7980   5.061   1.548   3.039
 2681TIP3   OH2 7981   4.266   1.152   3.098
 2681TIP3    H1 7982   4.259   1.060   3.124
 2681TIP3    H2 7983   4.191   1.195   3.137
 2682TIP3   OH2 7984   4.385   2.672   2.397
 2682TIP3    H1 7985   4.436   2.592   2.386
 2682TIP3    H2 7986   4.442   2.742   2.366
 2683TIP3   OH2 7987   4.532   2.448   2.346
 2683TIP3    H1 7988   4.477   2.373   2.324
 2683TIP3    H2 7989   4.576   2.423   2.427
 2684TIP3   OH2 7990   4.911   2.533   3.082
 2684TIP3    H1 7991   4.898   2.457   3.024
 2684TIP3    H2 7992   4.895   2.609   3.026
 2685TIP3   OH2 7993   4.201   1.931   2.349
 2685TIP3    H1 7994   4.120   1.978   2.332
 2685TIP3    H2 7995   4.249   1.933   2.266
 2686TIP3   OH2 7996   4.173   1.732   2.057
 2686TIP3    H1 7997   4.238   1.785   2.103
 2686TIP3    H2 7998   4.225   1.668   2.008
 2687TIP3   OH2 7999   5.102   2.179   2.938
 2687TIP3    H1 8000   5.019   2.227   2.942
 2687TIP3    H2 8001   5.138   2.200   2.853
 2688TIP3   OH2 8002   4.560   2.018   2.314
 2688TIP3    H1 8003   4.504   2.046   2.386
 2688TIP3    H2 8004   4.644   1.997   2.355
 2689TIP3   OH2 8005   4.789   2.050   3.249
 2689TIP3    H1 8006   4.790   2.133   3.298
 2689TIP3    H2 8007   4.705   2.050   3.203
 2690TIP3   OH2 8008   3.789   2.008   2.725
 2690TIP3    H1 8009   3.750   1.948   2.661
 2690TIP3    H2 8010   3.860   1.958   2.765
 2691TIP3   OH2 8011   3.920   2.427   2.865
 2691TIP3    H1 8012   3.897   2.404   2.775
 2691TIP3    H2 8013   4.006   2.387   2.879
 2692TIP3   OH2 8014   3.896   1.990   3.098
 2692TIP3    H1 8015   3.931   1.959   3.014
 2692TIP3    H2 8016   3.943   2.072   3.114
 2693TIP3   OH2 8017   4.442   2.626   2.867
 2693TIP3    H1 8018   4.432   2.706   2.919
 2693TIP3    H2 8019   4.429   2.555   2.930
 2694TIP3   OH2 8020   4.064   2.534   3.413
 2694TIP3    H1 8021   4.006   2.593   3.461
 2694TIP3    H2 8022   4.006   2.482   3.357
 2695TIP3   OH2 8023   4.393   1.880   2.144
 2695TIP3    H1 8024   4.452   1.938   2.193
 2695TIP3    H2 8025   4.419   1.891   2.053
 2696TIP3   OH2 8026   3.823   2.096   3.548
 2696TIP3    H1 8027   3.824   2.189   3.574
 2696TIP3    H2 8028   3.730   2.077   3.532
 2697TIP3   OH2 8029   4.137   2.550   2.408
 2697TIP3    H1 8030   4.220   2.598   2.413
 2697TIP3    H2 8031   4.079   2.608   2.359
 2698TIP3   OH2 8032   3.855   2.694   3.498
 2698TIP3    H1 8033   3.827   2.705   3.407
 2698TIP3    H2 8034   3.774   2.678   3.546
 2699TIP3   OH2 8035   3.661   1.851   2.523
 2699TIP3    H1 8036   3.586   1.896   2.485
 2699TIP3    H2 8037   3.624   1.771   2.560
 2700TIP3   OH2 8038   4.721   2.480   1.751
 2700TIP3    H1 8039   4.720   2.574   1.732
 2700TIP3    H2 8040   4.810   2.453   1.733
 2701TIP3   OH2 8041   3.431   2.248   3.443
 2701TIP3    H1 8042   3.370   2.223   3.374
 2701TIP3    H2 8043   3.472   2.165   3.469
 2702TIP3   OH2 8044   3.301   2.422   3.087
 2702TIP3    H1 8045   3.394   2.413   3.066
 2702TIP3    H2 8046   3.297   2.500   3.143
 2703TIP3   OH2 8047   5.147   2.890   3.145
 2703TIP3    H1 8048   5.150   2.795   3.163
 2703TIP3    H2 8049   5.068   2.920   3.190
 2704TIP3   OH2 8050   4.251   2.674   3.269
 2704TIP3    H1 8051   4.248   2.765   3.298
 2704TIP3    H2 8052   4.186   2.629   3.322
 2705TIP3   OH2 8053   4.026   2.780   2.228
 2705TIP3    H1 8054   3.982   2.760   2.145
 2705TIP3    H2 8055   3.991   2.866   2.253
 2706TIP3   OH2 8056   3.463   2.634   2.608
 2706TIP3    H1 8057   3.508   2.626   2.692
 2706TIP3    H2 8058   3.416   2.551   2.598
 2707TIP3   OH2 8059   4.229   2.703   1.857
 2707TIP3    H1 8060   4.280   2.631   1.821
 2707TIP3    H2 8061   4.264   2.716   1.945
 2708TIP3   OH2 8062   4.280   2.750   2.127
 2708TIP3    H1 8063   4.195   2.754   2.170
 2708TIP3    H2 8064   4.339   2.717   2.194
 2709TIP3   OH2 8065   5.036   2.010   3.422
 2709TIP3    H1 8066   4.953   2.019   3.375
 2709TIP3    H2 8067   5.055   1.916   3.418
 2710TIP3   OH2 8068   3.642   2.426   3.419
 2710TIP3    H1 8069   3.690   2.417   3.501
 2710TIP3    H2 8070   3.569   2.365   3.427
 2711TIP3   OH2 8071   4.031   1.244   3.220
 2711TIP3    H1 8072   3.945   1.212   3.194
 2711TIP3    H2 8073   4.013   1.322   3.273
 2712TIP3   OH2 8074   4.576   1.356   3.425
 2712TIP3    H1 8075   4.646   1.333   3.486
 2712TIP3    H2 8076   4.495   1.339   3.474
 2713TIP3   OH2 8077   4.793   1.785   3.336
 2713TIP3    H1 8078   4.752   1.781   3.423
 2713TIP3    H2 8079   4.778   1.875   3.307
 2714TIP3   OH2 8080   4.473   1.882   1.883
 2714TIP3    H1 8081   4.429   1.879   1.799
 2714TIP3    H2 8082   4.555   1.928   1.866
 2715TIP3   OH2 8083   4.183   1.288   2.198
 2715TIP3    H1 8084   4.148   1.293   2.287
 2715TIP3    H2 8085   4.146   1.207   2.162
 2716TIP3   OH2 8086   3.969   1.764   3.238
 2716TIP3    H1 8087   3.922   1.773   3.321
 2716TIP3    H2 8088   3.948   1.844   3.190
 2717TIP3   OH2 8089   3.853   1.656   2.754
 2717TIP3    H1 8090   3.763   1.635   2.780
 2717TIP3    H2 8091   3.862   1.618   2.667
 2718TIP3   OH2 8092   4.333   1.730   2.483
 2718TIP3    H1 8093   4.283   1.801   2.444
 2718TIP3    H2 8094   4.389   1.698   2.413
 2719TIP3   OH2 8095   4.519   1.999   3.563
 2719TIP3    H1 8096   4.492   1.931   3.624
 2719TIP3    H2 8097   4.612   2.015   3.584
 2720TIP3   OH2 8098   4.494   1.746   2.714
 2720TIP3    H1 8099   4.428   1.774   2.651
 2720TIP3    H2 8100   4.535   1.670   2.674
 2721TIP3   OH2 8101   3.797   1.779   3.459
 2721TIP3    H1 8102   3.854   1.832   3.515
 2721TIP3    H2 8103   3.786   1.697   3.507
 2722TIP3   OH2 8104   3.840   1.264   2.170
 2722TIP3    H1 8105   3.831   1.268   2.265
 2722TIP3    H2 8106   3.766   1.316   2.137
 2723TIP3   OH2 8107   3.393   1.295   3.048
 2723TIP3    H1 8108   3.452   1.334   3.112
 2723TIP3    H2 8109   3.429   1.320   2.963
 2724TIP3   OH2 8110   3.321   1.298   2.553
 2724TIP3    H1 8111   3.362   1.333   2.474
 2724TIP3    H2 8112   3.263   1.368   2.583
 2725TIP3   OH2 8113   4.526   1.996   3.140
 2725TIP3    H1 8114   4.555   1.930   3.077
 2725TIP3    H2 8115   4.489   1.946   3.212
 2726TIP3   OH2 8116   4.207   1.449   2.810
 2726TIP3    H1 8117   4.127   1.450   2.863
 2726TIP3    H2 8118   4.278   1.440   2.873
 2727TIP3   OH2 8119   3.612   1.541   2.816
 2727TIP3    H1 8120   3.520   1.549   2.792
 2727TIP3    H2 8121   3.634   1.450   2.799
 2728TIP3   OH2 8122   3.869   1.523   2.514
 2728TIP3    H1 8123   3.962   1.538   2.500
 2728TIP3    H2 8124   3.827   1.544   2.431
 2729TIP3   OH2 8125   4.665   1.533   3.008
 2729TIP3    H1 8126   4.649   1.548   3.101
 2729TIP3    H2 8127   4.594   1.474   2.980
 2730TIP3   OH2 8128   3.743   1.553   2.274
 2730TIP3    H1 8129   3.678   1.509   2.221
 2730TIP3    H2 8130   3.799   1.599   2.211
 2731TIP3   OH2 8131   4.835   3.250   3.247
 2731TIP3    H1 8132   4.837   3.260   3.151
 2731TIP3    H2 8133   4.916   3.291   3.277
 2732TIP3   OH2 8134   3.799   2.351   3.658
 2732TIP3    H1 8135   3.880   2.372   3.704
 2732TIP3    H2 8136   3.731   2.357   3.726
 2733TIP3   OH2 8137   4.262   1.809   2.918
 2733TIP3    H1 8138   4.327   1.758   2.871
 2733TIP3    H2 8139   4.259   1.770   3.006
 2734TIP3   OH2 8140   3.759   1.283   2.805
 2734TIP3    H1 8141   3.730   1.208   2.858
 2734TIP3    H2 8142   3.793   1.244   2.725
 2735TIP3   OH2 8143   4.238   1.716   3.184
 2735TIP3    H1 8144   4.149   1.741   3.209
 2735TIP3    H2 8145   4.295   1.767   3.242
 2736TIP3   OH2 8146   3.967   2.074   2.294
 2736TIP3    H1 8147   3.893   2.016   2.275
 2736TIP3    H2 8148   3.946   2.113   2.379
 2737TIP3   OH2 8149   4.866   2.322   2.907
 2737TIP3    H1 8150   4.899   2.372   2.832
 2737TIP3    H2 8151   4.783   2.285   2.876
 2738TIP3   OH2 8152   4.436   1.387   2.190
 2738TIP3    H1 8153   4.342   1.367   2.189
 2738TIP3    H2 8154   4.439   1.482   2.202
 2739TIP3   OH2 8155   4.373   2.404   3.308
 2739TIP3    H1 8156   4.423   2.395   3.389
 2739TIP3    H2 8157   4.334   2.492   3.313
 2740TIP3   OH2 8158   4.494   1.651   2.265
 2740TIP3    H1 8159   4.588   1.662   2.276
 2740TIP3    H2 8160   4.466   1.727   2.214
 2741TIP3   OH2 8161   3.673   2.116   2.957
 2741TIP3    H1 8162   3.698   2.084   2.871
 2741TIP3    H2 8163   3.721   2.061   3.019
 2742TIP3   OH2 8164   4.121   2.233   2.134
 2742TIP3    H1 8165   4.074   2.317   2.133
 2742TIP3    H2 8166   4.066   2.176   2.187
 2743TIP3   OH2 8167   3.548   2.043   3.592
 2743TIP3    H1 8168   3.581   2.016   3.678
 2743TIP3    H2 8169   3.486   1.975   3.567
 2744TIP3   OH2 8170   4.286   2.150   3.598
 2744TIP3    H1 8171   4.225   2.101   3.543
 2744TIP3    H2 8172   4.372   2.114   3.576
 2745TIP3   OH2 8173   4.523   2.682   3.189
 2745TIP3    H1 8174   4.428   2.673   3.198
 2745TIP3    H2 8175   4.551   2.725   3.271
 2746TIP3   OH2 8176   4.922   1.734   2.096
 2746TIP3    H1 8177   4.869   1.686   2.032
 2746TIP3    H2 8178   4.926   1.823   2.062
 2747TIP3   OH2 8179   5.158   2.601   3.176
 2747TIP3    H1 8180   5.063   2.593   3.169
 2747TIP3    H2 8181   5.191   2.575   3.090
 2748TIP3   OH2 8182   4.646   2.554   2.015
 2748TIP3    H1 8183   4.619   2.483   2.073
 2748TIP3    H2 8184   4.663   2.510   1.931
 2749TIP3   OH2 8185   4.629   2.191   2.810
 2749TIP3    H1 8186   4.539   2.169   2.833
 2749TIP3    H2 8187   4.665   2.111   2.772
 2750TIP3   OH2 8188   3.778   2.423   2.609
 2750TIP3    H1 8189   3.776   2.501   2.554
 2750TIP3    H2 8190   3.686   2.402   2.624
 2751TIP3   OH2 8191   3.339   1.712   2.315
 2751TIP3    H1 8192   3.386   1.793   2.335
 2751TIP3    H2 8193   3.262   1.714   2.373
 2752TIP3   OH2 8194   3.884   2.180   2.528
 2752TIP3    H1 8195   3.863   2.270   2.554
 2752TIP3    H2 8196   3.855   2.127   2.602
 2753TIP3   OH2 8197   4.059   2.751   3.068
 2753TIP3    H1 8198   4.097   2.822   3.017
 2753TIP3    H2 8199   4.132   2.714   3.118
 2754TIP3   OH2 8200   3.694   2.652   2.457
 2754TIP3    H1 8201   3.608   2.657   2.499
 2754TIP3    H2 8202   3.728   2.742   2.460
 2755TIP3   OH2 8203   4.419   2.401   3.036
 2755TIP3    H1 8204   4.406   2.398   3.131
 2755TIP3    H2 8205   4.500   2.352   3.021
 2756TIP3   OH2 8206   4.406   2.290   1.914
 2756TIP3    H1 8207   4.458   2.266   1.990
 2756TIP3    H2 8208   4.319   2.254   1.932
 2757TIP3   OH2 8209   4.668   2.920   3.082
 2757TIP3    H1 8210   4.597   2.856   3.085
 2757TIP3    H2 8211   4.647   2.976   3.007
 2758TIP3   OH2 8212   4.729   2.755   1.719
 2758TIP3    H1 8213   4.757   2.817   1.651
 2758TIP3    H2 8214   4.656   2.798   1.763
 2759TIP3   OH2 8215   3.771   1.520   3.592
 2759TIP3    H1 8216   3.676   1.508   3.590
 2759TIP3    H2 8217   3.801   1.460   3.660
 2760TIP3   OH2 8218   4.578   2.213   2.115
 2760TIP3    H1 8219   4.565   2.152   2.187
 2760TIP3    H2 8220   4.673   2.218   2.105
 2761TIP3   OH2 8221   3.481   2.627   3.231
 2761TIP3    H1 8222   3.535   2.558   3.270
 2761TIP3    H2 8223   3.506   2.707   3.278
 2762TIP3   OH2 8224   3.762   2.259   1.918
 2762TIP3    H1 8225   3.773   2.168   1.890
 2762TIP3    H2 8226   3.744   2.254   2.011
 2763TIP3   OH2 8227   3.705   2.272   2.190
 2763TIP3    H1 8228   3.777   2.243   2.246
 2763TIP3    H2 8229   3.707   2.367   2.196
 2764TIP3   OH2 8230   3.439   1.961   2.396
 2764TIP3    H1 8231   3.374   2.005   2.451
 2764TIP3    H2 8232   3.457   2.024   2.326
 2765TIP3   OH2 8233   4.611   1.583   3.270
 2765TIP3    H1 8234   4.683   1.634   3.308
 2765TIP3    H2 8235   4.600   1.509   3.330
 2766TIP3   OH2 8236   4.499   1.335   2.459
 2766TIP3    H1 8237   4.474   1.353   2.368
 2766TIP3    H2 8238   4.534   1.417   2.491
 2767TIP3   OH2 8239   3.976   2.462   2.133
 2767TIP3    H1 8240   3.891   2.486   2.169
 2767TIP3    H2 8241   3.999   2.535   2.075
 2768TIP3   OH2 8242   4.150   1.534   2.551
 2768TIP3    H1 8243   4.211   1.604   2.527
 2768TIP3    H2 8244   4.166   1.518   2.644
 2769TIP3   OH2 8245   4.440   1.834   3.345
 2769TIP3    H1 8246   4.463   1.884   3.423
 2769TIP3    H2 8247   4.490   1.753   3.353
 2770TIP3   OH2 8248   4.308   1.241   2.644
 2770TIP3    H1 8249   4.285   1.318   2.696
 2770TIP3    H2 8250   4.376   1.272   2.585
 2771TIP3   OH2 8251   3.723   2.544   2.206
 2771TIP3    H1 8252   3.701   2.614   2.144
 2771TIP3    H2 8253   3.711   2.584   2.292
 2772TIP3   OH2 8254   3.819   1.253   2.449
 2772TIP3    H1 8255   3.809   1.343   2.479
 2772TIP3    H2 8256   3.914   1.237   2.453
 2773TIP3   OH2 8257   5.060   1.740   3.331
 2773TIP3    H1 8258   4.965   1.742   3.338
 2773TIP3    H2 8259   5.077   1.690   3.250
 2774TIP3   OH2 8260   4.721   1.935   2.716
 2774TIP3    H1 8261   4.643   1.883   2.732
 2774TIP3    H2 8262   4.789   1.895   2.771
 2775TIP3   OH2 8263   3.453   2.151   2.187
 2775TIP3    H1 8264   3.523   2.216   2.198
 2775TIP3    H2 8265   3.489   2.087   2.125
 2776TIP3   OH2 8266   3.373   1.435   2.323
 2776TIP3    H1 8267   3.386   1.530   2.327
 2776TIP3    H2 8268   3.309   1.423   2.253
 2777TIP3   OH2 8269   4.700   2.903   2.656
 2777TIP3    H1 8270   4.658   2.953   2.586
 2777TIP3    H2 8271   4.794   2.916   2.641
 2778TIP3   OH2 8272   3.767   1.161   3.197
 2778TIP3    H1 8273   3.737   1.125   3.113
 2778TIP3    H2 8274   3.759   1.087   3.258
 2779TIP3   OH2 8275   3.297   2.403   2.578
 2779TIP3    H1 8276   3.248   2.435   2.654
 2779TIP3    H2 8277   3.256   2.445   2.503
 2780TIP3   OH2 8278   3.481   2.941   3.645
 2780TIP3    H1 8279   3.562   2.950   3.696
 2780TIP3    H2 8280   3.468   2.847   3.636
 2781TIP3   OH2 8281   3.941   2.873   3.695
 2781TIP3    H1 8282   4.036   2.872   3.706
 2781TIP3    H2 8283   3.924   2.811   3.624
 2782TIP3   OH2 8284   3.922   2.459   1.813
 2782TIP3    H1 8285   3.874   2.387   1.856
 2782TIP3    H2 8286   3.996   2.416   1.771
 2783TIP3   OH2 8287   4.583   2.796   3.431
 2783TIP3    H1 8288   4.584   2.727   3.497
 2783TIP3    H2 8289   4.659   2.850   3.450
 2784TIP3   OH2 8290   4.360   2.496   1.734
 2784TIP3    H1 8291   4.395   2.431   1.796
 2784TIP3    H2 8292   4.419   2.491   1.659
 2785TIP3   OH2 8293   3.593   2.335   3.847
 2785TIP3    H1 8294   3.609   2.241   3.856
 2785TIP3    H2 8295   3.510   2.340   3.800
 2786TIP3   OH2 8296   3.586   1.961   2.045
 2786TIP3    H1 8297   3.638   1.935   2.121
 2786TIP3    H2 8298   3.650   1.972   1.975
 2787TIP3   OH2 8299   4.210   2.423   3.621
 2787TIP3    H1 8300   4.170   2.445   3.537
 2787TIP3    H2 8301   4.248   2.336   3.607
 2788TIP3   OH2 8302   4.129   2.178   1.864
 2788TIP3    H1 8303   4.114   2.190   1.958
 2788TIP3    H2 8304   4.120   2.083   1.851
 2789TIP3   OH2 8305   4.689   2.456   3.228
 2789TIP3    H1 8306   4.768   2.488   3.184
 2789TIP3    H2 8307   4.624   2.524   3.213
 2790TIP3   OH2 8308   3.702   2.056   3.834
 2790TIP3    H1 8309   3.781   2.050   3.780
 2790TIP3    H2 8310   3.734   2.086   3.920
 2791TIP3   OH2 8311   3.761   1.892   2.255
 2791TIP3    H1 8312   3.738   1.861   2.343
 2791TIP3    H2 8313   3.808   1.818   2.215
 2792TIP3   OH2 8314   4.043   1.944   3.488
 2792TIP3    H1 8315   3.974   2.008   3.506
 2792TIP3    H2 8316   4.092   1.982   3.416
 2793TIP3   OH2 8317   3.900   1.701   2.106
 2793TIP3    H1 8318   3.872   1.711   2.015
 2793TIP3    H2 8319   3.995   1.706   2.102
 2794TIP3   OH2 8320   4.569   2.348   3.604
 2794TIP3    H1 8321   4.645   2.315   3.555
 2794TIP3    H2 8322   4.566   2.293   3.683
 2795TIP3   OH2 8323   4.700   1.999   1.774
 2795TIP3    H1 8324   4.685   1.957   1.689
 2795TIP3    H2 8325   4.673   2.090   1.760
 2796TIP3   OH2 8326   4.176   1.741   3.614
 2796TIP3    H1 8327   4.182   1.666   3.556
 2796TIP3    H2 8328   4.134   1.809   3.561
 2797TIP3   OH2 8329   4.188   1.539   3.415
 2797TIP3    H1 8330   4.215   1.573   3.331
 2797TIP3    H2 8331   4.097   1.511   3.402
 2798TIP3   OH2 8332   4.196   2.072   3.304
 2798TIP3    H1 8333   4.285   2.091   3.273
 2798TIP3    H2 8334   4.140   2.130   3.253
 2799TIP3   OH2 8335   4.784   2.026   3.667
 2799TIP3    H1 8336   4.826   1.942   3.685
 2799TIP3    H2 8337   4.856   2.085   3.646
 2800TIP3   OH2 8338   4.821   2.288   3.398
 2800TIP3    H1 8339   4.765   2.347   3.347
 2800TIP3    H2 8340   4.909   2.307   3.366
 2801TIP3   OH2 8341   4.052   1.835   3.851
 2801TIP3    H1 8342   3.991   1.763   3.869
 2801TIP3    H2 8343   4.089   1.813   3.765
 2802TIP3   OH2 8344   4.309   1.299   3.501
 2802TIP3    H1 8345   4.266   1.380   3.474
 2802TIP3    H2 8346   4.242   1.232   3.490
 2803TIP3   OH2 8347   4.435   1.786   3.711
 2803TIP3    H1 8348   4.429   1.772   3.805
 2803TIP3    H2 8349   4.347   1.764   3.678
 2804TIP3   OH2 8350   4.674   1.734   3.572
 2804TIP3    H1 8351   4.598   1.736   3.630
 2804TIP3    H2 8352   4.747   1.709   3.630
 2805TIP3   OH2 8353   4.911   1.696   3.722
 2805TIP3    H1 8354   4.925   1.602   3.732
 2805TIP3    H2 8355   4.904   1.729   3.811
 2806TIP3   OH2 8356   3.892   1.618   3.922
 2806TIP3    H1 8357   3.894   1.530   3.884
 2806TIP3    H2 8358   3.933   1.607   4.009
 2807TIP3   OH2 8359   4.387   1.292   3.765
 2807TIP3    H1 8360   4.455   1.225   3.764
 2807TIP3    H2 8361   4.353   1.294   3.676
 2808TIP3   OH2 8362   4.467   1.512   3.910
 2808TIP3    H1 8363   4.442   1.437   3.855
 2808TIP3    H2 8364   4.391   1.569   3.909
 2809TIP3   OH2 8365   3.712   2.749   2.020
 2809TIP3    H1 8366   3.803   2.733   1.996
 2809TIP3    H2 8367   3.675   2.797   1.945
 2810TIP3   OH2 8368   3.181   2.133   2.211
 2810TIP3    H1 8369   3.275   2.151   2.205
 2810TIP3    H2 8370   3.170   2.046   2.175
 2811TIP3   OH2 8371   3.089   2.723   2.659
 2811TIP3    H1 8372   3.026   2.667   2.614
 2811TIP3    H2 8373   3.134   2.664   2.720
 2812TIP3   OH2 8374   3.227   2.560   2.837
 2812TIP3    H1 8375   3.216   2.492   2.903
 2812TIP3    H2 8376   3.279   2.628   2.879
 2813TIP3   OH2 8377   4.968   2.964   2.638
 2813TIP3    H1 8378   4.990   2.994   2.727
 2813TIP3    H2 8379   5.024   3.017   2.581
 2814TIP3   OH2 8380   4.991   2.990   2.920
 2814TIP3    H1 8381   4.943   2.907   2.915
 2814TIP3    H2 8382   5.061   2.973   2.983
 2815TIP3   OH2 8383   5.033   2.689   3.491
 2815TIP3    H1 8384   4.963   2.697   3.556
 2815TIP3    H2 8385   5.079   2.773   3.495
 2816TIP3   OH2 8386   4.859   2.199   2.105
 2816TIP3    H1 8387   4.916   2.269   2.074
 2816TIP3    H2 8388   4.906   2.161   2.180
 2817TIP3   OH2 8389   4.992   2.052   2.305
 2817TIP3    H1 8390   4.922   2.023   2.363
 2817TIP3    H2 8391   5.054   2.096   2.362
 2818TIP3   OH2 8392   5.035   2.461   2.736
 2818TIP3    H1 8393   5.089   2.394   2.695
 2818TIP3    H2 8394   5.037   2.534   2.674
 2819TIP3   OH2 8395   4.844   2.753   2.930
 2819TIP3    H1 8396   4.776   2.797   2.982
 2819TIP3    H2 8397   4.796   2.711   2.859
 2820TIP3   OH2 8398   4.905   1.973   1.955
 2820TIP3    H1 8399   4.836   1.972   1.889
 2820TIP3    H2 8400   4.887   2.051   2.007
 2821TIP3   OH2 8401   4.768   1.623   1.903
 2821TIP3    H1 8402   4.727   1.662   1.825
 2821TIP3    H2 8403   4.746   1.530   1.897
 2822TIP3   OH2 8404   4.787   1.927   2.449
 2822TIP3    H1 8405   4.788   1.832   2.438
 2822TIP3    H2 8406   4.768   1.941   2.541
 2823TIP3   OH2 8407   3.402   1.957   3.200
 2823TIP3    H1 8408   3.384   1.921   3.113
 2823TIP3    H2 8409   3.497   1.962   3.205
 2824TIP3   OH2 8410   5.076   2.344   3.305
 2824TIP3    H1 8411   5.142   2.276   3.288
 2824TIP3    H2 8412   5.101   2.416   3.246
 2825TIP3   OH2 8413   5.248   2.130   3.297
 2825TIP3    H1 8414   5.175   2.089   3.344
 2825TIP3    H2 8415   5.323   2.074   3.317
 2826TIP3   OH2 8416   4.703   1.358   1.893
 2826TIP3    H1 8417   4.758   1.282   1.911
 2826TIP3    H2 8418   4.613   1.325   1.897
 2827TIP3   OH2 8419   4.784   1.650   2.333
 2827TIP3    H1 8420   4.819   1.561   2.332
 2827TIP3    H2 8421   4.824   1.694   2.258
 2828TIP3   OH2 8422   4.937   1.806   2.847
 2828TIP3    H1 8423   5.019   1.828   2.802
 2828TIP3    H2 8424   4.947   1.845   2.934
 2829TIP3   OH2 8425   5.008   1.956   3.075
 2829TIP3    H1 8426   4.936   1.987   3.130
 2829TIP3    H2 8427   5.041   2.035   3.032
 2830TIP3   OH2 8428   3.629   1.668   3.850
 2830TIP3    H1 8429   3.723   1.665   3.866
 2830TIP3    H2 8430   3.596   1.585   3.885
 2831TIP3   OH2 8431   5.469   1.559   3.622
 2831TIP3    H1 8432   5.531   1.498   3.582
 2831TIP3    H2 8433   5.434   1.608   3.547
 2832TIP3   OH2 8434   4.942   1.369   2.347
 2832TIP3    H1 8435   4.964   1.359   2.439
 2832TIP3    H2 8436   4.869   1.309   2.333
 2833TIP3   OH2 8437   3.588   1.374   3.230
 2833TIP3    H1 8438   3.648   1.300   3.230
 2833TIP3    H2 8439   3.643   1.449   3.207
 2834TIP3   OH2 8440   3.391   1.659   3.285
 2834TIP3    H1 8441   3.446   1.642   3.208
 2834TIP3    H2 8442   3.390   1.754   3.293
 2835TIP3   OH2 8443   5.324   1.679   3.425
 2835TIP3    H1 8444   5.245   1.720   3.461
 2835TIP3    H2 8445   5.291   1.607   3.371
 2836TIP3   OH2 8446   3.366   1.124   2.758
 2836TIP3    H1 8447   3.286   1.133   2.809
 2836TIP3    H2 8448   3.361   1.195   2.694
 2837TIP3   OH2 8449   4.530   2.867   2.283
 2837TIP3    H1 8450   4.585   2.854   2.205
 2837TIP3    H2 8451   4.576   2.934   2.334
 2838TIP3   OH2 8452   3.594   1.252   3.608
 2838TIP3    H1 8453   3.545   1.223   3.685
 2838TIP3    H2 8454   3.528   1.265   3.541
 2839TIP3   OH2 8455   3.628   2.661   3.660
 2839TIP3    H1 8456   3.535   2.641   3.657
 2839TIP3    H2 8457   3.649   2.663   3.753
 2840TIP3   OH2 8458   3.826   2.711   3.212
 2840TIP3    H1 8459   3.775   2.783   3.175
 2840TIP3    H2 8460   3.912   2.719   3.172
 2841TIP3   OH2 8461   4.245   2.942   3.346
 2841TIP3    H1 8462   4.280   2.933   3.434
 2841TIP3    H2 8463   4.312   2.993   3.299
 2842TIP3   OH2 8464   4.442   3.094   3.220
 2842TIP3    H1 8465   4.509   3.038   3.181
 2842TIP3    H2 8466   4.491   3.154   3.277
 2843TIP3   OH2 8467   5.232   1.434   3.313
 2843TIP3    H1 8468   5.143   1.425   3.279
 2843TIP3    H2 8469   5.268   1.346   3.308
 2844TIP3   OH2 8470   3.495   2.967   3.247
 2844TIP3    H1 8471   3.402   2.984   3.229
 2844TIP3    H2 8472   3.516   3.026   3.319
 2845TIP3   OH2 8473   3.721   2.943   3.089
 2845TIP3    H1 8474   3.640   2.951   3.140
 2845TIP3    H2 8475   3.697   2.977   3.003
 2846TIP3   OH2 8476   4.148   2.954   2.899
 2846TIP3    H1 8477   4.079   2.966   2.834
 2846TIP3    H2 8478   4.158   3.040   2.939
 2847TIP3   OH2 8479   4.413   2.891   2.949
 2847TIP3    H1 8480   4.321   2.910   2.930
 2847TIP3    H2 8481   4.461   2.961   2.904
 2848TIP3   OH2 8482   4.614   3.074   2.855
 2848TIP3    H1 8483   4.607   3.160   2.813
 2848TIP3    H2 8484   4.644   3.016   2.785
 2849TIP3   OH2 8485   3.403   2.732   2.985
 2849TIP3    H1 8486   3.427   2.705   3.073
 2849TIP3    H2 8487   3.475   2.702   2.929
 2850TIP3   OH2 8488   3.607   2.621   2.843
 2850TIP3    H1 8489   3.618   2.538   2.889
 2850TIP3    H2 8490   3.694   2.660   2.842
 2851TIP3   OH2 8491   3.877   2.703   2.859
 2851TIP3    H1 8492   3.896   2.610   2.845
 2851TIP3    H2 8493   3.929   2.727   2.936
 2852TIP3   OH2 8494   4.437   1.356   2.944
 2852TIP3    H1 8495   4.398   1.286   2.996
 2852TIP3    H2 8496   4.507   1.313   2.895
 2853TIP3   OH2 8497   4.946   1.257   2.820
 2853TIP3    H1 8498   4.979   1.318   2.755
 2853TIP3    H2 8499   4.854   1.282   2.832
 2854TIP3   OH2 8500   5.071   1.354   2.585
 2854TIP3    H1 8501   5.139   1.290   2.568
 2854TIP3    H2 8502   5.115   1.439   2.578
 2855TIP3   OH2 8503   3.682   1.058   2.951
 2855TIP3    H1 8504   3.591   1.027   2.959
 2855TIP3    H2 8505   3.734   0.978   2.946
 2856TIP3   OH2 8506   3.483   0.937   2.594
 2856TIP3    H1 8507   3.518   0.986   2.520
 2856TIP3    H2 8508   3.451   1.004   2.654
 2857TIP3   OH2 8509   4.150   1.097   2.837
 2857TIP3    H1 8510   4.200   1.146   2.772
 2857TIP3    H2 8511   4.187   1.124   2.921
 2858TIP3   OH2 8512   4.658   1.245   2.813
 2858TIP3    H1 8513   4.654   1.208   2.725
 2858TIP3    H2 8514   4.658   1.168   2.871
 2859TIP3   OH2 8515   4.731   1.186   2.389
 2859TIP3    H1 8516   4.652   1.236   2.405
 2859TIP3    H2 8517   4.711   1.098   2.421
 2860TIP3   OH2 8518   3.176   2.528   2.366
 2860TIP3    H1 8519   3.093   2.493   2.333
 2860TIP3    H2 8520   3.178   2.618   2.334
 2861TIP3   OH2 8521   3.609   1.081   2.372
 2861TIP3    H1 8522   3.657   1.027   2.309
 2861TIP3    H2 8523   3.675   1.142   2.406
 2862TIP3   OH2 8524   4.095   1.282   2.460
 2862TIP3    H1 8525   4.154   1.232   2.517
 2862TIP3    H2 8526   4.109   1.373   2.486
 2863TIP3   OH2 8527   3.972   2.685   1.957
 2863TIP3    H1 8528   4.056   2.713   1.921
 2863TIP3    H2 8529   3.944   2.613   1.901
 2864TIP3   OH2 8530   4.681   2.822   2.054
 2864TIP3    H1 8531   4.674   2.727   2.044
 2864TIP3    H2 8532   4.638   2.857   1.975
 2865TIP3   OH2 8533   3.897   1.346   3.844
 2865TIP3    H1 8534   3.863   1.274   3.897
 2865TIP3    H2 8535   3.990   1.349   3.866
 2866TIP3   OH2 8536   4.151   1.344   3.957
 2866TIP3    H1 8537   4.231   1.320   3.910
 2866TIP3    H2 8538   4.141   1.275   4.023
 2867TIP3   OH2 8539   3.273   2.525   2.013
 2867TIP3    H1 8540   3.278   2.541   2.107
 2867TIP3    H2 8541   3.355   2.481   1.992
 2868TIP3   OH2 8542   4.976   1.426   3.743
 2868TIP3    H1 8543   4.989   1.397   3.834
 2868TIP3    H2 8544   5.062   1.419   3.703
 2869TIP3   OH2 8545   4.899   2.974   3.237
 2869TIP3    H1 8546   4.822   2.942   3.190
 2869TIP3    H2 8547   4.879   3.066   3.255
 2870TIP3   OH2 8548   6.174   2.351   1.989
 2870TIP3    H1 8549   6.141   2.437   1.961
 2870TIP3    H2 8550   6.105   2.290   1.965
 2871TIP3   OH2 8551   6.173   2.338   2.403
 2871TIP3    H1 8552   6.218   2.320   2.485
 2871TIP3    H2 8553   6.129   2.255   2.381
 2872TIP3   OH2 8554   5.466   2.212   2.760
 2872TIP3    H1 8555   5.499   2.154   2.828
 2872TIP3    H2 8556   5.544   2.256   2.727
 2873TIP3   OH2 8557   6.422   2.627   2.079
 2873TIP3    H1 8558   6.420   2.539   2.116
 2873TIP3    H2 8559   6.405   2.684   2.154
 2874TIP3   OH2 8560   5.453   2.631   2.454
 2874TIP3    H1 8561   5.438   2.537   2.460
 2874TIP3    H2 8562   5.547   2.640   2.446
 2875TIP3   OH2 8563   5.135   1.807   2.264
 2875TIP3    H1 8564   5.112   1.898   2.284
 2875TIP3    H2 8565   5.072   1.779   2.198
 2876TIP3   OH2 8566   5.222   2.141   2.439
 2876TIP3    H1 8567   5.273   2.066   2.469
 2876TIP3    H2 8568   5.288   2.205   2.412
 2877TIP3   OH2 8569   6.085   3.093   2.088
 2877TIP3    H1 8570   6.110   3.015   2.039
 2877TIP3    H2 8571   6.047   3.059   2.169
 2878TIP3   OH2 8572   5.974   2.563   2.418
 2878TIP3    H1 8573   6.013   2.483   2.383
 2878TIP3    H2 8574   6.048   2.613   2.452
 2879TIP3   OH2 8575   6.999   1.882   2.427
 2879TIP3    H1 8576   7.020   1.966   2.468
 2879TIP3    H2 8577   7.032   1.890   2.338
 2880TIP3   OH2 8578   6.386   2.055   2.452
 2880TIP3    H1 8579   6.427   1.973   2.478
 2880TIP3    H2 8580   6.349   2.038   2.365
 2881TIP3   OH2 8581   5.731   1.716   2.419
 2881TIP3    H1 8582   5.717   1.789   2.360
 2881TIP3    H2 8583   5.680   1.644   2.382
 2882TIP3   OH2 8584   6.428   1.810   2.048
 2882TIP3    H1 8585   6.495   1.801   2.115
 2882TIP3    H2 8586   6.475   1.844   1.972
 2883TIP3   OH2 8587   5.360   1.921   2.536
 2883TIP3    H1 8588   5.442   1.909   2.585
 2883TIP3    H2 8589   5.375   1.874   2.454
 2884TIP3   OH2 8590   5.793   2.124   2.344
 2884TIP3    H1 8591   5.886   2.107   2.354
 2884TIP3    H2 8592   5.756   2.043   2.310
 2885TIP3   OH2 8593   7.062   2.098   2.600
 2885TIP3    H1 8594   6.974   2.134   2.593
 2885TIP3    H2 8595   7.098   2.135   2.680
 2886TIP3   OH2 8596   5.719   1.711   2.864
 2886TIP3    H1 8597   5.666   1.747   2.793
 2886TIP3    H2 8598   5.667   1.726   2.943
 2887TIP3   OH2 8599   6.057   2.563   1.858
 2887TIP3    H1 8600   6.022   2.540   1.772
 2887TIP3    H2 8601   6.010   2.642   1.883
 2888TIP3   OH2 8602   5.820   2.488   2.637
 2888TIP3    H1 8603   5.764   2.557   2.672
 2888TIP3    H2 8604   5.867   2.530   2.564
 2889TIP3   OH2 8605   6.604   1.831   2.256
 2889TIP3    H1 8606   6.569   1.808   2.342
 2889TIP3    H2 8607   6.663   1.904   2.272
 2890TIP3   OH2 8608   5.599   1.821   2.640
 2890TIP3    H1 8609   5.655   1.895   2.664
 2890TIP3    H2 8610   5.646   1.778   2.569
 2891TIP3   OH2 8611   5.656   2.687   2.739
 2891TIP3    H1 8612   5.640   2.776   2.707
 2891TIP3    H2 8613   5.580   2.666   2.793
 2892TIP3   OH2 8614   5.035   2.384   1.987
 2892TIP3    H1 8615   5.000   2.401   1.900
 2892TIP3    H2 8616   5.060   2.470   2.021
 2893TIP3   OH2 8617   6.430   2.955   2.164
 2893TIP3    H1 8618   6.377   2.894   2.216
 2893TIP3    H2 8619   6.425   3.038   2.211
 2894TIP3   OH2 8620   6.796   1.778   2.596
 2894TIP3    H1 8621   6.710   1.802   2.563
 2894TIP3    H2 8622   6.857   1.805   2.528
 2895TIP3   OH2 8623   6.061   1.406   2.583
 2895TIP3    H1 8624   6.055   1.315   2.610
 2895TIP3    H2 8625   5.987   1.449   2.626
 2896TIP3   OH2 8626   6.192   2.930   1.882
 2896TIP3    H1 8627   6.233   2.844   1.870
 2896TIP3    H2 8628   6.261   2.993   1.858
 2897TIP3   OH2 8629   6.343   2.713   1.829
 2897TIP3    H1 8630   6.327   2.640   1.769
 2897TIP3    H2 8631   6.372   2.671   1.910
 2898TIP3   OH2 8632   6.708   2.787   2.571
 2898TIP3    H1 8633   6.695   2.711   2.515
 2898TIP3    H2 8634   6.694   2.863   2.514
 2899TIP3   OH2 8635   6.001   2.190   1.838
 2899TIP3    H1 8636   5.920   2.238   1.818
 2899TIP3    H2 8637   6.047   2.185   1.754
 2900TIP3   OH2 8638   5.973   1.981   1.537
 2900TIP3    H1 8639   6.038   2.032   1.584
 2900TIP3    H2 8640   6.024   1.917   1.487
 2901TIP3   OH2 8641   6.898   2.440   2.435
 2901TIP3    H1 8642   6.815   2.487   2.435
 2901TIP3    H2 8643   6.931   2.449   2.346
 2902TIP3   OH2 8644   6.356   2.280   1.798
 2902TIP3    H1 8645   6.302   2.305   1.872
 2902TIP3    H2 8646   6.437   2.247   1.837
 2903TIP3   OH2 8647   6.585   2.306   2.737
 2903TIP3    H1 8648   6.585   2.389   2.786
 2903TIP3    H2 8649   6.501   2.306   2.691
 2904TIP3   OH2 8650   5.584   2.259   2.212
 2904TIP3    H1 8651   5.547   2.201   2.146
 2904TIP3    H2 8652   5.659   2.212   2.247
 2905TIP3   OH2 8653   5.716   2.680   2.350
 2905TIP3    H1 8654   5.694   2.661   2.259
 2905TIP3    H2 8655   5.803   2.642   2.362
 2906TIP3   OH2 8656   5.696   2.251   2.574
 2906TIP3    H1 8657   5.734   2.217   2.494
 2906TIP3    H2 8658   5.745   2.331   2.593
 2907TIP3   OH2 8659   6.281   2.861   2.364
 2907TIP3    H1 8660   6.247   2.942   2.404
 2907TIP3    H2 8661   6.255   2.792   2.425
 2908TIP3   OH2 8662   5.859   2.790   2.899
 2908TIP3    H1 8663   5.801   2.849   2.948
 2908TIP3    H2 8664   5.799   2.738   2.845
 2909TIP3   OH2 8665   6.188   2.137   1.633
 2909TIP3    H1 8666   6.248   2.192   1.684
 2909TIP3    H2 8667   6.213   2.152   1.542
 2910TIP3   OH2 8668   5.614   2.346   3.023
 2910TIP3    H1 8669   5.619   2.437   3.053
 2910TIP3    H2 8670   5.520   2.326   3.023
 2911TIP3   OH2 8671   5.939   2.814   1.897
 2911TIP3    H1 8672   6.020   2.866   1.895
 2911TIP3    H2 8673   5.877   2.866   1.845
 2912TIP3   OH2 8674   5.650   2.949   2.986
 2912TIP3    H1 8675   5.621   2.959   2.896
 2912TIP3    H2 8676   5.569   2.933   3.035
 2913TIP3   OH2 8677   6.698   1.361   1.692
 2913TIP3    H1 8678   6.618   1.383   1.739
 2913TIP3    H2 8679   6.719   1.440   1.643
 2914TIP3   OH2 8680   5.457   2.105   2.008
 2914TIP3    H1 8681   5.384   2.154   1.971
 2914TIP3    H2 8682   5.426   2.015   2.016
 2915TIP3   OH2 8683   6.494   2.748   1.239
 2915TIP3    H1 8684   6.495   2.841   1.214
 2915TIP3    H2 8685   6.585   2.719   1.228
 2916TIP3   OH2 8686   5.234   2.500   2.935
 2916TIP3    H1 8687   5.166   2.482   2.870
 2916TIP3    H2 8688   5.270   2.414   2.958
 2917TIP3   OH2 8689   5.091   2.689   2.575
 2917TIP3    H1 8690   5.186   2.697   2.572
 2917TIP3    H2 8691   5.062   2.769   2.619
 2918TIP3   OH2 8692   6.950   3.144   2.641
 2918TIP3    H1 8693   6.951   3.049   2.659
 2918TIP3    H2 8694   6.866   3.174   2.675
 2919TIP3   OH2 8695   6.046   2.932   2.756
 2919TIP3    H1 8696   6.044   3.022   2.787
 2919TIP3    H2 8697   5.980   2.886   2.808
 2920TIP3   OH2 8698   5.828   3.046   1.710
 2920TIP3    H1 8699   5.776   3.021   1.633
 2920TIP3    H2 8700   5.788   3.127   1.740
 2921TIP3   OH2 8701   5.258   2.889   2.093
 2921TIP3    H1 8702   5.301   2.881   2.178
 2921TIP3    H2 8703   5.208   2.807   2.084
 2922TIP3   OH2 8704   6.027   2.964   1.348
 2922TIP3    H1 8705   6.074   2.890   1.311
 2922TIP3    H2 8706   6.063   2.973   1.436
 2923TIP3   OH2 8707   6.082   3.007   1.621
 2923TIP3    H1 8708   5.992   3.018   1.653
 2923TIP3    H2 8709   6.124   2.950   1.685
 2924TIP3   OH2 8710   6.831   2.264   2.906
 2924TIP3    H1 8711   6.749   2.274   2.857
 2924TIP3    H2 8712   6.851   2.171   2.901
 2925TIP3   OH2 8713   5.439   2.683   2.907
 2925TIP3    H1 8714   5.486   2.675   2.990
 2925TIP3    H2 8715   5.366   2.622   2.916
 2926TIP3   OH2 8716   5.826   1.500   2.714
 2926TIP3    H1 8717   5.741   1.470   2.683
 2926TIP3    H2 8718   5.807   1.580   2.763
 2927TIP3   OH2 8719   6.370   1.615   2.912
 2927TIP3    H1 8720   6.441   1.591   2.971
 2927TIP3    H2 8721   6.290   1.597   2.961
 2928TIP3   OH2 8722   6.590   2.041   2.825
 2928TIP3    H1 8723   6.550   2.039   2.912
 2928TIP3    H2 8724   6.576   2.131   2.795
 2929TIP3   OH2 8725   6.269   2.174   1.378
 2929TIP3    H1 8726   6.220   2.155   1.298
 2929TIP3    H2 8727   6.354   2.205   1.347
 2930TIP3   OH2 8728   5.968   1.546   1.681
 2930TIP3    H1 8729   5.937   1.549   1.771
 2930TIP3    H2 8730   5.937   1.463   1.646
 2931TIP3   OH2 8731   5.760   2.028   2.724
 2931TIP3    H1 8732   5.716   2.039   2.809
 2931TIP3    H2 8733   5.741   2.108   2.676
 2932TIP3   OH2 8734   5.649   1.909   2.243
 2932TIP3    H1 8735   5.559   1.887   2.266
 2932TIP3    H2 8736   5.661   1.875   2.155
 2933TIP3   OH2 8737   6.129   1.985   1.971
 2933TIP3    H1 8738   6.080   2.057   1.929
 2933TIP3    H2 8739   6.187   1.952   1.903
 2934TIP3   OH2 8740   6.313   2.255   3.048
 2934TIP3    H1 8741   6.286   2.186   3.109
 2934TIP3    H2 8742   6.405   2.271   3.069
 2935TIP3   OH2 8743   6.293   2.002   2.199
 2935TIP3    H1 8744   6.226   2.025   2.135
 2935TIP3    H2 8745   6.338   1.926   2.161
 2936TIP3   OH2 8746   5.592   2.041   2.945
 2936TIP3    H1 8747   5.623   2.102   3.012
 2936TIP3    H2 8748   5.577   1.959   2.992
 2937TIP3   OH2 8749   5.638   1.525   1.656
 2937TIP3    H1 8750   5.629   1.529   1.751
 2937TIP3    H2 8751   5.559   1.570   1.623
 2938TIP3   OH2 8752   5.205   1.573   2.465
 2938TIP3    H1 8753   5.264   1.581   2.539
 2938TIP3    H2 8754   5.195   1.662   2.432
 2939TIP3   OH2 8755   5.122   1.527   2.094
 2939TIP3    H1 8756   5.182   1.518   2.020
 2939TIP3    H2 8757   5.064   1.599   2.070
 2940TIP3   OH2 8758   6.324   2.254   2.625
 2940TIP3    H1 8759   6.352   2.187   2.562
 2940TIP3    H2 8760   6.285   2.205   2.697
 2941TIP3   OH2 8761   6.001   1.708   2.299
 2941TIP3    H1 8762   5.926   1.708   2.359
 2941TIP3    H2 8763   6.077   1.696   2.356
 2942TIP3   OH2 8764   5.411   1.782   2.305
 2942TIP3    H1 8765   5.323   1.780   2.267
 2942TIP3    H2 8766   5.446   1.695   2.288
 2943TIP3   OH2 8767   5.662   1.783   1.999
 2943TIP3    H1 8768   5.757   1.795   1.988
 2943TIP3    H2 8769   5.625   1.803   1.914
 2944TIP3   OH2 8770   6.471   1.793   2.505
 2944TIP3    H1 8771   6.447   1.809   2.596
 2944TIP3    H2 8772   6.407   1.730   2.473
 2945TIP3   OH2 8773   5.538   1.812   1.756
 2945TIP3    H1 8774   5.475   1.765   1.703
 2945TIP3    H2 8775   5.595   1.856   1.693
 2946TIP3   OH2 8776   6.654   3.492   2.728
 2946TIP3    H1 8777   6.649   3.518   2.636
 2946TIP3    H2 8778   6.732   3.538   2.761
 2947TIP3   OH2 8779   5.599   2.601   3.141
 2947TIP3    H1 8780   5.679   2.625   3.188
 2947TIP3    H2 8781   5.530   2.608   3.207
 2948TIP3   OH2 8782   6.061   2.064   2.403
 2948TIP3    H1 8783   6.128   2.016   2.355
 2948TIP3    H2 8784   6.059   2.024   2.490
 2949TIP3   OH2 8785   5.554   1.538   2.284
 2949TIP3    H1 8786   5.533   1.459   2.335
 2949TIP3    H2 8787   5.598   1.504   2.206
 2950TIP3   OH2 8788   6.030   1.970   2.673
 2950TIP3    H1 8789   5.943   2.002   2.696
 2950TIP3    H2 8790   6.090   2.023   2.727
 2951TIP3   OH2 8791   5.765   2.334   1.781
 2951TIP3    H1 8792   5.692   2.275   1.761
 2951TIP3    H2 8793   5.743   2.370   1.867
 2952TIP3   OH2 8794   6.659   2.580   2.394
 2952TIP3    H1 8795   6.693   2.622   2.315
 2952TIP3    H2 8796   6.580   2.534   2.364
 2953TIP3   OH2 8797   6.224   1.644   1.681
 2953TIP3    H1 8798   6.129   1.626   1.677
 2953TIP3    H2 8799   6.230   1.738   1.691
 2954TIP3   OH2 8800   6.169   2.664   2.797
 2954TIP3    H1 8801   6.216   2.652   2.880
 2954TIP3    H2 8802   6.128   2.750   2.805
 2955TIP3   OH2 8803   6.290   1.905   1.755
 2955TIP3    H1 8804   6.386   1.905   1.763
 2955TIP3    H2 8805   6.271   1.979   1.698
 2956TIP3   OH2 8806   5.456   2.339   2.444
 2956TIP3    H1 8807   5.494   2.325   2.357
 2956TIP3    H2 8808   5.522   2.307   2.505
 2957TIP3   OH2 8809   5.917   2.494   1.622
 2957TIP3    H1 8810   5.870   2.577   1.621
 2957TIP3    H2 8811   5.862   2.436   1.674
 2958TIP3   OH2 8812   5.345   2.279   3.070
 2958TIP3    H1 8813   5.361   2.265   3.163
 2958TIP3    H2 8814   5.274   2.218   3.049
 2959TIP3   OH2 8815   6.078   2.405   3.086
 2959TIP3    H1 8816   6.012   2.345   3.050
 2959TIP3    H2 8817   6.162   2.367   3.060
 2960TIP3   OH2 8818   6.318   2.942   2.674
 2960TIP3    H1 8819   6.223   2.931   2.686
 2960TIP3    H2 8820   6.348   2.983   2.755
 2961TIP3   OH2 8821   6.708   1.992   1.606
 2961TIP3    H1 8822   6.648   1.945   1.548
 2961TIP3    H2 8823   6.701   2.084   1.578
 2962TIP3   OH2 8824   6.956   2.855   2.666
 2962TIP3    H1 8825   6.861   2.848   2.661
 2962TIP3    H2 8826   6.987   2.830   2.579
 2963TIP3   OH2 8827   6.451   2.800   1.508
 2963TIP3    H1 8828   6.417   2.724   1.554
 2963TIP3    H2 8829   6.459   2.772   1.417
 2964TIP3   OH2 8830   6.428   2.437   2.295
 2964TIP3    H1 8831   6.338   2.416   2.320
 2964TIP3    H2 8832   6.464   2.355   2.262
 2965TIP3   OH2 8833   5.574   2.679   2.096
 2965TIP3    H1 8834   5.571   2.756   2.040
 2965TIP3    H2 8835   5.482   2.663   2.118
 2966TIP3   OH2 8836   5.142   1.961   1.812
 2966TIP3    H1 8837   5.184   2.046   1.826
 2966TIP3    H2 8838   5.060   1.966   1.861
 2967TIP3   OH2 8839   5.679   2.435   2.017
 2967TIP3    H1 8840   5.655   2.525   2.041
 2967TIP3    H2 8841   5.649   2.382   2.091
 2968TIP3   OH2 8842   5.855   3.006   2.554
 2968TIP3    H1 8843   5.891   3.079   2.505
 2968TIP3    H2 8844   5.928   2.974   2.608
 2969TIP3   OH2 8845   5.491   2.907   1.945
 2969TIP3    H1 8846   5.405   2.913   1.986
 2969TIP3    H2 8847   5.525   2.997   1.949
 2970TIP3   OH2 8848   6.218   2.647   2.528
 2970TIP3    H1 8849   6.202   2.651   2.622
 2970TIP3    H2 8850   6.291   2.586   2.519
 2971TIP3   OH2 8851   6.196   2.551   1.410
 2971TIP3    H1 8852   6.240   2.529   1.492
 2971TIP3    H2 8853   6.112   2.506   1.414
 2972TIP3   OH2 8854   6.461   3.173   2.553
 2972TIP3    H1 8855   6.387   3.114   2.564
 2972TIP3    H2 8856   6.436   3.231   2.482
 2973TIP3   OH2 8857   6.522   3.019   1.202
 2973TIP3    H1 8858   6.550   3.078   1.132
 2973TIP3    H2 8859   6.452   3.066   1.247
 2974TIP3   OH2 8860   5.550   1.787   3.074
 2974TIP3    H1 8861   5.455   1.794   3.084
 2974TIP3    H2 8862   5.579   1.739   3.151
 2975TIP3   OH2 8863   6.366   2.501   1.629
 2975TIP3    H1 8864   6.348   2.424   1.683
 2975TIP3    H2 8865   6.460   2.496   1.612
 2976TIP3   OH2 8866   5.283   2.891   2.715
 2976TIP3    H1 8867   5.334   2.827   2.765
 2976TIP3    H2 8868   5.299   2.975   2.759
 2977TIP3   OH2 8869   5.563   2.512   1.401
 2977TIP3    H1 8870   5.572   2.420   1.376
 2977TIP3    H2 8871   5.542   2.509   1.494
 2978TIP3   OH2 8872   5.502   2.528   1.672
 2978TIP3    H1 8873   5.572   2.499   1.731
 2978TIP3    H2 8874   5.501   2.623   1.681
 2979TIP3   OH2 8875   5.235   2.217   1.883
 2979TIP3    H1 8876   5.169   2.263   1.936
 2979TIP3    H2 8877   5.253   2.277   1.811
 2980TIP3   OH2 8878   6.397   1.849   2.765
 2980TIP3    H1 8879   6.475   1.894   2.798
 2980TIP3    H2 8880   6.389   1.772   2.821
 2981TIP3   OH2 8881   6.281   1.594   1.948
 2981TIP3    H1 8882   6.263   1.612   1.856
 2981TIP3    H2 8883   6.325   1.673   1.980
 2982TIP3   OH2 8884   5.775   2.725   1.623
 2982TIP3    H1 8885   5.688   2.745   1.658
 2982TIP3    H2 8886   5.791   2.794   1.558
 2983TIP3   OH2 8887   5.941   1.794   2.041
 2983TIP3    H1 8888   6.005   1.861   2.015
 2983TIP3    H2 8889   5.962   1.776   2.133
 2984TIP3   OH2 8890   6.236   2.089   2.826
 2984TIP3    H1 8891   6.262   2.134   2.907
 2984TIP3    H2 8892   6.286   2.008   2.827
 2985TIP3   OH2 8893   6.102   1.493   2.133
 2985TIP3    H1 8894   6.084   1.570   2.186
 2985TIP3    H2 8895   6.169   1.522   2.071
 2986TIP3   OH2 8896   5.520   2.800   1.694
 2986TIP3    H1 8897   5.497   2.869   1.631
 2986TIP3    H2 8898   5.506   2.840   1.780
 2987TIP3   OH2 8899   5.619   1.512   1.938
 2987TIP3    H1 8900   5.612   1.604   1.966
 2987TIP3    H2 8901   5.713   1.494   1.940
 2988TIP3   OH2 8902   6.857   1.993   2.817
 2988TIP3    H1 8903   6.762   1.997   2.825
 2988TIP3    H2 8904   6.872   1.940   2.739
 2989TIP3   OH2 8905   6.518   2.189   2.200
 2989TIP3    H1 8906   6.443   2.130   2.211
 2989TIP3    H2 8907   6.588   2.148   2.251
 2990TIP3   OH2 8908   5.249   2.404   1.673
 2990TIP3    H1 8909   5.317   2.471   1.681
 2990TIP3    H2 8910   5.284   2.342   1.609
 2991TIP3   OH2 8911   5.153   1.683   1.855
 2991TIP3    H1 8912   5.168   1.777   1.845
 2991TIP3    H2 8913   5.113   1.656   1.772
 2992TIP3   OH2 8914   6.574   3.179   2.080
 2992TIP3    H1 8915   6.522   3.255   2.051
 2992TIP3    H2 8916   6.643   3.216   2.134
 2993TIP3   OH2 8917   5.561   1.415   2.677
 2993TIP3    H1 8918   5.539   1.380   2.591
 2993TIP3    H2 8919   5.558   1.340   2.735
 2994TIP3   OH2 8920   5.090   2.656   2.067
 2994TIP3    H1 8921   5.042   2.691   2.142
 2994TIP3    H2 8922   5.050   2.699   1.991
 2995TIP3   OH2 8923   5.276   3.202   3.134
 2995TIP3    H1 8924   5.357   3.210   3.185
 2995TIP3    H2 8925   5.260   3.108   3.129
 2996TIP3   OH2 8926   5.741   3.127   3.180
 2996TIP3    H1 8927   5.836   3.117   3.190
 2996TIP3    H2 8928   5.718   3.066   3.109
 2997TIP3   OH2 8929   5.717   2.714   1.294
 2997TIP3    H1 8930   5.670   2.643   1.336
 2997TIP3    H2 8931   5.791   2.672   1.250
 2998TIP3   OH2 8932   6.383   3.052   2.916
 2998TIP3    H1 8933   6.384   2.984   2.983
 2998TIP3    H2 8934   6.456   3.109   2.938
 2999TIP3   OH2 8935   6.153   2.755   1.227
 2999TIP3    H1 8936   6.186   2.688   1.288
 2999TIP3    H2 8937   6.209   2.747   1.150
 3000TIP3   OH2 8938   5.392   2.594   3.328
 3000TIP3    H1 8939   5.411   2.501   3.337
 3000TIP3    H2 8940   5.305   2.597   3.288
 3001TIP3   OH2 8941   5.381   2.214   1.530
 3001TIP3    H1 8942   5.435   2.191   1.606
 3001TIP3    H2 8943   5.444   2.224   1.458
 3002TIP3   OH2 8944   6.009   2.681   3.105
 3002TIP3    H1 8945   5.965   2.702   3.023
 3002TIP3    H2 8946   6.043   2.593   3.092
 3003TIP3   OH2 8947   5.936   2.433   1.353
 3003TIP3    H1 8948   5.915   2.446   1.446
 3003TIP3    H2 8949   5.925   2.339   1.339
 3004TIP3   OH2 8950   6.484   2.712   2.717
 3004TIP3    H1 8951   6.563   2.745   2.674
 3004TIP3    H2 8952   6.418   2.780   2.701
 3005TIP3   OH2 8953   5.509   2.333   3.326
 3005TIP3    H1 8954   5.590   2.311   3.280
 3005TIP3    H2 8955   5.538   2.359   3.414
 3006TIP3   OH2 8956   5.562   2.149   1.737
 3006TIP3    H1 8957   5.541   2.115   1.824
 3006TIP3    H2 8958   5.608   2.077   1.693
 3007TIP3   OH2 8959   5.854   2.213   2.981
 3007TIP3    H1 8960   5.776   2.268   2.991
 3007TIP3    H2 8961   5.896   2.246   2.901
 3008TIP3   OH2 8962   5.696   1.957   1.584
 3008TIP3    H1 8963   5.667   1.961   1.493
 3008TIP3    H2 8964   5.791   1.960   1.578
 3009TIP3   OH2 8965   6.365   2.606   3.090
 3009TIP3    H1 8966   6.441   2.573   3.043
 3009TIP3    H2 8967   6.360   2.551   3.169
 3010TIP3   OH2 8968   6.507   2.268   1.256
 3010TIP3    H1 8969   6.485   2.212   1.181
 3010TIP3    H2 8970   6.463   2.350   1.237
 3011TIP3   OH2 8971   5.971   1.996   3.100
 3011TIP3    H1 8972   5.976   1.923   3.039
 3011TIP3    H2 8973   5.933   2.067   3.049
 3012TIP3   OH2 8974   5.980   1.793   2.900
 3012TIP3    H1 8975   6.007   1.831   2.817
 3012TIP3    H2 8976   5.888   1.768   2.886
 3013TIP3   OH2 8977   5.990   2.320   2.773
 3013TIP3    H1 8978   6.081   2.346   2.754
 3013TIP3    H2 8979   5.937   2.385   2.728
 3014TIP3   OH2 8980   6.579   2.284   3.151
 3014TIP3    H1 8981   6.622   2.199   3.163
 3014TIP3    H2 8982   6.651   2.344   3.131
 3015TIP3   OH2 8983   6.617   2.545   2.885
 3015TIP3    H1 8984   6.561   2.603   2.835
 3015TIP3    H2 8985   6.705   2.562   2.853
 3016TIP3   OH2 8986   5.852   2.090   3.338
 3016TIP3    H1 8987   5.784   2.026   3.358
 3016TIP3    H2 8988   5.884   2.064   3.251
 3017TIP3   OH2 8989   6.103   1.557   2.991
 3017TIP3    H1 8990   6.062   1.638   2.962
 3017TIP3    H2 8991   6.037   1.489   2.979
 3018TIP3   OH2 8992   6.229   2.041   3.198
 3018TIP3    H1 8993   6.222   2.030   3.292
 3018TIP3    H2 8994   6.142   2.019   3.164
 3019TIP3   OH2 8995   6.472   1.994   3.063
 3019TIP3    H1 8996   6.395   1.994   3.119
 3019TIP3    H2 8997   6.544   1.968   3.121
 3020TIP3   OH2 8998   6.707   1.952   3.213
 3020TIP3    H1 8999   6.721   1.858   3.222
 3020TIP3    H2 9000   6.702   1.984   3.303
 3021TIP3   OH2 9001   5.689   1.867   3.401
 3021TIP3    H1 9002   5.696   1.778   3.368
 3021TIP3    H2 9003   5.727   1.863   3.489
 3022TIP3   OH2 9004   6.178   1.547   3.256
 3022TIP3    H1 9005   6.248   1.482   3.252
 3022TIP3    H2 9006   6.145   1.553   3.166
 3023TIP3   OH2 9007   6.263   1.765   3.402
 3023TIP3    H1 9008   6.236   1.693   3.345
 3023TIP3    H2 9009   6.189   1.825   3.400
 3024TIP3   OH2 9010   5.507   3.004   1.507
 3024TIP3    H1 9011   5.597   2.989   1.478
 3024TIP3    H2 9012   5.468   3.055   1.436
 3025TIP3   OH2 9013   4.976   2.383   1.703
 3025TIP3    H1 9014   5.070   2.400   1.693
 3025TIP3    H2 9015   4.963   2.298   1.661
 3026TIP3   OH2 9016   4.886   2.979   2.146
 3026TIP3    H1 9017   4.822   2.924   2.100
 3026TIP3    H2 9018   4.931   2.919   2.205
 3027TIP3   OH2 9019   5.027   2.815   2.319
 3027TIP3    H1 9020   5.016   2.748   2.386
 3027TIP3    H2 9021   5.078   2.884   2.362
 3028TIP3   OH2 9022   6.750   3.259   2.391
 3028TIP3    H1 9023   6.724   3.168   2.400
 3028TIP3    H2 9024   6.843   3.261   2.416
 3029TIP3   OH2 9025   6.827   2.943   2.975
 3029TIP3    H1 9026   6.756   2.950   3.039
 3029TIP3    H2 9027   6.872   3.027   2.979
 3030TIP3   OH2 9028   6.640   2.473   1.606
 3030TIP3    H1 9029   6.703   2.535   1.569
 3030TIP3    H2 9030   6.687   2.431   1.678
 3031TIP3   OH2 9031   6.771   2.327   1.798
 3031TIP3    H1 9032   6.708   2.279   1.853
 3031TIP3    H2 9033   6.840   2.354   1.859
 3032TIP3   OH2 9034   6.826   2.710   2.214
 3032TIP3    H1 9035   6.880   2.635   2.187
 3032TIP3    H2 9036   6.861   2.784   2.165
 3033TIP3   OH2 9037   6.631   3.003   2.415
 3033TIP3    H1 9038   6.576   3.054   2.475
 3033TIP3    H2 9039   6.568   2.956   2.360
 3034TIP3   OH2 9040   6.653   2.229   1.481
 3034TIP3    H1 9041   6.592   2.233   1.407
 3034TIP3    H2 9042   6.637   2.310   1.530
 3035TIP3   OH2 9043   6.537   1.917   1.408
 3035TIP3    H1 9044   6.512   1.945   1.320
 3035TIP3    H2 9045   6.516   1.824   1.411
 3036TIP3   OH2 9046   6.578   2.173   1.930
 3036TIP3    H1 9047   6.584   2.078   1.917
 3036TIP3    H2 9048   6.563   2.183   2.024
 3037TIP3   OH2 9049   5.205   2.246   2.693
 3037TIP3    H1 9050   5.198   2.214   2.603
 3037TIP3    H2 9051   5.298   2.244   2.712
 3038TIP3   OH2 9052   6.872   2.600   2.792
 3038TIP3    H1 9053   6.938   2.532   2.777
 3038TIP3    H2 9054   6.899   2.672   2.734
 3039TIP3   OH2 9055   7.045   2.389   2.791
 3039TIP3    H1 9056   6.971   2.346   2.834
 3039TIP3    H2 9057   7.119   2.331   2.809
 3040TIP3   OH2 9058   6.482   1.651   1.398
 3040TIP3    H1 9059   6.552   1.602   1.355
 3040TIP3    H2 9060   6.411   1.588   1.408
 3041TIP3   OH2 9061   6.576   1.896   1.828
 3041TIP3    H1 9062   6.618   1.811   1.841
 3041TIP3    H2 9063   6.624   1.935   1.755
 3042TIP3   OH2 9064   6.733   2.068   2.332
 3042TIP3    H1 9065   6.815   2.088   2.285
 3042TIP3    H2 9066   6.747   2.103   2.420
 3043TIP3   OH2 9067   6.805   2.212   2.564
 3043TIP3    H1 9068   6.732   2.244   2.618
 3043TIP3    H2 9069   6.839   2.291   2.522
 3044TIP3   OH2 9070   5.424   1.923   3.342
 3044TIP3    H1 9071   5.519   1.923   3.359
 3044TIP3    H2 9072   5.392   1.842   3.384
 3045TIP3   OH2 9073   7.269   1.814   3.107
 3045TIP3    H1 9074   7.326   1.751   3.063
 3045TIP3    H2 9075   7.229   1.865   3.037
 3046TIP3   OH2 9076   6.686   1.647   1.872
 3046TIP3    H1 9077   6.734   1.631   1.954
 3046TIP3    H2 9078   6.626   1.573   1.865
 3047TIP3   OH2 9079   5.381   1.626   2.686
 3047TIP3    H1 9080   5.441   1.553   2.699
 3047TIP3    H2 9081   5.437   1.703   2.683
 3048TIP3   OH2 9082   5.180   1.899   2.752
 3048TIP3    H1 9083   5.236   1.903   2.675
 3048TIP3    H2 9084   5.199   1.980   2.800
 3049TIP3   OH2 9085   7.118   1.932   2.914
 3049TIP3    H1 9086   7.035   1.974   2.938
 3049TIP3    H2 9087   7.093   1.859   2.858
 3050TIP3   OH2 9088   6.773   1.561   1.522
 3050TIP3    H1 9089   6.802   1.487   1.469
 3050TIP3    H2 9090   6.756   1.631   1.458
 3051TIP3   OH2 9091   6.428   3.086   1.831
 3051TIP3    H1 9092   6.442   3.070   1.738
 3051TIP3    H2 9093   6.410   3.179   1.838
 3052TIP3   OH2 9094   5.388   1.470   3.076
 3052TIP3    H1 9095   5.342   1.465   3.160
 3052TIP3    H2 9096   5.329   1.518   3.019
 3053TIP3   OH2 9097   5.425   2.914   3.149
 3053TIP3    H1 9098   5.331   2.897   3.142
 3053TIP3    H2 9099   5.443   2.912   3.243
 3054TIP3   OH2 9100   5.625   2.960   2.701
 3054TIP3    H1 9101   5.573   3.033   2.669
 3054TIP3    H2 9102   5.710   2.972   2.659
 3055TIP3   OH2 9103   6.043   3.197   2.836
 3055TIP3    H1 9104   6.079   3.190   2.924
 3055TIP3    H2 9105   6.108   3.249   2.788
 3056TIP3   OH2 9106   6.238   3.346   2.707
 3056TIP3    H1 9107   6.310   3.291   2.675
 3056TIP3    H2 9108   6.280   3.409   2.765
 3057TIP3   OH2 9109   7.027   1.689   2.801
 3057TIP3    H1 9110   6.939   1.681   2.765
 3057TIP3    H2 9111   7.065   1.602   2.793
 3058TIP3   OH2 9112   5.290   3.209   2.744
 3058TIP3    H1 9113   5.199   3.229   2.721
 3058TIP3    H2 9114   5.312   3.274   2.811
 3059TIP3   OH2 9115   5.519   3.191   2.592
 3059TIP3    H1 9116   5.437   3.199   2.640
 3059TIP3    H2 9117   5.498   3.220   2.503
 3060TIP3   OH2 9118   5.942   3.209   2.382
 3060TIP3    H1 9119   5.865   3.227   2.328
 3060TIP3    H2 9120   5.958   3.291   2.428
 3061TIP3   OH2 9121   6.207   3.132   2.411
 3061TIP3    H1 9122   6.114   3.152   2.406
 3061TIP3    H2 9123   6.251   3.212   2.384
 3062TIP3   OH2 9124   6.380   3.329   2.315
 3062TIP3    H1 9125   6.392   3.424   2.323
 3062TIP3    H2 9126   6.371   3.314   2.221
 3063TIP3   OH2 9127   5.201   2.990   2.466
 3063TIP3    H1 9128   5.224   2.965   2.556
 3063TIP3    H2 9129   5.273   2.957   2.412
 3064TIP3   OH2 9130   5.403   2.871   2.328
 3064TIP3    H1 9131   5.414   2.787   2.373
 3064TIP3    H2 9132   5.489   2.911   2.330
 3065TIP3   OH2 9133   5.671   2.959   2.346
 3065TIP3    H1 9134   5.690   2.865   2.335
 3065TIP3    H2 9135   5.721   2.984   2.424
 3066TIP3   OH2 9136   6.230   1.609   2.424
 3066TIP3    H1 9137   6.194   1.536   2.475
 3066TIP3    H2 9138   6.302   1.571   2.374
 3067TIP3   OH2 9139   6.741   1.517   2.326
 3067TIP3    H1 9140   6.779   1.567   2.253
 3067TIP3    H2 9141   6.648   1.542   2.325
 3068TIP3   OH2 9142   6.849   1.605   2.091
 3068TIP3    H1 9143   6.920   1.548   2.062
 3068TIP3    H2 9144   6.883   1.694   2.076
 3069TIP3   OH2 9145   5.483   1.307   2.430
 3069TIP3    H1 9146   5.396   1.269   2.441
 3069TIP3    H2 9147   5.542   1.232   2.429
 3070TIP3   OH2 9148   5.939   1.357   2.325
 3070TIP3    H1 9149   5.991   1.399   2.256
 3070TIP3    H2 9150   5.984   1.380   2.406
 3071TIP3   OH2 9151   6.453   1.499   2.302
 3071TIP3    H1 9152   6.470   1.464   2.215
 3071TIP3    H2 9153   6.454   1.422   2.359
 3072TIP3   OH2 9154   6.502   1.437   1.872
 3072TIP3    H1 9155   6.420   1.484   1.892
 3072TIP3    H2 9156   6.491   1.351   1.913
 3073TIP3   OH2 9157   4.973   2.783   1.854
 3073TIP3    H1 9158   4.889   2.750   1.822
 3073TIP3    H2 9159   4.977   2.873   1.822
 3074TIP3   OH2 9160   5.405   1.366   1.828
 3074TIP3    H1 9161   5.448   1.297   1.778
 3074TIP3    H2 9162   5.477   1.411   1.873
 3075TIP3   OH2 9163   5.894   1.541   1.948
 3075TIP3    H1 9164   5.955   1.490   2.000
 3075TIP3    H2 9165   5.910   1.632   1.973
 3076TIP3   OH2 9166   5.768   2.939   1.441
 3076TIP3    H1 9167   5.851   2.969   1.404
 3076TIP3    H2 9168   5.739   2.869   1.382
 3077TIP3   OH2 9169   6.470   3.069   1.553
 3077TIP3    H1 9170   6.465   2.975   1.534
 3077TIP3    H2 9171   6.430   3.111   1.476
 3078TIP3   OH2 9172   5.696   1.593   3.316
 3078TIP3    H1 9173   5.660   1.527   3.375
 3078TIP3    H2 9174   5.789   1.600   3.340
 3079TIP3   OH2 9175   5.946   1.598   3.437
 3079TIP3    H1 9176   6.027   1.577   3.390
 3079TIP3    H2 9177   5.938   1.531   3.504
 3080TIP3   OH2 9178   5.065   2.779   1.501
 3080TIP3    H1 9179   5.072   2.806   1.592
 3080TIP3    H2 9180   5.149   2.737   1.482
 3081TIP3   OH2 9181   6.772   1.681   3.229
 3081TIP3    H1 9182   6.787   1.651   3.318
 3081TIP3    H2 9183   6.857   1.676   3.187
 3082TIP3   OH2 9184   6.693   3.218   2.721
 3082TIP3    H1 9185   6.615   3.193   2.672
 3082TIP3    H2 9186   6.684   3.313   2.733
 3083TIP3   OH2 9187   7.255   2.470   2.257
 3083TIP3    H1 9188   7.287   2.408   2.323
 3083TIP3    H2 9189   7.333   2.516   2.227
 3084TIP3   OH2 9190   7.247   2.890   1.941
 3084TIP3    H1 9191   7.235   2.796   1.953
 3084TIP3    H2 9192   7.342   2.900   1.928
 3085TIP3   OH2 9193   6.942   2.115   1.724
 3085TIP3    H1 9194   6.896   2.197   1.743
 3085TIP3    H2 9195   6.873   2.053   1.701
 3086TIP3   OH2 9196   7.008   2.391   1.931
 3086TIP3    H1 9197   7.055   2.313   1.959
 3086TIP3    H2 9198   7.075   2.448   1.894
 3087TIP3   OH2 9199   7.871   3.332   1.558
 3087TIP3    H1 9200   7.934   3.259   1.559
 3087TIP3    H2 9201   7.827   3.326   1.643
 3088TIP3   OH2 9202   7.747   2.824   1.902
 3088TIP3    H1 9203   7.774   2.767   1.831
 3088TIP3    H2 9204   7.826   2.871   1.928
 3089TIP3   OH2 9205   7.490   1.951   1.928
 3089TIP3    H1 9206   7.497   2.029   1.873
 3089TIP3    H2 9207   7.459   1.882   1.870
 3090TIP3   OH2 9208   7.152   2.176   2.025
 3090TIP3    H1 9209   7.232   2.157   2.073
 3090TIP3    H2 9210   7.155   2.119   1.948
 3091TIP3   OH2 9211   7.585   2.395   1.836
 3091TIP3    H1 9212   7.671   2.371   1.800
 3091TIP3    H2 9213   7.534   2.314   1.831
 3092TIP3   OH2 9214   7.514   1.969   2.365
 3092TIP3    H1 9215   7.463   2.000   2.290
 3092TIP3    H2 9216   7.458   1.986   2.441
 3093TIP3   OH2 9217   7.619   2.741   2.138
 3093TIP3    H1 9218   7.561   2.809   2.172
 3093TIP3    H2 9219   7.660   2.780   2.062
 3094TIP3   OH2 9220   7.382   2.073   2.143
 3094TIP3    H1 9221   7.443   2.146   2.157
 3094TIP3    H2 9222   7.423   2.022   2.072
 3095TIP3   OH2 9223   7.453   2.941   2.229
 3095TIP3    H1 9224   7.438   3.029   2.196
 3095TIP3    H2 9225   7.375   2.921   2.281
 3096TIP3   OH2 9226   6.822   2.644   1.482
 3096TIP3    H1 9227   6.784   2.661   1.396
 3096TIP3    H2 9228   6.865   2.727   1.505
 3097TIP3   OH2 9229   7.374   2.529   1.706
 3097TIP3    H1 9230   7.325   2.470   1.649
 3097TIP3    H2 9231   7.447   2.475   1.739
 3098TIP3   OH2 9232   7.501   2.942   1.836
 3098TIP3    H1 9233   7.482   2.922   1.744
 3098TIP3    H2 9234   7.585   2.900   1.852
 3099TIP3   OH2 9235   7.485   2.513   2.067
 3099TIP3    H1 9236   7.525   2.481   1.986
 3099TIP3    H2 9237   7.535   2.592   2.088
 3100TIP3   OH2 9238   7.645   3.035   2.405
 3100TIP3    H1 9239   7.588   3.100   2.446
 3100TIP3    H2 9240   7.588   2.987   2.346
 3101TIP3   OH2 9241   7.401   2.622   2.503
 3101TIP3    H1 9242   7.402   2.711   2.538
 3101TIP3    H2 9243   7.310   2.593   2.511
 3102TIP3   OH2 9244   7.738   3.136   1.398
 3102TIP3    H1 9245   7.763   3.219   1.439
 3102TIP3    H2 9246   7.675   3.160   1.330
 3103TIP3   OH2 9247   7.445   3.209   2.474
 3103TIP3    H1 9248   7.416   3.216   2.383
 3103TIP3    H2 9249   7.365   3.192   2.524
 3104TIP3   OH2 9250   7.220   2.372   1.534
 3104TIP3    H1 9251   7.138   2.397   1.492
 3104TIP3    H2 9252   7.210   2.278   1.551
 3105TIP3   OH2 9253   7.031   2.752   2.425
 3105TIP3    H1 9254   6.967   2.721   2.361
 3105TIP3    H2 9255   7.072   2.672   2.458
 3106TIP3   OH2 9256   7.818   3.173   2.239
 3106TIP3    H1 9257   7.834   3.262   2.271
 3106TIP3    H2 9258   7.760   3.134   2.305
 3107TIP3   OH2 9259   7.610   3.304   1.207
 3107TIP3    H1 9260   7.573   3.294   1.120
 3107TIP3    H2 9261   7.583   3.391   1.236
 3108TIP3   OH2 9262   7.036   3.146   1.586
 3108TIP3    H1 9263   7.086   3.141   1.667
 3108TIP3    H2 9264   7.001   3.057   1.574
 3109TIP3   OH2 9265   7.848   3.237   1.081
 3109TIP3    H1 9266   7.774   3.264   1.135
 3109TIP3    H2 9267   7.894   3.172   1.135
 3110TIP3   OH2 9268   7.236   2.937   2.396
 3110TIP3    H1 9269   7.282   2.931   2.480
 3110TIP3    H2 9270   7.163   2.876   2.404
 3111TIP3   OH2 9271   7.605   1.740   2.237
 3111TIP3    H1 9272   7.522   1.722   2.194
 3111TIP3    H2 9273   7.591   1.825   2.280
 3112TIP3   OH2 9274   7.546   2.284   2.205
 3112TIP3    H1 9275   7.500   2.290   2.289
 3112TIP3    H2 9276   7.523   2.364   2.159
 3113TIP3   OH2 9277   7.422   2.183   1.792
 3113TIP3    H1 9278   7.338   2.140   1.808
 3113TIP3    H2 9279   7.435   2.174   1.697
 3114TIP3   OH2 9280   7.378   2.287   2.430
 3114TIP3    H1 9281   7.447   2.331   2.480
 3114TIP3    H2 9282   7.361   2.206   2.479
 3115TIP3   OH2 9283   7.480   1.674   1.236
 3115TIP3    H1 9284   7.477   1.737   1.308
 3115TIP3    H2 9285   7.458   1.726   1.159
 3116TIP3   OH2 9286   6.975   1.829   2.008
 3116TIP3    H1 9287   7.048   1.859   2.063
 3116TIP3    H2 9288   7.017   1.791   1.931
 3117TIP3   OH2 9289   6.951   1.857   1.569
 3117TIP3    H1 9290   7.002   1.925   1.525
 3117TIP3    H2 9291   6.863   1.893   1.575
 3118TIP3   OH2 9292   7.194   2.029   1.798
 3118TIP3    H1 9293   7.108   2.044   1.760
 3118TIP3    H2 9294   7.220   1.943   1.765
 3119TIP3   OH2 9295   7.441   2.140   1.532
 3119TIP3    H1 9296   7.518   2.090   1.508
 3119TIP3    H2 9297   7.395   2.155   1.450
 3120TIP3   OH2 9298   7.328   2.165   1.294
 3120TIP3    H1 9299   7.234   2.174   1.281
 3120TIP3    H2 9300   7.367   2.200   1.214
 3121TIP3   OH2 9301   7.390   2.869   2.631
 3121TIP3    H1 9302   7.472   2.888   2.676
 3121TIP3    H2 9303   7.323   2.873   2.699
 3122TIP3   OH2 9304   7.354   1.779   1.748
 3122TIP3    H1 9305   7.312   1.727   1.816
 3122TIP3    H2 9306   7.400   1.715   1.694
 3123TIP3   OH2 9307   7.814   2.213   2.207
 3123TIP3    H1 9308   7.720   2.226   2.194
 3123TIP3    H2 9309   7.845   2.298   2.239
 3124TIP3   OH2 9310   7.540   2.661   1.272
 3124TIP3    H1 9311   7.481   2.586   1.280
 3124TIP3    H2 9312   7.561   2.684   1.363
 3125TIP3   OH2 9313   7.936   2.905   2.297
 3125TIP3    H1 9314   7.997   2.935   2.365
 3125TIP3    H2 9315   7.899   2.986   2.261
 3126TIP3   OH2 9316   7.249   2.606   1.939
 3126TIP3    H1 9317   7.286   2.590   1.853
 3126TIP3    H2 9318   7.312   2.568   2.000
 3127TIP3   OH2 9319   7.687   2.772   1.060
 3127TIP3    H1 9320   7.662   2.863   1.074
 3127TIP3    H2 9321   7.650   2.725   1.135
 3128TIP3   OH2 9322   7.139   2.541   2.565
 3128TIP3    H1 9323   7.158   2.521   2.656
 3128TIP3    H2 9324   7.072   2.477   2.540
 3129TIP3   OH2 9325   7.875   2.657   2.568
 3129TIP3    H1 9326   7.808   2.627   2.507
 3129TIP3    H2 9327   7.957   2.626   2.530
 3130TIP3   OH2 9328   7.370   2.936   1.583
 3130TIP3    H1 9329   7.368   3.013   1.525
 3130TIP3    H2 9330   7.279   2.926   1.612
 3131TIP3   OH2 9331   6.843   2.275   1.293
 3131TIP3    H1 9332   6.905   2.343   1.321
 3131TIP3    H2 9333   6.782   2.267   1.367
 3132TIP3   OH2 9334   7.515   2.706   1.544
 3132TIP3    H1 9335   7.469   2.789   1.550
 3132TIP3    H2 9336   7.466   2.647   1.601
 3133TIP3   OH2 9337   7.650   3.264   2.034
 3133TIP3    H1 9338   7.693   3.337   1.991
 3133TIP3    H2 9339   7.716   3.228   2.093
 3134TIP3   OH2 9340   7.278   3.164   1.439
 3134TIP3    H1 9341   7.191   3.174   1.478
 3134TIP3    H2 9342   7.314   3.253   1.439
 3135TIP3   OH2 9343   7.341   2.041   2.569
 3135TIP3    H1 9344   7.245   2.045   2.575
 3135TIP3    H2 9345   7.366   1.981   2.639
 3136TIP3   OH2 9346   7.063   3.154   2.205
 3136TIP3    H1 9347   7.122   3.091   2.247
 3136TIP3    H2 9348   7.092   3.239   2.238
 3137TIP3   OH2 9349   7.374   2.830   0.911
 3137TIP3    H1 9350   7.439   2.770   0.875
 3137TIP3    H2 9351   7.372   2.811   1.005
 3138TIP3   OH2 9352   7.310   2.781   1.175
 3138TIP3    H1 9353   7.391   2.753   1.218
 3138TIP3    H2 9354   7.309   2.876   1.187
 3139TIP3   OH2 9355   7.012   2.475   1.381
 3139TIP3    H1 9356   6.952   2.530   1.430
 3139TIP3    H2 9357   7.043   2.531   1.309
 3140TIP3   OH2 9358   7.577   3.013   1.109
 3140TIP3    H1 9359   7.491   3.027   1.148
 3140TIP3    H2 9360   7.597   3.096   1.065
 3141TIP3   OH2 9361   7.317   3.054   1.189
 3141TIP3    H1 9362   7.289   3.118   1.124
 3141TIP3    H2 9363   7.301   3.097   1.273
 3142TIP3   OH2 9364   7.413   1.822   1.458
 3142TIP3    H1 9365   7.370   1.840   1.542
 3142TIP3    H2 9366   7.490   1.879   1.459
 3143TIP3   OH2 9367   7.016   2.726   1.201
 3143TIP3    H1 9368   7.077   2.799   1.210
 3143TIP3    H2 9369   7.062   2.663   1.145
 3144TIP3   OH2 9370   7.069   2.018   1.384
 3144TIP3    H1 9371   7.072   2.101   1.337
 3144TIP3    H2 9372   7.016   1.961   1.328
 3145TIP3   OH2 9373   7.340   1.674   2.172
 3145TIP3    H1 9374   7.318   1.644   2.083
 3145TIP3    H2 9375   7.340   1.594   2.225
 3146TIP3   OH2 9376   6.884   2.912   1.541
 3146TIP3    H1 9377   6.803   2.902   1.592
 3146TIP3    H2 9378   6.857   2.955   1.460
 3147TIP3   OH2 9379   7.072   3.452   2.618
 3147TIP3    H1 9380   7.151   3.459   2.672
 3147TIP3    H2 9381   7.054   3.358   2.615
 3148TIP3   OH2 9382   7.523   3.408   2.653
 3148TIP3    H1 9383   7.590   3.371   2.712
 3148TIP3    H2 9384   7.513   3.342   2.584
 3149TIP3   OH2 9385   7.542   3.018   0.801
 3149TIP3    H1 9386   7.484   2.960   0.851
 3149TIP3    H2 9387   7.603   2.958   0.758
 3150TIP3   OH2 9388   7.188   2.847   2.820
 3150TIP3    H1 9389   7.209   2.754   2.825
 3150TIP3    H2 9390   7.101   2.850   2.779
 3151TIP3   OH2 9391   7.169   2.528   1.099
 3151TIP3    H1 9392   7.238   2.545   1.163
 3151TIP3    H2 9393   7.199   2.572   1.019
 3152TIP3   OH2 9394   7.817   2.931   2.590
 3152TIP3    H1 9395   7.765   2.954   2.513
 3152TIP3    H2 9396   7.841   2.840   2.577
 3153TIP3   OH2 9397   7.846   2.684   0.844
 3153TIP3    H1 9398   7.810   2.739   0.913
 3153TIP3    H2 9399   7.854   2.597   0.883
 3154TIP3   OH2 9400   7.309   2.590   2.814
 3154TIP3    H1 9401   7.388   2.555   2.772
 3154TIP3    H2 9402   7.338   2.615   2.902
 3155TIP3   OH2 9403   7.358   2.463   1.312
 3155TIP3    H1 9404   7.316   2.442   1.395
 3155TIP3    H2 9405   7.335   2.389   1.255
 3156TIP3   OH2 9406   7.606   2.446   2.471
 3156TIP3    H1 9407   7.539   2.513   2.486
 3156TIP3    H2 9408   7.663   2.485   2.405
 3157TIP3   OH2 9409   7.620   2.219   1.059
 3157TIP3    H1 9410   7.534   2.199   1.023
 3157TIP3    H2 9411   7.660   2.134   1.075
 3158TIP3   OH2 9412   7.756   2.261   2.616
 3158TIP3    H1 9413   7.772   2.183   2.564
 3158TIP3    H2 9414   7.709   2.320   2.557
 3159TIP3   OH2 9415   7.769   2.057   2.433
 3159TIP3    H1 9416   7.803   2.085   2.348
 3159TIP3    H2 9417   7.688   2.011   2.412
 3160TIP3   OH2 9418   7.776   2.586   2.304
 3160TIP3    H1 9419   7.861   2.606   2.265
 3160TIP3    H2 9420   7.714   2.641   2.256
 3161TIP3   OH2 9421   7.623   2.361   2.833
 3161TIP3    H1 9422   7.565   2.287   2.851
 3161TIP3    H2 9423   7.671   2.336   2.754
 3162TIP3   OH2 9424   7.481   2.128   2.889
 3162TIP3    H1 9425   7.485   2.041   2.850
 3162TIP3    H2 9426   7.518   2.117   2.977
 3163TIP3   OH2 9427   7.299   3.253   0.995
 3163TIP3    H1 9428   7.393   3.257   0.975
 3163TIP3    H2 9429   7.258   3.306   0.927
 3164TIP3   OH2 9430   6.753   2.669   1.210
 3164TIP3    H1 9431   6.845   2.691   1.201
 3164TIP3    H2 9432   6.744   2.584   1.167
 3165TIP3   OH2 9433   6.683   3.229   1.628
 3165TIP3    H1 9434   6.617   3.177   1.583
 3165TIP3    H2 9435   6.759   3.172   1.634
 3166TIP3   OH2 9436   6.996   2.501   2.183
 3166TIP3    H1 9437   6.990   2.462   2.095
 3166TIP3    H2 9438   7.089   2.498   2.204
 3167TIP3   OH2 9439   7.216   2.180   2.835
 3167TIP3    H1 9440   7.311   2.178   2.846
 3167TIP3    H2 9441   7.186   2.098   2.875
 3168TIP3   OH2 9442   7.175   1.892   2.195
 3168TIP3    H1 9443   7.229   1.813   2.196
 3168TIP3    H2 9444   7.237   1.963   2.184
 3169TIP3   OH2 9445   6.976   2.162   2.243
 3169TIP3    H1 9446   7.024   2.151   2.161
 3169TIP3    H2 9447   7.028   2.225   2.293
 3170TIP3   OH2 9448   6.965   1.663   1.760
 3170TIP3    H1 9449   6.874   1.643   1.782
 3170TIP3    H2 9450   6.960   1.731   1.693
 3171TIP3   OH2 9451   7.187   1.733   2.569
 3171TIP3    H1 9452   7.136   1.727   2.650
 3171TIP3    H2 9453   7.129   1.776   2.507
 3172TIP3   OH2 9454   7.225   3.170   2.641
 3172TIP3    H1 9455   7.131   3.154   2.630
 3172TIP3    H2 9456   7.239   3.167   2.735
 3173TIP3   OH2 9457   7.423   3.215   2.187
 3173TIP3    H1 9458   7.368   3.286   2.154
 3173TIP3    H2 9459   7.507   3.227   2.143
 3174TIP3   OH2 9460   7.849   3.442   2.324
 3174TIP3    H1 9461   7.888   3.427   2.410
 3174TIP3    H2 9462   7.914   3.493   2.276
 3175TIP3   OH2 9463   8.031   3.595   2.187
 3175TIP3    H1 9464   8.043   3.567   2.096
 3175TIP3    H2 9465   8.086   3.673   2.195
 3176TIP3   OH2 9466   7.087   3.461   2.237
 3176TIP3    H1 9467   6.998   3.482   2.210
 3176TIP3    H2 9468   7.110   3.529   2.301
 3177TIP3   OH2 9469   7.311   3.442   2.078
 3177TIP3    H1 9470   7.229   3.451   2.128
 3177TIP3    H2 9471   7.289   3.473   1.990
 3178TIP3   OH2 9472   7.748   3.477   1.871
 3178TIP3    H1 9473   7.668   3.485   1.820
 3178TIP3    H2 9474   7.754   3.559   1.920
 3179TIP3   OH2 9475   8.025   3.495   1.932
 3179TIP3    H1 9476   7.934   3.474   1.910
 3179TIP3    H2 9477   8.066   3.513   1.848
 3180TIP3   OH2 9478   6.983   3.244   1.950
 3180TIP3    H1 9479   6.995   3.216   2.040
 3180TIP3    H2 9480   7.054   3.201   1.902
 3181TIP3   OH2 9481   7.191   3.124   1.812
 3181TIP3    H1 9482   7.203   3.044   1.862
 3181TIP3    H2 9483   7.275   3.169   1.818
 3182TIP3   OH2 9484   7.459   3.216   1.835
 3182TIP3    H1 9485   7.475   3.122   1.825
 3182TIP3    H2 9486   7.513   3.241   1.911
 3183TIP3   OH2 9487   7.261   1.586   1.921
 3183TIP3    H1 9488   7.173   1.550   1.928
 3183TIP3    H2 9489   7.319   1.510   1.916
 3184TIP3   OH2 9490   7.104   1.468   1.610
 3184TIP3    H1 9491   7.138   1.517   1.535
 3184TIP3    H2 9492   7.055   1.533   1.660
 3185TIP3   OH2 9493   6.763   3.045   1.340
 3185TIP3    H1 9494   6.683   3.009   1.301
 3185TIP3    H2 9495   6.770   3.134   1.306
 3186TIP3   OH2 9496   7.265   1.569   1.383
 3186TIP3    H1 9497   7.277   1.499   1.318
 3186TIP3    H2 9498   7.328   1.637   1.356
 3187TIP3   OH2 9499   7.571   3.247   0.939
 3187TIP3    H1 9500   7.655   3.284   0.916
 3187TIP3    H2 9501   7.560   3.172   0.881
 3188TIP3   OH2 9502   7.473   1.852   2.802
 3188TIP3    H1 9503   7.435   1.781   2.853
 3188TIP3    H2 9504   7.564   1.857   2.832
 3189TIP3   OH2 9505   7.713   1.857   2.941
 3189TIP3    H1 9506   7.794   1.833   2.896
 3189TIP3    H2 9507   7.700   1.788   3.007
 3190TIP3   OH2 9508   6.850   3.055   1.011
 3190TIP3    H1 9509   6.848   3.100   1.095
 3190TIP3    H2 9510   6.938   3.017   1.006
 3191TIP3   OH2 9511   0.423   3.395   3.171
 3191TIP3    H1 9512   0.391   3.482   3.147
 3191TIP3    H2 9513   0.354   3.335   3.143
 3192TIP3   OH2 9514   0.433   3.366   3.574
 3192TIP3    H1 9515   0.478   3.353   3.658
 3192TIP3    H2 9516   0.391   3.282   3.556
 3193TIP3   OH2 9517   8.245   3.299   3.860
 3193TIP3    H1 9518   8.224   3.236   3.929
 3193TIP3    H2 9519   8.337   3.320   3.874
 3194TIP3   OH2 9520   0.681   3.689   3.257
 3194TIP3    H1 9521   0.668   3.625   3.326
 3194TIP3    H2 9522   0.705   3.769   3.304
 3195TIP3   OH2 9523   8.160   3.684   3.588
 3195TIP3    H1 9524   8.155   3.589   3.595
 3195TIP3    H2 9525   8.242   3.707   3.630
 3196TIP3   OH2 9526   7.991   3.157   3.617
 3196TIP3    H1 9527   8.037   3.081   3.653
 3196TIP3    H2 9528   7.991   3.142   3.522
 3197TIP3   OH2 9529   0.331   4.127   3.269
 3197TIP3    H1 9530   0.360   4.063   3.204
 3197TIP3    H2 9531   0.343   4.083   3.353
 3198TIP3   OH2 9532   0.272   3.589   3.600
 3198TIP3    H1 9533   0.309   3.508   3.567
 3198TIP3    H2 9534   0.348   3.639   3.630
 3199TIP3   OH2 9535   1.251   2.930   3.607
 3199TIP3    H1 9536   1.271   3.012   3.652
 3199TIP3    H2 9537   1.269   2.947   3.515
 3200TIP3   OH2 9538   0.643   3.099   3.631
 3200TIP3    H1 9539   0.676   3.013   3.655
 3200TIP3    H2 9540   0.602   3.086   3.545
 3201TIP3   OH2 9541   8.493   2.758   3.577
 3201TIP3    H1 9542   8.478   2.831   3.518
 3201TIP3    H2 9543   8.439   2.687   3.543
 3202TIP3   OH2 9544   0.684   2.856   3.222
 3202TIP3    H1 9545   0.748   2.847   3.292
 3202TIP3    H2 9546   0.733   2.892   3.148
 3203TIP3   OH2 9547   8.133   2.947   3.720
 3203TIP3    H1 9548   8.184   2.912   3.794
 3203TIP3    H2 9549   8.196   3.000   3.671
 3204TIP3   OH2 9550   0.086   3.183   3.468
 3204TIP3    H1 9551   0.173   3.156   3.497
 3204TIP3    H2 9552   0.042   3.100   3.447
 3205TIP3   OH2 9553   1.314   3.145   3.778
 3205TIP3    H1 9554   1.228   3.186   3.768
 3205TIP3    H2 9555   1.350   3.184   3.857
 3206TIP3   OH2 9556   8.524   2.747   4.016
 3206TIP3    H1 9557   8.469   2.790   3.950
 3206TIP3    H2 9558   8.482   2.767   4.099
 3207TIP3   OH2 9559   0.317   3.613   3.033
 3207TIP3    H1 9560   0.283   3.582   2.949
 3207TIP3    H2 9561   0.260   3.687   3.057
 3208TIP3   OH2 9562   0.104   3.537   3.808
 3208TIP3    H1 9563   0.068   3.618   3.843
 3208TIP3    H2 9564   0.157   3.564   3.734
 3209TIP3   OH2 9565   0.854   2.870   3.436
 3209TIP3    H1 9566   0.811   2.849   3.519
 3209TIP3    H2 9567   0.908   2.947   3.456
 3210TIP3   OH2 9568   8.393   2.861   3.808
 3210TIP3    H1 9569   8.437   2.945   3.823
 3210TIP3    H2 9570   8.434   2.826   3.729
 3211TIP3   OH2 9571   8.445   3.731   3.928
 3211TIP3    H1 9572   8.421   3.756   3.839
 3211TIP3    H2 9573   8.372   3.678   3.959
 3212TIP3   OH2 9574   0.726   3.934   3.401
 3212TIP3    H1 9575   0.638   3.925   3.436
 3212TIP3    H2 9576   0.725   4.018   3.354
 3213TIP3   OH2 9577   1.045   2.817   3.771
 3213TIP3    H1 9578   0.958   2.842   3.739
 3213TIP3    H2 9579   1.105   2.848   3.703
 3214TIP3   OH2 9580   0.326   2.446   3.756
 3214TIP3    H1 9581   0.317   2.352   3.776
 3214TIP3    H2 9582   0.248   2.486   3.795
 3215TIP3   OH2 9583   0.428   3.970   3.061
 3215TIP3    H1 9584   0.478   3.890   3.049
 3215TIP3    H2 9585   0.485   4.040   3.031
 3216TIP3   OH2 9586   0.573   3.745   3.007
 3216TIP3    H1 9587   0.505   3.679   2.999
 3216TIP3    H2 9588   0.621   3.722   3.087
 3217TIP3   OH2 9589   0.961   3.832   3.746
 3217TIP3    H1 9590   0.946   3.757   3.688
 3217TIP3    H2 9591   0.943   3.908   3.692
 3218TIP3   OH2 9592   0.259   3.232   3.016
 3218TIP3    H1 9593   0.180   3.283   3.000
 3218TIP3    H2 9594   0.305   3.232   2.932
 3219TIP3   OH2 9595   0.223   3.042   2.725
 3219TIP3    H1 9596   0.292   3.091   2.770
 3219TIP3    H2 9597   0.268   2.969   2.683
 3220TIP3   OH2 9598   1.147   3.485   3.606
 3220TIP3    H1 9599   1.063   3.531   3.608
 3220TIP3    H2 9600   1.182   3.503   3.519
 3221TIP3   OH2 9601   0.607   3.326   2.981
 3221TIP3    H1 9602   0.552   3.354   3.054
 3221TIP3    H2 9603   0.690   3.299   3.022
 3222TIP3   OH2 9604   0.834   3.352   3.911
 3222TIP3    H1 9605   0.832   3.435   3.960
 3222TIP3    H2 9606   0.751   3.349   3.864
 3223TIP3   OH2 9607   8.346   3.299   3.399
 3223TIP3    H1 9608   8.313   3.254   3.321
 3223TIP3    H2 9609   8.436   3.266   3.410
 3224TIP3   OH2 9610   0.095   3.779   3.512
 3224TIP3    H1 9611   0.032   3.722   3.468
 3224TIP3    H2 9612   0.169   3.723   3.532
 3225TIP3   OH2 9613  -0.002   3.297   3.702
 3225TIP3    H1 9614   0.043   3.283   3.618
 3225TIP3    H2 9615   0.033   3.380   3.734
 3226TIP3   OH2 9616   0.485   3.918   3.526
 3226TIP3    H1 9617   0.483   3.999   3.576
 3226TIP3    H2 9618   0.482   3.849   3.592
 3227TIP3   OH2 9619   0.128   3.837   4.097
 3227TIP3    H1 9620   0.100   3.928   4.098
 3227TIP3    H2 9621   0.061   3.791   4.046
 3228TIP3   OH2 9622   0.446   3.183   2.812
 3228TIP3    H1 9623   0.503   3.243   2.860
 3228TIP3    H2 9624   0.471   3.196   2.720
 3229TIP3   OH2 9625   8.324   3.389   4.197
 3229TIP3    H1 9626   8.369   3.465   4.235
 3229TIP3    H2 9627   8.232   3.414   4.194
 3230TIP3   OH2 9628   0.174   3.856   3.071
 3230TIP3    H1 9629   0.260   3.898   3.078
 3230TIP3    H2 9630   0.124   3.915   3.015
 3231TIP3   OH2 9631   8.363   4.120   4.194
 3231TIP3    H1 9632   8.393   4.101   4.105
 3231TIP3    H2 9633   8.323   4.039   4.224
 3232TIP3   OH2 9634   0.950   2.409   2.868
 3232TIP3    H1 9635   0.870   2.427   2.918
 3232TIP3    H2 9636   0.963   2.488   2.815
 3233TIP3   OH2 9637   8.242   3.157   3.184
 3233TIP3    H1 9638   8.157   3.199   3.171
 3233TIP3    H2 9639   8.221   3.064   3.199
 3234TIP3   OH2 9640   0.766   3.781   2.413
 3234TIP3    H1 9641   0.762   3.875   2.393
 3234TIP3    H2 9642   0.855   3.755   2.391
 3235TIP3   OH2 9643   1.194   4.192   3.810
 3235TIP3    H1 9644   1.198   4.097   3.822
 3235TIP3    H2 9645   1.114   4.219   3.855
 3236TIP3   OH2 9646   0.314   3.948   3.920
 3236TIP3    H1 9647   0.320   4.041   3.941
 3236TIP3    H2 9648   0.245   3.914   3.977
 3237TIP3   OH2 9649   0.067   4.063   2.900
 3237TIP3    H1 9650   0.011   4.062   2.822
 3237TIP3    H2 9651   0.067   4.154   2.928
 3238TIP3   OH2 9652   0.289   4.008   2.523
 3238TIP3    H1 9653   0.337   3.932   2.489
 3238TIP3    H2 9654   0.316   4.014   2.614
 3239TIP3   OH2 9655   0.325   4.047   2.795
 3239TIP3    H1 9656   0.236   4.039   2.830
 3239TIP3    H2 9657   0.381   4.012   2.864
 3240TIP3   OH2 9658   1.078   3.311   4.083
 3240TIP3    H1 9659   0.998   3.322   4.033
 3240TIP3    H2 9660   1.097   3.217   4.077
 3241TIP3   OH2 9661   0.092   2.527   3.871
 3241TIP3    H1 9662   0.005   2.496   3.847
 3241TIP3    H2 9663   0.076   2.608   3.919
 3242TIP3   OH2 9664   0.622   2.660   4.088
 3242TIP3    H1 9665   0.691   2.634   4.150
 3242TIP3    H2 9666   0.540   2.641   4.134
 3243TIP3   OH2 9667   0.843   3.088   4.002
 3243TIP3    H1 9668   0.800   3.083   4.087
 3243TIP3    H2 9669   0.823   3.176   3.970
 3244TIP3   OH2 9670   0.520   3.193   2.552
 3244TIP3    H1 9671   0.476   3.183   2.467
 3244TIP3    H2 9672   0.602   3.238   2.531
 3245TIP3   OH2 9673   0.227   2.629   2.857
 3245TIP3    H1 9674   0.201   2.613   2.947
 3245TIP3    H2 9675   0.165   2.578   2.805
 3246TIP3   OH2 9676   0.041   3.086   3.874
 3246TIP3    H1 9677   0.002   3.106   3.959
 3246TIP3    H2 9678   0.031   3.166   3.824
 3247TIP3   OH2 9679   8.444   2.961   3.399
 3247TIP3    H1 9680   8.352   2.945   3.420
 3247TIP3    H2 9681   8.456   2.921   3.313
 3248TIP3   OH2 9682   0.388   3.033   3.150
 3248TIP3    H1 9683   0.337   3.104   3.111
 3248TIP3    H2 9684   0.445   3.002   3.080
 3249TIP3   OH2 9685   0.579   3.291   4.223
 3249TIP3    H1 9686   0.550   3.224   4.286
 3249TIP3    H2 9687   0.671   3.306   4.246
 3250TIP3   OH2 9688   0.546   3.047   3.379
 3250TIP3    H1 9689   0.480   3.074   3.315
 3250TIP3    H2 9690   0.589   2.971   3.338
 3251TIP3   OH2 9691   8.394   3.084   4.105
 3251TIP3    H1 9692   8.379   3.150   4.172
 3251TIP3    H2 9693   8.418   3.005   4.153
 3252TIP3   OH2 9694   7.923   2.614   3.737
 3252TIP3    H1 9695   8.014   2.639   3.754
 3252TIP3    H2 9696   7.914   2.618   3.642
 3253TIP3   OH2 9697   0.577   3.296   3.804
 3253TIP3    H1 9698   0.605   3.229   3.743
 3253TIP3    H2 9699   0.534   3.248   3.875
 3254TIP3   OH2 9700   0.258   2.752   3.476
 3254TIP3    H1 9701   0.176   2.751   3.525
 3254TIP3    H2 9702   0.326   2.742   3.542
 3255TIP3   OH2 9703   8.208   2.834   3.407
 3255TIP3    H1 9704   8.114   2.839   3.428
 3255TIP3    H2 9705   8.230   2.742   3.420
 3256TIP3   OH2 9706   8.445   2.827   3.164
 3256TIP3    H1 9707   8.537   2.837   3.143
 3256TIP3    H2 9708   8.400   2.839   3.081
 3257TIP3   OH2 9709   0.713   2.834   3.680
 3257TIP3    H1 9710   0.692   2.851   3.772
 3257TIP3    H2 9711   0.645   2.774   3.650
 3258TIP3   OH2 9712   8.299   2.858   2.939
 3258TIP3    H1 9713   8.211   2.894   2.944
 3258TIP3    H2 9714   8.335   2.895   2.858
 3259TIP3   OH2 9715   0.904   4.538   3.900
 3259TIP3    H1 9716   0.897   4.558   3.807
 3259TIP3    H2 9717   0.982   4.585   3.929
 3260TIP3   OH2 9718   8.371   3.656   4.271
 3260TIP3    H1 9719   8.460   3.640   4.304
 3260TIP3    H2 9720   8.315   3.652   4.348
 3261TIP3   OH2 9721   0.326   3.102   3.577
 3261TIP3    H1 9722   0.388   3.048   3.528
 3261TIP3    H2 9723   0.321   3.062   3.663
 3262TIP3   OH2 9724   8.316   2.580   3.458
 3262TIP3    H1 9725   8.289   2.501   3.504
 3262TIP3    H2 9726   8.338   2.551   3.370
 3263TIP3   OH2 9727   0.302   3.010   3.841
 3263TIP3    H1 9728   0.213   3.041   3.856
 3263TIP3    H2 9729   0.356   3.066   3.896
 3264TIP3   OH2 9730   0.039   3.383   2.964
 3264TIP3    H1 9731  -0.029   3.319   2.941
 3264TIP3    H2 9732   0.007   3.424   3.045
 3265TIP3   OH2 9733   0.910   3.624   3.571
 3265TIP3    H1 9734   0.943   3.674   3.496
 3265TIP3    H2 9735   0.829   3.584   3.539
 3266TIP3   OH2 9736   0.489   2.701   2.845
 3266TIP3    H1 9737   0.394   2.687   2.846
 3266TIP3    H2 9738   0.499   2.794   2.866
 3267TIP3   OH2 9739   0.427   3.696   3.966
 3267TIP3    H1 9740   0.453   3.694   4.058
 3267TIP3    H2 9741   0.390   3.784   3.953
 3268TIP3   OH2 9742   0.550   2.955   2.933
 3268TIP3    H1 9743   0.645   2.963   2.945
 3268TIP3    H2 9744   0.526   3.034   2.883
 3269TIP3   OH2 9745   8.206   3.422   3.615
 3269TIP3    H1 9746   8.258   3.381   3.546
 3269TIP3    H2 9747   8.224   3.369   3.693
 3270TIP3   OH2 9748   0.195   3.526   2.789
 3270TIP3    H1 9749   0.168   3.617   2.779
 3270TIP3    H2 9750   0.129   3.487   2.846
 3271TIP3   OH2 9751   0.361   3.452   4.260
 3271TIP3    H1 9752   0.291   3.391   4.234
 3271TIP3    H2 9753   0.442   3.408   4.232
 3272TIP3   OH2 9754   0.584   3.978   3.855
 3272TIP3    H1 9755   0.489   3.965   3.858
 3272TIP3    H2 9756   0.604   4.026   3.935
 3273TIP3   OH2 9757   0.967   3.041   2.758
 3273TIP3    H1 9758   0.911   2.994   2.695
 3273TIP3    H2 9759   0.970   3.131   2.725
 3274TIP3   OH2 9760   1.207   3.908   3.838
 3274TIP3    H1 9761   1.112   3.897   3.832
 3274TIP3    H2 9762   1.239   3.878   3.753
 3275TIP3   OH2 9763   0.696   3.854   2.681
 3275TIP3    H1 9764   0.662   3.789   2.742
 3275TIP3    H2 9765   0.707   3.806   2.599
 3276TIP3   OH2 9766   0.679   3.489   3.474
 3276TIP3    H1 9767   0.589   3.465   3.497
 3276TIP3    H2 9768   0.715   3.410   3.434
 3277TIP3   OH2 9769   8.306   3.726   3.168
 3277TIP3    H1 9770   8.332   3.814   3.144
 3277TIP3    H2 9771   8.210   3.727   3.162
 3278TIP3   OH2 9772   7.799   3.101   3.001
 3278TIP3    H1 9773   7.867   3.135   3.058
 3278TIP3    H2 9774   7.806   3.006   3.009
 3279TIP3   OH2 9775   8.430   3.475   3.195
 3279TIP3    H1 9776   8.420   3.568   3.217
 3279TIP3    H2 9777   8.413   3.430   3.278
 3280TIP3   OH2 9778   0.106   4.045   3.718
 3280TIP3    H1 9779   0.151   4.123   3.685
 3280TIP3    H2 9780   0.176   3.990   3.755
 3281TIP3   OH2 9781   8.262   3.974   3.077
 3281TIP3    H1 9782   8.174   3.971   3.115
 3281TIP3    H2 9783   8.301   4.055   3.113
 3282TIP3   OH2 9784   0.499   3.698   3.702
 3282TIP3    H1 9785   0.481   3.692   3.796
 3282TIP3    H2 9786   0.585   3.659   3.691
 3283TIP3   OH2 9787   0.452   3.587   2.577
 3283TIP3    H1 9788   0.507   3.564   2.651
 3283TIP3    H2 9789   0.364   3.557   2.601
 3284TIP3   OH2 9790   0.722   4.224   3.748
 3284TIP3    H1 9791   0.649   4.162   3.747
 3284TIP3    H2 9792   0.708   4.280   3.672
 3285TIP3   OH2 9793   0.774   4.055   2.370
 3285TIP3    H1 9794   0.781   4.112   2.294
 3285TIP3    H2 9795   0.707   4.095   2.425
 3286TIP3   OH2 9796   8.396   2.835   4.241
 3286TIP3    H1 9797   8.325   2.792   4.195
 3286TIP3    H2 9798   8.413   2.779   4.317
 3287TIP3   OH2 9799   0.625   3.510   2.773
 3287TIP3    H1 9800   0.610   3.456   2.850
 3287TIP3    H2 9801   0.721   3.517   2.766
 3288TIP3   OH2 9802   8.333   3.548   2.560
 3288TIP3    H1 9803   8.354   3.467   2.513
 3288TIP3    H2 9804   8.286   3.518   2.638
 3289TIP3   OH2 9805   8.184   3.584   2.818
 3289TIP3    H1 9806   8.253   3.533   2.860
 3289TIP3    H2 9807   8.214   3.675   2.825
 3290TIP3   OH2 9808   7.989   3.267   3.128
 3290TIP3    H1 9809   8.010   3.351   3.169
 3290TIP3    H2 9810   7.992   3.286   3.034
 3291TIP3   OH2 9811   0.651   2.892   3.941
 3291TIP3    H1 9812   0.729   2.936   3.976
 3291TIP3    H2 9813   0.641   2.814   3.997
 3292TIP3   OH2 9814   0.536   2.642   3.120
 3292TIP3    H1 9815   0.516   2.663   3.028
 3292TIP3    H2 9816   0.577   2.722   3.154
 3293TIP3   OH2 9817   0.119   3.784   2.761
 3293TIP3    H1 9818   0.054   3.760   2.827
 3293TIP3    H2 9819   0.083   3.861   2.718
 3294TIP3   OH2 9820   0.219   2.827   3.212
 3294TIP3    H1 9821   0.277   2.901   3.192
 3294TIP3    H2 9822   0.227   2.816   3.306
 3295TIP3   OH2 9823   0.492   3.130   4.005
 3295TIP3    H1 9824   0.518   3.177   4.084
 3295TIP3    H2 9825   0.543   3.049   4.008
 3296TIP3   OH2 9826   0.358   2.544   3.312
 3296TIP3    H1 9827   0.333   2.622   3.362
 3296TIP3    H2 9828   0.422   2.576   3.248
 3297TIP3   OH2 9829   8.251   3.849   2.835
 3297TIP3    H1 9830   8.247   3.909   2.761
 3297TIP3    H2 9831   8.246   3.905   2.913
 3298TIP3   OH2 9832   8.378   2.558   3.190
 3298TIP3    H1 9833   8.376   2.654   3.184
 3298TIP3    H2 9834   8.463   2.533   3.153
 3299TIP3   OH2 9835   1.109   3.041   3.996
 3299TIP3    H1 9836   1.013   3.044   4.003
 3299TIP3    H2 9837   1.125   3.000   3.911
 3300TIP3   OH2 9838   0.769   3.234   3.379
 3300TIP3    H1 9839   0.690   3.181   3.390
 3300TIP3    H2 9840   0.835   3.191   3.433
 3301TIP3   OH2 9841   7.930   3.581   2.923
 3301TIP3    H1 9842   8.015   3.593   2.881
 3301TIP3    H2 9843   7.867   3.623   2.864
 3302TIP3   OH2 9844   0.747   4.199   3.316
 3302TIP3    H1 9845   0.704   4.250   3.247
 3302TIP3    H2 9846   0.840   4.213   3.302
 3303TIP3   OH2 9847   8.329   2.451   3.846
 3303TIP3    H1 9848   8.303   2.413   3.762
 3303TIP3    H2 9849   8.330   2.377   3.907
 3304TIP3   OH2 9850   0.111   4.216   4.254
 3304TIP3    H1 9851   0.145   4.209   4.343
 3304TIP3    H2 9852   0.023   4.179   4.258
 3305TIP3   OH2 9853   8.483   3.763   2.478
 3305TIP3    H1 9854   8.442   3.688   2.522
 3305TIP3    H2 9855   8.559   3.725   2.434
 3306TIP3   OH2 9856   0.630   4.101   4.096
 3306TIP3    H1 9857   0.634   4.029   4.158
 3306TIP3    H2 9858   0.707   4.154   4.116
 3307TIP3   OH2 9859   0.412   3.796   2.400
 3307TIP3    H1 9860   0.444   3.729   2.461
 3307TIP3    H2 9861   0.472   3.790   2.325
 3308TIP3   OH2 9862   8.219   3.308   2.694
 3308TIP3    H1 9863   8.261   3.259   2.765
 3308TIP3    H2 9864   8.269   3.284   2.616
 3309TIP3   OH2 9865   0.331   3.724   4.240
 3309TIP3    H1 9866   0.262   3.739   4.176
 3309TIP3    H2 9867   0.344   3.629   4.239
 3310TIP3   OH2 9868   0.171   3.469   2.523
 3310TIP3    H1 9869   0.168   3.487   2.617
 3310TIP3    H2 9870   0.156   3.374   2.517
 3311TIP3   OH2 9871   0.742   3.752   3.892
 3311TIP3    H1 9872   0.820   3.784   3.848
 3311TIP3    H2 9873   0.677   3.821   3.881
 3312TIP3   OH2 9874   8.365   3.369   4.496
 3312TIP3    H1 9875   8.278   3.347   4.464
 3312TIP3    H2 9876   8.349   3.411   4.580
 3313TIP3   OH2 9877   8.354   3.190   2.919
 3313TIP3    H1 9878   8.322   3.169   3.007
 3313TIP3    H2 9879   8.375   3.106   2.880
 3314TIP3   OH2 9880   0.168   3.259   4.189
 3314TIP3    H1 9881   0.110   3.328   4.223
 3314TIP3    H2 9882   0.184   3.283   4.098
 3315TIP3   OH2 9883   8.450   2.983   2.740
 3315TIP3    H1 9884   8.449   2.943   2.653
 3315TIP3    H2 9885   8.541   3.006   2.756
 3316TIP3   OH2 9886   0.637   3.644   4.273
 3316TIP3    H1 9887   0.696   3.599   4.212
 3316TIP3    H2 9888   0.628   3.584   4.347
 3317TIP3   OH2 9889   0.748   3.303   2.434
 3317TIP3    H1 9890   0.731   3.260   2.350
 3317TIP3    H2 9891   0.719   3.393   2.422
 3318TIP3   OH2 9892   0.252   3.016   4.273
 3318TIP3    H1 9893   0.258   2.949   4.205
 3318TIP3    H2 9894   0.222   3.094   4.227
 3319TIP3   OH2 9895   0.274   2.836   4.063
 3319TIP3    H1 9896   0.302   2.879   3.982
 3319TIP3    H2 9897   0.186   2.804   4.043
 3320TIP3   OH2 9898   0.274   3.367   3.954
 3320TIP3    H1 9899   0.356   3.406   3.924
 3320TIP3    H2 9900   0.206   3.414   3.904
 3321TIP3   OH2 9901   0.839   3.327   4.327
 3321TIP3    H1 9902   0.886   3.243   4.332
 3321TIP3    H2 9903   0.906   3.390   4.301
 3322TIP3   OH2 9904   0.863   3.587   4.069
 3322TIP3    H1 9905   0.808   3.645   4.017
 3322TIP3    H2 9906   0.952   3.603   4.037
 3323TIP3   OH2 9907   0.132   3.139   4.507
 3323TIP3    H1 9908   0.090   3.053   4.506
 3323TIP3    H2 9909   0.150   3.159   4.415
 3324TIP3   OH2 9910   0.366   2.600   4.176
 3324TIP3    H1 9911   0.330   2.681   4.139
 3324TIP3    H2 9912   0.300   2.533   4.157
 3325TIP3   OH2 9913   0.494   3.082   4.382
 3325TIP3    H1 9914   0.482   3.073   4.476
 3325TIP3    H2 9915   0.412   3.053   4.343
 3326TIP3   OH2 9916   0.728   3.031   4.238
 3326TIP3    H1 9917   0.651   3.035   4.295
 3326TIP3    H2 9918   0.800   3.009   4.297
 3327TIP3   OH2 9919   0.960   2.996   4.391
 3327TIP3    H1 9920   0.972   2.902   4.400
 3327TIP3    H2 9921   0.953   3.029   4.481
 3328TIP3   OH2 9922   0.009   2.898   4.562
 3328TIP3    H1 9923   0.005   2.817   4.512
 3328TIP3    H2 9924   0.034   2.871   4.650
 3329TIP3   OH2 9925   0.432   2.588   4.442
 3329TIP3    H1 9926   0.500   2.520   4.434
 3329TIP3    H2 9927   0.399   2.599   4.353
 3330TIP3   OH2 9928   0.511   2.793   4.610
 3330TIP3    H1 9929   0.489   2.725   4.546
 3330TIP3    H2 9930   0.444   2.860   4.598
 3331TIP3   OH2 9931   8.255   4.038   2.640
 3331TIP3    H1 9932   8.347   4.040   2.615
 3331TIP3    H2 9933   8.212   4.099   2.580
 3332TIP3   OH2 9934   1.015   4.261   3.303
 3332TIP3    H1 9935   1.029   4.295   3.392
 3332TIP3    H2 9936   1.056   4.326   3.246
 3333TIP3   OH2 9937   1.025   4.296   3.585
 3333TIP3    H1 9938   0.982   4.210   3.580
 3333TIP3    H2 9939   1.099   4.281   3.643
 3334TIP3   OH2 9940   1.080   3.987   4.157
 3334TIP3    H1 9941   1.009   3.996   4.220
 3334TIP3    H2 9942   1.125   4.071   4.160
 3335TIP3   OH2 9943   0.904   3.503   2.767
 3335TIP3    H1 9944   0.963   3.573   2.739
 3335TIP3    H2 9945   0.947   3.465   2.844
 3336TIP3   OH2 9946   1.029   3.361   2.969
 3336TIP3    H1 9947   0.962   3.323   3.026
 3336TIP3    H2 9948   1.093   3.398   3.030
 3337TIP3   OH2 9949   1.081   3.764   3.402
 3337TIP3    H1 9950   1.133   3.697   3.357
 3337TIP3    H2 9951   1.080   3.838   3.340
 3338TIP3   OH2 9952   0.890   4.051   3.596
 3338TIP3    H1 9953   0.822   4.095   3.646
 3338TIP3    H2 9954   0.844   4.010   3.523
 3339TIP3   OH2 9955   0.952   3.278   2.616
 3339TIP3    H1 9956   0.882   3.277   2.551
 3339TIP3    H2 9957   0.933   3.355   2.670
 3340TIP3   OH2 9958   0.817   2.933   2.558
 3340TIP3    H1 9959   0.759   2.971   2.492
 3340TIP3    H2 9960   0.809   2.839   2.546
 3341TIP3   OH2 9961   0.833   3.223   3.110
 3341TIP3    H1 9962   0.837   3.128   3.098
 3341TIP3    H2 9963   0.814   3.234   3.203
 3342TIP3   OH2 9964   1.117   3.642   3.970
 3342TIP3    H1 9965   1.183   3.576   3.952
 3342TIP3    H2 9966   1.131   3.710   3.904
 3343TIP3   OH2 9967   1.293   3.432   3.963
 3343TIP3    H1 9968   1.219   3.391   4.008
 3343TIP3    H2 9969   1.368   3.376   3.984
 3344TIP3   OH2 9970   0.788   2.662   2.531
 3344TIP3    H1 9971   0.844   2.640   2.606
 3344TIP3    H2 9972   0.701   2.629   2.556
 3345TIP3   OH2 9973   0.833   2.947   2.996
 3345TIP3    H1 9974   0.875   2.862   3.008
 3345TIP3    H2 9975   0.879   2.986   2.921
 3346TIP3   OH2 9976   0.983   3.106   3.513
 3346TIP3    H1 9977   1.064   3.127   3.466
 3346TIP3    H2 9978   0.995   3.146   3.599
 3347TIP3   OH2 9979   1.056   3.259   3.740
 3347TIP3    H1 9980   0.981   3.289   3.791
 3347TIP3    H2 9981   1.088   3.338   3.696
 3348TIP3   OH2 9982   8.176   2.882   4.673
 3348TIP3    H1 9983   8.229   2.947   4.628
 3348TIP3    H2 9984   8.102   2.865   4.615
 3349TIP3   OH2 9985   1.513   2.860   4.284
 3349TIP3    H1 9986   1.574   2.799   4.242
 3349TIP3    H2 9987   1.475   2.910   4.212
 3350TIP3   OH2 9988   0.941   2.692   3.043
 3350TIP3    H1 9989   0.986   2.677   3.126
 3350TIP3    H2 9990   0.877   2.622   3.037
 3351TIP3   OH2 9991   8.185   2.670   3.779
 3351TIP3    H1 9992   8.230   2.587   3.793
 3351TIP3    H2 9993   8.255   2.734   3.771
 3352TIP3   OH2 9994   1.367   2.977   4.087
 3352TIP3    H1 9995   1.284   3.019   4.110
 3352TIP3    H2 9996   1.342   2.903   4.032
 3353TIP3   OH2 9997   1.006   2.615   2.693
 3353TIP3    H1 9998   1.047   2.554   2.632
 3353TIP3    H2 9999   1.064   2.692   2.692
 3354TIP3   OH210000   0.584   4.156   2.949
 3354TIP3    H110001   0.638   4.151   2.870
 3354TIP3    H210002   0.620   4.230   2.998
 3355TIP3   OH210003   8.023   2.561   4.369
 3355TIP3    H110004   7.936   2.525   4.391
 3355TIP3    H210005   8.049   2.514   4.289
 3356TIP3   OH210006   8.332   4.002   3.900
 3356TIP3    H110007   8.356   4.065   3.832
 3356TIP3    H210008   8.403   3.939   3.901
 3357TIP3   OH210009   0.342   4.209   3.993
 3357TIP3    H110010   0.365   4.215   4.086
 3357TIP3    H210011   0.408   4.263   3.949
 3358TIP3   OH210012   0.510   4.390   3.872
 3358TIP3    H110013   0.584   4.343   3.833
 3358TIP3    H210014   0.550   4.450   3.935
 3359TIP3   OH210015   1.276   2.735   3.973
 3359TIP3    H110016   1.188   2.732   3.935
 3359TIP3    H210017   1.307   2.645   3.967
 3360TIP3   OH210018   8.326   4.197   3.666
 3360TIP3    H110019   8.250   4.201   3.724
 3360TIP3    H210020   8.302   4.134   3.598
 3361TIP3   OH210021   0.226   4.259   3.590
 3361TIP3    H110022   0.163   4.274   3.519
 3361TIP3    H210023   0.239   4.345   3.630
 3362TIP3   OH210024   0.481   4.177   3.615
 3362TIP3    H110025   0.388   4.201   3.609
 3362TIP3    H210026   0.527   4.249   3.571
 3363TIP3   OH210027   0.663   4.367   3.519
 3363TIP3    H110028   0.656   4.454   3.481
 3363TIP3    H210029   0.691   4.311   3.446
 3364TIP3   OH210030   8.199   3.910   3.379
 3364TIP3    H110031   8.154   3.860   3.448
 3364TIP3    H210032   8.280   3.940   3.420
 3365TIP3   OH210033   8.458   4.015   3.484
 3365TIP3    H110034   8.511   3.942   3.453
 3365TIP3    H210035   8.495   4.038   3.569
 3366TIP3   OH210036   0.487   2.657   3.615
 3366TIP3    H110037   0.445   2.584   3.660
 3366TIP3    H210038   0.554   2.615   3.560
 3367TIP3   OH210039   0.990   2.556   3.496
 3367TIP3    H110040   1.026   2.607   3.424
 3367TIP3    H210041   0.898   2.580   3.499
 3368TIP3   OH210042   1.104   2.640   3.261
 3368TIP3    H110043   1.174   2.583   3.231
 3368TIP3    H210044   1.138   2.729   3.249
 3369TIP3   OH210045   8.234   2.360   3.605
 3369TIP3    H110046   8.144   2.343   3.630
 3369TIP3    H210047   8.275   2.274   3.599
 3370TIP3   OH210048   0.197   2.402   3.498
 3370TIP3    H110049   0.247   2.452   3.434
 3370TIP3    H210050   0.234   2.428   3.583
 3371TIP3   OH210051   0.704   2.546   3.478
 3371TIP3    H110052   0.703   2.512   3.389
 3371TIP3    H210053   0.704   2.468   3.534
 3372TIP3   OH210054   0.754   2.482   3.049
 3372TIP3    H110055   0.673   2.529   3.067
 3372TIP3    H210056   0.741   2.396   3.089
 3373TIP3   OH210057   0.155   2.578   3.117
 3373TIP3    H110058   0.207   2.526   3.177
 3373TIP3    H210059   0.167   2.668   3.146
 3374TIP3   OH210060   0.024   4.001   2.604
 3374TIP3    H110061   0.111   4.026   2.572
 3374TIP3    H210062   0.001   3.924   2.551
 3375TIP3   OH210063   0.732   4.123   2.715
 3375TIP3    H110064   0.723   4.027   2.709
 3375TIP3    H210065   0.685   4.156   2.639
 3376TIP3   OH210066   8.483   2.637   4.461
 3376TIP3    H110067   8.413   2.622   4.525
 3376TIP3    H210068   8.564   2.621   4.510
 3377TIP3   OH210069   0.214   2.640   4.625
 3377TIP3    H110070   0.289   2.616   4.571
 3377TIP3    H210071   0.201   2.565   4.684
 3378TIP3   OH210072   1.021   2.724   4.407
 3378TIP3    H110073   1.038   2.695   4.497
 3378TIP3    H210074   1.106   2.720   4.364
 3379TIP3   OH210075   0.946   4.265   3.909
 3379TIP3    H110076   0.871   4.235   3.858
 3379TIP3    H210077   0.935   4.359   3.915
 3380TIP3   OH210078   2.216   3.645   2.654
 3380TIP3    H110079   2.187   3.733   2.631
 3380TIP3    H210080   2.145   3.588   2.627
 3381TIP3   OH210081   2.216   3.639   3.066
 3381TIP3    H110082   2.262   3.623   3.149
 3381TIP3    H210083   2.171   3.556   3.047
 3382TIP3   OH210084   1.513   3.517   3.422
 3382TIP3    H110085   1.546   3.457   3.489
 3382TIP3    H210086   1.592   3.556   3.385
 3383TIP3   OH210087   2.479   3.945   2.746
 3383TIP3    H110088   2.465   3.881   2.816
 3383TIP3    H210089   2.501   4.026   2.791
 3384TIP3   OH210090   1.501   3.935   3.117
 3384TIP3    H110091   1.485   3.840   3.125
 3384TIP3    H210092   1.596   3.942   3.109
 3385TIP3   OH210093   1.191   3.138   2.901
 3385TIP3    H110094   1.152   3.222   2.925
 3385TIP3    H210095   1.120   3.090   2.859
 3386TIP3   OH210096   1.261   3.440   3.106
 3386TIP3    H110097   1.311   3.364   3.135
 3386TIP3    H210098   1.327   3.501   3.072
 3387TIP3   OH210099   2.127   4.390   2.753
 3387TIP3    H110100   2.161   4.322   2.695
 3387TIP3    H210101   2.119   4.348   2.838
 3388TIP3   OH210102   2.019   3.865   3.084
 3388TIP3    H110103   2.060   3.786   3.048
 3388TIP3    H210104   2.092   3.918   3.115
 3389TIP3   OH210105   3.038   3.199   3.097
 3389TIP3    H110106   3.065   3.272   3.153
 3389TIP3    H210107   3.015   3.240   3.014
 3390TIP3   OH210108   2.431   3.355   3.116
 3390TIP3    H110109   2.468   3.270   3.142
 3390TIP3    H210110   2.394   3.338   3.029
 3391TIP3   OH210111   1.782   3.016   3.077
 3391TIP3    H110112   1.762   3.090   3.020
 3391TIP3    H210113   1.727   2.945   3.044
 3392TIP3   OH210114   2.477   3.113   2.708
 3392TIP3    H110115   2.542   3.104   2.777
 3392TIP3    H210116   2.526   3.148   2.633
 3393TIP3   OH210117   1.405   3.225   3.203
 3393TIP3    H110118   1.488   3.209   3.248
 3393TIP3    H210119   1.412   3.174   3.122
 3394TIP3   OH210120   1.836   3.425   3.008
 3394TIP3    H110121   1.929   3.406   3.017
 3394TIP3    H210122   1.799   3.343   2.973
 3395TIP3   OH210123   3.107   3.405   3.266
 3395TIP3    H110124   3.018   3.442   3.265
 3395TIP3    H210125   3.146   3.440   3.347
 3396TIP3   OH210126   1.764   3.013   3.528
 3396TIP3    H110127   1.713   3.049   3.455
 3396TIP3    H210128   1.710   3.030   3.605
 3397TIP3   OH210129   2.105   3.860   2.520
 3397TIP3    H110130   2.069   3.839   2.435
 3397TIP3    H210131   2.058   3.939   2.548
 3398TIP3   OH210132   1.864   3.789   3.301
 3398TIP3    H110133   1.808   3.858   3.336
 3398TIP3    H210134   1.912   3.830   3.229
 3399TIP3   OH210135   2.648   3.127   2.921
 3399TIP3    H110136   2.605   3.106   3.003
 3399TIP3    H210137   2.702   3.204   2.940
 3400TIP3   OH210138   1.650   3.122   3.299
 3400TIP3    H110139   1.704   3.197   3.323
 3400TIP3    H210140   1.697   3.080   3.226
 3401TIP3   OH210141   1.702   3.989   3.403
 3401TIP3    H110142   1.686   4.077   3.370
 3401TIP3    H210143   1.625   3.969   3.456
 3402TIP3   OH210144   1.082   3.689   2.650
 3402TIP3    H110145   1.040   3.709   2.566
 3402TIP3    H210146   1.106   3.774   2.686
 3403TIP3   OH210147   2.524   4.191   2.885
 3403TIP3    H110148   2.438   4.183   2.927
 3403TIP3    H210149   2.521   4.275   2.840
 3404TIP3   OH210150   2.840   3.075   3.262
 3404TIP3    H110151   2.753   3.101   3.232
 3404TIP3    H210152   2.899   3.106   3.193
 3405TIP3   OH210153   2.107   2.712   3.248
 3405TIP3    H110154   2.097   2.620   3.274
 3405TIP3    H210155   2.033   2.756   3.290
 3406TIP3   OH210156   2.227   4.227   2.550
 3406TIP3    H110157   2.279   4.147   2.537
 3406TIP3    H210158   2.284   4.297   2.519
 3407TIP3   OH210159   2.377   4.006   2.495
 3407TIP3    H110160   2.330   3.928   2.465
 3407TIP3    H210161   2.419   3.979   2.576
 3408TIP3   OH210162   2.754   4.090   3.231
 3408TIP3    H110163   2.738   4.015   3.174
 3408TIP3    H210164   2.736   4.166   3.175
 3409TIP3   OH210165   2.043   3.488   2.500
 3409TIP3    H110166   1.962   3.537   2.481
 3409TIP3    H210167   2.091   3.489   2.417
 3410TIP3   OH210168   2.016   3.286   2.205
 3410TIP3    H110169   2.080   3.340   2.252
 3410TIP3    H210170   2.068   3.223   2.156
 3411TIP3   OH210171   2.946   3.741   3.085
 3411TIP3    H110172   2.862   3.787   3.088
 3411TIP3    H210173   2.980   3.759   2.997
 3412TIP3   OH210174   2.400   3.577   2.464
 3412TIP3    H110175   2.345   3.604   2.538
 3412TIP3    H210176   2.483   3.551   2.504
 3413TIP3   OH210177   2.627   3.609   3.396
 3413TIP3    H110178   2.629   3.691   3.446
 3413TIP3    H210179   2.542   3.610   3.351
 3414TIP3   OH210180   1.628   3.560   2.875
 3414TIP3    H110181   1.591   3.502   2.809
 3414TIP3    H210182   1.703   3.512   2.911
 3415TIP3   OH210183   1.763   3.981   3.014
 3415TIP3    H110184   1.743   3.962   2.922
 3415TIP3    H210185   1.850   3.944   3.027
 3416TIP3   OH210186   1.742   3.552   3.239
 3416TIP3    H110187   1.779   3.519   3.157
 3416TIP3    H210188   1.790   3.633   3.256
 3417TIP3   OH210189   2.289   4.183   3.021
 3417TIP3    H110190   2.273   4.264   3.069
 3417TIP3    H210191   2.272   4.113   3.084
 3418TIP3   OH210192   1.902   4.093   3.565
 3418TIP3    H110193   1.844   4.153   3.611
 3418TIP3    H210194   1.844   4.041   3.509
 3419TIP3   OH210195   2.234   3.438   2.296
 3419TIP3    H110196   2.293   3.495   2.344
 3419TIP3    H210197   2.260   3.448   2.204
 3420TIP3   OH210198   1.659   3.643   3.692
 3420TIP3    H110199   1.664   3.735   3.718
 3420TIP3    H210200   1.565   3.623   3.690
 3421TIP3   OH210201   1.979   4.108   2.557
 3421TIP3    H110202   2.063   4.154   2.563
 3421TIP3    H210203   1.920   4.172   2.515
 3422TIP3   OH210204   1.693   4.254   3.648
 3422TIP3    H110205   1.666   4.262   3.556
 3422TIP3    H210206   1.612   4.236   3.695
 3423TIP3   OH210207   2.745   2.667   2.349
 3423TIP3    H110208   2.667   2.690   2.400
 3423TIP3    H210209   2.760   2.743   2.293
 3424TIP3   OH210210   1.501   3.405   2.671
 3424TIP3    H110211   1.428   3.455   2.635
 3424TIP3    H210212   1.465   3.319   2.692
 3425TIP3   OH210213   2.563   4.039   1.903
 3425TIP3    H110214   2.562   4.133   1.882
 3425TIP3    H210215   2.652   4.011   1.883
 3426TIP3   OH210216   1.280   3.802   3.599
 3426TIP3    H110217   1.212   3.786   3.534
 3426TIP3    H210218   1.316   3.715   3.618
 3427TIP3   OH210219   1.128   3.998   3.244
 3427TIP3    H110220   1.222   4.013   3.249
 3427TIP3    H210221   1.089   4.078   3.278
 3428TIP3   OH210222   2.987   4.446   3.298
 3428TIP3    H110223   2.991   4.351   3.313
 3428TIP3    H210224   2.907   4.474   3.342
 3429TIP3   OH210225   2.091   4.231   3.420
 3429TIP3    H110226   2.088   4.322   3.450
 3429TIP3    H210227   2.024   4.186   3.472
 3430TIP3   OH210228   1.867   4.338   2.380
 3430TIP3    H110229   1.825   4.325   2.295
 3430TIP3    H210230   1.837   4.424   2.410
 3431TIP3   OH210231   1.304   4.188   2.756
 3431TIP3    H110232   1.346   4.182   2.842
 3431TIP3    H210233   1.252   4.108   2.750
 3432TIP3   OH210234   2.064   4.258   2.010
 3432TIP3    H110235   2.117   4.188   1.973
 3432TIP3    H210236   2.102   4.273   2.097
 3433TIP3   OH210237   2.122   4.309   2.278
 3433TIP3    H110238   2.038   4.312   2.324
 3433TIP3    H210239   2.184   4.277   2.343
 3434TIP3   OH210240   2.885   3.566   3.565
 3434TIP3    H110241   2.794   3.578   3.538
 3434TIP3    H210242   2.899   3.472   3.562
 3435TIP3   OH210243   1.486   3.984   3.572
 3435TIP3    H110244   1.533   3.973   3.655
 3435TIP3    H210245   1.412   3.923   3.579
 3436TIP3   OH210246   1.873   2.801   3.381
 3436TIP3    H110247   1.789   2.770   3.348
 3436TIP3    H210248   1.852   2.882   3.429
 3437TIP3   OH210249   2.414   2.910   3.576
 3437TIP3    H110250   2.484   2.892   3.639
 3437TIP3    H210251   2.333   2.899   3.626
 3438TIP3   OH210252   2.635   3.347   3.486
 3438TIP3    H110253   2.590   3.342   3.571
 3438TIP3    H210254   2.619   3.437   3.456
 3439TIP3   OH210255   2.314   3.442   2.035
 3439TIP3    H110256   2.269   3.438   1.951
 3439TIP3    H210257   2.396   3.486   2.017
 3440TIP3   OH210258   2.021   2.841   2.347
 3440TIP3    H110259   1.987   2.846   2.437
 3440TIP3    H210260   1.984   2.760   2.312
 3441TIP3   OH210261   1.809   3.329   3.388
 3441TIP3    H110262   1.763   3.339   3.471
 3441TIP3    H210263   1.789   3.409   3.339
 3442TIP3   OH210264   1.692   3.210   2.907
 3442TIP3    H110265   1.602   3.188   2.932
 3442TIP3    H210266   1.702   3.174   2.819
 3443TIP3   OH210267   2.174   3.286   2.633
 3443TIP3    H110268   2.125   3.357   2.593
 3443TIP3    H210269   2.233   3.255   2.564
 3444TIP3   OH210270   2.362   3.559   3.715
 3444TIP3    H110271   2.335   3.491   3.777
 3444TIP3    H210272   2.450   3.584   3.745
 3445TIP3   OH210273   2.337   3.303   2.863
 3445TIP3    H110274   2.270   3.330   2.800
 3445TIP3    H210275   2.381   3.229   2.821
 3446TIP3   OH210276   1.638   3.343   3.606
 3446TIP3    H110277   1.664   3.407   3.673
 3446TIP3    H210278   1.622   3.263   3.654
 3447TIP3   OH210279   1.685   2.823   2.319
 3447TIP3    H110280   1.673   2.831   2.414
 3447TIP3    H210281   1.611   2.871   2.282
 3448TIP3   OH210282   1.231   2.865   3.187
 3448TIP3    H110283   1.301   2.902   3.242
 3448TIP3    H210284   1.272   2.853   3.102
 3449TIP3   OH210285   1.161   2.848   2.698
 3449TIP3    H110286   1.202   2.884   2.619
 3449TIP3    H210287   1.098   2.915   2.724
 3450TIP3   OH210288   2.365   3.553   3.289
 3450TIP3    H110289   2.394   3.486   3.227
 3450TIP3    H210290   2.329   3.504   3.362
 3451TIP3   OH210291   2.045   3.002   2.959
 3451TIP3    H110292   1.968   3.007   3.015
 3451TIP3    H210293   2.119   2.999   3.020
 3452TIP3   OH210294   1.453   3.087   2.970
 3452TIP3    H110295   1.363   3.092   2.936
 3452TIP3    H210296   1.481   2.998   2.950
 3453TIP3   OH210297   1.710   3.081   2.665
 3453TIP3    H110298   1.803   3.097   2.651
 3453TIP3    H210299   1.669   3.103   2.581
 3454TIP3   OH210300   2.511   3.090   3.160
 3454TIP3    H110301   2.495   3.104   3.253
 3454TIP3    H210302   2.439   3.033   3.132
 3455TIP3   OH210303   1.583   3.110   2.426
 3455TIP3    H110304   1.518   3.064   2.372
 3455TIP3    H210305   1.639   3.156   2.363
 3456TIP3   OH210306   2.697   4.793   3.390
 3456TIP3    H110307   2.692   4.814   3.297
 3456TIP3    H210308   2.775   4.839   3.421
 3457TIP3   OH210309   1.643   3.900   3.806
 3457TIP3    H110310   1.723   3.923   3.853
 3457TIP3    H210311   1.574   3.907   3.872
 3458TIP3   OH210312   2.104   3.363   3.068
 3458TIP3    H110313   2.175   3.318   3.022
 3458TIP3    H210314   2.104   3.325   3.156
 3459TIP3   OH210315   1.601   2.841   2.951
 3459TIP3    H110316   1.571   2.765   3.001
 3459TIP3    H210317   1.630   2.804   2.867
 3460TIP3   OH210318   2.079   3.272   3.342
 3460TIP3    H110319   1.991   3.305   3.361
 3460TIP3    H210320   2.137   3.327   3.395
 3461TIP3   OH210321   1.808   3.633   2.445
 3461TIP3    H110322   1.735   3.574   2.426
 3461TIP3    H210323   1.787   3.670   2.531
 3462TIP3   OH210324   2.708   3.879   3.055
 3462TIP3    H110325   2.737   3.931   2.980
 3462TIP3    H210326   2.624   3.841   3.027
 3463TIP3   OH210327   2.274   2.945   2.342
 3463TIP3    H110328   2.180   2.926   2.340
 3463TIP3    H210329   2.279   3.040   2.354
 3464TIP3   OH210330   2.214   3.960   3.461
 3464TIP3    H110331   2.262   3.947   3.543
 3464TIP3    H210332   2.176   4.047   3.468
 3465TIP3   OH210333   2.338   3.207   2.416
 3465TIP3    H110334   2.433   3.212   2.426
 3465TIP3    H210335   2.314   3.284   2.365
 3466TIP3   OH210336   1.503   3.646   3.107
 3466TIP3    H110337   1.541   3.629   3.021
 3466TIP3    H210338   1.568   3.610   3.169
 3467TIP3   OH210339   1.963   3.790   2.285
 3467TIP3    H110340   1.916   3.873   2.283
 3467TIP3    H210341   1.909   3.732   2.339
 3468TIP3   OH210342   1.389   3.576   3.733
 3468TIP3    H110343   1.399   3.558   3.826
 3468TIP3    H210344   1.315   3.521   3.705
 3469TIP3   OH210345   2.125   3.711   3.737
 3469TIP3    H110346   2.065   3.649   3.695
 3469TIP3    H210347   2.213   3.677   3.718
 3470TIP3   OH210348   2.364   4.238   3.343
 3470TIP3    H110349   2.269   4.229   3.351
 3470TIP3    H210350   2.390   4.284   3.423
 3471TIP3   OH210351   2.760   3.297   2.244
 3471TIP3    H110352   2.704   3.251   2.182
 3471TIP3    H210353   2.766   3.386   2.209
 3472TIP3   OH210354   3.001   4.158   3.326
 3472TIP3    H110355   2.906   4.151   3.320
 3472TIP3    H210356   3.033   4.132   3.240
 3473TIP3   OH210357   2.488   4.112   2.166
 3473TIP3    H110358   2.461   4.041   2.224
 3473TIP3    H210359   2.505   4.069   2.082
 3474TIP3   OH210360   2.472   3.747   2.960
 3474TIP3    H110361   2.382   3.726   2.984
 3474TIP3    H210362   2.506   3.667   2.922
 3475TIP3   OH210363   1.619   3.981   2.759
 3475TIP3    H110364   1.617   4.058   2.703
 3475TIP3    H210365   1.528   3.970   2.788
 3476TIP3   OH210366   1.189   3.270   2.474
 3476TIP3    H110367   1.230   3.354   2.493
 3476TIP3    H210368   1.108   3.271   2.525
 3477TIP3   OH210369   1.721   3.736   2.679
 3477TIP3    H110370   1.698   3.826   2.703
 3477TIP3    H210371   1.692   3.683   2.753
 3478TIP3   OH210372   1.901   4.308   3.217
 3478TIP3    H110373   1.937   4.381   3.167
 3478TIP3    H210374   1.975   4.275   3.268
 3479TIP3   OH210375   1.533   4.211   2.604
 3479TIP3    H110376   1.448   4.213   2.650
 3479TIP3    H210377   1.567   4.300   2.612
 3480TIP3   OH210378   2.260   3.959   3.189
 3480TIP3    H110379   2.246   3.956   3.284
 3480TIP3    H210380   2.341   3.910   3.175
 3481TIP3   OH210381   2.246   3.847   2.064
 3481TIP3    H110382   2.298   3.824   2.141
 3481TIP3    H210383   2.160   3.810   2.081
 3482TIP3   OH210384   2.513   4.471   3.227
 3482TIP3    H110385   2.438   4.412   3.234
 3482TIP3    H210386   2.489   4.530   3.156
 3483TIP3   OH210387   2.572   4.314   1.870
 3483TIP3    H110388   2.602   4.378   1.806
 3483TIP3    H210389   2.497   4.356   1.912
 3484TIP3   OH210390   1.593   3.090   3.735
 3484TIP3    H110391   1.498   3.098   3.742
 3484TIP3    H210392   1.619   3.042   3.814
 3485TIP3   OH210393   2.416   3.774   2.269
 3485TIP3    H110394   2.404   3.710   2.338
 3485TIP3    H210395   2.511   3.778   2.256
 3486TIP3   OH210396   1.331   4.194   3.375
 3486TIP3    H110397   1.382   4.132   3.426
 3486TIP3    H210398   1.345   4.279   3.417
 3487TIP3   OH210399   1.589   3.822   2.069
 3487TIP3    H110400   1.603   3.732   2.037
 3487TIP3    H210401   1.580   3.812   2.164
 3488TIP3   OH210402   1.549   3.828   2.344
 3488TIP3    H110403   1.620   3.795   2.399
 3488TIP3    H210404   1.553   3.923   2.353
 3489TIP3   OH210405   1.281   3.523   2.549
 3489TIP3    H110406   1.215   3.567   2.602
 3489TIP3    H210407   1.299   3.583   2.477
 3490TIP3   OH210408   2.459   3.136   3.420
 3490TIP3    H110409   2.524   3.193   3.463
 3490TIP3    H210410   2.444   3.066   3.483
 3491TIP3   OH210411   2.330   2.896   2.612
 3491TIP3    H110412   2.310   2.915   2.520
 3491TIP3    H210413   2.372   2.975   2.644
 3492TIP3   OH210414   1.817   4.017   2.282
 3492TIP3    H110415   1.733   4.043   2.320
 3492TIP3    H210416   1.845   4.094   2.232
 3493TIP3   OH210417   1.990   3.092   2.700
 3493TIP3    H110418   2.052   3.160   2.676
 3493TIP3    H210419   2.008   3.075   2.793
 3494TIP3   OH210420   2.283   3.395   3.499
 3494TIP3    H110421   2.305   3.450   3.574
 3494TIP3    H210422   2.333   3.314   3.513
 3495TIP3   OH210423   2.148   2.794   2.795
 3495TIP3    H110424   2.124   2.871   2.848
 3495TIP3    H210425   2.215   2.826   2.736
 3496TIP3   OH210426   1.565   4.101   2.357
 3496TIP3    H110427   1.525   4.163   2.297
 3496TIP3    H210428   1.553   4.140   2.443
 3497TIP3   OH210429   1.662   2.812   2.599
 3497TIP3    H110430   1.650   2.902   2.628
 3497TIP3    H210431   1.756   2.798   2.604
 3498TIP3   OH210432   2.899   3.292   3.473
 3498TIP3    H110433   2.804   3.302   3.486
 3498TIP3    H210434   2.906   3.233   3.398
 3499TIP3   OH210435   2.562   3.490   2.865
 3499TIP3    H110436   2.483   3.437   2.877
 3499TIP3    H210437   2.628   3.447   2.920
 3500TIP3   OH210438   1.297   3.708   2.337
 3500TIP3    H110439   1.370   3.768   2.351
 3500TIP3    H210440   1.331   3.644   2.275
 3501TIP3   OH210441   1.211   2.992   2.470
 3501TIP3    H110442   1.225   3.086   2.477
 3501TIP3    H210443   1.140   2.983   2.406
 3502TIP3   OH210444   2.542   4.459   2.805
 3502TIP3    H110445   2.499   4.509   2.735
 3502TIP3    H210446   2.635   4.473   2.790
 3503TIP3   OH210447   1.612   2.716   3.336
 3503TIP3    H110448   1.581   2.686   3.251
 3503TIP3    H210449   1.601   2.641   3.395
 3504TIP3   OH210450   1.132   3.960   2.728
 3504TIP3    H110451   1.083   3.994   2.803
 3504TIP3    H210452   1.091   4.002   2.652
 3505TIP3   OH210453   1.323   4.493   3.804
 3505TIP3    H110454   1.407   4.497   3.850
 3505TIP3    H210455   1.306   4.399   3.793
 3506TIP3   OH210456   1.793   4.423   3.843
 3506TIP3    H110457   1.886   4.402   3.852
 3506TIP3    H210458   1.763   4.368   3.770
 3507TIP3   OH210459   1.759   4.017   1.968
 3507TIP3    H110460   1.714   3.944   2.009
 3507TIP3    H210461   1.835   3.977   1.925
 3508TIP3   OH210462   2.419   4.360   3.583
 3508TIP3    H110463   2.423   4.287   3.645
 3508TIP3    H210464   2.495   4.414   3.605
 3509TIP3   OH210465   2.201   4.055   1.885
 3509TIP3    H110466   2.236   3.990   1.946
 3509TIP3    H210467   2.257   4.050   1.809
 3510TIP3   OH210468   1.437   3.895   3.994
 3510TIP3    H110469   1.454   3.801   4.003
 3510TIP3    H210470   1.351   3.899   3.952
 3511TIP3   OH210471   1.428   3.517   2.195
 3511TIP3    H110472   1.481   3.491   2.270
 3511TIP3    H210473   1.491   3.528   2.124
 3512TIP3   OH210474   2.049   3.983   3.772
 3512TIP3    H110475   2.006   4.005   3.689
 3512TIP3    H210476   2.088   3.897   3.757
 3513TIP3   OH210477   1.967   3.735   2.016
 3513TIP3    H110478   1.955   3.746   2.110
 3513TIP3    H210479   1.959   3.640   2.002
 3514TIP3   OH210480   2.531   4.012   3.377
 3514TIP3    H110481   2.609   4.047   3.333
 3514TIP3    H210482   2.465   4.080   3.365
 3515TIP3   OH210483   1.556   3.635   3.992
 3515TIP3    H110484   1.635   3.620   3.940
 3515TIP3    H210485   1.589   3.661   4.078
 3516TIP3   OH210486   1.604   3.449   2.404
 3516TIP3    H110487   1.581   3.418   2.491
 3516TIP3    H210488   1.651   3.376   2.364
 3517TIP3   OH210489   1.901   3.512   3.643
 3517TIP3    H110490   1.823   3.567   3.655
 3517TIP3    H210491   1.941   3.546   3.562
 3518TIP3   OH210492   1.742   3.256   2.257
 3518TIP3    H110493   1.711   3.262   2.166
 3518TIP3    H210494   1.837   3.262   2.251
 3519TIP3   OH210495   2.406   3.898   3.761
 3519TIP3    H110496   2.485   3.861   3.722
 3519TIP3    H210497   2.396   3.852   3.844
 3520TIP3   OH210498   2.540   3.557   1.923
 3520TIP3    H110499   2.526   3.515   1.838
 3520TIP3    H210500   2.513   3.648   1.909
 3521TIP3   OH210501   2.018   3.298   3.765
 3521TIP3    H110502   2.023   3.224   3.704
 3521TIP3    H210503   1.980   3.369   3.714
 3522TIP3   OH210504   2.026   3.092   3.564
 3522TIP3    H110505   2.053   3.134   3.483
 3522TIP3    H210506   1.933   3.071   3.550
 3523TIP3   OH210507   2.038   3.624   3.437
 3523TIP3    H110508   2.127   3.654   3.418
 3523TIP3    H210509   1.981   3.686   3.391
 3524TIP3   OH210510   2.622   3.593   3.832
 3524TIP3    H110511   2.660   3.521   3.881
 3524TIP3    H210512   2.691   3.659   3.827
 3525TIP3   OH210513   2.664   3.844   3.546
 3525TIP3    H110514   2.606   3.903   3.497
 3525TIP3    H210515   2.752   3.864   3.513
 3526TIP3   OH210516   1.890   3.389   4.000
 3526TIP3    H110517   1.824   3.322   4.017
 3526TIP3    H210518   1.924   3.367   3.913
 3527TIP3   OH210519   2.145   2.855   3.655
 3527TIP3    H110520   2.105   2.937   3.625
 3527TIP3    H210521   2.078   2.789   3.642
 3528TIP3   OH210522   2.278   3.343   3.863
 3528TIP3    H110523   2.274   3.337   3.958
 3528TIP3    H210524   2.189   3.323   3.834
 3529TIP3   OH210525   2.505   3.276   3.711
 3529TIP3    H110526   2.434   3.291   3.775
 3529TIP3    H210527   2.582   3.260   3.765
 3530TIP3   OH210528   2.755   3.237   3.841
 3530TIP3    H110529   2.767   3.146   3.866
 3530TIP3    H210530   2.739   3.283   3.924
 3531TIP3   OH210531   1.731   3.166   4.066
 3531TIP3    H110532   1.739   3.077   4.032
 3531TIP3    H210533   1.770   3.162   4.153
 3532TIP3   OH210534   2.223   2.846   3.918
 3532TIP3    H110535   2.294   2.782   3.911
 3532TIP3    H210536   2.189   2.854   3.830
 3533TIP3   OH210537   2.301   3.063   4.071
 3533TIP3    H110538   2.276   2.993   4.010
 3533TIP3    H210539   2.229   3.125   4.067
 3534TIP3   OH210540   1.529   4.266   2.121
 3534TIP3    H110541   1.623   4.254   2.131
 3534TIP3    H210542   1.518   4.358   2.097
 3535TIP3   OH210543   1.024   3.692   2.355
 3535TIP3    H110544   1.118   3.705   2.355
 3535TIP3    H210545   1.012   3.602   2.324
 3536TIP3   OH210546   0.934   4.281   2.807
 3536TIP3    H110547   0.868   4.227   2.764
 3536TIP3    H210548   0.977   4.221   2.868
 3537TIP3   OH210549   1.072   4.117   2.981
 3537TIP3    H110550   1.059   4.050   3.049
 3537TIP3    H210551   1.124   4.185   3.024
 3538TIP3   OH210552   2.811   4.517   2.790
 3538TIP3    H110553   2.829   4.551   2.877
 3538TIP3    H210554   2.862   4.573   2.731
 3539TIP3   OH210555   2.825   4.553   3.072
 3539TIP3    H110556   2.779   4.470   3.066
 3539TIP3    H210557   2.898   4.537   3.132
 3540TIP3   OH210558   2.874   4.248   3.643
 3540TIP3    H110559   2.803   4.255   3.707
 3540TIP3    H210560   2.918   4.332   3.646
 3541TIP3   OH210561   2.694   3.762   2.251
 3541TIP3    H110562   2.755   3.830   2.221
 3541TIP3    H210563   2.738   3.723   2.327
 3542TIP3   OH210564   2.817   3.619   2.454
 3542TIP3    H110565   2.750   3.579   2.509
 3542TIP3    H210566   2.881   3.656   2.515
 3543TIP3   OH210567   2.883   4.020   2.886
 3543TIP3    H110568   2.932   3.956   2.834
 3543TIP3    H210569   2.878   4.097   2.830
 3544TIP3   OH210570   2.688   4.310   3.079
 3544TIP3    H110571   2.620   4.354   3.131
 3544TIP3    H210572   2.640   4.269   3.007
 3545TIP3   OH210573   2.747   3.536   2.102
 3545TIP3    H110574   2.677   3.533   2.036
 3545TIP3    H210575   2.727   3.613   2.154
 3546TIP3   OH210576   2.604   3.192   2.048
 3546TIP3    H110577   2.560   3.232   1.972
 3546TIP3    H210578   2.591   3.098   2.036
 3547TIP3   OH210579   2.626   3.478   2.596
 3547TIP3    H110580   2.631   3.383   2.583
 3547TIP3    H210581   2.607   3.488   2.689
 3548TIP3   OH210582   1.250   3.545   3.359
 3548TIP3    H110583   1.241   3.513   3.270
 3548TIP3    H210584   1.344   3.545   3.375
 3549TIP3   OH210585   2.919   3.902   3.454
 3549TIP3    H110586   2.985   3.834   3.437
 3549TIP3    H210587   2.943   3.974   3.396
 3550TIP3   OH210588   3.093   3.690   3.440
 3550TIP3    H110589   3.020   3.649   3.486
 3550TIP3    H210590   3.169   3.636   3.462
 3551TIP3   OH210591   2.561   2.924   2.025
 3551TIP3    H110592   2.627   2.893   2.086
 3551TIP3    H210593   2.481   2.876   2.050
 3552TIP3   OH210594   2.625   3.203   2.481
 3552TIP3    H110595   2.669   3.119   2.494
 3552TIP3    H210596   2.670   3.242   2.406
 3553TIP3   OH210597   2.777   3.362   2.999
 3553TIP3    H110598   2.857   3.385   2.951
 3553TIP3    H210599   2.788   3.404   3.084
 3554TIP3   OH210600   2.847   3.517   3.222
 3554TIP3    H110601   2.776   3.544   3.281
 3554TIP3    H210602   2.879   3.598   3.183
 3555TIP3   OH210603   1.467   3.224   4.009
 3555TIP3    H110604   1.562   3.222   4.025
 3555TIP3    H210605   1.435   3.143   4.049
 3556TIP3   OH210606   3.308   3.113   3.770
 3556TIP3    H110607   3.371   3.052   3.731
 3556TIP3    H210608   3.275   3.165   3.696
 3557TIP3   OH210609   2.737   2.951   2.531
 3557TIP3    H110610   2.783   2.936   2.614
 3557TIP3    H210611   2.675   2.879   2.524
 3558TIP3   OH210612   1.441   2.936   3.354
 3558TIP3    H110613   1.498   2.859   3.361
 3558TIP3    H210614   1.501   3.009   3.342
 3559TIP3   OH210615   1.228   3.199   3.422
 3559TIP3    H110616   1.278   3.195   3.341
 3559TIP3    H210617   1.247   3.286   3.457
 3560TIP3   OH210618   3.166   3.244   3.579
 3560TIP3    H110619   3.095   3.285   3.629
 3560TIP3    H210620   3.122   3.180   3.523
 3561TIP3   OH210621   2.796   2.870   2.171
 3561TIP3    H110622   2.840   2.808   2.112
 3561TIP3    H210623   2.853   2.947   2.170
 3562TIP3   OH210624   1.217   2.697   2.919
 3562TIP3    H110625   1.130   2.690   2.959
 3562TIP3    H210626   1.205   2.759   2.847
 3563TIP3   OH210627   2.368   4.423   2.432
 3563TIP3    H110628   2.426   4.412   2.356
 3563TIP3    H210629   2.411   4.490   2.485
 3564TIP3   OH210630   1.432   2.761   3.735
 3564TIP3    H110631   1.386   2.762   3.819
 3564TIP3    H210632   1.377   2.813   3.677
 3565TIP3   OH210633   1.471   4.215   3.813
 3565TIP3    H110634   1.378   4.197   3.804
 3565TIP3    H210635   1.488   4.208   3.907
 3566TIP3   OH210636   1.671   4.263   3.364
 3566TIP3    H110637   1.618   4.336   3.332
 3566TIP3    H210638   1.756   4.275   3.321
 3567TIP3   OH210639   2.085   4.497   3.502
 3567TIP3    H110640   2.122   4.490   3.590
 3567TIP3    H210641   2.148   4.550   3.453
 3568TIP3   OH210642   2.273   4.653   3.372
 3568TIP3    H110643   2.338   4.600   3.326
 3568TIP3    H210644   2.324   4.710   3.429
 3569TIP3   OH210645   3.069   2.998   3.462
 3569TIP3    H110646   2.982   2.991   3.421
 3569TIP3    H210647   3.105   2.909   3.456
 3570TIP3   OH210648   1.335   4.511   3.411
 3570TIP3    H110649   1.244   4.525   3.383
 3570TIP3    H210650   1.352   4.583   3.472
 3571TIP3   OH210651   1.563   4.493   3.257
 3571TIP3    H110652   1.481   4.503   3.305
 3571TIP3    H210653   1.542   4.521   3.168
 3572TIP3   OH210654   1.987   4.514   3.049
 3572TIP3    H110655   1.915   4.527   2.986
 3572TIP3    H210656   1.998   4.599   3.091
 3573TIP3   OH210657   2.252   4.449   3.100
 3573TIP3    H110658   2.160   4.469   3.082
 3573TIP3    H210659   2.301   4.518   3.055
 3574TIP3   OH210660   2.453   4.629   3.005
 3574TIP3    H110661   2.448   4.716   2.965
 3574TIP3    H210662   2.483   4.571   2.934
 3575TIP3   OH210663   1.247   4.291   3.124
 3575TIP3    H110664   1.265   4.267   3.215
 3575TIP3    H210665   1.321   4.256   3.074
 3576TIP3   OH210666   1.450   4.171   2.989
 3576TIP3    H110667   1.461   4.089   3.037
 3576TIP3    H210668   1.537   4.212   2.993
 3577TIP3   OH210669   1.717   4.260   3.009
 3577TIP3    H110670   1.737   4.167   2.998
 3577TIP3    H210671   1.768   4.286   3.086
 3578TIP3   OH210672   2.279   2.918   3.092
 3578TIP3    H110673   2.241   2.846   3.143
 3578TIP3    H210674   2.348   2.876   3.040
 3579TIP3   OH210675   2.784   2.808   2.980
 3579TIP3    H110676   2.826   2.859   2.911
 3579TIP3    H210677   2.695   2.844   2.986
 3580TIP3   OH210678   2.900   2.902   2.750
 3580TIP3    H110679   2.968   2.842   2.721
 3580TIP3    H210680   2.937   2.989   2.738
 3581TIP3   OH210681   1.523   2.616   3.093
 3581TIP3    H110682   1.433   2.586   3.102
 3581TIP3    H210683   1.575   2.536   3.088
 3582TIP3   OH210684   1.340   2.506   2.746
 3582TIP3    H110685   1.365   2.561   2.672
 3582TIP3    H210686   1.301   2.566   2.809
 3583TIP3   OH210687   1.994   2.647   2.986
 3583TIP3    H110688   2.039   2.698   2.919
 3583TIP3    H210689   2.027   2.681   3.069
 3584TIP3   OH210690   2.494   2.802   2.962
 3584TIP3    H110691   2.512   2.769   2.874
 3584TIP3    H210692   2.496   2.724   3.018
 3585TIP3   OH210693   2.550   2.742   2.531
 3585TIP3    H110694   2.470   2.790   2.553
 3585TIP3    H210695   2.537   2.655   2.570
 3586TIP3   OH210696   1.019   4.082   2.507
 3586TIP3    H110697   0.934   4.051   2.475
 3586TIP3    H210698   1.020   4.175   2.485
 3587TIP3   OH210699   1.449   2.646   2.518
 3587TIP3    H110700   1.494   2.592   2.453
 3587TIP3    H210701   1.517   2.705   2.551
 3588TIP3   OH210702   1.938   2.838   2.612
 3588TIP3    H110703   2.000   2.792   2.669
 3588TIP3    H210704   1.949   2.930   2.634
 3589TIP3   OH210705   1.805   4.245   2.108
 3589TIP3    H110706   1.890   4.276   2.076
 3589TIP3    H210707   1.785   4.168   2.055
 3590TIP3   OH210708   2.522   4.380   2.204
 3590TIP3    H110709   2.515   4.285   2.195
 3590TIP3    H210710   2.479   4.415   2.126
 3591TIP3   OH210711   1.739   2.892   3.979
 3591TIP3    H110712   1.703   2.825   4.038
 3591TIP3    H210713   1.831   2.899   4.005
 3592TIP3   OH210714   1.988   2.899   4.101
 3592TIP3    H110715   2.070   2.880   4.055
 3592TIP3    H210716   1.981   2.831   4.167
 3593TIP3   OH210717   1.137   4.144   2.157
 3593TIP3    H110718   1.096   4.137   2.244
 3593TIP3    H210719   1.195   4.068   2.152
 3594TIP3   OH210720   2.817   2.973   3.892
 3594TIP3    H110721   2.834   2.949   3.983
 3594TIP3    H210722   2.904   2.972   3.852
 3595TIP3   OH210723   2.737   4.519   3.393
 3595TIP3    H110724   2.661   4.489   3.342
 3595TIP3    H210725   2.724   4.613   3.401
 3596TIP3   OH210726   4.010   3.898   2.144
 3596TIP3    H110727   3.980   3.987   2.124
 3596TIP3    H210728   3.939   3.841   2.111
 3597TIP3   OH210729   4.008   3.901   2.550
 3597TIP3    H110730   4.054   3.882   2.632
 3597TIP3    H210731   3.971   3.817   2.523
 3598TIP3   OH210732   3.344   3.795   2.936
 3598TIP3    H110733   3.290   3.777   3.013
 3598TIP3    H210734   3.361   3.889   2.939
 3599TIP3   OH210735   4.271   4.203   2.230
 3599TIP3    H110736   4.262   4.139   2.300
 3599TIP3    H210737   4.297   4.284   2.275
 3600TIP3   OH210738   3.299   4.192   2.608
 3600TIP3    H110739   3.288   4.097   2.617
 3600TIP3    H210740   3.393   4.204   2.591
 3601TIP3   OH210741   2.981   3.395   2.394
 3601TIP3    H110742   2.938   3.479   2.412
 3601TIP3    H210743   2.913   3.343   2.349
 3602TIP3   OH210744   3.048   3.694   2.588
 3602TIP3    H110745   3.101   3.618   2.613
 3602TIP3    H210746   3.105   3.744   2.529
 3603TIP3   OH210747   3.925   4.646   2.239
 3603TIP3    H110748   3.956   4.579   2.178
 3603TIP3    H210749   3.921   4.601   2.324
 3604TIP3   OH210750   3.810   4.113   2.580
 3604TIP3    H110751   3.857   4.039   2.540
 3604TIP3    H210752   3.880   4.172   2.610
 3605TIP3   OH210753   4.840   3.442   2.580
 3605TIP3    H110754   4.862   3.524   2.625
 3605TIP3    H210755   4.866   3.456   2.489
 3606TIP3   OH210756   4.211   3.603   2.606
 3606TIP3    H110757   4.262   3.525   2.628
 3606TIP3    H210758   4.185   3.589   2.515
 3607TIP3   OH210759   3.591   3.266   2.599
 3607TIP3    H110760   3.568   3.346   2.551
 3607TIP3    H210761   3.526   3.202   2.570
 3608TIP3   OH210762   4.273   3.371   2.194
 3608TIP3    H110763   4.341   3.363   2.261
 3608TIP3    H210764   4.320   3.405   2.117
 3609TIP3   OH210765   3.194   3.476   2.683
 3609TIP3    H110766   3.262   3.431   2.733
 3609TIP3    H210767   3.192   3.432   2.599
 3610TIP3   OH210768   3.633   3.669   2.501
 3610TIP3    H110769   3.727   3.657   2.493
 3610TIP3    H210770   3.596   3.588   2.464
 3611TIP3   OH210771   4.905   3.655   2.751
 3611TIP3    H110772   4.821   3.700   2.743
 3611TIP3    H210773   4.947   3.697   2.827
 3612TIP3   OH210774   3.884   4.110   2.019
 3612TIP3    H110775   3.859   4.096   1.928
 3612TIP3    H210776   3.844   4.193   2.043
 3613TIP3   OH210777   3.648   4.024   2.786
 3613TIP3    H110778   3.597   4.096   2.822
 3613TIP3    H210779   3.697   4.063   2.713
 3614TIP3   OH210780   4.447   3.390   2.404
 3614TIP3    H110781   4.415   3.366   2.490
 3614TIP3    H210782   4.506   3.463   2.420
 3615TIP3   OH210783   3.498   4.236   2.889
 3615TIP3    H110784   3.485   4.323   2.851
 3615TIP3    H210785   3.422   4.223   2.945
 3616TIP3   OH210786   2.877   3.943   2.138
 3616TIP3    H110787   2.842   3.959   2.050
 3616TIP3    H210788   2.901   4.029   2.170
 3617TIP3   OH210789   4.317   4.450   2.373
 3617TIP3    H110790   4.230   4.442   2.412
 3617TIP3    H210791   4.315   4.534   2.328
 3618TIP3   OH210792   4.631   3.331   2.741
 3618TIP3    H110793   4.546   3.355   2.705
 3618TIP3    H210794   4.694   3.361   2.676
 3619TIP3   OH210795   3.909   2.958   2.732
 3619TIP3    H110796   3.902   2.866   2.758
 3619TIP3    H210797   3.832   2.999   2.773
 3620TIP3   OH210798   4.021   4.483   2.033
 3620TIP3    H110799   4.071   4.402   2.020
 3620TIP3    H210800   4.080   4.553   2.003
 3621TIP3   OH210801   4.171   4.263   1.977
 3621TIP3    H110802   4.165   4.182   1.926
 3621TIP3    H210803   4.209   4.235   2.060
 3622TIP3   OH210804   4.546   4.349   2.719
 3622TIP3    H110805   4.535   4.273   2.661
 3622TIP3    H210806   4.532   4.425   2.663
 3623TIP3   OH210807   3.838   3.746   1.985
 3623TIP3    H110808   3.759   3.796   1.967
 3623TIP3    H210809   3.885   3.745   1.902
 3624TIP3   OH210810   3.809   3.542   1.687
 3624TIP3    H110811   3.874   3.593   1.735
 3624TIP3    H210812   3.860   3.478   1.638
 3625TIP3   OH210813   4.736   3.992   2.579
 3625TIP3    H110814   4.654   4.043   2.580
 3625TIP3    H210815   4.776   4.013   2.495
 3626TIP3   OH210816   4.194   3.834   1.951
 3626TIP3    H110817   4.140   3.860   2.025
 3626TIP3    H210818   4.277   3.808   1.990
 3627TIP3   OH210819   4.422   3.857   2.889
 3627TIP3    H110820   4.427   3.942   2.934
 3627TIP3    H210821   4.340   3.862   2.839
 3628TIP3   OH210822   3.421   3.814   2.373
 3628TIP3    H110823   3.384   3.760   2.303
 3628TIP3    H210824   3.498   3.765   2.402
 3629TIP3   OH210825   3.556   4.236   2.501
 3629TIP3    H110826   3.537   4.221   2.409
 3629TIP3    H210827   3.643   4.199   2.514
 3630TIP3   OH210828   3.579   3.757   2.756
 3630TIP3    H110829   3.600   3.725   2.668
 3630TIP3    H210830   3.610   3.848   2.756
 3631TIP3   OH210831   4.080   4.440   2.506
 3631TIP3    H110832   4.068   4.522   2.556
 3631TIP3    H210833   4.064   4.371   2.570
 3632TIP3   OH210834   3.698   4.347   3.049
 3632TIP3    H110835   3.640   4.407   3.096
 3632TIP3    H210836   3.639   4.295   2.994
 3633TIP3   OH210837   4.028   3.693   1.782
 3633TIP3    H110838   4.088   3.750   1.831
 3633TIP3    H210839   4.054   3.704   1.690
 3634TIP3   OH210840   3.457   3.927   3.163
 3634TIP3    H110841   3.464   4.014   3.203
 3634TIP3    H210842   3.372   3.895   3.192
 3635TIP3   OH210843   3.772   4.366   2.048
 3635TIP3    H110844   3.857   4.410   2.051
 3635TIP3    H210845   3.716   4.424   1.997
 3636TIP3   OH210846   3.490   4.509   3.134
 3636TIP3    H110847   3.463   4.517   3.042
 3636TIP3    H210848   3.408   4.493   3.181
 3637TIP3   OH210849   4.542   2.923   1.836
 3637TIP3    H110850   4.464   2.944   1.887
 3637TIP3    H210851   4.557   3.000   1.781
 3638TIP3   OH210852   3.296   3.665   2.167
 3638TIP3    H110853   3.224   3.711   2.125
 3638TIP3    H210854   3.266   3.574   2.175
 3639TIP3   OH210855   4.358   4.296   1.388
 3639TIP3    H110856   4.358   4.389   1.368
 3639TIP3    H210857   4.448   4.267   1.368
 3640TIP3   OH210858   3.076   4.051   3.088
 3640TIP3    H110859   3.006   4.041   3.023
 3640TIP3    H210860   3.102   3.961   3.109
 3641TIP3   OH210861   2.925   4.254   2.733
 3641TIP3    H110862   3.019   4.272   2.734
 3641TIP3    H210863   2.885   4.334   2.767
 3642TIP3   OH210864   4.782   4.700   2.784
 3642TIP3    H110865   4.787   4.606   2.799
 3642TIP3    H210866   4.702   4.727   2.830
 3643TIP3   OH210867   3.887   4.487   2.907
 3643TIP3    H110868   3.884   4.578   2.937
 3643TIP3    H210869   3.820   4.442   2.959
 3644TIP3   OH210870   3.664   4.595   1.865
 3644TIP3    H110871   3.619   4.576   1.783
 3644TIP3    H210872   3.630   4.680   1.893
 3645TIP3   OH210873   3.098   4.448   2.244
 3645TIP3    H110874   3.143   4.439   2.328
 3645TIP3    H210875   3.050   4.366   2.235
 3646TIP3   OH210876   3.866   4.518   1.494
 3646TIP3    H110877   3.917   4.445   1.458
 3646TIP3    H210878   3.901   4.531   1.582
 3647TIP3   OH210879   3.918   4.565   1.764
 3647TIP3    H110880   3.832   4.569   1.806
 3647TIP3    H210881   3.976   4.531   1.832
 3648TIP3   OH210882   4.677   3.817   3.062
 3648TIP3    H110883   4.592   3.840   3.025
 3648TIP3    H210884   4.690   3.725   3.038
 3649TIP3   OH210885   3.283   4.234   3.058
 3649TIP3    H110886   3.328   4.232   3.143
 3649TIP3    H210887   3.208   4.176   3.070
 3650TIP3   OH210888   3.666   3.073   2.834
 3650TIP3    H110889   3.578   3.034   2.833
 3650TIP3    H210890   3.659   3.148   2.775
 3651TIP3   OH210891   4.217   3.172   3.061
 3651TIP3    H110892   4.287   3.144   3.120
 3651TIP3    H210893   4.136   3.151   3.108
 3652TIP3   OH210894   4.430   3.595   2.988
 3652TIP3    H110895   4.389   3.594   3.075
 3652TIP3    H210896   4.417   3.685   2.957
 3653TIP3   OH210897   4.107   3.703   1.522
 3653TIP3    H110898   4.065   3.695   1.436
 3653TIP3    H210899   4.191   3.745   1.503
 3654TIP3   OH210900   3.815   3.100   1.832
 3654TIP3    H110901   3.780   3.105   1.920
 3654TIP3    H210902   3.780   3.019   1.796
 3655TIP3   OH210903   3.495   3.449   2.406
 3655TIP3    H110904   3.404   3.427   2.426
 3655TIP3    H210905   3.509   3.417   2.317
 3656TIP3   OH210906   3.971   3.544   2.117
 3656TIP3    H110907   3.921   3.615   2.076
 3656TIP3    H210908   4.029   3.512   2.048
 3657TIP3   OH210909   4.164   3.814   3.199
 3657TIP3    H110910   4.133   3.753   3.265
 3657TIP3    H210911   4.253   3.837   3.228
 3658TIP3   OH210912   4.132   3.561   2.344
 3658TIP3    H110913   4.072   3.588   2.274
 3658TIP3    H210914   4.178   3.486   2.309
 3659TIP3   OH210915   3.470   3.545   3.052
 3659TIP3    H110916   3.520   3.579   3.126
 3659TIP3    H210917   3.428   3.466   3.086
 3660TIP3   OH210918   3.480   3.080   1.803
 3660TIP3    H110919   3.471   3.083   1.898
 3660TIP3    H210920   3.403   3.126   1.770
 3661TIP3   OH210921   3.034   3.122   2.670
 3661TIP3    H110922   3.114   3.161   2.705
 3661TIP3    H210923   3.059   3.093   2.582
 3662TIP3   OH210924   2.953   3.103   2.182
 3662TIP3    H110925   2.998   3.136   2.104
 3662TIP3    H210926   2.890   3.171   2.205
 3663TIP3   OH210927   4.149   3.806   2.775
 3663TIP3    H110928   4.179   3.740   2.713
 3663TIP3    H210929   4.123   3.756   2.853
 3664TIP3   OH210930   3.841   3.266   2.447
 3664TIP3    H110931   3.766   3.265   2.506
 3664TIP3    H210932   3.916   3.250   2.504
 3665TIP3   OH210933   3.246   3.341   2.451
 3665TIP3    H110934   3.157   3.340   2.416
 3665TIP3    H210935   3.277   3.251   2.441
 3666TIP3   OH210936   3.506   3.340   2.152
 3666TIP3    H110937   3.600   3.353   2.137
 3666TIP3    H210938   3.466   3.360   2.067
 3667TIP3   OH210939   4.323   3.349   2.654
 3667TIP3    H110940   4.295   3.364   2.745
 3667TIP3    H210941   4.263   3.281   2.623
 3668TIP3   OH210942   3.379   3.370   1.910
 3668TIP3    H110943   3.314   3.321   1.858
 3668TIP3    H210944   3.434   3.413   1.845
 3669TIP3   OH210945   4.492   5.051   2.875
 3669TIP3    H110946   4.490   5.066   2.781
 3669TIP3    H210947   4.571   5.096   2.906
 3670TIP3   OH210948   3.441   4.167   3.295
 3670TIP3    H110949   3.522   4.187   3.342
 3670TIP3    H210950   3.373   4.169   3.363
 3671TIP3   OH210951   3.912   3.626   2.525
 3671TIP3    H110952   3.973   3.596   2.458
 3671TIP3    H210953   3.940   3.583   2.605
 3672TIP3   OH210954   3.404   3.101   2.464
 3672TIP3    H110955   3.371   3.022   2.506
 3672TIP3    H210956   3.451   3.069   2.387
 3673TIP3   OH210957   3.843   3.566   2.899
 3673TIP3    H110958   3.816   3.651   2.865
 3673TIP3    H210959   3.933   3.578   2.928
 3674TIP3   OH210960   3.603   3.892   1.932
 3674TIP3    H110961   3.530   3.833   1.912
 3674TIP3    H210962   3.582   3.928   2.018
 3675TIP3   OH210963   4.502   4.138   2.545
 3675TIP3    H110964   4.538   4.187   2.470
 3675TIP3    H210965   4.421   4.100   2.512
 3676TIP3   OH210966   4.070   3.200   1.829
 3676TIP3    H110967   3.976   3.181   1.825
 3676TIP3    H210968   4.075   3.295   1.839
 3677TIP3   OH210969   4.005   4.213   2.950
 3677TIP3    H110970   4.062   4.208   3.026
 3677TIP3    H210971   3.971   4.303   2.952
 3678TIP3   OH210972   4.134   3.463   1.903
 3678TIP3    H110973   4.229   3.466   1.911
 3678TIP3    H210974   4.112   3.539   1.850
 3679TIP3   OH210975   3.314   3.905   2.613
 3679TIP3    H110976   3.341   3.888   2.522
 3679TIP3    H210977   3.379   3.858   2.665
 3680TIP3   OH210978   3.758   4.049   1.770
 3680TIP3    H110979   3.712   4.133   1.769
 3680TIP3    H210980   3.704   3.992   1.825
 3681TIP3   OH210981   3.199   3.815   3.201
 3681TIP3    H110982   3.215   3.811   3.295
 3681TIP3    H210983   3.117   3.765   3.189
 3682TIP3   OH210984   3.931   3.971   3.232
 3682TIP3    H110985   3.878   3.906   3.186
 3682TIP3    H210986   4.021   3.946   3.213
 3683TIP3   OH210987   4.158   4.492   2.832
 3683TIP3    H110988   4.063   4.487   2.840
 3683TIP3    H210989   4.186   4.540   2.910
 3684TIP3   OH210990   4.555   3.555   1.731
 3684TIP3    H110991   4.498   3.509   1.670
 3684TIP3    H210992   4.562   3.644   1.696
 3685TIP3   OH210993   4.796   4.414   2.812
 3685TIP3    H110994   4.700   4.406   2.805
 3685TIP3    H210995   4.829   4.388   2.726
 3686TIP3   OH210996   4.284   4.369   1.650
 3686TIP3    H110997   4.257   4.297   1.707
 3686TIP3    H210998   4.302   4.327   1.566
 3687TIP3   OH210999   4.269   4.006   2.445
 3687TIP3    H111000   4.177   3.985   2.466
 3687TIP3    H211001   4.304   3.925   2.408
 3688TIP3   OH211002   3.418   4.237   2.247
 3688TIP3    H111003   3.422   4.314   2.190
 3688TIP3    H211004   3.325   4.222   2.261
 3689TIP3   OH211005   2.983   3.528   1.956
 3689TIP3    H111006   3.025   3.612   1.975
 3689TIP3    H211007   2.902   3.530   2.008
 3690TIP3   OH211008   3.516   3.988   2.171
 3690TIP3    H111009   3.497   4.080   2.192
 3690TIP3    H211010   3.486   3.939   2.247
 3691TIP3   OH211011   3.697   4.562   2.704
 3691TIP3    H111012   3.733   4.635   2.653
 3691TIP3    H211013   3.771   4.530   2.755
 3692TIP3   OH211014   3.332   4.466   2.095
 3692TIP3    H111015   3.246   4.472   2.136
 3692TIP3    H211016   3.366   4.556   2.098
 3693TIP3   OH211017   4.052   4.217   2.677
 3693TIP3    H111018   4.041   4.212   2.772
 3693TIP3    H211019   4.136   4.175   2.660
 3694TIP3   OH211020   4.046   4.103   1.554
 3694TIP3    H111021   4.094   4.084   1.634
 3694TIP3    H211022   3.959   4.066   1.568
 3695TIP3   OH211023   4.307   4.732   2.713
 3695TIP3    H111024   4.231   4.674   2.715
 3695TIP3    H211025   4.289   4.793   2.642
 3696TIP3   OH211026   4.367   4.570   1.357
 3696TIP3    H111027   4.396   4.635   1.293
 3696TIP3    H211028   4.293   4.612   1.401
 3697TIP3   OH211029   3.381   3.342   3.209
 3697TIP3    H111030   3.289   3.355   3.234
 3697TIP3    H211031   3.417   3.287   3.279
 3698TIP3   OH211032   4.214   4.045   1.771
 3698TIP3    H111033   4.199   3.972   1.831
 3698TIP3    H211034   4.308   4.042   1.752
 3699TIP3   OH211035   3.126   4.452   2.863
 3699TIP3    H111036   3.180   4.390   2.912
 3699TIP3    H211037   3.142   4.536   2.905
 3700TIP3   OH211038   3.401   4.071   1.553
 3700TIP3    H111039   3.411   3.979   1.526
 3700TIP3    H211040   3.381   4.066   1.647
 3701TIP3   OH211041   3.343   4.086   1.826
 3701TIP3    H111042   3.418   4.059   1.878
 3701TIP3    H211043   3.342   4.182   1.832
 3702TIP3   OH211044   3.079   3.779   2.036
 3702TIP3    H111045   3.012   3.824   2.087
 3702TIP3    H211046   3.098   3.838   1.963
 3703TIP3   OH211047   4.243   3.404   2.913
 3703TIP3    H111048   4.320   3.450   2.947
 3703TIP3    H211049   4.235   3.327   2.969
 3704TIP3   OH211050   4.126   3.153   2.098
 3704TIP3    H111051   4.106   3.170   2.006
 3704TIP3    H211052   4.169   3.233   2.129
 3705TIP3   OH211053   3.613   4.277   1.771
 3705TIP3    H111054   3.527   4.302   1.806
 3705TIP3    H211055   3.636   4.350   1.713
 3706TIP3   OH211056   3.787   3.350   2.187
 3706TIP3    H111057   3.849   3.417   2.161
 3706TIP3    H211058   3.805   3.334   2.280
 3707TIP3   OH211059   4.091   3.641   2.988
 3707TIP3    H111060   4.121   3.691   3.064
 3707TIP3    H211061   4.146   3.564   2.987
 3708TIP3   OH211062   3.942   3.053   2.280
 3708TIP3    H111063   3.920   3.131   2.331
 3708TIP3    H211064   4.010   3.082   2.219
 3709TIP3   OH211065   3.359   4.359   1.843
 3709TIP3    H111066   3.337   4.428   1.781
 3709TIP3    H211067   3.347   4.399   1.929
 3710TIP3   OH211068   3.455   3.069   2.080
 3710TIP3    H111069   3.445   3.159   2.113
 3710TIP3    H211070   3.549   3.053   2.087
 3711TIP3   OH211071   4.698   3.554   2.969
 3711TIP3    H111072   4.603   3.550   2.978
 3711TIP3    H211073   4.715   3.519   2.881
 3712TIP3   OH211074   4.358   3.749   2.354
 3712TIP3    H111075   4.284   3.689   2.363
 3712TIP3    H211076   4.428   3.707   2.405
 3713TIP3   OH211077   3.091   3.963   1.824
 3713TIP3    H111078   3.160   4.028   1.833
 3713TIP3    H211079   3.124   3.900   1.760
 3714TIP3   OH211080   3.010   3.251   1.959
 3714TIP3    H111081   3.022   3.346   1.965
 3714TIP3    H211082   2.951   3.239   1.885
 3715TIP3   OH211083   4.336   4.720   2.294
 3715TIP3    H111084   4.294   4.768   2.223
 3715TIP3    H211085   4.430   4.734   2.280
 3716TIP3   OH211086   3.408   2.971   2.831
 3716TIP3    H111087   3.378   2.937   2.747
 3716TIP3    H211088   3.396   2.899   2.892
 3717TIP3   OH211089   2.931   4.215   2.218
 3717TIP3    H111090   2.883   4.250   2.292
 3717TIP3    H211091   2.892   4.257   2.141
 3718TIP3   OH211092   3.120   4.758   3.285
 3718TIP3    H111093   3.202   4.764   3.334
 3718TIP3    H211094   3.104   4.664   3.276
 3719TIP3   OH211095   3.585   4.683   3.328
 3719TIP3    H111096   3.679   4.666   3.340
 3719TIP3    H211097   3.560   4.625   3.256
 3720TIP3   OH211098   3.559   4.273   1.450
 3720TIP3    H111099   3.511   4.201   1.492
 3720TIP3    H211100   3.633   4.231   1.408
 3721TIP3   OH211101   4.216   4.615   3.070
 3721TIP3    H111102   4.218   4.544   3.133
 3721TIP3    H211103   4.293   4.668   3.092
 3722TIP3   OH211104   3.998   4.310   1.373
 3722TIP3    H111105   4.033   4.245   1.434
 3722TIP3    H211106   4.056   4.304   1.297
 3723TIP3   OH211107   3.234   4.155   3.480
 3723TIP3    H111108   3.250   4.061   3.495
 3723TIP3    H211109   3.147   4.158   3.440
 3724TIP3   OH211110   3.221   3.771   1.680
 3724TIP3    H111111   3.275   3.748   1.756
 3724TIP3    H211112   3.284   3.783   1.609
 3725TIP3   OH211113   3.850   4.244   3.255
 3725TIP3    H111114   3.808   4.264   3.172
 3725TIP3    H211115   3.889   4.158   3.242
 3726TIP3   OH211116   3.769   3.991   1.501
 3726TIP3    H111117   3.753   4.004   1.595
 3726TIP3    H211118   3.758   3.896   1.488
 3727TIP3   OH211119   4.324   4.268   2.862
 3727TIP3    H111120   4.402   4.300   2.818
 3727TIP3    H211121   4.260   4.338   2.850
 3728TIP3   OH211122   3.360   3.882   3.463
 3728TIP3    H111123   3.441   3.837   3.438
 3728TIP3    H211124   3.376   3.912   3.552
 3729TIP3   OH211125   3.401   3.705   1.887
 3729TIP3    H111126   3.382   3.669   1.974
 3729TIP3    H211127   3.448   3.634   1.842
 3730TIP3   OH211128   3.643   3.761   3.055
 3730TIP3    H111129   3.599   3.829   3.106
 3730TIP3    H211130   3.720   3.804   3.018
 3731TIP3   OH211131   3.534   3.513   1.734
 3731TIP3    H111132   3.505   3.517   1.643
 3731TIP3    H211133   3.629   3.518   1.729
 3732TIP3   OH211134   4.204   4.156   3.247
 3732TIP3    H111135   4.288   4.132   3.210
 3732TIP3    H211136   4.199   4.107   3.329
 3733TIP3   OH211137   4.335   3.816   1.410
 3733TIP3    H111138   4.321   3.772   1.326
 3733TIP3    H211139   4.308   3.906   1.395
 3734TIP3   OH211140   3.801   3.569   3.238
 3734TIP3    H111141   3.811   3.481   3.202
 3734TIP3    H211142   3.770   3.622   3.164
 3735TIP3   OH211143   3.798   3.343   3.063
 3735TIP3    H111144   3.818   3.406   2.994
 3735TIP3    H211145   3.712   3.308   3.040
 3736TIP3   OH211146   3.845   3.873   2.916
 3736TIP3    H111147   3.935   3.902   2.901
 3736TIP3    H211148   3.792   3.939   2.871
 3737TIP3   OH211149   4.421   3.852   3.317
 3737TIP3    H111150   4.469   3.778   3.354
 3737TIP3    H211151   4.487   3.920   3.305
 3738TIP3   OH211152   4.463   4.098   3.023
 3738TIP3    H111153   4.404   4.157   2.976
 3738TIP3    H211154   4.551   4.122   2.991
 3739TIP3   OH211155   3.680   3.658   3.480
 3739TIP3    H111156   3.620   3.588   3.507
 3739TIP3    H211157   3.720   3.626   3.400
 3740TIP3   OH211158   3.947   3.109   3.125
 3740TIP3    H111159   3.902   3.191   3.104
 3740TIP3    H211160   3.880   3.042   3.112
 3741TIP3   OH211161   4.064   3.606   3.347
 3741TIP3    H111162   4.056   3.587   3.441
 3741TIP3    H211163   3.976   3.592   3.312
 3742TIP3   OH211164   4.300   3.535   3.221
 3742TIP3    H111165   4.218   3.555   3.266
 3742TIP3    H211166   4.350   3.484   3.285
 3743TIP3   OH211167   3.535   3.425   3.548
 3743TIP3    H111168   3.538   3.335   3.516
 3743TIP3    H211169   3.573   3.420   3.636
 3744TIP3   OH211170   4.003   3.084   3.393
 3744TIP3    H111171   4.080   3.027   3.394
 3744TIP3    H211172   3.978   3.090   3.301
 3745TIP3   OH211173   4.077   3.300   3.547
 3745TIP3    H111174   4.047   3.235   3.483
 3745TIP3    H211175   4.016   3.373   3.538
 3746TIP3   OH211176   3.349   4.564   1.656
 3746TIP3    H111177   3.440   4.547   1.632
 3746TIP3    H211178   3.312   4.611   1.581
 3747TIP3   OH211179   2.818   3.941   1.854
 3747TIP3    H111180   2.912   3.958   1.843
 3747TIP3    H211181   2.805   3.856   1.812
 3748TIP3   OH211182   2.728   4.537   2.295
 3748TIP3    H111183   2.663   4.483   2.250
 3748TIP3    H211184   2.773   4.477   2.354
 3749TIP3   OH211185   2.867   4.372   2.468
 3749TIP3    H111186   2.854   4.307   2.537
 3749TIP3    H211187   2.920   4.441   2.510
 3750TIP3   OH211188   4.602   4.788   2.276
 3750TIP3    H111189   4.629   4.816   2.363
 3750TIP3    H211190   4.665   4.829   2.217
 3751TIP3   OH211191   4.629   4.809   2.560
 3751TIP3    H111192   4.581   4.726   2.552
 3751TIP3    H211193   4.700   4.789   2.621
 3752TIP3   OH211194   4.665   4.506   3.128
 3752TIP3    H111195   4.597   4.513   3.194
 3752TIP3    H211196   4.713   4.589   3.134
 3753TIP3   OH211197   4.491   4.018   1.742
 3753TIP3    H111198   4.552   4.085   1.710
 3753TIP3    H211199   4.536   3.979   1.816
 3754TIP3   OH211200   4.620   3.876   1.942
 3754TIP3    H111201   4.554   3.838   2.000
 3754TIP3    H211202   4.686   3.912   2.002
 3755TIP3   OH211203   4.672   4.273   2.372
 3755TIP3    H111204   4.726   4.205   2.333
 3755TIP3    H211205   4.674   4.345   2.309
 3756TIP3   OH211206   4.484   4.569   2.565
 3756TIP3    H111207   4.416   4.612   2.616
 3756TIP3    H211208   4.437   4.526   2.494
 3757TIP3   OH211209   4.542   3.793   1.589
 3757TIP3    H111210   4.472   3.791   1.524
 3757TIP3    H211211   4.523   3.870   1.643
 3758TIP3   OH211212   4.396   3.451   1.537
 3758TIP3    H111213   4.357   3.489   1.457
 3758TIP3    H211214   4.382   3.357   1.527
 3759TIP3   OH211215   4.421   3.737   2.083
 3759TIP3    H111216   4.430   3.643   2.071
 3759TIP3    H211217   4.405   3.749   2.176
 3760TIP3   OH211218   3.061   3.797   2.840
 3760TIP3    H111219   3.036   3.764   2.754
 3760TIP3    H211220   3.155   3.814   2.832
 3761TIP3   OH211221   4.719   4.160   2.939
 3761TIP3    H111222   4.783   4.091   2.923
 3761TIP3    H211223   4.746   4.232   2.882
 3762TIP3   OH211224   4.884   3.943   2.933
 3762TIP3    H111225   4.814   3.901   2.983
 3762TIP3    H211226   4.962   3.891   2.953
 3763TIP3   OH211227   4.352   3.183   1.515
 3763TIP3    H111228   4.421   3.151   1.573
 3763TIP3    H211229   4.274   3.133   1.539
 3764TIP3   OH211230   4.421   3.458   1.967
 3764TIP3    H111231   4.465   3.374   1.980
 3764TIP3    H211232   4.466   3.498   1.893
 3765TIP3   OH211233   4.575   3.625   2.485
 3765TIP3    H111234   4.655   3.644   2.438
 3765TIP3    H211235   4.589   3.662   2.573
 3766TIP3   OH211236   4.647   3.770   2.717
 3766TIP3    H111237   4.574   3.803   2.770
 3766TIP3    H211238   4.680   3.848   2.672
 3767TIP3   OH211239   3.269   3.483   3.489
 3767TIP3    H111240   3.363   3.483   3.508
 3767TIP3    H211241   3.237   3.403   3.531
 3768TIP3   OH211242   5.091   3.371   3.250
 3768TIP3    H111243   5.158   3.312   3.216
 3768TIP3    H211244   5.062   3.422   3.174
 3769TIP3   OH211245   4.532   3.207   2.019
 3769TIP3    H111246   4.578   3.191   2.101
 3769TIP3    H211247   4.470   3.134   2.011
 3770TIP3   OH211248   3.258   3.208   2.822
 3770TIP3    H111249   3.315   3.131   2.821
 3770TIP3    H211250   3.235   3.220   2.914
 3771TIP3   OH211251   3.027   3.439   2.911
 3771TIP3    H111252   3.072   3.441   2.827
 3771TIP3    H211253   3.042   3.526   2.948
 3772TIP3   OH211254   4.955   3.486   3.040
 3772TIP3    H111255   4.867   3.523   3.039
 3772TIP3    H211256   4.945   3.400   2.998
 3773TIP3   OH211257   4.590   3.127   1.657
 3773TIP3    H111258   4.634   3.065   1.598
 3773TIP3    H211259   4.647   3.204   1.657
 3774TIP3   OH211260   3.009   2.972   2.415
 3774TIP3    H111261   2.920   2.957   2.447
 3774TIP3    H211262   2.998   3.024   2.335
 3775TIP3   OH211263   4.167   4.680   1.921
 3775TIP3    H111264   4.223   4.668   1.844
 3775TIP3    H211265   4.212   4.747   1.973
 3776TIP3   OH211266   3.227   3.034   3.226
 3776TIP3    H111267   3.183   3.033   3.311
 3776TIP3    H211268   3.166   3.079   3.168
 3777TIP3   OH211269   3.264   4.472   3.294
 3777TIP3    H111270   3.170   4.455   3.292
 3777TIP3    H211271   3.288   4.466   3.387
 3778TIP3   OH211272   3.468   4.514   2.849
 3778TIP3    H111273   3.415   4.588   2.817
 3778TIP3    H211274   3.553   4.526   2.808
 3779TIP3   OH211275   3.881   4.754   2.987
 3779TIP3    H111276   3.918   4.748   3.075
 3779TIP3    H211277   3.944   4.807   2.938
 3780TIP3   OH211278   4.070   4.910   2.858
 3780TIP3    H111279   4.136   4.856   2.814
 3780TIP3    H211280   4.120   4.968   2.914
 3781TIP3   OH211281   4.870   3.238   2.948
 3781TIP3    H111282   4.783   3.226   2.912
 3781TIP3    H211283   4.910   3.151   2.944
 3782TIP3   OH211284   3.130   4.763   2.897
 3782TIP3    H111285   3.039   4.783   2.873
 3782TIP3    H211286   3.153   4.829   2.962
 3783TIP3   OH211287   3.360   4.746   2.744
 3783TIP3    H111288   3.277   4.755   2.791
 3783TIP3    H211289   3.340   4.776   2.655
 3784TIP3   OH211290   3.783   4.767   2.536
 3784TIP3    H111291   3.714   4.782   2.472
 3784TIP3    H211292   3.794   4.853   2.578
 3785TIP3   OH211293   4.050   4.707   2.586
 3785TIP3    H111294   3.957   4.724   2.568
 3785TIP3    H211295   4.097   4.776   2.539
 3786TIP3   OH211296   4.257   4.894   2.493
 3786TIP3    H111297   4.247   4.979   2.450
 3786TIP3    H211298   4.284   4.835   2.423
 3787TIP3   OH211299   3.042   4.548   2.614
 3787TIP3    H111300   3.065   4.524   2.704
 3787TIP3    H211301   3.114   4.515   2.561
 3788TIP3   OH211302   3.244   4.428   2.478
 3788TIP3    H111303   3.256   4.346   2.525
 3788TIP3    H211304   3.330   4.470   2.479
 3789TIP3   OH211305   3.511   4.517   2.497
 3789TIP3    H111306   3.532   4.424   2.483
 3789TIP3    H211307   3.563   4.542   2.573
 3790TIP3   OH211308   4.063   3.163   2.577
 3790TIP3    H111309   4.031   3.089   2.628
 3790TIP3    H211310   4.137   3.128   2.528
 3791TIP3   OH211311   4.581   3.071   2.475
 3791TIP3    H111312   4.620   3.120   2.402
 3791TIP3    H211313   4.489   3.097   2.474
 3792TIP3   OH211314   4.692   3.154   2.239
 3792TIP3    H111315   4.762   3.095   2.208
 3792TIP3    H211316   4.728   3.241   2.226
 3793TIP3   OH211317   3.319   2.869   2.590
 3793TIP3    H111318   3.229   2.837   2.595
 3793TIP3    H211319   3.372   2.790   2.581
 3794TIP3   OH211320   3.127   2.769   2.238
 3794TIP3    H111321   3.156   2.818   2.161
 3794TIP3    H211322   3.096   2.836   2.299
 3795TIP3   OH211323   3.787   2.911   2.474
 3795TIP3    H111324   3.837   2.956   2.405
 3795TIP3    H211325   3.834   2.932   2.554
 3796TIP3   OH211326   4.292   3.062   2.457
 3796TIP3    H111327   4.304   3.030   2.368
 3796TIP3    H211328   4.294   2.983   2.512
 3797TIP3   OH211329   4.346   2.997   2.018
 3797TIP3    H111330   4.265   3.043   2.039
 3797TIP3    H211331   4.335   2.910   2.057
 3798TIP3   OH211332   2.816   4.341   2.004
 3798TIP3    H111333   2.732   4.307   1.973
 3798TIP3    H211334   2.818   4.431   1.972
 3799TIP3   OH211335   3.240   2.903   2.002
 3799TIP3    H111336   3.285   2.843   1.942
 3799TIP3    H211337   3.309   2.960   2.035
 3800TIP3   OH211338   3.731   3.097   2.096
 3800TIP3    H111339   3.791   3.046   2.150
 3800TIP3    H211340   3.747   3.188   2.121
 3801TIP3   OH211341   3.609   4.499   1.594
 3801TIP3    H111342   3.693   4.527   1.558
 3801TIP3    H211343   3.581   4.427   1.538
 3802TIP3   OH211344   4.318   4.637   1.691
 3802TIP3    H111345   4.311   4.542   1.682
 3802TIP3    H211346   4.274   4.671   1.613
 3803TIP3   OH211347   3.538   3.148   3.464
 3803TIP3    H111348   3.500   3.083   3.523
 3803TIP3    H211349   3.630   3.155   3.490
 3804TIP3   OH211350   3.785   3.149   3.584
 3804TIP3    H111351   3.865   3.128   3.537
 3804TIP3    H211352   3.779   3.083   3.654
 3805TIP3   OH211353   2.910   4.340   1.649
 3805TIP3    H111354   2.915   4.357   1.743
 3805TIP3    H211355   2.992   4.295   1.629
 3806TIP3   OH211356   4.639   3.328   3.449
 3806TIP3    H111357   4.653   3.251   3.504
 3806TIP3    H211358   4.702   3.318   3.378
 3807TIP3   OH211359   4.532   4.776   2.881
 3807TIP3    H111360   4.457   4.746   2.830
 3807TIP3    H211361   4.520   4.870   2.889
 3808TIP3   OH211362   5.808   4.158   1.627
 3808TIP3    H111363   5.782   4.248   1.605
 3808TIP3    H211364   5.736   4.104   1.596
 3809TIP3   OH211365   5.804   4.153   2.040
 3809TIP3    H111366   5.852   4.138   2.122
 3809TIP3    H211367   5.762   4.069   2.022
 3810TIP3   OH211368   5.106   4.028   2.398
 3810TIP3    H111369   5.139   3.969   2.466
 3810TIP3    H211370   5.184   4.065   2.358
 3811TIP3   OH211371   6.065   4.461   1.718
 3811TIP3    H111372   6.058   4.395   1.787
 3811TIP3    H211373   6.092   4.541   1.764
 3812TIP3   OH211374   5.089   4.447   2.093
 3812TIP3    H111375   5.076   4.353   2.098
 3812TIP3    H211376   5.184   4.458   2.083
 3813TIP3   OH211377   4.782   3.651   1.875
 3813TIP3    H111378   4.743   3.735   1.897
 3813TIP3    H211379   4.712   3.602   1.833
 3814TIP3   OH211380   4.853   3.953   2.080
 3814TIP3    H111381   4.902   3.876   2.108
 3814TIP3    H211382   4.919   4.013   2.046
 3815TIP3   OH211383   5.719   4.903   1.727
 3815TIP3    H111384   5.754   4.833   1.671
 3815TIP3    H211385   5.717   4.865   1.815
 3816TIP3   OH211386   5.611   4.378   2.059
 3816TIP3    H111387   5.653   4.299   2.024
 3816TIP3    H211388   5.684   4.432   2.089
 3817TIP3   OH211389   6.637   3.700   2.069
 3817TIP3    H111390   6.657   3.782   2.114
 3817TIP3    H211391   6.666   3.715   1.978
 3818TIP3   OH211392   6.020   3.868   2.091
 3818TIP3    H111393   6.058   3.785   2.117
 3818TIP3    H211394   5.985   3.852   2.003
 3819TIP3   OH211395   5.373   3.527   2.050
 3819TIP3    H111396   5.352   3.601   1.992
 3819TIP3    H211397   5.319   3.456   2.016
 3820TIP3   OH211398   6.071   3.625   1.686
 3820TIP3    H111399   6.136   3.618   1.755
 3820TIP3    H211400   6.119   3.662   1.612
 3821TIP3   OH211401   4.996   3.736   2.175
 3821TIP3    H111402   5.079   3.721   2.220
 3821TIP3    H211403   5.003   3.685   2.094
 3822TIP3   OH211404   5.426   3.937   1.982
 3822TIP3    H111405   5.520   3.919   1.992
 3822TIP3    H211406   5.390   3.856   1.948
 3823TIP3   OH211407   6.697   3.911   2.241
 3823TIP3    H111408   6.616   3.960   2.229
 3823TIP3    H211409   6.739   3.952   2.317
 3824TIP3   OH211410   5.357   3.526   2.499
 3824TIP3    H111411   5.305   3.562   2.428
 3824TIP3    H211412   5.305   3.541   2.578
 3825TIP3   OH211413   5.710   4.381   1.488
 3825TIP3    H111414   5.668   4.354   1.406
 3825TIP3    H211415   5.657   4.454   1.520
 3826TIP3   OH211416   5.458   4.300   2.276
 3826TIP3    H111417   5.402   4.370   2.311
 3826TIP3    H211418   5.506   4.342   2.204
 3827TIP3   OH211419   6.245   3.639   1.896
 3827TIP3    H111420   6.200   3.621   1.979
 3827TIP3    H211421   6.299   3.716   1.915
 3828TIP3   OH211422   5.241   3.633   2.272
 3828TIP3    H111423   5.295   3.708   2.295
 3828TIP3    H211424   5.287   3.591   2.200
 3829TIP3   OH211425   5.294   4.501   2.376
 3829TIP3    H111426   5.278   4.590   2.344
 3829TIP3    H211427   5.217   4.481   2.431
 3830TIP3   OH211428   4.672   4.199   1.624
 3830TIP3    H111429   4.637   4.217   1.536
 3830TIP3    H211430   4.698   4.285   1.657
 3831TIP3   OH211431   6.113   4.705   1.860
 3831TIP3    H111432   6.026   4.698   1.899
 3831TIP3    H211433   6.113   4.790   1.816
 3832TIP3   OH211434   6.440   3.591   2.238
 3832TIP3    H111435   6.356   3.630   2.214
 3832TIP3    H211436   6.501   3.623   2.171
 3833TIP3   OH211437   5.699   3.223   2.225
 3833TIP3    H111438   5.688   3.131   2.249
 3833TIP3    H211439   5.624   3.267   2.265
 3834TIP3   OH211440   5.822   4.734   1.532
 3834TIP3    H111441   5.874   4.654   1.516
 3834TIP3    H211442   5.881   4.805   1.507
 3835TIP3   OH211443   5.963   4.508   1.464
 3835TIP3    H111444   5.891   4.446   1.463
 3835TIP3    H211445   6.011   4.487   1.544
 3836TIP3   OH211446   6.344   4.604   2.206
 3836TIP3    H111447   6.333   4.528   2.149
 3836TIP3    H211448   6.330   4.679   2.150
 3837TIP3   OH211449   5.638   4.003   1.470
 3837TIP3    H111450   5.556   4.049   1.452
 3837TIP3    H211451   5.683   4.000   1.386
 3838TIP3   OH211452   5.598   3.799   1.183
 3838TIP3    H111453   5.669   3.848   1.226
 3838TIP3    H211454   5.643   3.730   1.135
 3839TIP3   OH211455   6.535   4.247   2.062
 3839TIP3    H111456   6.453   4.296   2.064
 3839TIP3    H211457   6.574   4.268   1.977
 3840TIP3   OH211458   5.991   4.076   1.442
 3840TIP3    H111459   5.937   4.107   1.514
 3840TIP3    H211460   6.076   4.057   1.482
 3841TIP3   OH211461   6.220   4.121   2.372
 3841TIP3    H111462   6.223   4.203   2.422
 3841TIP3    H211463   6.136   4.124   2.327
 3842TIP3   OH211464   5.221   4.075   1.848
 3842TIP3    H111465   5.183   4.016   1.782
 3842TIP3    H211466   5.295   4.026   1.884
 3843TIP3   OH211467   5.352   4.495   1.988
 3843TIP3    H111468   5.332   4.475   1.897
 3843TIP3    H211469   5.439   4.458   2.002
 3844TIP3   OH211470   5.331   4.066   2.213
 3844TIP3    H111471   5.369   4.032   2.131
 3844TIP3    H211472   5.381   4.145   2.231
 3845TIP3   OH211473   5.875   4.696   1.992
 3845TIP3    H111474   5.864   4.777   2.042
 3845TIP3    H211475   5.862   4.626   2.055
 3846TIP3   OH211476   5.495   4.607   2.536
 3846TIP3    H111477   5.437   4.666   2.584
 3846TIP3    H211478   5.436   4.554   2.482
 3847TIP3   OH211479   5.829   3.941   1.265
 3847TIP3    H111480   5.887   3.999   1.315
 3847TIP3    H211481   5.853   3.955   1.174
 3848TIP3   OH211482   5.255   4.165   2.659
 3848TIP3    H111483   5.259   4.255   2.690
 3848TIP3    H211484   5.162   4.144   2.655
 3849TIP3   OH211485   5.571   4.618   1.535
 3849TIP3    H111486   5.653   4.667   1.544
 3849TIP3    H211487   5.511   4.679   1.492
 3850TIP3   OH211488   5.284   4.767   2.620
 3850TIP3    H111489   5.258   4.774   2.528
 3850TIP3    H211490   5.202   4.751   2.667
 3851TIP3   OH211491   6.342   3.187   1.328
 3851TIP3    H111492   6.263   3.205   1.378
 3851TIP3    H211493   6.352   3.262   1.270
 3852TIP3   OH211494   5.094   3.919   1.646
 3852TIP3    H111495   5.019   3.966   1.609
 3852TIP3    H211496   5.061   3.830   1.660
 3853TIP3   OH211497   6.146   4.522   0.987
 3853TIP3    H111498   6.152   4.610   0.950
 3853TIP3    H211499   6.220   4.475   0.949
 3854TIP3   OH211500   4.871   4.315   2.571
 3854TIP3    H111501   4.804   4.295   2.505
 3854TIP3    H211502   4.908   4.231   2.595
 3855TIP3   OH211503   4.734   4.499   2.209
 3855TIP3    H111504   4.829   4.499   2.198
 3855TIP3    H211505   4.717   4.577   2.262
 3856TIP3   OH211506   6.579   4.962   2.267
 3856TIP3    H111507   6.585   4.867   2.279
 3856TIP3    H211508   6.499   4.987   2.313
 3857TIP3   OH211509   5.683   4.745   2.391
 3857TIP3    H111510   5.681   4.836   2.423
 3857TIP3    H211511   5.618   4.700   2.444
 3858TIP3   OH211512   5.452   4.850   1.366
 3858TIP3    H111513   5.409   4.830   1.283
 3858TIP3    H211514   5.417   4.936   1.391
 3859TIP3   OH211515   4.894   4.704   1.732
 3859TIP3    H111516   4.939   4.696   1.816
 3859TIP3    H211517   4.846   4.622   1.723
 3860TIP3   OH211518   5.671   4.746   1.029
 3860TIP3    H111519   5.729   4.675   0.999
 3860TIP3    H211520   5.703   4.768   1.116
 3861TIP3   OH211521   5.711   4.826   1.285
 3861TIP3    H111522   5.624   4.829   1.324
 3861TIP3    H211523   5.767   4.791   1.355
 3862TIP3   OH211524   6.473   4.082   2.551
 3862TIP3    H111525   6.385   4.092   2.514
 3862TIP3    H211526   6.489   3.987   2.550
 3863TIP3   OH211527   5.076   4.498   2.546
 3863TIP3    H111528   5.126   4.487   2.627
 3863TIP3    H211529   5.004   4.436   2.553
 3864TIP3   OH211530   5.463   3.314   2.350
 3864TIP3    H111531   5.379   3.283   2.319
 3864TIP3    H211532   5.443   3.395   2.398
 3865TIP3   OH211533   6.011   3.418   2.549
 3865TIP3    H111534   6.081   3.401   2.612
 3865TIP3    H211535   5.930   3.408   2.599
 3866TIP3   OH211536   6.228   3.856   2.455
 3866TIP3    H111537   6.187   3.851   2.541
 3866TIP3    H211538   6.215   3.946   2.426
 3867TIP3   OH211539   5.893   3.948   0.997
 3867TIP3    H111540   5.833   4.007   0.952
 3867TIP3    H211541   5.980   3.986   0.981
 3868TIP3   OH211542   5.638   3.346   1.340
 3868TIP3    H111543   5.591   3.352   1.423
 3868TIP3    H211544   5.590   3.280   1.290
 3869TIP3   OH211545   5.400   3.841   2.358
 3869TIP3    H111546   5.357   3.852   2.443
 3869TIP3    H211547   5.379   3.921   2.310
 3870TIP3   OH211548   5.283   3.722   1.879
 3870TIP3    H111549   5.194   3.699   1.903
 3870TIP3    H211550   5.294   3.687   1.791
 3871TIP3   OH211551   5.765   3.801   1.609
 3871TIP3    H111552   5.718   3.873   1.568
 3871TIP3    H211553   5.825   3.770   1.540
 3872TIP3   OH211554   5.955   4.072   2.688
 3872TIP3    H111555   5.928   4.004   2.751
 3872TIP3    H211556   6.043   4.097   2.717
 3873TIP3   OH211557   5.929   3.816   1.838
 3873TIP3    H111558   5.863   3.844   1.775
 3873TIP3    H211559   5.973   3.742   1.796
 3874TIP3   OH211560   5.231   3.853   2.581
 3874TIP3    H111561   5.277   3.910   2.642
 3874TIP3    H211562   5.216   3.772   2.630
 3875TIP3   OH211563   5.273   3.351   1.293
 3875TIP3    H111564   5.259   3.349   1.387
 3875TIP3    H211565   5.192   3.387   1.257
 3876TIP3   OH211566   4.820   3.378   2.165
 3876TIP3    H111567   4.892   3.414   2.217
 3876TIP3    H211568   4.859   3.361   2.079
 3877TIP3   OH211569   4.748   3.359   1.671
 3877TIP3    H111570   4.792   3.394   1.594
 3877TIP3    H211571   4.685   3.427   1.695
 3878TIP3   OH211572   5.955   4.067   2.263
 3878TIP3    H111573   5.984   4.001   2.202
 3878TIP3    H211574   5.920   4.018   2.338
 3879TIP3   OH211575   5.638   3.517   1.935
 3879TIP3    H111576   5.558   3.520   1.989
 3879TIP3    H211577   5.710   3.514   1.998
 3880TIP3   OH211578   5.045   3.598   1.943
 3880TIP3    H111579   4.956   3.603   1.909
 3880TIP3    H211580   5.073   3.508   1.924
 3881TIP3   OH211581   5.301   3.597   1.635
 3881TIP3    H111582   5.394   3.610   1.619
 3881TIP3    H211583   5.259   3.617   1.552
 3882TIP3   OH211584   6.098   3.603   2.130
 3882TIP3    H111585   6.087   3.616   2.225
 3882TIP3    H211586   6.024   3.549   2.104
 3883TIP3   OH211587   5.168   3.629   1.399
 3883TIP3    H111588   5.104   3.580   1.348
 3883TIP3    H211589   5.223   3.672   1.333
 3884TIP3   OH211590   6.289   5.306   2.364
 3884TIP3    H111591   6.285   5.326   2.271
 3884TIP3    H211592   6.367   5.351   2.395
 3885TIP3   OH211593   5.233   4.419   2.778
 3885TIP3    H111594   5.315   4.441   2.823
 3885TIP3    H211595   5.166   4.423   2.846
 3886TIP3   OH211596   5.695   3.876   2.042
 3886TIP3    H111597   5.768   3.833   1.996
 3886TIP3    H211598   5.696   3.838   2.130
 3887TIP3   OH211599   5.193   3.351   1.925
 3887TIP3    H111600   5.163   3.275   1.975
 3887TIP3    H211601   5.219   3.315   1.840
 3888TIP3   OH211602   5.672   3.786   2.315
 3888TIP3    H111603   5.584   3.818   2.334
 3888TIP3    H211604   5.730   3.840   2.369
 3889TIP3   OH211605   5.405   4.148   1.415
 3889TIP3    H111606   5.332   4.091   1.394
 3889TIP3    H211607   5.383   4.186   1.500
 3890TIP3   OH211608   6.301   4.393   2.030
 3890TIP3    H111609   6.336   4.442   1.956
 3890TIP3    H211610   6.219   4.356   1.999
 3891TIP3   OH211611   5.854   3.488   1.255
 3891TIP3    H111612   5.773   3.449   1.287
 3891TIP3    H211613   5.867   3.565   1.310
 3892TIP3   OH211614   5.806   4.472   2.435
 3892TIP3    H111615   5.858   4.459   2.514
 3892TIP3    H211616   5.770   4.560   2.443
 3893TIP3   OH211617   5.932   3.715   1.397
 3893TIP3    H111618   6.026   3.722   1.409
 3893TIP3    H211619   5.908   3.793   1.346
 3894TIP3   OH211620   5.095   4.160   2.080
 3894TIP3    H111621   5.132   4.143   1.993
 3894TIP3    H211622   5.159   4.126   2.141
 3895TIP3   OH211623   5.563   4.309   1.255
 3895TIP3    H111624   5.513   4.391   1.257
 3895TIP3    H211625   5.510   4.247   1.306
 3896TIP3   OH211626   4.985   4.103   2.712
 3896TIP3    H111627   5.015   4.098   2.803
 3896TIP3    H211628   4.920   4.033   2.704
 3897TIP3   OH211629   5.719   4.225   2.712
 3897TIP3    H111630   5.661   4.167   2.662
 3897TIP3    H211631   5.807   4.191   2.694
 3898TIP3   OH211632   5.955   4.751   2.315
 3898TIP3    H111633   5.860   4.742   2.323
 3898TIP3    H211634   5.982   4.797   2.394
 3899TIP3   OH211635   6.350   3.808   1.227
 3899TIP3    H111636   6.290   3.762   1.169
 3899TIP3    H211637   6.355   3.897   1.191
 3900TIP3   OH211638   6.592   4.677   2.299
 3900TIP3    H111639   6.497   4.667   2.295
 3900TIP3    H211640   6.623   4.646   2.213
 3901TIP3   OH211641   6.029   4.636   1.209
 3901TIP3    H111642   6.016   4.578   1.284
 3901TIP3    H211643   6.063   4.578   1.140
 3902TIP3   OH211644   6.064   4.264   1.931
 3902TIP3    H111645   5.974   4.242   1.955
 3902TIP3    H211646   6.100   4.182   1.895
 3903TIP3   OH211647   5.213   4.493   1.732
 3903TIP3    H111648   5.212   4.571   1.677
 3903TIP3    H211649   5.121   4.476   1.751
 3904TIP3   OH211650   4.776   3.784   1.440
 3904TIP3    H111651   4.819   3.867   1.460
 3904TIP3    H211652   4.696   3.786   1.493
 3905TIP3   OH211653   5.318   4.249   1.651
 3905TIP3    H111654   5.295   4.339   1.676
 3905TIP3    H211655   5.288   4.196   1.725
 3906TIP3   OH211656   5.493   4.821   2.190
 3906TIP3    H111657   5.531   4.893   2.140
 3906TIP3    H211658   5.566   4.787   2.242
 3907TIP3   OH211659   5.127   4.722   1.584
 3907TIP3    H111660   5.040   4.727   1.625
 3907TIP3    H211661   5.160   4.811   1.588
 3908TIP3   OH211662   5.852   4.473   2.163
 3908TIP3    H111663   5.838   4.469   2.257
 3908TIP3    H211664   5.937   4.430   2.150
 3909TIP3   OH211665   5.804   4.370   1.093
 3909TIP3    H111666   5.871   4.351   1.158
 3909TIP3    H211667   5.722   4.351   1.136
 3910TIP3   OH211668   6.104   4.985   2.202
 3910TIP3    H111669   6.030   4.924   2.208
 3910TIP3    H211670   6.082   5.043   2.129
 3911TIP3   OH211671   6.153   4.805   0.920
 3911TIP3    H111672   6.163   4.818   0.826
 3911TIP3    H211673   6.096   4.877   0.948
 3912TIP3   OH211674   5.192   3.600   2.711
 3912TIP3    H111675   5.097   3.602   2.721
 3912TIP3    H211676   5.222   3.555   2.790
 3913TIP3   OH211677   6.004   4.273   1.247
 3913TIP3    H111678   5.999   4.213   1.321
 3913TIP3    H211679   6.098   4.283   1.231
 3914TIP3   OH211680   4.916   4.705   2.354
 3914TIP3    H111681   4.969   4.640   2.401
 3914TIP3    H211682   4.938   4.788   2.396
 3915TIP3   OH211683   5.192   4.327   1.042
 3915TIP3    H111684   5.207   4.237   1.013
 3915TIP3    H211685   5.173   4.319   1.135
 3916TIP3   OH211686   5.137   4.340   1.314
 3916TIP3    H111687   5.209   4.311   1.370
 3916TIP3    H211688   5.138   4.436   1.322
 3917TIP3   OH211689   4.873   4.034   1.522
 3917TIP3    H111690   4.807   4.079   1.575
 3917TIP3    H211691   4.891   4.095   1.450
 3918TIP3   OH211692   6.054   3.645   2.392
 3918TIP3    H111693   6.117   3.704   2.434
 3918TIP3    H211694   6.039   3.576   2.457
 3919TIP3   OH211695   5.924   3.414   1.583
 3919TIP3    H111696   5.891   3.443   1.498
 3919TIP3    H211697   5.967   3.492   1.619
 3920TIP3   OH211698   5.410   4.531   1.265
 3920TIP3    H111699   5.325   4.553   1.302
 3920TIP3    H211700   5.430   4.603   1.206
 3921TIP3   OH211701   5.584   3.604   1.676
 3921TIP3    H111702   5.644   3.674   1.652
 3921TIP3    H211703   5.600   3.589   1.769
 3922TIP3   OH211704   5.875   3.908   2.475
 3922TIP3    H111705   5.896   3.965   2.548
 3922TIP3    H211706   5.925   3.828   2.491
 3923TIP3   OH211707   5.741   3.312   1.770
 3923TIP3    H111708   5.715   3.389   1.822
 3923TIP3    H211709   5.805   3.346   1.707
 3924TIP3   OH211710   5.156   4.612   1.335
 3924TIP3    H111711   5.133   4.682   1.273
 3924TIP3    H211712   5.144   4.651   1.421
 3925TIP3   OH211713   5.248   3.326   1.572
 3925TIP3    H111714   5.239   3.416   1.601
 3925TIP3    H211715   5.342   3.308   1.576
 3926TIP3   OH211716   6.497   3.814   2.460
 3926TIP3    H111717   6.402   3.811   2.461
 3926TIP3    H211718   6.520   3.804   2.367
 3927TIP3   OH211719   6.156   4.006   1.842
 3927TIP3    H111720   6.078   3.952   1.857
 3927TIP3    H211721   6.224   3.965   1.895
 3928TIP3   OH211722   4.885   4.220   1.310
 3928TIP3    H111723   4.956   4.284   1.320
 3928TIP3    H211724   4.919   4.156   1.247
 3929TIP3   OH211725   4.807   3.508   1.450
 3929TIP3    H111726   4.817   3.603   1.453
 3929TIP3    H211727   4.756   3.491   1.372
 3930TIP3   OH211728   6.134   4.971   1.779
 3930TIP3    H111729   6.091   5.024   1.712
 3930TIP3    H211730   6.228   4.987   1.766
 3931TIP3   OH211731   5.201   3.228   2.312
 3931TIP3    H111732   5.172   3.196   2.227
 3931TIP3    H211733   5.191   3.153   2.371
 3932TIP3   OH211734   4.728   4.472   1.703
 3932TIP3    H111735   4.679   4.506   1.778
 3932TIP3    H211736   4.688   4.514   1.627
 3933TIP3   OH211737   4.916   5.013   2.778
 3933TIP3    H111738   4.999   5.022   2.824
 3933TIP3    H211739   4.904   4.919   2.767
 3934TIP3   OH211740   5.384   4.938   2.812
 3934TIP3    H111741   5.476   4.915   2.826
 3934TIP3    H211742   5.355   4.882   2.741
 3935TIP3   OH211743   5.367   4.524   0.959
 3935TIP3    H111744   5.316   4.452   0.998
 3935TIP3    H211745   5.442   4.481   0.918
 3936TIP3   OH211746   6.012   4.874   2.552
 3936TIP3    H111747   6.010   4.800   2.614
 3936TIP3    H211748   6.088   4.925   2.578
 3937TIP3   OH211749   5.815   4.564   0.884
 3937TIP3    H111750   5.845   4.497   0.947
 3937TIP3    H211751   5.874   4.555   0.810
 3938TIP3   OH211752   5.028   4.412   2.968
 3938TIP3    H111753   5.050   4.319   2.977
 3938TIP3    H211754   4.942   4.412   2.926
 3939TIP3   OH211755   5.017   4.029   1.168
 3939TIP3    H111756   5.070   4.005   1.244
 3939TIP3    H211757   5.080   4.039   1.097
 3940TIP3   OH211758   5.644   4.498   2.742
 3940TIP3    H111759   5.603   4.520   2.658
 3940TIP3    H211760   5.683   4.411   2.728
 3941TIP3   OH211761   5.520   4.247   0.986
 3941TIP3    H111762   5.528   4.259   1.081
 3941TIP3    H211763   5.524   4.153   0.974
 3942TIP3   OH211764   6.122   4.524   2.350
 3942TIP3    H111765   6.200   4.557   2.306
 3942TIP3    H211766   6.057   4.593   2.337
 3943TIP3   OH211767   5.143   4.148   2.956
 3943TIP3    H111768   5.224   4.120   2.913
 3943TIP3    H211769   5.168   4.167   3.046
 3944TIP3   OH211770   5.198   3.966   1.376
 3944TIP3    H111771   5.176   3.933   1.463
 3944TIP3    H211772   5.240   3.893   1.332
 3945TIP3   OH211773   5.482   4.016   2.608
 3945TIP3    H111774   5.411   4.079   2.625
 3945TIP3    H211775   5.530   4.054   2.534
 3946TIP3   OH211776   5.323   3.772   1.223
 3946TIP3    H111777   5.295   3.771   1.132
 3946TIP3    H211778   5.419   3.775   1.219
 3947TIP3   OH211779   5.999   4.412   2.724
 3947TIP3    H111780   6.083   4.384   2.687
 3947TIP3    H211781   5.993   4.364   2.806
 3948TIP3   OH211782   6.164   4.037   0.858
 3948TIP3    H111783   6.174   4.057   0.765
 3948TIP3    H211784   6.107   4.106   0.892
 3949TIP3   OH211785   5.609   3.810   2.737
 3949TIP3    H111786   5.616   3.736   2.677
 3949TIP3    H211787   5.569   3.880   2.685
 3950TIP3   OH211788   5.619   3.605   2.536
 3950TIP3    H111789   5.646   3.647   2.455
 3950TIP3    H211790   5.527   3.582   2.522
 3951TIP3   OH211791   5.631   4.139   2.417
 3951TIP3    H111792   5.720   4.167   2.395
 3951TIP3    H211793   5.575   4.200   2.370
 3952TIP3   OH211794   6.218   4.106   2.803
 3952TIP3    H111795   6.254   4.037   2.859
 3952TIP3    H211796   6.292   4.164   2.786
 3953TIP3   OH211797   6.257   4.359   2.520
 3953TIP3    H111798   6.199   4.417   2.470
 3953TIP3    H211799   6.345   4.379   2.487
 3954TIP3   OH211800   5.490   3.908   2.975
 3954TIP3    H111801   5.419   3.848   2.997
 3954TIP3    H211802   5.521   3.878   2.890
 3955TIP3   OH211803   5.740   3.369   2.626
 3955TIP3    H111804   5.700   3.451   2.597
 3955TIP3    H211805   5.671   3.303   2.615
 3956TIP3   OH211806   5.870   3.856   2.835
 3956TIP3    H111807   5.865   3.848   2.930
 3956TIP3    H211808   5.781   3.835   2.804
 3957TIP3   OH211809   6.099   3.790   2.684
 3957TIP3    H111810   6.028   3.804   2.746
 3957TIP3    H211811   6.177   3.777   2.738
 3958TIP3   OH211812   6.345   3.756   2.821
 3958TIP3    H111813   6.358   3.665   2.849
 3958TIP3    H211814   6.330   3.804   2.903
 3959TIP3   OH211815   5.325   3.682   3.035
 3959TIP3    H111816   5.335   3.592   3.005
 3959TIP3    H211817   5.362   3.682   3.124
 3960TIP3   OH211818   5.816   3.361   2.891
 3960TIP3    H111819   5.887   3.297   2.886
 3960TIP3    H211820   5.783   3.367   2.801
 3961TIP3   OH211821   5.899   3.580   3.039
 3961TIP3    H111822   5.870   3.509   2.981
 3961TIP3    H211823   5.826   3.642   3.038
 3962TIP3   OH211824   5.144   4.822   1.156
 3962TIP3    H111825   5.235   4.803   1.133
 3962TIP3    H211826   5.111   4.875   1.084
 3963TIP3   OH211827   4.613   4.198   1.337
 3963TIP3    H111828   4.707   4.215   1.329
 3963TIP3    H211829   4.601   4.112   1.298
 3964TIP3   OH211830   4.523   4.794   1.783
 3964TIP3    H111831   4.459   4.739   1.738
 3964TIP3    H211832   4.568   4.735   1.843
 3965TIP3   OH211833   4.662   4.630   1.957
 3965TIP3    H111834   4.651   4.563   2.024
 3965TIP3    H211835   4.714   4.698   2.000
 3966TIP3   OH211836   6.397   5.045   1.761
 3966TIP3    H111837   6.420   5.072   1.850
 3966TIP3    H211838   6.460   5.091   1.705
 3967TIP3   OH211839   6.417   5.068   2.044
 3967TIP3    H111840   6.372   4.984   2.038
 3967TIP3    H211841   6.491   5.051   2.103
 3968TIP3   OH211842   6.460   4.757   2.623
 3968TIP3    H111843   6.391   4.765   2.689
 3968TIP3    H211844   6.505   4.841   2.625
 3969TIP3   OH211845   6.285   4.258   1.235
 3969TIP3    H111846   6.343   4.331   1.212
 3969TIP3    H211847   6.329   4.216   1.309
 3970TIP3   OH211848   6.426   4.128   1.434
 3970TIP3    H111849   6.361   4.096   1.496
 3970TIP3    H211850   6.492   4.172   1.488
 3971TIP3   OH211851   6.468   4.527   1.856
 3971TIP3    H111852   6.524   4.461   1.817
 3971TIP3    H211853   6.473   4.601   1.795
 3972TIP3   OH211854   6.281   4.824   2.053
 3972TIP3    H111855   6.212   4.867   2.104
 3972TIP3    H211856   6.233   4.781   1.981
 3973TIP3   OH211857   6.334   4.038   1.077
 3973TIP3    H111858   6.273   4.038   1.003
 3973TIP3    H211859   6.312   4.117   1.126
 3974TIP3   OH211860   6.186   3.707   1.035
 3974TIP3    H111861   6.178   3.763   0.958
 3974TIP3    H211862   6.176   3.618   1.001
 3975TIP3   OH211863   6.222   3.995   1.575
 3975TIP3    H111864   6.232   3.900   1.566
 3975TIP3    H211865   6.204   4.009   1.668
 3976TIP3   OH211866   4.843   4.059   2.334
 3976TIP3    H111867   4.835   4.025   2.245
 3976TIP3    H211868   4.937   4.058   2.352
 3977TIP3   OH211869   6.512   4.416   2.426
 3977TIP3    H111870   6.576   4.347   2.411
 3977TIP3    H211871   6.535   4.485   2.364
 3978TIP3   OH211872   6.681   4.200   2.420
 3978TIP3    H111873   6.608   4.161   2.469
 3978TIP3    H211874   6.756   4.145   2.441
 3979TIP3   OH211875   6.156   3.433   0.969
 3979TIP3    H111876   6.220   3.417   1.037
 3979TIP3    H211877   6.075   3.395   1.002
 3980TIP3   OH211878   6.217   3.712   1.459
 3980TIP3    H111879   6.263   3.630   1.472
 3980TIP3    H211880   6.262   3.755   1.387
 3981TIP3   OH211881   6.370   3.877   1.973
 3981TIP3    H111882   6.451   3.897   1.926
 3981TIP3    H211883   6.382   3.917   2.059
 3982TIP3   OH211884   6.441   4.027   2.202
 3982TIP3    H111885   6.369   4.060   2.257
 3982TIP3    H211886   6.473   4.105   2.156
 3983TIP3   OH211887   5.060   3.735   2.978
 3983TIP3    H111888   5.153   3.741   2.997
 3983TIP3    H211889   5.033   3.651   3.015
 3984TIP3   OH211890   6.906   3.627   2.748
 3984TIP3    H111891   6.966   3.567   2.704
 3984TIP3    H211892   6.869   3.680   2.677
 3985TIP3   OH211893   6.334   3.462   1.510
 3985TIP3    H111894   6.378   3.447   1.593
 3985TIP3    H211895   6.270   3.391   1.503
 3986TIP3   OH211896   5.030   3.448   2.335
 3986TIP3    H111897   5.087   3.371   2.338
 3986TIP3    H211898   5.090   3.521   2.319
 3987TIP3   OH211899   4.817   3.716   2.393
 3987TIP3    H111900   4.869   3.709   2.313
 3987TIP3    H211901   4.843   3.799   2.431
 3988TIP3   OH211902   6.760   3.756   2.560
 3988TIP3    H111903   6.687   3.798   2.605
 3988TIP3    H211904   6.719   3.692   2.502
 3989TIP3   OH211905   6.378   3.387   1.135
 3989TIP3    H111906   6.425   3.324   1.080
 3989TIP3    H211907   6.437   3.461   1.144
 3990TIP3   OH211908   4.807   3.220   1.898
 3990TIP3    H111909   4.719   3.209   1.934
 3990TIP3    H211910   4.795   3.276   1.821
 3991TIP3   OH211911   5.962   4.937   1.431
 3991TIP3    H111912   6.021   4.925   1.357
 3991TIP3    H211913   6.002   5.008   1.482
 3992TIP3   OH211914   5.026   3.281   2.712
 3992TIP3    H111915   4.977   3.276   2.794
 3992TIP3    H211916   4.969   3.330   2.653
 3993TIP3   OH211917   5.058   4.736   2.783
 3993TIP3    H111918   4.966   4.712   2.779
 3993TIP3    H211919   5.084   4.720   2.874
 3994TIP3   OH211920   5.263   4.775   2.336
 3994TIP3    H111921   5.212   4.850   2.304
 3994TIP3    H211922   5.349   4.785   2.295
 3995TIP3   OH211923   5.679   5.011   2.474
 3995TIP3    H111924   5.716   5.003   2.562
 3995TIP3    H211925   5.744   5.063   2.426
 3996TIP3   OH211926   5.868   5.166   2.344
 3996TIP3    H111927   5.934   5.111   2.301
 3996TIP3    H211928   5.918   5.224   2.401
 3997TIP3   OH211929   6.659   3.521   2.434
 3997TIP3    H111930   6.578   3.534   2.385
 3997TIP3    H211931   6.681   3.429   2.420
 3998TIP3   OH211932   4.924   5.022   2.375
 3998TIP3    H111933   4.833   5.044   2.352
 3998TIP3    H211934   4.947   5.084   2.444
 3999TIP3   OH211935   5.157   5.007   2.230
 3999TIP3    H111936   5.074   5.014   2.276
 3999TIP3    H211937   5.137   5.034   2.140
 4000TIP3   OH211938   5.579   5.027   2.023
 4000TIP3    H111939   5.509   5.042   1.959
 4000TIP3    H211940   5.592   5.113   2.064
 4001TIP3   OH211941   5.844   4.961   2.073
 4001TIP3    H111942   5.753   4.982   2.055
 4001TIP3    H211943   5.894   5.030   2.030
 4002TIP3   OH211944   6.042   5.139   1.978
 4002TIP3    H111945   6.040   5.226   1.938
 4002TIP3    H211946   6.075   5.082   1.908
 4003TIP3   OH211947   4.838   4.804   2.105
 4003TIP3    H111948   4.862   4.779   2.195
 4003TIP3    H211949   4.909   4.771   2.051
 4004TIP3   OH211950   5.040   4.687   1.966
 4004TIP3    H111951   5.051   4.603   2.011
 4004TIP3    H211952   5.126   4.727   1.968
 4005TIP3   OH211953   5.307   4.774   1.985
 4005TIP3    H111954   5.328   4.681   1.971
 4005TIP3    H211955   5.360   4.799   2.060
 4006TIP3   OH211956   5.872   3.430   2.071
 4006TIP3    H111957   5.833   3.360   2.122
 4006TIP3    H211958   5.943   3.388   2.023
 4007TIP3   OH211959   6.374   3.339   1.980
 4007TIP3    H111960   6.412   3.388   1.908
 4007TIP3    H211961   6.281   3.359   1.978
 4008TIP3   OH211962   6.491   3.399   1.735
 4008TIP3    H111963   6.561   3.343   1.702
 4008TIP3    H211964   6.524   3.488   1.724
 4009TIP3   OH211965   5.114   3.126   2.070
 4009TIP3    H111966   5.024   3.095   2.076
 4009TIP3    H211967   5.166   3.046   2.063
 4010TIP3   OH211968   4.929   3.024   1.725
 4010TIP3    H111969   4.955   3.074   1.647
 4010TIP3    H211970   4.894   3.089   1.785
 4011TIP3   OH211971   5.586   3.165   1.961
 4011TIP3    H111972   5.632   3.217   1.895
 4011TIP3    H211973   5.620   3.198   2.045
 4012TIP3   OH211974   6.093   3.319   1.940
 4012TIP3    H111975   6.075   3.290   1.851
 4012TIP3    H211976   6.091   3.238   1.992
 4013TIP3   OH211977   6.144   3.254   1.512
 4013TIP3    H111978   6.063   3.302   1.529
 4013TIP3    H211979   6.128   3.166   1.547
 4014TIP3   OH211980   4.612   4.597   1.489
 4014TIP3    H111981   4.528   4.563   1.459
 4014TIP3    H211982   4.613   4.688   1.458
 4015TIP3   OH211983   5.037   3.156   1.489
 4015TIP3    H111984   5.081   3.097   1.427
 4015TIP3    H211985   5.106   3.213   1.521
 4016TIP3   OH211986   5.523   3.351   1.591
 4016TIP3    H111987   5.583   3.301   1.647
 4016TIP3    H211988   5.539   3.442   1.614
 4017TIP3   OH211989   5.403   4.758   1.096
 4017TIP3    H111990   5.493   4.781   1.073
 4017TIP3    H211991   5.380   4.688   1.036
 4018TIP3   OH211992   6.118   4.893   1.210
 4018TIP3    H111993   6.094   4.800   1.205
 4018TIP3    H211994   6.075   4.933   1.134
 4019TIP3   OH211995   5.333   3.406   2.951
 4019TIP3    H111996   5.297   3.341   3.011
 4019TIP3    H211997   5.425   3.414   2.976
 4020TIP3   OH211998   5.582   3.411   3.071
 4020TIP3    H111999   5.665   3.392   3.027
 4020TIP3    H212000   5.575   3.344   3.139
 4021TIP3   OH212001   4.707   4.600   1.139
 4021TIP3    H112002   4.709   4.609   1.234
 4021TIP3    H212003   4.789   4.554   1.118
 4022TIP3   OH212004   6.411   3.490   2.868
 4022TIP3    H112005   6.426   3.464   2.959
 4022TIP3    H212006   6.497   3.489   2.828
 4023TIP3   OH212007   6.329   5.032   2.367
 4023TIP3    H112008   6.254   5.002   2.317
 4023TIP3    H212009   6.316   5.126   2.376
 4024TIP3   OH212010   7.606   4.396   1.135
 4024TIP3    H112011   7.572   4.482   1.114
 4024TIP3    H212012   7.538   4.335   1.107
 4025TIP3   OH212013   7.614   4.415   1.504
 4025TIP3    H112014   7.621   4.390   1.596
 4025TIP3    H212015   7.536   4.369   1.473
 4026TIP3   OH212016   6.903   4.311   1.893
 4026TIP3    H112017   6.947   4.245   1.946
 4026TIP3    H212018   6.974   4.357   1.848
 4027TIP3   OH212019   7.895   4.695   1.256
 4027TIP3    H112020   7.877   4.635   1.328
 4027TIP3    H212021   7.914   4.779   1.298
 4028TIP3   OH212022   6.862   4.693   1.589
 4028TIP3    H112023   6.850   4.598   1.590
 4028TIP3    H212024   6.956   4.705   1.594
 4029TIP3   OH212025   6.577   3.899   1.366
 4029TIP3    H112026   6.547   3.986   1.390
 4029TIP3    H212027   6.502   3.857   1.325
 4030TIP3   OH212028   6.660   4.218   1.565
 4030TIP3    H112029   6.709   4.141   1.593
 4030TIP3    H212030   6.728   4.284   1.546
 4031TIP3   OH212031   7.471   5.167   1.273
 4031TIP3    H112032   7.510   5.086   1.241
 4031TIP3    H212033   7.448   5.149   1.364
 4032TIP3   OH212034   7.801   4.151   1.585
 4032TIP3    H112035   7.830   4.060   1.598
 4032TIP3    H212036   7.745   4.148   1.507
 4033TIP3   OH212037   7.157   3.782   1.552
 4033TIP3    H112038   7.142   3.857   1.493
 4033TIP3    H212039   7.105   3.711   1.514
 4034TIP3   OH212040   7.855   3.895   1.179
 4034TIP3    H112041   7.929   3.869   1.235
 4034TIP3    H212042   7.886   3.974   1.134
 4035TIP3   OH212043   6.790   3.994   1.665
 4035TIP3    H112044   6.874   3.986   1.709
 4035TIP3    H212045   6.800   3.943   1.584
 4036TIP3   OH212046   7.241   4.185   1.402
 4036TIP3    H112047   7.320   4.171   1.454
 4036TIP3    H212048   7.199   4.099   1.398
 4037TIP3   OH212049   7.151   3.785   1.987
 4037TIP3    H112050   7.104   3.827   1.915
 4037TIP3    H212051   7.096   3.801   2.064
 4038TIP3   OH212052   7.503   4.614   1.000
 4038TIP3    H112053   7.468   4.575   0.920
 4038TIP3    H212054   7.427   4.658   1.040
 4039TIP3   OH212055   7.035   3.903   1.767
 4039TIP3    H112056   7.085   3.983   1.781
 4039TIP3    H212057   7.080   3.858   1.695
 4040TIP3   OH212058   7.082   4.777   1.884
 4040TIP3    H112059   7.061   4.864   1.851
 4040TIP3    H212060   7.001   4.746   1.925
 4041TIP3   OH212061   6.479   4.443   1.162
 4041TIP3    H112062   6.438   4.456   1.076
 4041TIP3    H212063   6.506   4.530   1.189
 4042TIP3   OH212064   7.926   4.953   1.356
 4042TIP3    H112065   7.838   4.946   1.392
 4042TIP3    H212066   7.932   5.044   1.325
 4043TIP3   OH212067   7.499   3.478   1.730
 4043TIP3    H112068   7.482   3.385   1.746
 4043TIP3    H212069   7.423   3.523   1.765
 4044TIP3   OH212070   7.629   4.986   1.133
 4044TIP3    H112071   7.676   4.904   1.118
 4044TIP3    H212072   7.639   5.035   1.052
 4045TIP3   OH212073   7.740   4.745   1.044
 4045TIP3    H112074   7.660   4.693   1.040
 4045TIP3    H212075   7.789   4.709   1.118
 4046TIP3   OH212076   8.132   4.854   1.714
 4046TIP3    H112077   8.123   4.785   1.649
 4046TIP3    H212078   8.124   4.935   1.664
 4047TIP3   OH212079   7.448   4.249   0.959
 4047TIP3    H112080   7.357   4.281   0.958
 4047TIP3    H212081   7.481   4.269   0.872
 4048TIP3   OH212082   7.400   4.066   0.677
 4048TIP3    H112083   7.467   4.121   0.718
 4048TIP3    H212084   7.449   3.997   0.633
 4049TIP3   OH212085   7.791   4.327   0.947
 4049TIP3    H112086   7.732   4.356   1.017
 4049TIP3    H212087   7.859   4.277   0.993
 4050TIP3   OH212088   7.906   4.391   1.944
 4050TIP3    H112089   7.982   4.443   1.917
 4050TIP3    H212090   7.838   4.413   1.881
 4051TIP3   OH212091   7.001   4.306   1.353
 4051TIP3    H112092   6.978   4.251   1.278
 4051TIP3    H212093   7.086   4.271   1.382
 4052TIP3   OH212094   7.138   4.720   1.524
 4052TIP3    H112095   7.175   4.679   1.446
 4052TIP3    H212096   7.167   4.665   1.597
 4053TIP3   OH212097   7.684   4.945   1.472
 4053TIP3    H112098   7.664   5.025   1.520
 4053TIP3    H212099   7.682   4.876   1.539
 4054TIP3   OH212100   7.293   4.867   2.031
 4054TIP3    H112101   7.233   4.927   2.075
 4054TIP3    H212102   7.235   4.813   1.975
 4055TIP3   OH212103   7.633   4.224   0.742
 4055TIP3    H112104   7.685   4.263   0.813
 4055TIP3    H212105   7.654   4.277   0.665
 4056TIP3   OH212106   7.045   4.401   2.173
 4056TIP3    H112107   7.054   4.495   2.181
 4056TIP3    H212108   6.952   4.387   2.156
 4057TIP3   OH212109   7.361   4.922   1.165
 4057TIP3    H112110   7.456   4.924   1.169
 4057TIP3    H212111   7.341   4.901   1.074
 4058TIP3   OH212112   7.080   5.029   2.111
 4058TIP3    H112113   7.057   5.035   2.019
 4058TIP3    H212114   6.998   5.009   2.156
 4059TIP3   OH212115   6.901   4.156   1.135
 4059TIP3    H112116   6.820   4.201   1.113
 4059TIP3    H212117   6.873   4.071   1.170
 4060TIP3   OH212118   6.662   4.568   2.060
 4060TIP3    H112119   6.598   4.548   1.992
 4060TIP3    H212120   6.704   4.484   2.079
 4061TIP3   OH212121   6.535   4.754   1.702
 4061TIP3    H112122   6.630   4.749   1.689
 4061TIP3    H212123   6.522   4.832   1.756
 4062TIP3   OH212124   7.475   4.999   1.876
 4062TIP3    H112125   7.475   5.089   1.908
 4062TIP3    H212126   7.410   4.955   1.930
 4063TIP3   OH212127   7.258   5.173   0.709
 4063TIP3    H112128   7.188   5.111   0.689
 4063TIP3    H212129   7.218   5.235   0.770
 4064TIP3   OH212130   6.664   4.962   1.246
 4064TIP3    H112131   6.720   4.955   1.324
 4064TIP3    H212132   6.619   4.878   1.240
 4065TIP3   OH212133   7.414   4.952   0.660
 4065TIP3    H112134   7.362   5.031   0.656
 4065TIP3    H212135   7.494   4.978   0.706
 4066TIP3   OH212136   6.850   4.767   2.038
 4066TIP3    H112137   6.908   4.751   2.112
 4066TIP3    H212138   6.784   4.698   2.042
 4067TIP3   OH212139   7.257   3.570   1.840
 4067TIP3    H112140   7.172   3.537   1.810
 4067TIP3    H212141   7.237   3.653   1.884
 4068TIP3   OH212142   7.789   3.687   2.060
 4068TIP3    H112143   7.848   3.661   2.130
 4068TIP3    H212144   7.702   3.666   2.093
 4069TIP3   OH212145   8.125   4.224   2.047
 4069TIP3    H112146   8.037   4.186   2.056
 4069TIP3    H212147   8.135   4.238   1.952
 4070TIP3   OH212148   7.419   3.610   0.811
 4070TIP3    H112149   7.388   3.621   0.901
 4070TIP3    H212150   7.374   3.532   0.780
 4071TIP3   OH212151   7.190   4.122   1.827
 4071TIP3    H112152   7.147   4.135   1.911
 4071TIP3    H212153   7.185   4.207   1.783
 4072TIP3   OH212154   7.078   3.964   1.368
 4072TIP3    H112155   6.988   3.945   1.393
 4072TIP3    H212156   7.087   3.929   1.280
 4073TIP3   OH212157   7.573   4.045   1.086
 4073TIP3    H112158   7.523   4.116   1.046
 4073TIP3    H212159   7.630   4.014   1.016
 4074TIP3   OH212160   7.707   4.345   2.173
 4074TIP3    H112161   7.702   4.275   2.238
 4074TIP3    H212162   7.801   4.362   2.163
 4075TIP3   OH212163   7.699   4.084   1.333
 4075TIP3    H112164   7.640   4.105   1.261
 4075TIP3    H212165   7.737   4.000   1.309
 4076TIP3   OH212166   7.034   4.123   2.060
 4076TIP3    H112167   7.050   4.191   2.126
 4076TIP3    H212168   7.019   4.043   2.111
 4077TIP3   OH212169   7.060   3.596   0.779
 4077TIP3    H112170   7.057   3.599   0.875
 4077TIP3    H212171   6.988   3.652   0.751
 4078TIP3   OH212172   6.618   3.625   1.661
 4078TIP3    H112173   6.684   3.665   1.717
 4078TIP3    H212174   6.653   3.635   1.572
 4079TIP3   OH212175   6.541   3.612   1.163
 4079TIP3    H112176   6.587   3.647   1.086
 4079TIP3    H212177   6.483   3.683   1.190
 4080TIP3   OH212178   7.704   4.344   1.755
 4080TIP3    H112179   7.747   4.280   1.698
 4080TIP3    H212180   7.664   4.291   1.824
 4081TIP3   OH212181   7.406   3.808   1.420
 4081TIP3    H112182   7.331   3.802   1.480
 4081TIP3    H212183   7.478   3.765   1.465
 4082TIP3   OH212184   6.838   3.850   1.436
 4082TIP3    H112185   6.749   3.854   1.400
 4082TIP3    H212186   6.869   3.762   1.413
 4083TIP3   OH212187   7.092   3.846   1.122
 4083TIP3    H112188   7.185   3.867   1.111
 4083TIP3    H212189   7.053   3.869   1.038
 4084TIP3   OH212190   7.856   3.880   1.584
 4084TIP3    H112191   7.826   3.870   1.675
 4084TIP3    H212192   7.875   3.790   1.556
 4085TIP3   OH212193   6.964   3.872   0.882
 4085TIP3    H112194   6.895   3.836   0.825
 4085TIP3    H212195   7.020   3.921   0.822
 4086TIP3   OH212196   8.083   5.567   1.870
 4086TIP3    H112197   8.098   5.581   1.776
 4086TIP3    H212198   8.170   5.570   1.909
 4087TIP3   OH212199   7.025   4.672   2.262
 4087TIP3    H112200   7.106   4.697   2.306
 4087TIP3    H212201   6.958   4.678   2.330
 4088TIP3   OH212202   7.480   4.119   1.533
 4088TIP3    H112203   7.544   4.076   1.477
 4088TIP3    H212204   7.484   4.072   1.616
 4089TIP3   OH212205   6.988   3.611   1.407
 4089TIP3    H112206   6.961   3.534   1.457
 4089TIP3    H212207   7.026   3.576   1.327
 4090TIP3   OH212208   7.452   4.031   1.814
 4090TIP3    H112209   7.365   4.071   1.811
 4090TIP3    H212210   7.507   4.098   1.855
 4091TIP3   OH212211   7.204   4.363   0.939
 4091TIP3    H112212   7.121   4.324   0.909
 4091TIP3    H212213   7.181   4.406   1.021
 4092TIP3   OH212214   8.084   4.657   1.526
 4092TIP3    H112215   8.117   4.671   1.437
 4092TIP3    H212216   8.003   4.608   1.514
 4093TIP3   OH212217   7.673   3.709   0.790
 4093TIP3    H112218   7.580   3.688   0.792
 4093TIP3    H212219   7.676   3.805   0.789
 4094TIP3   OH212220   7.606   4.742   1.904
 4094TIP3    H112221   7.631   4.728   1.995
 4094TIP3    H212222   7.558   4.824   1.904
 4095TIP3   OH212223   7.731   3.989   0.858
 4095TIP3    H112224   7.824   4.011   0.861
 4095TIP3    H212225   7.692   4.058   0.804
 4096TIP3   OH212226   6.878   4.409   1.572
 4096TIP3    H112227   6.916   4.380   1.489
 4096TIP3    H212228   6.951   4.412   1.633
 4097TIP3   OH212229   7.363   4.518   0.783
 4097TIP3    H112230   7.304   4.587   0.751
 4097TIP3    H212231   7.306   4.459   0.832
 4098TIP3   OH212232   6.770   4.347   2.194
 4098TIP3    H112233   6.779   4.325   2.287
 4098TIP3    H212234   6.700   4.289   2.163
 4099TIP3   OH212235   7.483   4.487   2.215
 4099TIP3    H112236   7.416   4.430   2.176
 4099TIP3    H212237   7.566   4.449   2.186
 4100TIP3   OH212238   7.745   5.032   1.793
 4100TIP3    H112239   7.653   5.006   1.794
 4100TIP3    H212240   7.765   5.050   1.885
 4101TIP3   OH212241   7.867   4.499   1.448
 4101TIP3    H112242   7.775   4.480   1.464
 4101TIP3    H212243   7.900   4.423   1.401
 4102TIP3   OH212244   6.993   4.717   1.197
 4102TIP3    H112245   6.981   4.809   1.172
 4102TIP3    H212246   6.932   4.704   1.269
 4103TIP3   OH212247   6.573   4.029   0.942
 4103TIP3    H112248   6.620   4.107   0.971
 4103TIP3    H212249   6.492   4.030   0.993
 4104TIP3   OH212250   7.129   4.472   1.178
 4104TIP3    H112251   7.092   4.560   1.186
 4104TIP3    H212252   7.090   4.423   1.250
 4105TIP3   OH212253   7.284   5.074   1.679
 4105TIP3    H112254   7.322   5.152   1.637
 4105TIP3    H212255   7.356   5.036   1.728
 4106TIP3   OH212256   6.899   4.973   1.113
 4106TIP3    H112257   6.812   4.975   1.153
 4106TIP3    H212258   6.919   5.065   1.095
 4107TIP3   OH212259   7.705   4.731   1.649
 4107TIP3    H112260   7.662   4.725   1.734
 4107TIP3    H212261   7.711   4.640   1.619
 4108TIP3   OH212262   7.913   5.221   1.695
 4108TIP3    H112263   7.849   5.154   1.719
 4108TIP3    H212264   7.867   5.275   1.630
 4109TIP3   OH212265   6.985   3.862   2.197
 4109TIP3    H112266   6.890   3.867   2.204
 4109TIP3    H212267   7.012   3.808   2.272
 4110TIP3   OH212268   7.813   4.447   0.697
 4110TIP3    H112269   7.824   4.422   0.789
 4110TIP3    H212270   7.828   4.542   0.696
 4111TIP3   OH212271   6.710   4.962   1.845
 4111TIP3    H112272   6.757   4.897   1.896
 4111TIP3    H212273   6.737   5.046   1.883
 4112TIP3   OH212274   7.093   4.442   0.639
 4112TIP3    H112275   7.081   4.388   0.561
 4112TIP3    H212276   7.085   4.532   0.609
 4113TIP3   OH212277   6.906   4.557   0.820
 4113TIP3    H112278   6.975   4.506   0.778
 4113TIP3    H212279   6.946   4.642   0.840
 4114TIP3   OH212280   6.664   4.266   1.051
 4114TIP3    H112281   6.605   4.315   1.107
 4114TIP3    H212282   6.675   4.320   0.973
 4115TIP3   OH212283   7.790   3.863   1.847
 4115TIP3    H112284   7.820   3.951   1.869
 4115TIP3    H212285   7.776   3.820   1.932
 4116TIP3   OH212286   7.693   3.686   1.075
 4116TIP3    H112287   7.697   3.688   0.979
 4116TIP3    H212288   7.742   3.764   1.102
 4117TIP3   OH212289   7.172   4.705   0.697
 4117TIP3    H112290   7.129   4.789   0.712
 4117TIP3    H212291   7.218   4.716   0.613
 4118TIP3   OH212292   7.370   3.868   1.154
 4118TIP3    H112293   7.438   3.930   1.129
 4118TIP3    H212294   7.381   3.855   1.248
 4119TIP3   OH212295   7.643   4.173   1.968
 4119TIP3    H112296   7.652   4.247   2.028
 4119TIP3    H212297   7.670   4.097   2.019
 4120TIP3   OH212298   7.534   3.561   1.257
 4120TIP3    H112299   7.552   3.609   1.338
 4120TIP3    H212300   7.587   3.605   1.191
 4121TIP3   OH212301   6.953   4.810   0.904
 4121TIP3    H112302   6.903   4.845   0.830
 4121TIP3    H212303   6.947   4.877   0.972
 4122TIP3   OH212304   7.052   3.578   1.059
 4122TIP3    H112305   7.041   3.668   1.088
 4122TIP3    H212306   7.146   3.562   1.064
 4123TIP3   OH212307   7.934   4.244   1.350
 4123TIP3    H112308   7.846   4.208   1.337
 4123TIP3    H212309   7.954   4.225   1.442
 4124TIP3   OH212310   6.678   4.411   0.816
 4124TIP3    H112311   6.749   4.473   0.832
 4124TIP3    H212312   6.714   4.348   0.754
 4125TIP3   OH212313   6.607   3.755   0.941
 4125TIP3    H112314   6.621   3.849   0.954
 4125TIP3    H212315   6.554   3.748   0.862
 4126TIP3   OH212316   7.982   5.234   1.342
 4126TIP3    H112317   7.904   5.247   1.286
 4126TIP3    H212318   8.055   5.238   1.281
 4127TIP3   OH212319   6.995   3.483   1.804
 4127TIP3    H112320   6.966   3.453   1.718
 4127TIP3    H212321   6.981   3.407   1.861
 4128TIP3   OH212322   6.542   4.710   1.230
 4128TIP3    H112323   6.497   4.738   1.310
 4128TIP3    H212324   6.486   4.741   1.159
 4129TIP3   OH212325   6.713   5.270   2.257
 4129TIP3    H112326   6.797   5.274   2.304
 4129TIP3    H212327   6.697   5.176   2.247
 4130TIP3   OH212328   7.182   5.194   2.305
 4130TIP3    H112329   7.274   5.170   2.311
 4130TIP3    H212330   7.147   5.141   2.233
 4131TIP3   OH212331   7.784   5.107   2.053
 4131TIP3    H112332   7.784   5.043   2.125
 4131TIP3    H212333   7.862   5.161   2.069
 4132TIP3   OH212334   6.822   4.667   2.455
 4132TIP3    H112335   6.841   4.574   2.464
 4132TIP3    H212336   6.737   4.671   2.413
 4133TIP3   OH212337   6.831   4.260   0.650
 4133TIP3    H112338   6.888   4.245   0.725
 4133TIP3    H212339   6.892   4.277   0.577
 4134TIP3   OH212340   7.441   4.760   2.233
 4134TIP3    H112341   7.395   4.784   2.153
 4134TIP3    H212342   7.465   4.668   2.220
 4135TIP3   OH212343   7.349   4.464   0.493
 4135TIP3    H112344   7.429   4.512   0.514
 4135TIP3    H212345   7.301   4.461   0.576
 4136TIP3   OH212346   7.924   4.764   1.868
 4136TIP3    H112347   7.997   4.800   1.818
 4136TIP3    H212348   7.846   4.788   1.818
 4137TIP3   OH212349   6.935   4.409   2.453
 4137TIP3    H112350   7.006   4.396   2.390
 4137TIP3    H212351   6.979   4.430   2.535
 4138TIP3   OH212352   6.983   4.208   0.872
 4138TIP3    H112353   6.966   4.180   0.962
 4138TIP3    H212354   7.037   4.137   0.835
 4139TIP3   OH212355   7.299   4.298   2.103
 4139TIP3    H112356   7.213   4.340   2.112
 4139TIP3    H212357   7.333   4.330   2.019
 4140TIP3   OH212358   7.125   4.022   0.720
 4140TIP3    H112359   7.094   4.030   0.630
 4140TIP3    H212360   7.220   4.033   0.714
 4141TIP3   OH212361   7.792   4.679   2.230
 4141TIP3    H112362   7.865   4.648   2.177
 4141TIP3    H212363   7.781   4.612   2.298
 4142TIP3   OH212364   7.398   4.072   2.221
 4142TIP3    H112365   7.399   3.998   2.160
 4142TIP3    H212366   7.366   4.145   2.169
 4143TIP3   OH212367   7.411   3.859   2.029
 4143TIP3    H112368   7.435   3.905   1.949
 4143TIP3    H212369   7.319   3.835   2.017
 4144TIP3   OH212370   7.418   4.407   1.884
 4144TIP3    H112371   7.485   4.463   1.844
 4144TIP3    H212372   7.340   4.420   1.831
 4145TIP3   OH212373   7.969   4.360   2.279
 4145TIP3    H112374   7.984   4.268   2.254
 4145TIP3    H212375   8.033   4.409   2.227
 4146TIP3   OH212376   8.019   4.631   2.083
 4146TIP3    H112377   7.984   4.678   2.007
 4146TIP3    H212378   8.085   4.573   2.047
 4147TIP3   OH212379   7.283   4.162   2.463
 4147TIP3    H112380   7.213   4.099   2.481
 4147TIP3    H212381   7.310   4.143   2.373
 4148TIP3   OH212382   7.527   3.619   2.113
 4148TIP3    H112383   7.486   3.701   2.085
 4148TIP3    H212384   7.458   3.553   2.101
 4149TIP3   OH212385   7.653   4.117   2.319
 4149TIP3    H112386   7.651   4.101   2.414
 4149TIP3    H212387   7.564   4.098   2.290
 4150TIP3   OH212388   7.881   4.093   2.169
 4150TIP3    H112389   7.799   4.095   2.219
 4150TIP3    H212390   7.939   4.037   2.221
 4151TIP3   OH212391   8.013   3.971   2.368
 4151TIP3    H112392   8.072   3.900   2.395
 4151TIP3    H212393   7.998   4.021   2.448
 4152TIP3   OH212394   7.120   3.939   2.524
 4152TIP3    H112395   7.126   3.851   2.489
 4152TIP3    H212396   7.156   3.932   2.613
 4153TIP3   OH212397   7.619   3.613   2.372
 4153TIP3    H112398   7.688   3.546   2.367
 4153TIP3    H212399   7.580   3.613   2.284
 4154TIP3   OH212400   7.686   3.835   2.518
 4154TIP3    H112401   7.665   3.763   2.459
 4154TIP3    H212402   7.610   3.893   2.514
 4155TIP3   OH212403   6.908   5.065   0.512
 4155TIP3    H112404   6.988   5.052   0.461
 4155TIP3    H212405   6.931   5.134   0.574
 4156TIP3   OH212406   6.398   4.400   0.900
 4156TIP3    H112407   6.483   4.434   0.873
 4156TIP3    H212408   6.385   4.321   0.847
 4157TIP3   OH212409   6.326   5.043   1.292
 4157TIP3    H112410   6.259   4.989   1.250
 4157TIP3    H212411   6.372   4.982   1.350
 4158TIP3   OH212412   6.462   4.875   1.459
 4158TIP3    H112413   6.452   4.813   1.531
 4158TIP3    H212414   6.514   4.946   1.496
 4159TIP3   OH212415   8.234   5.307   1.543
 4159TIP3    H112416   8.189   5.224   1.526
 4159TIP3    H212417   8.225   5.320   1.637
 4160TIP3   OH212418   8.221   5.071   2.085
 4160TIP3    H112419   8.150   5.020   2.124
 4160TIP3    H212420   8.231   5.035   1.997
 4161TIP3   OH212421   8.097   5.068   1.553
 4161TIP3    H112422   8.029   5.117   1.599
 4161TIP3    H212423   8.051   5.027   1.480
 4162TIP3   OH212424   7.985   4.180   1.088
 4162TIP3    H112425   8.074   4.205   1.063
 4162TIP3    H212426   7.975   4.212   1.177
 4163TIP3   OH212427   6.643   4.318   1.821
 4163TIP3    H112428   6.640   4.287   1.730
 4163TIP3    H212429   6.737   4.325   1.840
 4164TIP3   OH212430   6.857   3.995   2.463
 4164TIP3    H112431   6.952   3.994   2.478
 4164TIP3    H212432   6.826   3.916   2.507
 4165TIP3   OH212433   6.826   3.706   1.826
 4165TIP3    H112434   6.885   3.631   1.830
 4165TIP3    H212435   6.885   3.781   1.811
 4166TIP3   OH212436   6.612   3.971   1.880
 4166TIP3    H112437   6.665   3.967   1.801
 4166TIP3    H212438   6.632   4.056   1.919
 4167TIP3   OH212439   6.598   3.457   1.379
 4167TIP3    H112440   6.514   3.458   1.424
 4167TIP3    H212441   6.588   3.521   1.308
 4168TIP3   OH212442   7.672   5.212   0.957
 4168TIP3    H112443   7.676   5.145   0.889
 4168TIP3    H212444   7.751   5.265   0.944
 4169TIP3   OH212445   6.831   3.556   2.209
 4169TIP3    H112446   6.782   3.555   2.291
 4169TIP3    H212447   6.772   3.598   2.146
 4170TIP3   OH212448   6.857   4.993   2.275
 4170TIP3    H112449   6.765   4.970   2.262
 4170TIP3    H212450   6.871   4.980   2.369
 4171TIP3   OH212451   7.055   5.044   1.831
 4171TIP3    H112452   7.008   5.119   1.796
 4171TIP3    H212453   7.138   5.044   1.784
 4172TIP3   OH212454   7.473   5.265   1.964
 4172TIP3    H112455   7.509   5.259   2.052
 4172TIP3    H212456   7.537   5.315   1.915
 4173TIP3   OH212457   7.663   5.416   1.833
 4173TIP3    H112458   7.731   5.357   1.799
 4173TIP3    H212459   7.710   5.479   1.886
 4174TIP3   OH212460   6.720   5.280   1.870
 4174TIP3    H112461   6.629   5.300   1.847
 4174TIP3    H212462   6.742   5.345   1.937
 4175TIP3   OH212463   6.952   5.271   1.723
 4175TIP3    H112464   6.869   5.276   1.770
 4175TIP3    H212465   6.930   5.294   1.632
 4176TIP3   OH212466   7.379   5.292   1.534
 4176TIP3    H112467   7.296   5.306   1.489
 4176TIP3    H212468   7.396   5.374   1.580
 4177TIP3   OH212469   7.636   5.209   1.546
 4177TIP3    H112470   7.544   5.236   1.547
 4177TIP3    H212471   7.685   5.291   1.542
 4178TIP3   OH212472   7.826   5.398   1.500
 4178TIP3    H112473   7.845   5.491   1.490
 4178TIP3    H212474   7.892   5.354   1.446
 4179TIP3   OH212475   6.636   5.061   1.594
 4179TIP3    H112476   6.657   5.035   1.684
 4179TIP3    H212477   6.708   5.026   1.541
 4180TIP3   OH212478   6.831   4.932   1.457
 4180TIP3    H112479   6.837   4.848   1.503
 4180TIP3    H212480   6.920   4.967   1.460
 4181TIP3   OH212481   7.093   4.997   1.489
 4181TIP3    H112482   7.119   4.905   1.487
 4181TIP3    H212483   7.154   5.038   1.550
 4182TIP3   OH212484   7.600   3.640   1.516
 4182TIP3    H112485   7.585   3.593   1.599
 4182TIP3    H212486   7.694   3.632   1.501
 4183TIP3   OH212487   6.911   3.390   1.554
 4183TIP3    H112488   6.818   3.366   1.556
 4183TIP3    H212489   6.957   3.307   1.552
 4184TIP3   OH212490   6.730   3.280   1.203
 4184TIP3    H112491   6.755   3.334   1.128
 4184TIP3    H212492   6.690   3.341   1.265
 4185TIP3   OH212493   7.366   3.424   1.445
 4185TIP3    H112494   7.410   3.469   1.372
 4185TIP3    H212495   7.394   3.471   1.523
 4186TIP3   OH212496   7.859   3.582   1.440
 4186TIP3    H112497   7.874   3.571   1.346
 4186TIP3    H212498   7.872   3.495   1.477
 4187TIP3   OH212499   6.404   4.808   1.025
 4187TIP3    H112500   6.313   4.792   0.998
 4187TIP3    H212501   6.420   4.900   1.004
 4188TIP3   OH212502   6.833   3.420   0.975
 4188TIP3    H112503   6.876   3.360   0.915
 4188TIP3    H212504   6.903   3.475   1.009
 4189TIP3   OH212505   7.328   3.610   1.074
 4189TIP3    H112506   7.389   3.567   1.134
 4189TIP3    H212507   7.337   3.704   1.094
 4190TIP3   OH212508   7.130   3.664   2.442
 4190TIP3    H112509   7.093   3.597   2.499
 4190TIP3    H212510   7.222   3.671   2.468
 4191TIP3   OH212511   7.380   3.668   2.565
 4191TIP3    H112512   7.460   3.645   2.518
 4191TIP3    H212513   7.370   3.599   2.630
 4192TIP3   OH212514   6.488   4.825   0.513
 4192TIP3    H112515   6.456   4.895   0.569
 4192TIP3    H212516   6.534   4.766   0.572
 4193TIP3   OH212517   8.142   5.296   1.821
 4193TIP3    H112518   8.059   5.265   1.784
 4193TIP3    H212519   8.125   5.386   1.847
 4194TIP3   OH212520   0.051   5.212   2.843
 4194TIP3    H112521   0.022   5.301   2.825
 4194TIP3    H212522   0.002   5.157   2.782
 4195TIP3   OH212523   0.114   5.225   3.116
 4195TIP3    H112524   0.035   5.252   3.163
 4195TIP3    H212525   0.085   5.214   3.025
 4196TIP3   OH212526   0.311   5.503   2.888
 4196TIP3    H112527   0.324   5.437   2.956
 4196TIP3    H212528   0.340   5.585   2.928
 4197TIP3   OH212529   8.502   5.980   2.896
 4197TIP3    H112530   8.545   5.904   2.858
 4197TIP3    H212531   8.417   5.948   2.925
 4198TIP3   OH212532   8.423   5.293   3.311
 4198TIP3    H112533   8.356   5.296   3.243
 4198TIP3    H212534   8.434   5.384   3.338
 4199TIP3   OH212535   0.887   4.740   3.252
 4199TIP3    H112536   0.906   4.818   3.304
 4199TIP3    H212537   0.907   4.766   3.162
 4200TIP3   OH212538   0.270   4.908   3.263
 4200TIP3    H112539   0.324   4.831   3.282
 4200TIP3    H212540   0.236   4.893   3.175
 4201TIP3   OH212541   0.314   4.679   2.852
 4201TIP3    H112542   0.382   4.670   2.918
 4201TIP3    H212543   0.358   4.719   2.777
 4202TIP3   OH212544   0.924   4.957   3.424
 4202TIP3    H112545   0.847   5.008   3.400
 4202TIP3    H212546   0.997   5.018   3.416
 4203TIP3   OH212547   8.430   5.420   2.712
 4203TIP3    H112548   8.360   5.435   2.649
 4203TIP3    H212549   8.504   5.470   2.678
 4204TIP3   OH212550   0.490   4.694   3.060
 4204TIP3    H112551   0.463   4.661   3.146
 4204TIP3    H212552   0.554   4.762   3.079
 4205TIP3   OH212553   0.379   5.747   3.018
 4205TIP3    H112554   0.311   5.750   3.086
 4205TIP3    H212555   0.377   5.834   2.978
 4206TIP3   OH212556   0.682   4.619   3.408
 4206TIP3    H112557   0.597   4.650   3.376
 4206TIP3    H212558   0.745   4.656   3.347
 4207TIP3   OH212559   8.517   4.282   3.415
 4207TIP3    H112560   8.499   4.189   3.425
 4207TIP3    H212561   8.434   4.326   3.434
 4208TIP3   OH212562   0.066   5.775   2.711
 4208TIP3    H112563   0.097   5.685   2.696
 4208TIP3    H212564   0.135   5.830   2.674
 4209TIP3   OH212565   0.177   5.531   2.647
 4209TIP3    H112566   0.218   5.477   2.579
 4209TIP3    H212567   0.230   5.516   2.725
 4210TIP3   OH212568   0.592   5.664   3.389
 4210TIP3    H112569   0.582   5.589   3.330
 4210TIP3    H212570   0.580   5.741   3.332
 4211TIP3   OH212571   8.423   5.083   2.630
 4211TIP3    H112572   8.332   5.112   2.624
 4211TIP3    H212573   8.437   5.029   2.553
 4212TIP3   OH212574   0.764   5.291   3.223
 4212TIP3    H112575   0.692   5.354   3.224
 4212TIP3    H212576   0.807   5.306   3.139
 4213TIP3   OH212577   0.248   5.162   2.639
 4213TIP3    H112578   0.196   5.178   2.717
 4213TIP3    H212579   0.327   5.118   2.671
 4214TIP3   OH212580   0.486   5.184   3.545
 4214TIP3    H112581   0.506   5.261   3.598
 4214TIP3    H212582   0.429   5.217   3.475
 4215TIP3   OH212583   0.073   5.766   3.098
 4215TIP3    H112584   0.090   5.859   3.111
 4215TIP3    H212585   0.115   5.723   3.172
 4216TIP3   OH212586   0.595   4.219   2.495
 4216TIP3    H112587   0.518   4.235   2.549
 4216TIP3    H212588   0.605   4.298   2.443
 4217TIP3   OH212589   0.399   5.589   2.044
 4217TIP3    H112590   0.403   5.684   2.031
 4217TIP3    H212591   0.489   5.559   2.030
 4218TIP3   OH212592   0.831   6.000   3.440
 4218TIP3    H112593   0.836   5.905   3.448
 4218TIP3    H212594   0.750   6.023   3.486
 4219TIP3   OH212595   8.420   5.836   2.143
 4219TIP3    H112596   8.478   5.776   2.096
 4219TIP3    H212597   8.461   5.846   2.229
 4220TIP3   OH212598   0.013   5.852   2.405
 4220TIP3    H112599  -0.036   5.772   2.425
 4220TIP3    H212600   0.094   5.843   2.455
 4221TIP3   OH212601   0.701   5.116   3.730
 4221TIP3    H112602   0.632   5.120   3.664
 4221TIP3    H212603   0.732   5.026   3.727
 4222TIP3   OH212604   0.295   4.497   3.714
 4222TIP3    H112605   0.367   4.464   3.767
 4222TIP3    H212606   0.229   4.524   3.778
 4223TIP3   OH212607   0.499   4.888   3.592
 4223TIP3    H112608   0.476   4.894   3.685
 4223TIP3    H212609   0.477   4.975   3.557
 4224TIP3   OH212610   8.365   4.423   2.444
 4224TIP3    H112611   8.379   4.419   2.538
 4224TIP3    H212612   8.341   4.333   2.419
 4225TIP3   OH212613   0.050   4.888   2.768
 4225TIP3    H112614   0.009   4.964   2.728
 4225TIP3    H212615   0.105   4.851   2.699
 4226TIP3   OH212616   0.181   4.873   3.009
 4226TIP3    H112617   0.132   4.907   2.933
 4226TIP3    H212618   0.226   4.796   2.976
 4227TIP3   OH212619   0.236   5.010   3.585
 4227TIP3    H112620   0.179   5.023   3.509
 4227TIP3    H212621   0.255   4.916   3.587
 4228TIP3   OH212622   8.422   4.515   3.131
 4228TIP3    H112623   8.364   4.448   3.168
 4228TIP3    H212624   8.504   4.506   3.180
 4229TIP3   OH212625   0.371   4.649   3.311
 4229TIP3    H112626   0.342   4.670   3.400
 4229TIP3    H212627   0.307   4.584   3.280
 4230TIP3   OH212628   0.556   6.343   3.538
 4230TIP3    H112629   0.550   6.363   3.444
 4230TIP3    H212630   0.631   6.395   3.569
 4231TIP3   OH212631   8.433   4.980   3.128
 4231TIP3    H112632   8.516   4.945   3.096
 4231TIP3    H212633   8.378   4.902   3.141
 4232TIP3   OH212634   8.453   4.809   3.412
 4232TIP3    H112635   8.463   4.903   3.396
 4232TIP3    H212636   8.542   4.777   3.427
 4233TIP3   OH212637   0.552   5.465   3.212
 4233TIP3    H112638   0.588   5.511   3.137
 4233TIP3    H212639   0.481   5.412   3.176
 4234TIP3   OH212640   0.119   4.519   2.478
 4234TIP3    H112641   0.027   4.512   2.453
 4234TIP3    H212642   0.134   4.613   2.489
 4235TIP3   OH212643   0.026   5.492   3.598
 4235TIP3    H112644   0.053   5.527   3.682
 4235TIP3    H212645  -0.055   5.539   3.578
 4236TIP3   OH212646   0.192   4.777   2.563
 4236TIP3    H112647   0.278   4.809   2.534
 4236TIP3    H212648   0.130   4.814   2.500
 4237TIP3   OH212649   8.193   5.381   2.513
 4237TIP3    H112650   8.173   5.367   2.420
 4237TIP3    H212651   8.176   5.297   2.554
 4238TIP3   OH212652   0.224   5.761   3.552
 4238TIP3    H112653   0.136   5.748   3.587
 4238TIP3    H212654   0.261   5.830   3.607
 4239TIP3   OH212655   0.605   4.851   2.391
 4239TIP3    H112656   0.550   4.801   2.330
 4239TIP3    H212657   0.606   4.940   2.355
 4240TIP3   OH212658   0.849   5.718   3.465
 4240TIP3    H112659   0.754   5.705   3.461
 4240TIP3    H212660   0.881   5.677   3.384
 4241TIP3   OH212661   0.336   5.660   2.310
 4241TIP3    H112662   0.296   5.586   2.355
 4241TIP3    H212663   0.351   5.628   2.221
 4242TIP3   OH212664   0.373   5.294   3.100
 4242TIP3    H112665   0.280   5.279   3.116
 4242TIP3    H212666   0.404   5.212   3.063
 4243TIP3   OH212667   0.226   5.509   3.286
 4243TIP3    H112668   0.131   5.508   3.294
 4243TIP3    H212669   0.255   5.430   3.333
 4244TIP3   OH212670   0.130   5.443   2.235
 4244TIP3    H112671   0.170   5.407   2.315
 4244TIP3    H212672   0.066   5.377   2.209
 4245TIP3   OH212673   0.357   6.045   3.365
 4245TIP3    H112674   0.291   5.981   3.341
 4245TIP3    H212675   0.354   6.110   3.295
 4246TIP3   OH212676   0.411   5.861   2.039
 4246TIP3    H112677   0.418   5.912   1.959
 4246TIP3    H212678   0.343   5.905   2.089
 4247TIP3   OH212679   0.279   5.359   2.451
 4247TIP3    H112680   0.258   5.284   2.507
 4247TIP3    H212681   0.370   5.345   2.426
 4248TIP3   OH212682   0.278   4.726   3.559
 4248TIP3    H112683   0.366   4.757   3.581
 4248TIP3    H212684   0.266   4.647   3.612
 4249TIP3   OH212685   0.204   4.454   2.731
 4249TIP3    H112686   0.170   4.470   2.643
 4249TIP3    H212687   0.250   4.534   2.754
 4250TIP3   OH212688   8.250   4.617   2.908
 4250TIP3    H112689   8.344   4.632   2.898
 4250TIP3    H212690   8.242   4.526   2.934
 4251TIP3   OH212691   0.094   4.334   2.957
 4251TIP3    H112692   0.021   4.391   2.982
 4251TIP3    H212693   0.125   4.371   2.874
 4252TIP3   OH212694   0.767   4.864   3.639
 4252TIP3    H112695   0.678   4.846   3.610
 4252TIP3    H212696   0.816   4.880   3.559
 4253TIP3   OH212697   0.421   5.036   3.009
 4253TIP3    H112698   0.340   4.990   3.030
 4253TIP3    H212699   0.488   4.992   3.061
 4254TIP3   OH212700   0.394   6.018   2.963
 4254TIP3    H112701   0.353   6.061   2.887
 4254TIP3    H212702   0.488   6.032   2.949
 4255TIP3   OH212703   0.306   5.932   3.740
 4255TIP3    H112704   0.252   5.924   3.818
 4255TIP3    H212705   0.375   5.994   3.764
 4256TIP3   OH212706   0.079   5.630   2.044
 4256TIP3    H112707   0.103   5.574   2.118
 4256TIP3    H212708   0.155   5.625   1.985
 4257TIP3   OH212709   8.238   5.308   2.227
 4257TIP3    H112710   8.316   5.307   2.283
 4257TIP3    H212711   8.240   5.225   2.181
 4258TIP3   OH212712   0.398   5.551   3.547
 4258TIP3    H112713   0.465   5.590   3.491
 4258TIP3    H212714   0.324   5.612   3.543
 4259TIP3   OH212715   0.300   5.316   3.845
 4259TIP3    H112716   0.383   5.355   3.817
 4259TIP3    H212717   0.310   5.306   3.940
 4260TIP3   OH212718   0.389   5.105   2.053
 4260TIP3    H112719   0.311   5.051   2.045
 4260TIP3    H212720   0.360   5.193   2.030
 4261TIP3   OH212721   8.332   4.660   3.620
 4261TIP3    H112722   8.335   4.687   3.528
 4261TIP3    H212723   8.240   4.637   3.636
 4262TIP3   OH212724   0.532   5.126   3.980
 4262TIP3    H112725   0.519   5.040   3.941
 4262TIP3    H212726   0.612   5.159   3.939
 4263TIP3   OH212727   0.533   5.400   3.715
 4263TIP3    H112728   0.480   5.457   3.660
 4263TIP3    H212729   0.623   5.414   3.685
 4264TIP3   OH212730   8.519   4.330   3.805
 4264TIP3    H112731   8.517   4.419   3.769
 4264TIP3    H212732   8.461   4.280   3.748
 4265TIP3   OH212733   0.167   4.885   3.965
 4265TIP3    H112734   0.211   4.901   4.049
 4265TIP3    H212735   0.092   4.944   3.966
 4266TIP3   OH212736   0.416   4.894   3.848
 4266TIP3    H112737   0.327   4.876   3.880
 4266TIP3    H212738   0.473   4.846   3.909
 4267TIP3   OH212739   0.602   4.803   4.027
 4267TIP3    H112740   0.614   4.709   4.038
 4267TIP3    H212741   0.598   4.837   4.117
 4268TIP3   OH212742   0.200   4.442   3.979
 4268TIP3    H112743   0.253   4.363   3.992
 4268TIP3    H212744   0.120   4.410   3.936
 4269TIP3   OH212745   0.206   4.643   4.159
 4269TIP3    H112746   0.211   4.576   4.091
 4269TIP3    H212747   0.120   4.631   4.199
 4270TIP3   OH212748   0.657   6.085   2.943
 4270TIP3    H112749   0.681   6.119   3.029
 4270TIP3    H212750   0.715   6.132   2.883
 4271TIP3   OH212751   0.679   6.116   3.225
 4271TIP3    H112752   0.629   6.035   3.214
 4271TIP3    H212753   0.749   6.092   3.287
 4272TIP3   OH212754   0.710   5.804   3.793
 4272TIP3    H112755   0.656   5.826   3.869
 4272TIP3    H212756   0.765   5.881   3.780
 4273TIP3   OH212757   0.546   5.313   2.401
 4273TIP3    H112758   0.607   5.381   2.372
 4273TIP3    H212759   0.590   5.272   2.475
 4274TIP3   OH212760   0.667   5.174   2.604
 4274TIP3    H112761   0.600   5.134   2.659
 4274TIP3    H212762   0.731   5.209   2.667
 4275TIP3   OH212763   0.721   5.590   3.036
 4275TIP3    H112764   0.771   5.518   2.997
 4275TIP3    H212765   0.721   5.658   2.970
 4276TIP3   OH212766   0.543   5.875   3.215
 4276TIP3    H112767   0.463   5.896   3.262
 4276TIP3    H212768   0.514   5.826   3.138
 4277TIP3   OH212769   0.587   5.088   2.245
 4277TIP3    H112770   0.522   5.087   2.174
 4277TIP3    H212771   0.564   5.165   2.297
 4278TIP3   OH212772   0.456   4.733   2.197
 4278TIP3    H112773   0.406   4.781   2.131
 4278TIP3    H212774   0.442   4.640   2.176
 4279TIP3   OH212775   0.472   5.031   2.741
 4279TIP3    H112776   0.481   4.938   2.721
 4279TIP3    H212777   0.460   5.035   2.836
 4280TIP3   OH212778   0.776   5.456   3.604
 4280TIP3    H112779   0.844   5.389   3.614
 4280TIP3    H212780   0.807   5.512   3.532
 4281TIP3   OH212781   0.934   5.256   3.697
 4281TIP3    H112782   0.855   5.203   3.701
 4281TIP3    H212783   1.004   5.194   3.677
 4282TIP3   OH212784   0.413   4.459   2.160
 4282TIP3    H112785   0.470   4.444   2.235
 4282TIP3    H212786   0.327   4.430   2.188
 4283TIP3   OH212787   0.488   4.766   2.640
 4283TIP3    H112788   0.525   4.678   2.653
 4283TIP3    H212789   0.529   4.797   2.560
 4284TIP3   OH212790   0.631   4.919   3.147
 4284TIP3    H112791   0.713   4.940   3.104
 4284TIP3    H212792   0.638   4.960   3.234
 4285TIP3   OH212793   0.685   5.079   3.370
 4285TIP3    H112794   0.619   5.119   3.426
 4285TIP3    H212795   0.718   5.152   3.317
 4286TIP3   OH212796   1.155   4.671   3.924
 4286TIP3    H112797   1.215   4.611   3.880
 4286TIP3    H212798   1.118   4.724   3.852
 4287TIP3   OH212799   0.581   4.505   2.681
 4287TIP3    H112800   0.624   4.492   2.766
 4287TIP3    H212801   0.522   4.429   2.672
 4288TIP3   OH212802   1.013   4.789   3.726
 4288TIP3    H112803   0.929   4.833   3.735
 4288TIP3    H212804   0.996   4.715   3.669
 4289TIP3   OH212805   0.640   4.425   2.319
 4289TIP3    H112806   0.685   4.366   2.259
 4289TIP3    H212807   0.693   4.505   2.319
 4290TIP3   OH212808   0.230   5.951   2.590
 4290TIP3    H112809   0.290   5.948   2.515
 4290TIP3    H212810   0.266   6.019   2.647
 4291TIP3   OH212811   0.160   6.199   3.498
 4291TIP3    H112812   0.239   6.151   3.471
 4291TIP3    H212813   0.193   6.272   3.551
 4292TIP3   OH212814   0.915   4.553   3.610
 4292TIP3    H112815   0.831   4.559   3.565
 4292TIP3    H212816   0.941   4.461   3.600
 4293TIP3   OH212817   0.107   6.032   3.179
 4293TIP3    H112818   0.039   6.064   3.120
 4293TIP3    H212819   0.172   6.102   3.180
 4294TIP3   OH212820   0.329   6.215   3.147
 4294TIP3    H112821   0.305   6.295   3.099
 4294TIP3    H212822   0.351   6.152   3.078
 4295TIP3   OH212823   0.157   4.470   3.264
 4295TIP3    H112824   0.124   4.400   3.320
 4295TIP3    H212825   0.219   4.427   3.205
 4296TIP3   OH212826   0.630   4.366   3.135
 4296TIP3    H112827   0.666   4.418   3.063
 4296TIP3    H212828   0.536   4.382   3.130
 4297TIP3   OH212829   0.740   4.455   2.901
 4297TIP3    H112830   0.810   4.398   2.870
 4297TIP3    H212831   0.775   4.544   2.890
 4298TIP3   OH212832   8.333   4.207   3.212
 4298TIP3    H112833   8.313   4.236   3.123
 4298TIP3    H212834   8.428   4.208   3.217
 4299TIP3   OH212835   0.351   4.352   3.115
 4299TIP3    H112836   0.306   4.327   3.034
 4299TIP3    H212837   0.350   4.272   3.168
 4300TIP3   OH212838   0.408   4.283   2.680
 4300TIP3    H112839   0.329   4.336   2.694
 4300TIP3    H212840   0.390   4.200   2.724
 4301TIP3   OH212841   8.391   4.420   2.711
 4301TIP3    H112842   8.358   4.365   2.782
 4301TIP3    H212843   8.444   4.487   2.754
 4302TIP3   OH212844   0.374   5.927   2.360
 4302TIP3    H112845   0.369   5.832   2.344
 4302TIP3    H212846   0.329   5.966   2.286
 4303TIP3   OH212847   0.667   4.537   4.045
 4303TIP3    H112848   0.688   4.509   4.135
 4303TIP3    H212849   0.751   4.535   3.999
 4304TIP3   OH212850   0.582   6.070   3.539
 4304TIP3    H112851   0.506   6.042   3.489
 4304TIP3    H212852   0.573   6.165   3.546
 4305TIP3   OH212853   1.854   5.461   2.291
 4305TIP3    H112854   1.824   5.548   2.266
 4305TIP3    H212855   1.783   5.403   2.265
 4306TIP3   OH212856   1.853   5.456   2.705
 4306TIP3    H112857   1.901   5.435   2.786
 4306TIP3    H212858   1.808   5.374   2.683
 4307TIP3   OH212859   1.141   5.355   3.070
 4307TIP3    H112860   1.138   5.292   3.142
 4307TIP3    H212861   1.217   5.410   3.088
 4308TIP3   OH212862   2.112   5.762   2.382
 4308TIP3    H112863   2.102   5.695   2.450
 4308TIP3    H212864   2.138   5.841   2.430
 4309TIP3   OH212865   1.137   5.752   2.759
 4309TIP3    H112866   1.123   5.657   2.766
 4309TIP3    H212867   1.232   5.761   2.748
 4310TIP3   OH212868   0.829   4.952   2.535
 4310TIP3    H112869   0.789   5.035   2.559
 4310TIP3    H212870   0.758   4.903   2.492
 4311TIP3   OH212871   0.896   5.251   2.742
 4311TIP3    H112872   0.945   5.176   2.775
 4311TIP3    H212873   0.962   5.308   2.703
 4312TIP3   OH212874   1.768   6.204   2.392
 4312TIP3    H112875   1.799   6.139   2.329
 4312TIP3    H212876   1.755   6.154   2.473
 4313TIP3   OH212877   1.654   5.683   2.719
 4313TIP3    H112878   1.692   5.603   2.684
 4313TIP3    H212879   1.729   5.735   2.747
 4314TIP3   OH212880   2.684   4.999   2.730
 4314TIP3    H112881   2.704   5.082   2.773
 4314TIP3    H212882   2.708   5.013   2.638
 4315TIP3   OH212883   2.068   5.171   2.753
 4315TIP3    H112884   2.106   5.086   2.778
 4315TIP3    H212885   2.033   5.156   2.665
 4316TIP3   OH212886   1.421   4.835   2.718
 4316TIP3    H112887   1.398   4.908   2.660
 4316TIP3    H212888   1.364   4.763   2.689
 4317TIP3   OH212889   2.115   4.926   2.344
 4317TIP3    H112890   2.180   4.918   2.414
 4317TIP3    H212891   2.164   4.962   2.270
 4318TIP3   OH212892   1.042   5.040   2.842
 4318TIP3    H112893   1.125   5.024   2.887
 4318TIP3    H212894   1.048   4.988   2.762
 4319TIP3   OH212895   1.478   5.240   2.632
 4319TIP3    H112896   1.570   5.219   2.646
 4319TIP3    H212897   1.439   5.158   2.603
 4320TIP3   OH212898   2.747   5.213   2.902
 4320TIP3    H112899   2.661   5.255   2.893
 4320TIP3    H212900   2.785   5.253   2.980
 4321TIP3   OH212901   1.408   4.818   3.159
 4321TIP3    H112902   1.352   4.858   3.092
 4321TIP3    H212903   1.361   4.833   3.241
 4322TIP3   OH212904   1.745   5.676   2.155
 4322TIP3    H112905   1.705   5.653   2.071
 4322TIP3    H212906   1.696   5.753   2.185
 4323TIP3   OH212907   1.503   5.603   2.937
 4323TIP3    H112908   1.443   5.669   2.974
 4323TIP3    H212909   1.546   5.647   2.864
 4324TIP3   OH212910   2.285   4.944   2.558
 4324TIP3    H112911   2.244   4.923   2.642
 4324TIP3    H212912   2.342   5.018   2.576
 4325TIP3   OH212913   1.286   4.941   2.941
 4325TIP3    H112914   1.337   5.015   2.972
 4325TIP3    H212915   1.338   4.904   2.870
 4326TIP3   OH212916   1.336   5.801   3.043
 4326TIP3    H112917   1.315   5.888   3.011
 4326TIP3    H212918   1.259   5.774   3.094
 4327TIP3   OH212919   0.723   5.501   2.292
 4327TIP3    H112920   0.685   5.516   2.205
 4327TIP3    H212921   0.747   5.588   2.323
 4328TIP3   OH212922   2.158   6.009   2.524
 4328TIP3    H112923   2.071   6.002   2.563
 4328TIP3    H212924   2.156   6.092   2.477
 4329TIP3   OH212925   2.480   4.887   2.894
 4329TIP3    H112926   2.394   4.914   2.863
 4329TIP3    H212927   2.541   4.918   2.827
 4330TIP3   OH212928   1.745   4.522   2.884
 4330TIP3    H112929   1.737   4.430   2.910
 4330TIP3    H212930   1.671   4.565   2.926
 4331TIP3   OH212931   1.863   6.046   2.182
 4331TIP3    H112932   1.913   5.966   2.172
 4331TIP3    H212933   1.922   6.116   2.152
 4332TIP3   OH212934   2.011   5.824   2.131
 4332TIP3    H112935   1.961   5.747   2.104
 4332TIP3    H212936   2.054   5.797   2.213
 4333TIP3   OH212937   2.388   5.906   2.869
 4333TIP3    H112938   2.375   5.830   2.813
 4333TIP3    H212939   2.374   5.981   2.811
 4334TIP3   OH212940   1.681   5.303   2.138
 4334TIP3    H112941   1.601   5.352   2.120
 4334TIP3    H212942   1.728   5.302   2.054
 4335TIP3   OH212943   1.650   5.101   1.837
 4335TIP3    H112944   1.714   5.152   1.886
 4335TIP3    H212945   1.702   5.038   1.788
 4336TIP3   OH212946   2.579   5.554   2.729
 4336TIP3    H112947   2.496   5.601   2.731
 4336TIP3    H212948   2.615   5.572   2.643
 4337TIP3   OH212949   2.037   5.392   2.101
 4337TIP3    H112950   1.982   5.419   2.174
 4337TIP3    H212951   2.120   5.366   2.140
 4338TIP3   OH212952   2.267   5.422   3.037
 4338TIP3    H112953   2.266   5.504   3.085
 4338TIP3    H212954   2.184   5.421   2.989
 4339TIP3   OH212955   1.264   5.376   2.518
 4339TIP3    H112956   1.226   5.318   2.451
 4339TIP3    H212957   1.340   5.329   2.550
 4340TIP3   OH212958   1.398   5.801   2.649
 4340TIP3    H112959   1.373   5.778   2.560
 4340TIP3    H212960   1.484   5.761   2.661
 4341TIP3   OH212961   1.395   5.355   2.874
 4341TIP3    H112962   1.430   5.328   2.789
 4341TIP3    H212963   1.437   5.439   2.891
 4342TIP3   OH212964   1.922   6.006   2.661
 4342TIP3    H112965   1.912   6.079   2.722
 4342TIP3    H212966   1.910   5.928   2.715
 4343TIP3   OH212967   1.537   5.907   3.201
 4343TIP3    H112968   1.478   5.966   3.248
 4343TIP3    H212969   1.479   5.853   3.147
 4344TIP3   OH212970   1.870   5.251   1.933
 4344TIP3    H112971   1.929   5.308   1.982
 4344TIP3    H212972   1.896   5.262   1.842
 4345TIP3   OH212973   1.310   5.464   3.286
 4345TIP3    H112974   1.287   5.538   3.343
 4345TIP3    H212975   1.256   5.392   3.317
 4346TIP3   OH212976   1.617   5.921   2.200
 4346TIP3    H112977   1.699   5.971   2.200
 4346TIP3    H212978   1.557   5.974   2.147
 4347TIP3   OH212979   1.329   6.072   3.285
 4347TIP3    H112980   1.303   6.076   3.193
 4347TIP3    H212981   1.248   6.054   3.332
 4348TIP3   OH212982   2.383   4.481   1.986
 4348TIP3    H112983   2.305   4.503   2.038
 4348TIP3    H212984   2.397   4.558   1.931
 4349TIP3   OH212985   1.139   5.221   2.310
 4349TIP3    H112986   1.066   5.270   2.272
 4349TIP3    H212987   1.101   5.135   2.332
 4350TIP3   OH212988   2.200   5.853   1.539
 4350TIP3    H112989   2.199   5.947   1.520
 4350TIP3    H212990   2.289   5.825   1.520
 4351TIP3   OH212991   0.920   5.583   3.238
 4351TIP3    H112992   0.850   5.589   3.172
 4351TIP3    H212993   0.950   5.493   3.233
 4352TIP3   OH212994   0.772   5.810   2.870
 4352TIP3    H112995   0.867   5.810   2.866
 4352TIP3    H212996   0.750   5.889   2.919
 4353TIP3   OH212997   2.615   6.254   2.934
 4353TIP3    H112998   2.621   6.160   2.949
 4353TIP3    H212999   2.537   6.281   2.983
 4354TIP3   OH213000   1.728   6.045   3.058
 4354TIP3    H113001   1.722   6.136   3.087
 4354TIP3    H213002   1.660   5.999   3.108
 4355TIP3   OH213003   1.506   6.156   2.014
 4355TIP3    H113004   1.456   6.134   1.936
 4355TIP3    H213005   1.470   6.239   2.044
 4356TIP3   OH213006   0.939   6.006   2.395
 4356TIP3    H113007   0.984   5.997   2.479
 4356TIP3    H213008   0.891   5.924   2.384
 4357TIP3   OH213009   1.709   6.075   1.646
 4357TIP3    H113010   1.760   6.002   1.612
 4357TIP3    H213011   1.743   6.087   1.735
 4358TIP3   OH213012   1.759   6.122   1.915
 4358TIP3    H113013   1.672   6.128   1.955
 4358TIP3    H213014   1.814   6.084   1.984
 4359TIP3   OH213015   2.509   5.382   3.209
 4359TIP3    H113016   2.430   5.391   3.157
 4359TIP3    H213017   2.530   5.288   3.205
 4360TIP3   OH213018   1.112   5.787   3.209
 4360TIP3    H113019   1.166   5.778   3.287
 4360TIP3    H213020   1.048   5.716   3.216
 4361TIP3   OH213021   1.511   4.611   3.010
 4361TIP3    H113022   1.426   4.579   2.980
 4361TIP3    H213023   1.491   4.691   3.058
 4362TIP3   OH213024   2.051   4.729   3.213
 4362TIP3    H113025   2.119   4.706   3.275
 4362TIP3    H213026   1.969   4.713   3.260
 4363TIP3   OH213027   2.273   5.156   3.126
 4363TIP3    H113028   2.231   5.154   3.212
 4363TIP3    H213029   2.257   5.245   3.094
 4364TIP3   OH213030   1.950   5.261   1.674
 4364TIP3    H113031   1.906   5.254   1.589
 4364TIP3    H213032   2.033   5.305   1.654
 4365TIP3   OH213033   1.654   4.658   1.984
 4365TIP3    H113034   1.621   4.662   2.073
 4365TIP3    H213035   1.613   4.580   1.946
 4366TIP3   OH213036   1.436   5.147   3.049
 4366TIP3    H113037   1.397   5.169   3.134
 4366TIP3    H213038   1.416   5.223   2.994
 4367TIP3   OH213039   1.328   5.024   2.543
 4367TIP3    H113040   1.238   5.002   2.570
 4367TIP3    H213041   1.337   4.987   2.455
 4368TIP3   OH213042   1.812   5.099   2.270
 4368TIP3    H113043   1.763   5.171   2.230
 4368TIP3    H213044   1.870   5.068   2.201
 4369TIP3   OH213045   1.992   5.372   3.351
 4369TIP3    H113046   1.965   5.303   3.412
 4369TIP3    H213047   2.085   5.386   3.370
 4370TIP3   OH213048   1.978   5.119   2.499
 4370TIP3    H113049   1.910   5.144   2.437
 4370TIP3    H213050   2.021   5.044   2.457
 4371TIP3   OH213051   1.320   4.643   1.957
 4371TIP3    H113052   1.305   4.649   2.051
 4371TIP3    H213053   1.245   4.688   1.918
 4372TIP3   OH213054   0.865   4.681   2.827
 4372TIP3    H113055   0.937   4.716   2.880
 4372TIP3    H213056   0.904   4.663   2.742
 4373TIP3   OH213057   0.798   4.656   2.331
 4373TIP3    H113058   0.839   4.690   2.251
 4373TIP3    H213059   0.736   4.724   2.357
 4374TIP3   OH213060   2.006   5.370   2.926
 4374TIP3    H113061   2.033   5.303   2.863
 4374TIP3    H213062   1.966   5.320   2.998
 4375TIP3   OH213063   1.682   4.818   2.597
 4375TIP3    H113064   1.604   4.823   2.652
 4375TIP3    H213065   1.755   4.813   2.659
 4376TIP3   OH213066   1.090   4.902   2.608
 4376TIP3    H113067   1.000   4.907   2.574
 4376TIP3    H213068   1.116   4.811   2.592
 4377TIP3   OH213069   1.347   4.895   2.301
 4377TIP3    H113070   1.441   4.913   2.289
 4377TIP3    H213071   1.308   4.917   2.217
 4378TIP3   OH213072   2.147   4.906   2.801
 4378TIP3    H113073   2.127   4.922   2.893
 4378TIP3    H213074   2.078   4.847   2.771
 4379TIP3   OH213075   1.226   4.923   2.059
 4379TIP3    H113076   1.156   4.881   2.009
 4379TIP3    H213077   1.278   4.969   1.994
 4380TIP3   OH213078   2.331   6.616   3.010
 4380TIP3    H113079   2.331   6.621   2.915
 4380TIP3    H213080   2.411   6.660   3.037
 4381TIP3   OH213081   1.273   5.726   3.436
 4381TIP3    H113082   1.357   5.740   3.482
 4381TIP3    H213083   1.210   5.714   3.507
 4382TIP3   OH213084   1.742   5.180   2.706
 4382TIP3    H113085   1.812   5.129   2.665
 4382TIP3    H213086   1.735   5.143   2.795
 4383TIP3   OH213087   1.241   4.654   2.597
 4383TIP3    H113088   1.208   4.579   2.646
 4383TIP3    H213089   1.276   4.617   2.516
 4384TIP3   OH213090   1.705   5.092   2.977
 4384TIP3    H113091   1.618   5.122   3.003
 4384TIP3    H213092   1.766   5.145   3.029
 4385TIP3   OH213093   1.448   5.450   2.085
 4385TIP3    H113094   1.376   5.389   2.065
 4385TIP3    H213095   1.425   5.486   2.171
 4386TIP3   OH213096   2.342   5.696   2.695
 4386TIP3    H113097   2.376   5.744   2.620
 4386TIP3    H213098   2.261   5.655   2.664
 4387TIP3   OH213099   1.910   4.759   1.979
 4387TIP3    H113100   1.815   4.744   1.975
 4387TIP3    H213101   1.918   4.854   1.990
 4388TIP3   OH213102   1.857   5.781   3.089
 4388TIP3    H113103   1.893   5.764   3.176
 4388TIP3    H213104   1.810   5.864   3.098
 4389TIP3   OH213105   1.975   5.020   2.053
 4389TIP3    H113106   2.070   5.026   2.063
 4389TIP3    H213107   1.952   5.097   2.001
 4390TIP3   OH213108   1.145   5.468   2.755
 4390TIP3    H113109   1.186   5.443   2.673
 4390TIP3    H213110   1.196   5.423   2.823
 4391TIP3   OH213111   1.598   5.608   1.922
 4391TIP3    H113112   1.552   5.692   1.921
 4391TIP3    H213113   1.543   5.551   1.975
 4392TIP3   OH213114   1.754   5.520   3.390
 4392TIP3    H113115   1.685   5.461   3.359
 4392TIP3    H213116   1.836   5.480   3.359
 4393TIP3   OH213117   2.000   6.066   2.974
 4393TIP3    H113118   1.907   6.047   2.985
 4393TIP3    H213119   2.028   6.101   3.059
 4394TIP3   OH213120   2.397   5.111   1.880
 4394TIP3    H113121   2.341   5.065   1.818
 4394TIP3    H213122   2.402   5.201   1.846
 4395TIP3   OH213123   2.636   5.974   2.962
 4395TIP3    H113124   2.541   5.962   2.955
 4395TIP3    H213125   2.670   5.946   2.877
 4396TIP3   OH213126   2.126   5.926   1.804
 4396TIP3    H113127   2.098   5.857   1.864
 4396TIP3    H213128   2.142   5.881   1.721
 4397TIP3   OH213129   2.108   5.562   2.597
 4397TIP3    H113130   2.018   5.537   2.618
 4397TIP3    H213131   2.146   5.482   2.559
 4398TIP3   OH213132   1.254   5.794   2.398
 4398TIP3    H113133   1.252   5.872   2.342
 4398TIP3    H213134   1.162   5.773   2.413
 4399TIP3   OH213135   0.831   5.080   2.118
 4399TIP3    H113136   0.870   5.166   2.134
 4399TIP3    H213137   0.747   5.083   2.164
 4400TIP3   OH213138   1.361   5.550   2.321
 4400TIP3    H113139   1.337   5.640   2.344
 4400TIP3    H213140   1.330   5.497   2.394
 4401TIP3   OH213141   1.535   6.122   2.856
 4401TIP3    H113142   1.572   6.194   2.804
 4401TIP3    H213143   1.609   6.084   2.903
 4402TIP3   OH213144   1.172   6.024   2.248
 4402TIP3    H113145   1.085   6.029   2.287
 4402TIP3    H213146   1.204   6.115   2.250
 4403TIP3   OH213147   1.901   5.775   2.817
 4403TIP3    H113148   1.890   5.772   2.912
 4403TIP3    H213149   1.970   5.711   2.798
 4404TIP3   OH213150   1.884   5.660   1.700
 4404TIP3    H113151   1.935   5.637   1.778
 4404TIP3    H213152   1.799   5.620   1.714
 4405TIP3   OH213153   2.151   6.289   2.869
 4405TIP3    H113154   2.082   6.224   2.880
 4405TIP3    H213155   2.123   6.342   2.794
 4406TIP3   OH213156   2.208   6.128   1.508
 4406TIP3    H113157   2.236   6.193   1.444
 4406TIP3    H213158   2.133   6.168   1.552
 4407TIP3   OH213159   1.263   4.896   3.373
 4407TIP3    H113160   1.232   4.986   3.362
 4407TIP3    H213161   1.244   4.875   3.465
 4408TIP3   OH213162   2.055   5.590   1.905
 4408TIP3    H113163   2.041   5.526   1.975
 4408TIP3    H213164   2.150   5.593   1.894
 4409TIP3   OH213165   0.965   5.999   3.018
 4409TIP3    H113166   1.012   5.930   3.064
 4409TIP3    H213167   0.985   6.079   3.067
 4410TIP3   OH213168   1.244   5.629   1.708
 4410TIP3    H113169   1.255   5.538   1.680
 4410TIP3    H213170   1.223   5.624   1.801
 4411TIP3   OH213171   1.185   5.645   1.978
 4411TIP3    H113172   1.254   5.616   2.037
 4411TIP3    H213173   1.186   5.740   1.986
 4412TIP3   OH213174   0.921   5.338   2.185
 4412TIP3    H113175   0.855   5.382   2.238
 4412TIP3    H213176   0.936   5.398   2.111
 4413TIP3   OH213177   2.084   4.960   3.062
 4413TIP3    H113178   2.159   5.007   3.098
 4413TIP3    H213179   2.074   4.884   3.120
 4414TIP3   OH213180   1.967   4.710   2.248
 4414TIP3    H113181   1.947   4.730   2.157
 4414TIP3    H213182   2.010   4.789   2.281
 4415TIP3   OH213183   1.458   5.840   1.923
 4415TIP3    H113184   1.371   5.861   1.958
 4415TIP3    H213185   1.476   5.910   1.860
 4416TIP3   OH213186   1.627   4.904   2.337
 4416TIP3    H113187   1.689   4.973   2.313
 4416TIP3    H213188   1.644   4.888   2.429
 4417TIP3   OH213189   1.918   5.206   3.128
 4417TIP3    H113190   1.939   5.253   3.208
 4417TIP3    H213191   1.966   5.123   3.134
 4418TIP3   OH213192   1.785   4.611   2.432
 4418TIP3    H113193   1.762   4.687   2.486
 4418TIP3    H213194   1.853   4.643   2.373
 4419TIP3   OH213195   1.204   5.917   1.997
 4419TIP3    H113196   1.181   5.987   1.935
 4419TIP3    H213197   1.190   5.955   2.083
 4420TIP3   OH213198   1.299   4.624   2.234
 4420TIP3    H113199   1.280   4.713   2.265
 4420TIP3    H213200   1.394   4.616   2.243
 4421TIP3   OH213201   2.541   5.113   3.122
 4421TIP3    H113202   2.445   5.113   3.128
 4421TIP3    H213203   2.559   5.073   3.037
 4422TIP3   OH213204   2.201   5.307   2.502
 4422TIP3    H113205   2.125   5.251   2.513
 4422TIP3    H213206   2.269   5.265   2.555
 4423TIP3   OH213207   0.930   5.525   1.972
 4423TIP3    H113208   0.998   5.592   1.983
 4423TIP3    H213209   0.968   5.461   1.912
 4424TIP3   OH213210   0.845   4.803   2.104
 4424TIP3    H113211   0.854   4.898   2.112
 4424TIP3    H213212   0.768   4.790   2.049
 4425TIP3   OH213213   2.178   6.280   2.445
 4425TIP3    H113214   2.134   6.328   2.375
 4425TIP3    H213215   2.271   6.296   2.430
 4426TIP3   OH213216   1.250   4.527   2.973
 4426TIP3    H113217   1.217   4.496   2.889
 4426TIP3    H213218   1.238   4.453   3.033
 4427TIP3   OH213219   0.778   5.774   2.369
 4427TIP3    H113220   0.724   5.805   2.441
 4427TIP3    H213221   0.738   5.811   2.291
 4428TIP3   OH213222   0.966   6.311   3.432
 4428TIP3    H113223   1.048   6.317   3.481
 4428TIP3    H213224   0.950   6.217   3.422
 4429TIP3   OH213225   1.431   6.240   3.478
 4429TIP3    H113226   1.522   6.213   3.489
 4429TIP3    H213227   1.398   6.185   3.407
 4430TIP3   OH213228   1.402   5.828   1.603
 4430TIP3    H113229   1.353   5.758   1.646
 4430TIP3    H213230   1.476   5.784   1.561
 4431TIP3   OH213231   2.062   6.166   3.222
 4431TIP3    H113232   2.066   6.095   3.286
 4431TIP3    H213233   2.138   6.221   3.242
 4432TIP3   OH213234   1.840   5.868   1.525
 4432TIP3    H113235   1.871   5.802   1.587
 4432TIP3    H213236   1.900   5.862   1.451
 4433TIP3   OH213237   1.067   5.724   3.635
 4433TIP3    H113238   1.095   5.632   3.637
 4433TIP3    H213239   0.985   5.722   3.586
 4434TIP3   OH213240   1.078   5.338   1.841
 4434TIP3    H113241   1.130   5.313   1.917
 4434TIP3    H213242   1.141   5.346   1.770
 4435TIP3   OH213243   1.689   5.797   3.404
 4435TIP3    H113244   1.642   5.816   3.323
 4435TIP3    H213245   1.720   5.707   3.393
 4436TIP3   OH213246   1.613   5.549   1.653
 4436TIP3    H113247   1.595   5.562   1.746
 4436TIP3    H213248   1.602   5.455   1.639
 4437TIP3   OH213249   2.171   5.832   3.024
 4437TIP3    H113250   2.247   5.863   2.974
 4437TIP3    H213251   2.101   5.893   3.002
 4438TIP3   OH213252   1.177   5.476   3.600
 4438TIP3    H113253   1.178   5.388   3.563
 4438TIP3    H213254   1.225   5.468   3.682
 4439TIP3   OH213255   1.250   5.262   2.045
 4439TIP3    H113256   1.224   5.228   2.131
 4439TIP3    H213257   1.291   5.186   2.002
 4440TIP3   OH213258   1.558   5.341   3.282
 4440TIP3    H113259   1.471   5.382   3.284
 4440TIP3    H213260   1.595   5.368   3.199
 4441TIP3   OH213261   1.375   5.069   1.882
 4441TIP3    H113262   1.345   5.075   1.791
 4441TIP3    H213263   1.470   5.077   1.876
 4442TIP3   OH213264   2.051   5.721   3.392
 4442TIP3    H113265   2.119   5.681   3.337
 4442TIP3    H213266   2.046   5.663   3.468
 4443TIP3   OH213267   2.177   5.375   1.559
 4443TIP3    H113268   2.162   5.331   1.475
 4443TIP3    H213269   2.149   5.465   1.544
 4444TIP3   OH213270   1.660   5.114   3.397
 4444TIP3    H113271   1.656   5.039   3.337
 4444TIP3    H213272   1.621   5.186   3.348
 4445TIP3   OH213273   1.664   4.907   3.199
 4445TIP3    H113274   1.687   4.949   3.116
 4445TIP3    H213275   1.573   4.881   3.187
 4446TIP3   OH213276   1.683   5.439   3.064
 4446TIP3    H113277   1.769   5.470   3.036
 4446TIP3    H213278   1.622   5.500   3.022
 4447TIP3   OH213279   2.262   5.397   3.449
 4447TIP3    H113280   2.300   5.309   3.460
 4447TIP3    H213281   2.335   5.451   3.420
 4448TIP3   OH213282   2.299   5.660   3.190
 4448TIP3    H113283   2.244   5.720   3.140
 4448TIP3    H213284   2.388   5.675   3.158
 4449TIP3   OH213285   1.539   5.202   3.642
 4449TIP3    H113286   1.468   5.140   3.658
 4449TIP3    H213287   1.563   5.187   3.550
 4450TIP3   OH213288   1.784   4.672   3.291
 4450TIP3    H113289   1.743   4.753   3.261
 4450TIP3    H213290   1.716   4.605   3.280
 4451TIP3   OH213291   1.913   5.156   3.499
 4451TIP3    H113292   1.900   5.143   3.593
 4451TIP3    H213293   1.828   5.136   3.460
 4452TIP3   OH213294   2.154   5.111   3.364
 4452TIP3    H113295   2.076   5.112   3.419
 4452TIP3    H213296   2.225   5.083   3.422
 4453TIP3   OH213297   2.389   5.069   3.514
 4453TIP3    H113298   2.403   4.974   3.523
 4453TIP3    H213299   2.384   5.100   3.605
 4454TIP3   OH213300   1.376   4.980   3.703
 4454TIP3    H113301   1.379   4.891   3.666
 4454TIP3    H213302   1.413   4.970   3.791
 4455TIP3   OH213303   1.860   4.662   3.556
 4455TIP3    H113304   1.929   4.596   3.550
 4455TIP3    H213305   1.826   4.669   3.467
 4456TIP3   OH213306   1.947   4.877   3.704
 4456TIP3    H113307   1.919   4.806   3.646
 4456TIP3    H213308   1.874   4.940   3.702
 4457TIP3   OH213309   1.195   6.128   1.817
 4457TIP3    H113310   1.283   6.110   1.784
 4457TIP3    H213311   1.149   6.167   1.743
 4458TIP3   OH213312   0.660   5.500   2.014
 4458TIP3    H113313   0.753   5.520   2.000
 4458TIP3    H213314   0.646   5.417   1.968
 4459TIP3   OH213315   0.565   6.103   2.450
 4459TIP3    H113316   0.505   6.045   2.403
 4459TIP3    H213317   0.613   6.045   2.509
 4460TIP3   OH213318   0.706   5.939   2.622
 4460TIP3    H113319   0.696   5.870   2.687
 4460TIP3    H213320   0.760   6.005   2.665
 4461TIP3   OH213321   2.439   6.360   2.425
 4461TIP3    H113322   2.475   6.374   2.512
 4461TIP3    H213323   2.509   6.386   2.365
 4462TIP3   OH213324   2.474   6.360   2.709
 4462TIP3    H113325   2.424   6.279   2.699
 4462TIP3    H213326   2.543   6.338   2.772
 4463TIP3   OH213327   2.511   6.066   3.280
 4463TIP3    H113328   2.441   6.074   3.345
 4463TIP3    H213329   2.558   6.149   3.286
 4464TIP3   OH213330   2.335   5.576   1.892
 4464TIP3    H113331   2.395   5.644   1.861
 4464TIP3    H213332   2.378   5.536   1.967
 4465TIP3   OH213333   2.461   5.433   2.093
 4465TIP3    H113334   2.395   5.394   2.149
 4465TIP3    H213335   2.526   5.469   2.154
 4466TIP3   OH213336   2.511   5.832   2.522
 4466TIP3    H113337   2.565   5.763   2.484
 4466TIP3    H213338   2.514   5.903   2.457
 4467TIP3   OH213339   2.324   6.126   2.715
 4467TIP3    H113340   2.255   6.168   2.767
 4467TIP3    H213341   2.278   6.083   2.643
 4468TIP3   OH213342   2.382   5.350   1.740
 4468TIP3    H113343   2.312   5.349   1.675
 4468TIP3    H213344   2.363   5.427   1.793
 4469TIP3   OH213345   2.242   5.008   1.682
 4469TIP3    H113346   2.199   5.046   1.605
 4469TIP3    H213347   2.227   4.914   1.674
 4470TIP3   OH213348   2.263   5.294   2.232
 4470TIP3    H113349   2.270   5.199   2.221
 4470TIP3    H213350   2.246   5.305   2.326
 4471TIP3   OH213351   0.883   5.375   2.986
 4471TIP3    H113352   0.875   5.333   2.901
 4471TIP3    H213353   0.977   5.373   3.005
 4472TIP3   OH213354   2.554   5.714   3.093
 4472TIP3    H113355   2.618   5.645   3.079
 4472TIP3    H213356   2.576   5.782   3.029
 4473TIP3   OH213357   2.725   5.501   3.089
 4473TIP3    H113358   2.652   5.459   3.134
 4473TIP3    H213359   2.800   5.445   3.108
 4474TIP3   OH213360   2.194   4.740   1.664
 4474TIP3    H113361   2.262   4.708   1.723
 4474TIP3    H213362   2.116   4.690   1.687
 4475TIP3   OH213363   2.262   5.016   2.117
 4475TIP3    H113364   2.306   4.932   2.130
 4475TIP3    H213365   2.308   5.056   2.043
 4476TIP3   OH213366   2.416   5.179   2.635
 4476TIP3    H113367   2.497   5.199   2.588
 4476TIP3    H213368   2.429   5.218   2.722
 4477TIP3   OH213369   2.490   5.329   2.864
 4477TIP3    H113370   2.415   5.360   2.916
 4477TIP3    H213371   2.522   5.407   2.819
 4478TIP3   OH213372   1.113   5.052   3.687
 4478TIP3    H113373   1.207   5.038   3.677
 4478TIP3    H213374   1.077   4.963   3.695
 4479TIP3   OH213375   2.946   4.931   3.408
 4479TIP3    H113376   3.008   4.871   3.367
 4479TIP3    H213377   2.909   4.981   3.335
 4480TIP3   OH213378   2.373   4.765   2.168
 4480TIP3    H113379   2.419   4.749   2.250
 4480TIP3    H213380   2.311   4.693   2.161
 4481TIP3   OH213381   1.079   4.748   2.988
 4481TIP3    H113382   1.137   4.673   2.997
 4481TIP3    H213383   1.139   4.823   2.982
 4482TIP3   OH213384   0.881   5.011   3.074
 4482TIP3    H113385   0.924   5.015   2.989
 4482TIP3    H213386   0.930   5.071   3.129
 4483TIP3   OH213387   2.800   5.049   3.210
 4483TIP3    H113388   2.717   5.090   3.233
 4483TIP3    H213389   2.775   4.974   3.156
 4484TIP3   OH213390   2.431   4.684   1.807
 4484TIP3    H113391   2.473   4.622   1.748
 4484TIP3    H213392   2.489   4.761   1.807
 4485TIP3   OH213393   0.846   4.520   2.564
 4485TIP3    H113394   0.759   4.513   2.602
 4485TIP3    H213395   0.835   4.576   2.487
 4486TIP3   OH213396   2.012   6.241   2.072
 4486TIP3    H113397   2.065   6.226   1.993
 4486TIP3    H213398   2.061   6.308   2.121
 4487TIP3   OH213399   1.067   4.560   3.366
 4487TIP3    H113400   1.028   4.572   3.453
 4487TIP3    H213401   1.016   4.617   3.309
 4488TIP3   OH213402   1.105   6.038   3.446
 4488TIP3    H113403   1.012   6.014   3.437
 4488TIP3    H213404   1.130   6.007   3.533
 4489TIP3   OH213405   1.305   6.077   3.004
 4489TIP3    H113406   1.254   6.150   2.970
 4489TIP3    H213407   1.390   6.085   2.960
 4490TIP3   OH213408   1.724   6.313   3.137
 4490TIP3    H113409   1.760   6.302   3.225
 4490TIP3    H213410   1.791   6.364   3.091
 4491TIP3   OH213411   1.915   6.461   2.999
 4491TIP3    H113412   1.952   6.393   2.943
 4491TIP3    H213413   1.972   6.537   2.986
 4492TIP3   OH213414   2.709   4.807   3.098
 4492TIP3    H113415   2.622   4.804   3.059
 4492TIP3    H213416   2.742   4.718   3.092
 4493TIP3   OH213417   0.973   6.331   3.044
 4493TIP3    H113418   0.881   6.347   3.023
 4493TIP3    H213419   0.993   6.394   3.113
 4494TIP3   OH213420   1.202   6.309   2.894
 4494TIP3    H113421   1.120   6.317   2.942
 4494TIP3    H213422   1.181   6.334   2.804
 4495TIP3   OH213423   1.622   6.327   2.686
 4495TIP3    H113424   1.551   6.335   2.622
 4495TIP3    H213425   1.630   6.414   2.725
 4496TIP3   OH213426   1.889   6.281   2.748
 4496TIP3    H113427   1.797   6.287   2.722
 4496TIP3    H213428   1.935   6.334   2.683
 4497TIP3   OH213429   2.100   6.454   2.643
 4497TIP3    H113430   2.087   6.537   2.598
 4497TIP3    H213431   2.128   6.394   2.574
 4498TIP3   OH213432   0.887   6.107   2.771
 4498TIP3    H113433   0.910   6.078   2.859
 4498TIP3    H213434   0.957   6.072   2.715
 4499TIP3   OH213435   1.085   5.988   2.629
 4499TIP3    H113436   1.096   5.904   2.674
 4499TIP3    H213437   1.172   6.027   2.629
 4500TIP3   OH213438   1.354   6.078   2.645
 4500TIP3    H113439   1.372   5.985   2.630
 4500TIP3    H213440   1.403   6.100   2.724
 4501TIP3   OH213441   1.916   4.729   2.730
 4501TIP3    H113442   1.878   4.657   2.780
 4501TIP3    H213443   1.986   4.688   2.679
 4502TIP3   OH213444   2.424   4.626   2.622
 4502TIP3    H113445   2.462   4.676   2.550
 4502TIP3    H213446   2.333   4.656   2.626
 4503TIP3   OH213447   2.535   4.713   2.387
 4503TIP3    H113448   2.604   4.654   2.357
 4503TIP3    H213449   2.570   4.801   2.375
 4504TIP3   OH213450   1.160   4.425   2.731
 4504TIP3    H113451   1.070   4.395   2.741
 4504TIP3    H213452   1.212   4.345   2.726
 4505TIP3   OH213453   0.974   4.334   2.398
 4505TIP3    H113454   0.971   4.390   2.321
 4505TIP3    H213455   0.935   4.386   2.468
 4506TIP3   OH213456   1.627   4.468   2.623
 4506TIP3    H113457   1.678   4.518   2.559
 4506TIP3    H213458   1.661   4.497   2.708
 4507TIP3   OH213459   2.134   4.615   2.602
 4507TIP3    H113460   2.151   4.581   2.514
 4507TIP3    H213461   2.135   4.538   2.658
 4508TIP3   OH213462   2.187   4.555   2.168
 4508TIP3    H113463   2.107   4.602   2.191
 4508TIP3    H213464   2.176   4.469   2.208
 4509TIP3   OH213465   0.664   5.890   2.151
 4509TIP3    H113466   0.577   5.861   2.121
 4509TIP3    H213467   0.668   5.982   2.125
 4510TIP3   OH213468   1.081   4.458   2.144
 4510TIP3    H113469   1.115   4.369   2.158
 4510TIP3    H213470   1.149   4.515   2.181
 4511TIP3   OH213471   1.576   4.649   2.249
 4511TIP3    H113472   1.639   4.607   2.308
 4511TIP3    H213473   1.583   4.742   2.268
 4512TIP3   OH213474   1.450   6.058   1.741
 4512TIP3    H113475   1.535   6.084   1.706
 4512TIP3    H213476   1.422   5.986   1.685
 4513TIP3   OH213477   2.159   6.195   1.840
 4513TIP3    H113478   2.153   6.100   1.832
 4513TIP3    H213479   2.115   6.228   1.763
 4514TIP3   OH213480   1.378   4.704   3.629
 4514TIP3    H113481   1.345   4.634   3.684
 4514TIP3    H213482   1.471   4.711   3.653
 4515TIP3   OH213483   1.631   4.715   3.743
 4515TIP3    H113484   1.710   4.694   3.692
 4515TIP3    H213485   1.624   4.644   3.806
 4516TIP3   OH213486   0.743   5.872   1.811
 4516TIP3    H113487   0.746   5.886   1.905
 4516TIP3    H213488   0.830   5.837   1.789
 4517TIP3   OH213489   2.454   4.798   3.529
 4517TIP3    H113490   2.470   4.769   3.619
 4517TIP3    H213491   2.540   4.793   3.487
 4518TIP3   OH213492   2.369   6.340   3.037
 4518TIP3    H113493   2.298   6.308   2.982
 4518TIP3    H213494   2.361   6.435   3.033
 4519TIP3   OH213495   3.649   5.717   1.778
 4519TIP3    H113496   3.618   5.804   1.755
 4519TIP3    H213497   3.578   5.659   1.753
 4520TIP3   OH213498   3.648   5.713   2.189
 4520TIP3    H113499   3.694   5.695   2.270
 4520TIP3    H213500   3.604   5.631   2.167
 4521TIP3   OH213501   2.945   5.589   2.549
 4521TIP3    H113502   2.976   5.528   2.615
 4521TIP3    H213503   3.025   5.622   2.508
 4522TIP3   OH213504   3.909   6.020   1.868
 4522TIP3    H113505   3.896   5.954   1.936
 4522TIP3    H213506   3.932   6.099   1.916
 4523TIP3   OH213507   2.924   6.005   2.245
 4523TIP3    H113508   2.913   5.910   2.247
 4523TIP3    H213509   3.019   6.018   2.241
 4524TIP3   OH213510   2.624   5.209   2.024
 4524TIP3    H113511   2.583   5.293   2.047
 4524TIP3    H213512   2.553   5.159   1.983
 4525TIP3   OH213513   2.694   5.510   2.231
 4525TIP3    H113514   2.743   5.433   2.259
 4525TIP3    H213515   2.760   5.569   2.195
 4526TIP3   OH213516   3.560   6.464   1.877
 4526TIP3    H113517   3.592   6.394   1.820
 4526TIP3    H213518   3.557   6.424   1.964
 4527TIP3   OH213519   3.452   5.939   2.215
 4527TIP3    H113520   3.495   5.862   2.177
 4527TIP3    H213521   3.524   5.992   2.249
 4528TIP3   OH213522   4.478   5.257   2.209
 4528TIP3    H113523   4.497   5.343   2.245
 4528TIP3    H213524   4.508   5.261   2.118
 4529TIP3   OH213525   3.864   5.425   2.240
 4529TIP3    H113526   3.904   5.342   2.266
 4529TIP3    H213527   3.828   5.408   2.153
 4530TIP3   OH213528   3.214   5.087   2.202
 4530TIP3    H113529   3.195   5.160   2.144
 4530TIP3    H213530   3.161   5.015   2.168
 4531TIP3   OH213531   3.910   5.185   1.831
 4531TIP3    H113532   3.975   5.175   1.900
 4531TIP3    H213533   3.959   5.218   1.756
 4532TIP3   OH213534   2.837   5.294   2.326
 4532TIP3    H113535   2.920   5.278   2.371
 4532TIP3    H213536   2.844   5.243   2.245
 4533TIP3   OH213537   3.268   5.496   2.133
 4533TIP3    H113538   3.361   5.478   2.142
 4533TIP3    H213539   3.231   5.414   2.099
 4534TIP3   OH213540   4.533   5.468   2.393
 4534TIP3    H113541   4.460   5.523   2.365
 4534TIP3    H213542   4.500   5.421   2.470
 4535TIP3   OH213543   3.197   5.084   2.651
 4535TIP3    H113544   3.145   5.119   2.579
 4535TIP3    H213545   3.143   5.099   2.729
 4536TIP3   OH213546   3.533   5.930   1.646
 4536TIP3    H113547   3.498   5.910   1.559
 4536TIP3    H213548   3.487   6.009   1.673
 4537TIP3   OH213549   3.300   5.856   2.432
 4537TIP3    H113550   3.242   5.925   2.466
 4537TIP3    H213551   3.348   5.898   2.361
 4538TIP3   OH213552   4.080   5.200   2.044
 4538TIP3    H113553   4.043   5.178   2.130
 4538TIP3    H213554   4.138   5.274   2.062
 4539TIP3   OH213555   3.081   5.191   2.423
 4539TIP3    H113556   3.134   5.266   2.446
 4539TIP3    H213557   3.128   5.149   2.351
 4540TIP3   OH213558   3.126   6.054   2.525
 4540TIP3    H113559   3.113   6.143   2.492
 4540TIP3    H213560   3.049   6.037   2.580
 4541TIP3   OH213561   2.515   5.758   1.774
 4541TIP3    H113562   2.478   5.775   1.687
 4541TIP3    H213563   2.541   5.844   1.807
 4542TIP3   OH213564   3.956   6.264   2.012
 4542TIP3    H113565   3.870   6.256   2.053
 4542TIP3    H213566   3.954   6.349   1.968
 4543TIP3   OH213567   4.275   5.158   2.385
 4543TIP3    H113568   4.188   5.177   2.350
 4543TIP3    H213569   4.335   5.182   2.313
 4544TIP3   OH213570   3.540   4.781   2.372
 4544TIP3    H113571   3.531   4.689   2.396
 4544TIP3    H213572   3.466   4.824   2.414
 4545TIP3   OH213573   3.658   6.299   1.673
 4545TIP3    H113574   3.710   6.219   1.661
 4545TIP3    H213575   3.717   6.369   1.644
 4546TIP3   OH213576   3.812   6.080   1.615
 4546TIP3    H113577   3.777   5.999   1.579
 4546TIP3    H213578   3.851   6.055   1.698
 4547TIP3   OH213579   4.185   6.158   2.359
 4547TIP3    H113580   4.169   6.084   2.301
 4547TIP3    H213581   4.166   6.235   2.305
 4548TIP3   OH213582   3.473   5.560   1.628
 4548TIP3    H113583   3.394   5.609   1.607
 4548TIP3    H213584   3.522   5.556   1.546
 4549TIP3   OH213585   3.446   5.357   1.325
 4549TIP3    H113586   3.510   5.406   1.376
 4549TIP3    H213587   3.497   5.293   1.276
 4550TIP3   OH213588   4.375   5.817   2.206
 4550TIP3    H113589   4.291   5.862   2.207
 4550TIP3    H213590   4.410   5.833   2.118
 4551TIP3   OH213591   3.834   5.649   1.590
 4551TIP3    H113592   3.779   5.676   1.663
 4551TIP3    H213593   3.916   5.621   1.630
 4552TIP3   OH213594   4.059   5.681   2.499
 4552TIP3    H113595   4.063   5.757   2.557
 4552TIP3    H213596   3.971   5.683   2.462
 4553TIP3   OH213597   3.062   5.632   1.999
 4553TIP3    H113598   3.025   5.573   1.933
 4553TIP3    H213599   3.136   5.584   2.035
 4554TIP3   OH213600   3.191   6.054   2.141
 4554TIP3    H113601   3.174   6.032   2.049
 4554TIP3    H213602   3.278   6.019   2.158
 4555TIP3   OH213603   3.170   5.625   2.362
 4555TIP3    H113604   3.209   5.592   2.281
 4555TIP3    H213605   3.220   5.704   2.382
 4556TIP3   OH213606   3.719   6.256   2.143
 4556TIP3    H113607   3.705   6.337   2.191
 4556TIP3    H213608   3.702   6.187   2.206
 4557TIP3   OH213609   3.330   6.183   2.670
 4557TIP3    H113610   3.276   6.238   2.726
 4557TIP3    H213611   3.269   6.121   2.631
 4558TIP3   OH213612   3.662   5.508   1.429
 4558TIP3    H113613   3.723   5.564   1.476
 4558TIP3    H213614   3.686   5.518   1.337
 4559TIP3   OH213615   3.090   5.724   2.819
 4559TIP3    H113616   3.091   5.817   2.842
 4559TIP3    H213617   2.996   5.702   2.815
 4560TIP3   OH213618   3.409   6.179   1.682
 4560TIP3    H113619   3.493   6.225   1.688
 4560TIP3    H213620   3.352   6.240   1.635
 4561TIP3   OH213621   3.111   6.333   2.767
 4561TIP3    H113622   3.088   6.331   2.674
 4561TIP3    H213623   3.028   6.315   2.812
 4562TIP3   OH213624   4.179   4.737   1.474
 4562TIP3    H113625   4.100   4.758   1.524
 4562TIP3    H213626   4.192   4.814   1.418
 4563TIP3   OH213627   2.936   5.477   1.795
 4563TIP3    H113628   2.861   5.523   1.759
 4563TIP3    H213629   2.904   5.388   1.813
 4564TIP3   OH213630   3.990   6.110   1.037
 4564TIP3    H113631   3.996   6.206   1.035
 4564TIP3    H213632   4.081   6.080   1.030
 4565TIP3   OH213633   2.710   5.873   2.721
 4565TIP3    H113634   2.643   5.852   2.656
 4565TIP3    H213635   2.747   5.789   2.746
 4566TIP3   OH213636   2.587   6.053   2.356
 4566TIP3    H113637   2.678   6.040   2.332
 4566TIP3    H213638   2.589   6.127   2.417
 4567TIP3   OH213639   4.420   6.522   2.421
 4567TIP3    H113640   4.424   6.427   2.436
 4567TIP3    H213641   4.340   6.549   2.466
 4568TIP3   OH213642   3.519   6.320   2.521
 4568TIP3    H113643   3.520   6.404   2.567
 4568TIP3    H213644   3.478   6.259   2.582
 4569TIP3   OH213645   3.297   6.407   1.504
 4569TIP3    H113646   3.251   6.387   1.423
 4569TIP3    H213647   3.264   6.493   1.530
 4570TIP3   OH213648   2.736   6.263   1.883
 4570TIP3    H113649   2.781   6.255   1.967
 4570TIP3    H213650   2.688   6.181   1.873
 4571TIP3   OH213651   3.494   6.332   1.148
 4571TIP3    H113652   3.547   6.262   1.109
 4571TIP3    H213653   3.532   6.345   1.235
 4572TIP3   OH213654   3.553   6.376   1.413
 4572TIP3    H113655   3.466   6.379   1.452
 4572TIP3    H213656   3.609   6.341   1.481
 4573TIP3   OH213657   4.413   5.655   2.635
 4573TIP3    H113658   4.331   5.703   2.624
 4573TIP3    H213659   4.389   5.564   2.622
 4574TIP3   OH213660   2.910   6.061   2.697
 4574TIP3    H113661   2.963   6.048   2.775
 4574TIP3    H213662   2.840   5.996   2.704
 4575TIP3   OH213663   3.305   4.872   2.503
 4575TIP3    H113664   3.221   4.840   2.470
 4575TIP3    H213665   3.283   4.952   2.550
 4576TIP3   OH213666   3.846   4.984   2.698
 4576TIP3    H113667   3.916   4.962   2.759
 4576TIP3    H213668   3.765   4.968   2.747
 4577TIP3   OH213669   4.096   5.438   2.629
 4577TIP3    H113670   4.039   5.427   2.705
 4577TIP3    H213671   4.067   5.519   2.588
 4578TIP3   OH213672   3.734   5.521   1.171
 4578TIP3    H113673   3.686   5.506   1.089
 4578TIP3    H213674   3.816   5.561   1.144
 4579TIP3   OH213675   3.453   4.914   1.469
 4579TIP3    H113676   3.418   4.919   1.558
 4579TIP3    H213677   3.416   4.833   1.434
 4580TIP3   OH213678   3.241   5.399   2.504
 4580TIP3    H113679   3.205   5.414   2.591
 4580TIP3    H213680   3.219   5.478   2.455
 4581TIP3   OH213681   3.124   5.281   2.030
 4581TIP3    H113682   3.035   5.256   2.055
 4581TIP3    H213683   3.135   5.245   1.942
 4582TIP3   OH213684   3.607   5.357   1.759
 4582TIP3    H113685   3.558   5.428   1.718
 4582TIP3    H213686   3.665   5.325   1.690
 4583TIP3   OH213687   3.801   5.624   2.826
 4583TIP3    H113688   3.774   5.560   2.892
 4583TIP3    H213689   3.888   5.652   2.855
 4584TIP3   OH213690   3.771   5.374   1.986
 4584TIP3    H113691   3.704   5.400   1.923
 4584TIP3    H213692   3.816   5.300   1.946
 4585TIP3   OH213693   3.061   5.406   2.726
 4585TIP3    H113694   3.126   5.456   2.776
 4585TIP3    H213695   3.048   5.326   2.778
 4586TIP3   OH213696   3.117   4.895   1.442
 4586TIP3    H113697   3.107   4.897   1.537
 4586TIP3    H213698   3.040   4.941   1.409
 4587TIP3   OH213699   2.662   4.937   2.312
 4587TIP3    H113700   2.734   4.973   2.365
 4587TIP3    H213701   2.702   4.918   2.227
 4588TIP3   OH213702   2.590   4.916   1.820
 4588TIP3    H113703   2.635   4.950   1.743
 4588TIP3    H213704   2.528   4.985   1.844
 4589TIP3   OH213705   3.794   5.624   2.409
 4589TIP3    H113706   3.825   5.558   2.348
 4589TIP3    H213707   3.760   5.575   2.483
 4590TIP3   OH213708   3.481   5.077   2.085
 4590TIP3    H113709   3.403   5.078   2.141
 4590TIP3    H213710   3.554   5.070   2.146
 4591TIP3   OH213711   2.886   5.156   2.093
 4591TIP3    H113712   2.797   5.160   2.059
 4591TIP3    H213713   2.914   5.066   2.075
 4592TIP3   OH213714   3.141   5.154   1.787
 4592TIP3    H113715   3.235   5.167   1.774
 4592TIP3    H213716   3.102   5.174   1.702
 4593TIP3   OH213717   3.951   5.164   2.294
 4593TIP3    H113718   3.934   5.181   2.387
 4593TIP3    H213719   3.882   5.105   2.267
 4594TIP3   OH213720   3.015   5.184   1.545
 4594TIP3    H113721   2.950   5.135   1.494
 4594TIP3    H213722   3.070   5.227   1.480
 4595TIP3   OH213723   4.131   6.863   2.517
 4595TIP3    H113724   4.128   6.881   2.423
 4595TIP3    H213725   4.209   6.908   2.548
 4596TIP3   OH213726   3.071   5.983   2.924
 4596TIP3    H113727   3.156   6.005   2.962
 4596TIP3    H213728   3.010   5.985   2.997
 4597TIP3   OH213729   3.537   5.436   2.191
 4597TIP3    H113730   3.606   5.390   2.143
 4597TIP3    H213731   3.537   5.394   2.278
 4598TIP3   OH213732   3.035   4.909   2.077
 4598TIP3    H113733   3.004   4.834   2.127
 4598TIP3    H213734   3.067   4.873   1.994
 4599TIP3   OH213735   3.511   5.339   2.462
 4599TIP3    H113736   3.423   5.371   2.481
 4599TIP3    H213737   3.568   5.393   2.517
 4600TIP3   OH213738   3.241   5.706   1.566
 4600TIP3    H113739   3.169   5.646   1.546
 4600TIP3    H213740   3.220   5.743   1.651
 4601TIP3   OH213741   4.137   5.953   2.179
 4601TIP3    H113742   4.167   6.004   2.103
 4601TIP3    H213743   4.055   5.913   2.150
 4602TIP3   OH213744   3.707   5.014   1.465
 4602TIP3    H113745   3.613   4.995   1.462
 4602TIP3    H213746   3.711   5.109   1.477
 4603TIP3   OH213747   3.770   5.276   1.543
 4603TIP3    H113748   3.866   5.280   1.551
 4603TIP3    H213749   3.747   5.353   1.491
 4604TIP3   OH213750   2.935   5.720   2.229
 4604TIP3    H113751   2.973   5.701   2.143
 4604TIP3    H213752   2.999   5.685   2.291
 4605TIP3   OH213753   3.397   5.863   1.405
 4605TIP3    H113754   3.350   5.946   1.405
 4605TIP3    H213755   3.344   5.804   1.458
 4606TIP3   OH213756   2.818   5.657   2.862
 4606TIP3    H113757   2.837   5.639   2.953
 4606TIP3    H213758   2.751   5.593   2.838
 4607TIP3   OH213759   3.554   5.736   2.892
 4607TIP3    H113760   3.501   5.746   2.813
 4607TIP3    H213761   3.643   5.719   2.860
 4608TIP3   OH213762   3.788   6.282   2.464
 4608TIP3    H113763   3.693   6.287   2.478
 4608TIP3    H213764   3.825   6.335   2.534
 4609TIP3   OH213765   4.196   5.370   1.368
 4609TIP3    H113766   4.138   5.322   1.309
 4609TIP3    H213767   4.197   5.459   1.333
 4610TIP3   OH213768   4.430   6.238   2.453
 4610TIP3    H113769   4.335   6.231   2.442
 4610TIP3    H213770   4.465   6.207   2.369
 4611TIP3   OH213771   3.920   6.177   1.301
 4611TIP3    H113772   3.892   6.111   1.364
 4611TIP3    H213773   3.930   6.128   1.219
 4612TIP3   OH213774   3.904   5.819   2.083
 4612TIP3    H113775   3.813   5.796   2.105
 4612TIP3    H213776   3.940   5.738   2.046
 4613TIP3   OH213777   3.051   6.051   1.881
 4613TIP3    H113778   3.051   6.129   1.826
 4613TIP3    H213779   2.959   6.033   1.897
 4614TIP3   OH213780   2.617   5.341   1.594
 4614TIP3    H113781   2.660   5.423   1.614
 4614TIP3    H213782   2.537   5.342   1.646
 4615TIP3   OH213783   3.156   5.807   1.802
 4615TIP3    H113784   3.134   5.897   1.827
 4615TIP3    H213785   3.127   5.754   1.876
 4616TIP3   OH213786   3.325   6.383   2.337
 4616TIP3    H113787   3.368   6.453   2.288
 4616TIP3    H213788   3.394   6.350   2.396
 4617TIP3   OH213789   2.966   6.282   1.731
 4617TIP3    H113790   2.881   6.286   1.774
 4617TIP3    H213791   2.999   6.372   1.735
 4618TIP3   OH213792   3.697   6.033   2.315
 4618TIP3    H113793   3.724   6.074   2.397
 4618TIP3    H213794   3.768   5.972   2.295
 4619TIP3   OH213795   3.678   5.912   1.203
 4619TIP3    H113796   3.734   5.892   1.278
 4619TIP3    H213797   3.592   5.877   1.227
 4620TIP3   OH213798   3.946   6.539   2.349
 4620TIP3    H113799   3.869   6.483   2.355
 4620TIP3    H213800   3.924   6.602   2.281
 4621TIP3   OH213801   4.016   6.386   1.032
 4621TIP3    H113802   4.066   6.466   1.017
 4621TIP3    H213803   3.930   6.417   1.061
 4622TIP3   OH213804   3.028   5.157   2.861
 4622TIP3    H113805   2.932   5.164   2.869
 4622TIP3    H213806   3.054   5.107   2.939
 4623TIP3   OH213807   3.855   5.853   1.403
 4623TIP3    H113808   3.840   5.784   1.467
 4623TIP3    H213809   3.950   5.852   1.389
 4624TIP3   OH213810   2.753   6.257   2.508
 4624TIP3    H113811   2.805   6.190   2.552
 4624TIP3    H213812   2.781   6.340   2.548
 4625TIP3   OH213813   3.034   5.885   1.191
 4625TIP3    H113814   3.046   5.794   1.165
 4625TIP3    H213815   3.017   5.881   1.285
 4626TIP3   OH213816   2.979   5.901   1.463
 4626TIP3    H113817   3.051   5.872   1.520
 4626TIP3    H213818   2.981   5.997   1.471
 4627TIP3   OH213819   2.714   5.591   1.672
 4627TIP3    H113820   2.648   5.636   1.725
 4627TIP3    H213821   2.733   5.652   1.600
 4628TIP3   OH213822   3.896   5.219   2.559
 4628TIP3    H113823   3.961   5.263   2.614
 4628TIP3    H213824   3.873   5.140   2.608
 4629TIP3   OH213825   3.762   4.967   1.735
 4629TIP3    H113826   3.743   4.985   1.643
 4629TIP3    H213827   3.805   5.047   1.766
 4630TIP3   OH213828   3.249   6.089   1.407
 4630TIP3    H113829   3.165   6.113   1.445
 4630TIP3    H213830   3.271   6.163   1.350
 4631TIP3   OH213831   3.422   5.164   1.827
 4631TIP3    H113832   3.485   5.232   1.802
 4631TIP3    H213833   3.441   5.146   1.919
 4632TIP3   OH213834   3.712   5.463   2.616
 4632TIP3    H113835   3.737   5.516   2.691
 4632TIP3    H213836   3.766   5.384   2.624
 4633TIP3   OH213837   3.580   4.867   1.919
 4633TIP3    H113838   3.558   4.944   1.971
 4633TIP3    H213839   3.647   4.897   1.859
 4634TIP3   OH213840   2.997   6.174   1.480
 4634TIP3    H113841   2.972   6.244   1.419
 4634TIP3    H213842   2.985   6.213   1.567
 4635TIP3   OH213843   3.094   4.883   1.721
 4635TIP3    H113844   3.084   4.973   1.751
 4635TIP3    H213845   3.188   4.866   1.726
 4636TIP3   OH213846   4.348   5.361   2.577
 4636TIP3    H113847   4.260   5.387   2.605
 4636TIP3    H213848   4.333   5.286   2.519
 4637TIP3   OH213849   3.996   5.563   1.990
 4637TIP3    H113850   3.919   5.508   2.001
 4637TIP3    H213851   4.064   5.520   2.042
 4638TIP3   OH213852   2.728   5.777   1.460
 4638TIP3    H113853   2.799   5.841   1.470
 4638TIP3    H213854   2.762   5.714   1.397
 4639TIP3   OH213855   2.648   5.064   1.596
 4639TIP3    H113856   2.657   5.159   1.601
 4639TIP3    H213857   2.582   5.050   1.528
 4640TIP3   OH213858   3.975   6.533   1.932
 4640TIP3    H113859   3.932   6.582   1.862
 4640TIP3    H213860   4.069   6.547   1.918
 4641TIP3   OH213861   3.042   4.786   2.462
 4641TIP3    H113862   3.013   4.755   2.377
 4641TIP3    H213863   3.033   4.711   2.520
 4642TIP3   OH213864   2.571   6.032   1.852
 4642TIP3    H113865   2.518   6.063   1.926
 4642TIP3    H213866   2.531   6.073   1.775
 4643TIP3   OH213867   2.761   6.577   2.929
 4643TIP3    H113868   2.842   6.588   2.978
 4643TIP3    H213869   2.756   6.483   2.911
 4644TIP3   OH213870   3.218   6.499   2.957
 4644TIP3    H113871   3.307   6.467   2.972
 4644TIP3    H213872   3.185   6.446   2.884
 4645TIP3   OH213873   3.197   6.083   1.091
 4645TIP3    H113874   3.148   6.014   1.133
 4645TIP3    H213875   3.273   6.039   1.053
 4646TIP3   OH213876   3.874   6.432   2.673
 4646TIP3    H113877   3.835   6.365   2.729
 4646TIP3    H213878   3.936   6.479   2.729
 4647TIP3   OH213879   3.626   6.122   1.036
 4647TIP3    H113880   3.658   6.055   1.096
 4647TIP3    H213881   3.685   6.118   0.960
 4648TIP3   OH213882   2.869   5.968   3.118
 4648TIP3    H113883   2.890   5.875   3.125
 4648TIP3    H213884   2.783   5.969   3.076
 4649TIP3   OH213885   2.859   5.586   1.317
 4649TIP3    H113886   2.910   5.561   1.394
 4649TIP3    H213887   2.923   5.597   1.247
 4650TIP3   OH213888   3.390   5.801   1.137
 4650TIP3    H113889   3.382   5.814   1.231
 4650TIP3    H213890   3.386   5.706   1.125
 4651TIP3   OH213891   3.967   6.068   2.508
 4651TIP3    H113892   4.039   6.110   2.460
 4651TIP3    H213893   3.901   6.137   2.517
 4652TIP3   OH213894   2.987   5.710   3.112
 4652TIP3    H113895   3.064   5.692   3.059
 4652TIP3    H213896   3.021   5.731   3.199
 4653TIP3   OH213897   3.038   5.520   1.525
 4653TIP3    H113898   3.017   5.488   1.613
 4653TIP3    H213899   3.083   5.447   1.483
 4654TIP3   OH213900   3.297   5.558   2.754
 4654TIP3    H113901   3.236   5.626   2.780
 4654TIP3    H213902   3.360   5.603   2.696
 4655TIP3   OH213903   3.170   5.329   1.370
 4655TIP3    H113904   3.141   5.332   1.279
 4655TIP3    H213905   3.265   5.333   1.366
 4656TIP3   OH213906   3.955   5.630   1.053
 4656TIP3    H113907   3.942   5.584   0.970
 4656TIP3    H213908   3.930   5.720   1.034
 4657TIP3   OH213909   3.450   5.371   2.887
 4657TIP3    H113910   3.457   5.295   2.829
 4657TIP3    H213911   3.404   5.437   2.835
 4658TIP3   OH213912   3.458   5.164   2.689
 4658TIP3    H113913   3.485   5.203   2.606
 4658TIP3    H213914   3.366   5.140   2.675
 4659TIP3   OH213915   3.465   5.702   2.593
 4659TIP3    H113916   3.553   5.709   2.555
 4659TIP3    H213917   3.411   5.760   2.541
 4660TIP3   OH213918   4.056   5.665   2.945
 4660TIP3    H113919   4.115   5.590   2.958
 4660TIP3    H213920   4.115   5.740   2.933
 4661TIP3   OH213921   4.120   5.901   2.662
 4661TIP3    H113922   4.052   5.958   2.628
 4661TIP3    H213923   4.201   5.932   2.620
 4662TIP3   OH213924   3.330   5.462   3.127
 4662TIP3    H113925   3.262   5.396   3.143
 4662TIP3    H213926   3.362   5.443   3.039
 4663TIP3   OH213927   3.580   4.928   2.779
 4663TIP3    H113928   3.538   5.009   2.749
 4663TIP3    H213929   3.513   4.860   2.766
 4664TIP3   OH213930   3.712   5.415   2.981
 4664TIP3    H113931   3.704   5.407   3.076
 4664TIP3    H213932   3.623   5.400   2.948
 4665TIP3   OH213933   3.947   5.351   2.840
 4665TIP3    H113934   3.871   5.362   2.896
 4665TIP3    H213935   4.020   5.336   2.901
 4666TIP3   OH213936   4.191   5.330   2.994
 4666TIP3    H113937   4.204   5.236   3.004
 4666TIP3    H213938   4.181   5.362   3.084
 4667TIP3   OH213939   3.166   5.239   3.189
 4667TIP3    H113940   3.174   5.150   3.154
 4667TIP3    H213941   3.205   5.234   3.276
 4668TIP3   OH213942   3.655   4.917   3.043
 4668TIP3    H113943   3.725   4.853   3.038
 4668TIP3    H213944   3.622   4.924   2.953
 4669TIP3   OH213945   3.739   5.134   3.190
 4669TIP3    H113946   3.711   5.064   3.131
 4669TIP3    H213947   3.667   5.198   3.187
 4670TIP3   OH213948   2.981   6.383   1.296
 4670TIP3    H113949   3.072   6.363   1.272
 4670TIP3    H213950   2.946   6.429   1.219
 4671TIP3   OH213951   2.456   5.758   1.487
 4671TIP3    H113952   2.550   5.773   1.479
 4671TIP3    H213953   2.442   5.672   1.448
 4672TIP3   OH213954   2.363   6.353   1.934
 4672TIP3    H113955   2.300   6.298   1.888
 4672TIP3    H213956   2.408   6.293   1.994
 4673TIP3   OH213957   2.502   6.190   2.110
 4673TIP3    H113958   2.491   6.122   2.176
 4673TIP3    H213959   2.555   6.257   2.153
 4674TIP3   OH213960   4.241   6.599   1.913
 4674TIP3    H113961   4.264   6.630   2.000
 4674TIP3    H213962   4.302   6.645   1.855
 4675TIP3   OH213963   4.263   6.623   2.196
 4675TIP3    H113964   4.215   6.541   2.190
 4675TIP3    H213965   4.333   6.606   2.258
 4676TIP3   OH213966   4.308   6.308   2.779
 4676TIP3    H113967   4.233   6.317   2.837
 4676TIP3    H213968   4.349   6.394   2.779
 4677TIP3   OH213969   4.132   5.829   1.384
 4677TIP3    H113970   4.195   5.899   1.364
 4677TIP3    H213971   4.171   5.783   1.459
 4678TIP3   OH213972   4.256   5.685   1.583
 4678TIP3    H113973   4.189   5.646   1.640
 4678TIP3    H213974   4.320   5.723   1.644
 4679TIP3   OH213975   4.314   6.091   2.009
 4679TIP3    H113976   4.367   6.024   1.966
 4679TIP3    H213977   4.312   6.163   1.947
 4680TIP3   OH213978   4.123   6.379   2.206
 4680TIP3    H113979   4.056   6.425   2.257
 4680TIP3    H213980   4.075   6.339   2.134
 4681TIP3   OH213981   4.171   5.608   1.224
 4681TIP3    H113982   4.098   5.606   1.162
 4681TIP3    H213983   4.156   5.685   1.278
 4682TIP3   OH213984   4.039   5.261   1.177
 4682TIP3    H113985   4.008   5.305   1.097
 4682TIP3    H213986   4.020   5.169   1.163
 4683TIP3   OH213987   4.058   5.548   1.721
 4683TIP3    H113988   4.064   5.453   1.708
 4683TIP3    H213989   4.041   5.559   1.814
 4684TIP3   OH213990   2.683   5.620   2.483
 4684TIP3    H113991   2.675   5.585   2.394
 4684TIP3    H213992   2.777   5.619   2.501
 4685TIP3   OH213993   4.373   5.969   2.558
 4685TIP3    H113994   4.439   5.926   2.502
 4685TIP3    H213995   4.359   6.055   2.518
 4686TIP3   OH213996   3.993   4.993   1.145
 4686TIP3    H113997   4.059   4.963   1.208
 4686TIP3    H213998   3.913   4.947   1.171
 4687TIP3   OH213999   4.059   5.273   1.604
 4687TIP3    H114000   4.102   5.188   1.618
 4687TIP3    H214001   4.105   5.312   1.530
 4688TIP3   OH214002   4.212   5.435   2.119
 4688TIP3    H114003   4.294   5.453   2.074
 4688TIP3    H214004   4.224   5.474   2.206
 4689TIP3   OH214005   4.281   5.593   2.343
 4689TIP3    H114006   4.203   5.618   2.393
 4689TIP3    H214007   4.306   5.672   2.296
 4690TIP3   OH214008   2.901   5.295   3.133
 4690TIP3    H114009   2.996   5.293   3.147
 4690TIP3    H214010   2.870   5.214   3.173
 4691TIP3   OH214011   4.737   5.190   2.890
 4691TIP3    H114012   4.802   5.128   2.856
 4691TIP3    H214013   4.709   5.240   2.813
 4692TIP3   OH214014   4.169   5.022   1.655
 4692TIP3    H114015   4.215   5.005   1.738
 4692TIP3    H214016   4.107   4.949   1.647
 4693TIP3   OH214017   2.872   5.006   2.483
 4693TIP3    H114018   2.928   4.928   2.487
 4693TIP3    H214019   2.932   5.078   2.468
 4694TIP3   OH214020   2.660   5.271   2.545
 4694TIP3    H114021   2.710   5.265   2.463
 4694TIP3    H214022   2.690   5.352   2.585
 4695TIP3   OH214023   4.600   5.307   2.684
 4695TIP3    H114024   4.514   5.347   2.692
 4695TIP3    H214025   4.584   5.225   2.636
 4696TIP3   OH214026   4.227   4.941   1.294
 4696TIP3    H114027   4.271   4.878   1.236
 4696TIP3    H214028   4.285   5.017   1.294
 4697TIP3   OH214029   2.647   4.777   2.047
 4697TIP3    H114030   2.559   4.767   2.084
 4697TIP3    H214031   2.635   4.833   1.971
 4698TIP3   OH214032   3.804   6.497   1.563
 4698TIP3    H114033   3.862   6.481   1.488
 4698TIP3    H214034   3.850   6.561   1.616
 4699TIP3   OH214035   2.867   4.837   2.863
 4699TIP3    H114036   2.819   4.837   2.946
 4699TIP3    H214037   2.811   4.886   2.803
 4700TIP3   OH214038   2.887   6.303   2.934
 4700TIP3    H114039   2.796   6.272   2.931
 4700TIP3    H214040   2.916   6.280   3.022
 4701TIP3   OH214041   3.095   6.329   2.484
 4701TIP3    H114042   3.050   6.407   2.451
 4701TIP3    H214043   3.184   6.336   2.449
 4702TIP3   OH214044   3.517   6.582   2.628
 4702TIP3    H114045   3.558   6.566   2.713
 4702TIP3    H214046   3.584   6.629   2.578
 4703TIP3   OH214047   3.711   6.725   2.491
 4703TIP3    H114048   3.774   6.659   2.462
 4703TIP3    H214049   3.761   6.782   2.549
 4704TIP3   OH214050   4.510   5.058   2.586
 4704TIP3    H114051   4.421   5.042   2.553
 4704TIP3    H214052   4.552   4.972   2.582
 4705TIP3   OH214053   2.768   6.585   2.530
 4705TIP3    H114054   2.677   6.609   2.509
 4705TIP3    H214055   2.793   6.646   2.599
 4706TIP3   OH214056   2.998   6.566   2.380
 4706TIP3    H114057   2.915   6.574   2.426
 4706TIP3    H214058   2.978   6.591   2.289
 4707TIP3   OH214059   3.423   6.586   2.170
 4707TIP3    H114060   3.349   6.600   2.111
 4707TIP3    H214061   3.433   6.670   2.216
 4708TIP3   OH214062   3.689   6.522   2.220
 4708TIP3    H114063   3.596   6.540   2.205
 4708TIP3    H214064   3.735   6.595   2.179
 4709TIP3   OH214065   3.892   6.708   2.131
 4709TIP3    H114066   3.885   6.793   2.087
 4709TIP3    H214067   3.921   6.648   2.061
 4710TIP3   OH214068   2.678   6.361   2.260
 4710TIP3    H114069   2.704   6.334   2.348
 4710TIP3    H214070   2.749   6.329   2.204
 4711TIP3   OH214071   2.879   6.245   2.118
 4711TIP3    H114072   2.891   6.161   2.162
 4711TIP3    H214073   2.967   6.284   2.118
 4712TIP3   OH214074   3.147   6.332   2.133
 4712TIP3    H114075   3.167   6.239   2.120
 4712TIP3    H214076   3.198   6.357   2.209
 4713TIP3   OH214077   3.714   4.987   2.219
 4713TIP3    H114078   3.675   4.914   2.266
 4713TIP3    H214079   3.783   4.947   2.166
 4714TIP3   OH214080   4.218   4.887   2.112
 4714TIP3    H114081   4.257   4.936   2.039
 4714TIP3    H214082   4.126   4.912   2.111
 4715TIP3   OH214083   4.330   4.969   1.875
 4715TIP3    H114084   4.399   4.910   1.845
 4715TIP3    H214085   4.366   5.057   1.862
 4716TIP3   OH214086   2.955   4.685   2.220
 4716TIP3    H114087   2.865   4.653   2.226
 4716TIP3    H214088   3.008   4.605   2.213
 4717TIP3   OH214089   2.767   4.581   1.874
 4717TIP3    H114090   2.794   4.632   1.798
 4717TIP3    H214091   2.732   4.646   1.935
 4718TIP3   OH214092   3.424   4.725   2.112
 4718TIP3    H114093   3.472   4.771   2.043
 4718TIP3    H214094   3.464   4.754   2.193
 4719TIP3   OH214095   3.931   4.872   2.088
 4719TIP3    H114096   3.944   4.838   2.000
 4719TIP3    H214097   3.932   4.795   2.145
 4720TIP3   OH214098   3.983   4.812   1.655
 4720TIP3    H114099   3.902   4.858   1.677
 4720TIP3    H214100   3.972   4.725   1.695
 4721TIP3   OH214101   2.454   6.156   1.637
 4721TIP3    H114102   2.370   6.121   1.608
 4721TIP3    H214103   2.454   6.246   1.606
 4722TIP3   OH214104   2.878   4.718   1.638
 4722TIP3    H114105   2.923   4.658   1.579
 4722TIP3    H214106   2.947   4.774   1.672
 4723TIP3   OH214107   3.370   4.912   1.733
 4723TIP3    H114108   3.430   4.861   1.788
 4723TIP3    H214109   3.385   5.003   1.759
 4724TIP3   OH214110   3.238   6.313   1.234
 4724TIP3    H114111   3.325   6.338   1.203
 4724TIP3    H214112   3.212   6.240   1.177
 4725TIP3   OH214113   3.959   6.442   1.339
 4725TIP3    H114114   3.950   6.347   1.332
 4725TIP3    H214115   3.908   6.477   1.266
 4726TIP3   OH214116   3.174   4.964   3.103
 4726TIP3    H114117   3.138   4.898   3.163
 4726TIP3    H214118   3.266   4.971   3.128
 4727TIP3   OH214119   3.424   4.969   3.224
 4727TIP3    H114120   3.505   4.950   3.176
 4727TIP3    H214121   3.418   4.901   3.290
 4728TIP3   OH214122   2.550   6.154   1.288
 4728TIP3    H114123   2.551   6.164   1.383
 4728TIP3    H214124   2.632   6.110   1.267
 4729TIP3   OH214125   4.250   5.057   3.015
 4729TIP3    H114126   4.265   5.027   3.105
 4729TIP3    H214127   4.335   5.051   2.973
 4730TIP3   OH214128   4.170   6.587   2.519
 4730TIP3    H114129   4.092   6.555   2.474
 4730TIP3    H214130   4.155   6.681   2.530
 4731TIP3   OH214131   5.405   5.974   1.325
 4731TIP3    H114132   5.381   6.062   1.296
 4731TIP3    H214133   5.348   5.916   1.275
 4732TIP3   OH214134   5.437   5.968   1.680
 4732TIP3    H114135   5.484   5.950   1.762
 4732TIP3    H214136   5.398   5.884   1.656
 4733TIP3   OH214137   4.757   5.866   2.055
 4733TIP3    H114138   4.785   5.791   2.107
 4733TIP3    H214139   4.825   5.874   1.987
 4734TIP3   OH214140   5.741   6.260   1.381
 4734TIP3    H114141   5.724   6.200   1.454
 4734TIP3    H214142   5.762   6.343   1.423
 4735TIP3   OH214143   4.728   6.265   1.735
 4735TIP3    H114144   4.714   6.170   1.737
 4735TIP3    H214145   4.822   6.275   1.721
 4736TIP3   OH214146   4.421   5.467   1.510
 4736TIP3    H114147   4.379   5.550   1.534
 4736TIP3    H214148   4.351   5.416   1.469
 4737TIP3   OH214149   4.489   5.763   1.718
 4737TIP3    H114150   4.540   5.686   1.744
 4737TIP3    H214151   4.551   5.816   1.667
 4738TIP3   OH214152   5.320   6.738   1.395
 4738TIP3    H114153   5.371   6.673   1.346
 4738TIP3    H214154   5.312   6.701   1.483
 4739TIP3   OH214155   5.248   6.187   1.700
 4739TIP3    H114156   5.291   6.109   1.665
 4739TIP3    H214157   5.319   6.244   1.729
 4740TIP3   OH214158   6.271   5.516   1.709
 4740TIP3    H114159   6.291   5.596   1.758
 4740TIP3    H214160   6.304   5.532   1.621
 4741TIP3   OH214161   5.662   5.684   1.734
 4741TIP3    H114162   5.702   5.601   1.759
 4741TIP3    H214163   5.618   5.665   1.651
 4742TIP3   OH214164   5.008   5.341   1.692
 4742TIP3    H114165   4.989   5.415   1.635
 4742TIP3    H214166   4.956   5.269   1.656
 4743TIP3   OH214167   5.705   5.440   1.346
 4743TIP3    H114168   5.777   5.429   1.408
 4743TIP3    H214169   5.745   5.478   1.268
 4744TIP3   OH214170   4.637   5.550   1.813
 4744TIP3    H114171   4.719   5.530   1.858
 4744TIP3    H214172   4.641   5.499   1.732
 4745TIP3   OH214173   5.061   5.752   1.634
 4745TIP3    H114174   5.155   5.736   1.638
 4745TIP3    H214175   5.025   5.672   1.597
 4746TIP3   OH214176   6.333   5.724   1.881
 4746TIP3    H114177   6.252   5.773   1.869
 4746TIP3    H214178   6.377   5.769   1.954
 4747TIP3   OH214179   4.991   5.342   2.145
 4747TIP3    H114180   4.936   5.375   2.074
 4747TIP3    H214181   4.937   5.354   2.224
 4748TIP3   OH214182   5.322   6.182   1.164
 4748TIP3    H114183   5.314   6.169   1.070
 4748TIP3    H214184   5.252   6.244   1.186
 4749TIP3   OH214185   5.097   6.110   1.920
 4749TIP3    H114186   5.042   6.182   1.951
 4749TIP3    H214187   5.146   6.146   1.847
 4750TIP3   OH214188   5.893   5.451   1.540
 4750TIP3    H114189   5.848   5.433   1.623
 4750TIP3    H214190   5.945   5.530   1.558
 4751TIP3   OH214191   4.877   5.446   1.913
 4751TIP3    H114192   4.934   5.519   1.936
 4751TIP3    H214193   4.923   5.402   1.841
 4752TIP3   OH214194   4.933   6.313   2.017
 4752TIP3    H114195   4.918   6.401   1.980
 4752TIP3    H214196   4.855   6.296   2.069
 4753TIP3   OH214197   4.327   6.013   1.307
 4753TIP3    H114198   4.288   6.030   1.221
 4753TIP3    H214199   4.352   6.099   1.339
 4754TIP3   OH214200   5.751   6.513   1.503
 4754TIP3    H114201   5.664   6.505   1.540
 4754TIP3    H214202   5.753   6.601   1.464
 4755TIP3   OH214203   6.069   5.394   1.868
 4755TIP3    H114204   5.984   5.426   1.838
 4755TIP3    H214205   6.131   5.429   1.803
 4756TIP3   OH214206   5.335   5.036   1.860
 4756TIP3    H114207   5.328   4.944   1.886
 4756TIP3    H214208   5.260   5.079   1.901
 4757TIP3   OH214209   5.473   6.565   1.255
 4757TIP3    H114210   5.513   6.481   1.233
 4757TIP3    H214211   5.537   6.631   1.228
 4758TIP3   OH214212   5.561   6.315   1.189
 4758TIP3    H114213   5.488   6.253   1.196
 4758TIP3    H214214   5.622   6.289   1.257
 4759TIP3   OH214215   5.995   6.395   1.856
 4759TIP3    H114216   5.977   6.330   1.788
 4759TIP3    H214217   6.000   6.478   1.809
 4760TIP3   OH214218   5.270   5.825   1.138
 4760TIP3    H114219   5.186   5.871   1.137
 4760TIP3    H214220   5.275   5.783   1.052
 4761TIP3   OH214221   5.228   5.659   0.915
 4761TIP3    H114222   5.322   5.678   0.916
 4761TIP3    H214223   5.221   5.577   0.866
 4762TIP3   OH214224   6.165   6.050   1.699
 4762TIP3    H114225   6.084   6.099   1.704
 4762TIP3    H214226   6.210   6.085   1.622
 4763TIP3   OH214227   5.587   5.868   1.156
 4763TIP3    H114228   5.530   5.902   1.226
 4763TIP3    H214229   5.668   5.844   1.201
 4764TIP3   OH214230   5.859   5.936   2.014
 4764TIP3    H114231   5.862   6.019   2.062
 4764TIP3    H214232   5.777   5.940   1.964
 4765TIP3   OH214233   4.853   5.883   1.498
 4765TIP3    H114234   4.814   5.820   1.437
 4765TIP3    H214235   4.930   5.838   1.533
 4766TIP3   OH214236   4.990   6.304   1.634
 4766TIP3    H114237   4.969   6.292   1.541
 4766TIP3    H214238   5.078   6.269   1.643
 4767TIP3   OH214239   4.960   5.881   1.857
 4767TIP3    H114240   4.997   5.845   1.776
 4767TIP3    H214241   5.012   5.959   1.875
 4768TIP3   OH214242   5.513   6.507   1.632
 4768TIP3    H114243   5.500   6.590   1.678
 4768TIP3    H214244   5.497   6.440   1.699
 4769TIP3   OH214245   5.133   6.423   2.176
 4769TIP3    H114246   5.074   6.482   2.223
 4769TIP3    H214247   5.075   6.370   2.120
 4770TIP3   OH214248   5.477   5.754   0.927
 4770TIP3    H114249   5.512   5.792   1.008
 4770TIP3    H214250   5.549   5.759   0.865
 4771TIP3   OH214251   4.862   5.971   2.310
 4771TIP3    H114252   4.867   6.059   2.349
 4771TIP3    H214253   4.828   5.987   2.222
 4772TIP3   OH214254   5.200   6.444   1.253
 4772TIP3    H114255   5.288   6.481   1.259
 4772TIP3    H214256   5.147   6.512   1.211
 4773TIP3   OH214257   4.921   6.580   2.259
 4773TIP3    H114258   4.895   6.588   2.167
 4773TIP3    H214259   4.839   6.564   2.305
 4774TIP3   OH214260   5.989   5.024   1.005
 4774TIP3    H114261   5.905   5.021   1.052
 4774TIP3    H214262   5.979   5.098   0.945
 4775TIP3   OH214263   4.722   5.710   1.322
 4775TIP3    H114264   4.651   5.762   1.282
 4775TIP3    H214265   4.686   5.622   1.329
 4776TIP3   OH214266   4.501   6.124   2.215
 4776TIP3    H114267   4.434   6.126   2.146
 4776TIP3    H214268   4.516   6.030   2.231
 4777TIP3   OH214269   4.370   6.316   1.848
 4777TIP3    H114270   4.465   6.318   1.836
 4777TIP3    H214271   4.350   6.395   1.898
 4778TIP3   OH214272   6.214   6.784   1.913
 4778TIP3    H114273   6.250   6.710   1.962
 4778TIP3    H214274   6.128   6.799   1.954
 4779TIP3   OH214275   5.321   6.561   2.031
 4779TIP3    H114276   5.318   6.652   2.061
 4779TIP3    H214277   5.256   6.516   2.085
 4780TIP3   OH214278   5.069   6.640   1.097
 4780TIP3    H114279   5.023   6.579   1.039
 4780TIP3    H214280   5.004   6.709   1.115
 4781TIP3   OH214281   4.526   6.520   1.382
 4781TIP3    H114282   4.573   6.512   1.465
 4781TIP3    H214283   4.487   6.434   1.368
 4782TIP3   OH214284   5.332   6.545   0.759
 4782TIP3    H114285   5.388   6.471   0.737
 4782TIP3    H214286   5.335   6.550   0.854
 4783TIP3   OH214287   5.418   6.704   0.991
 4783TIP3    H114288   5.329   6.736   0.978
 4783TIP3    H214289   5.407   6.616   1.028
 4784TIP3   OH214290   6.099   5.895   2.195
 4784TIP3    H114291   6.025   5.905   2.136
 4784TIP3    H214292   6.123   5.802   2.188
 4785TIP3   OH214293   4.714   6.303   2.184
 4785TIP3    H114294   4.758   6.300   2.268
 4785TIP3    H214295   4.639   6.244   2.194
 4786TIP3   OH214296   5.099   5.131   1.990
 4786TIP3    H114297   5.015   5.098   1.957
 4786TIP3    H214298   5.077   5.210   2.039
 4787TIP3   OH214299   5.646   5.244   2.185
 4787TIP3    H114300   5.717   5.220   2.244
 4787TIP3    H214301   5.566   5.225   2.235
 4788TIP3   OH214302   5.863   5.668   2.091
 4788TIP3    H114303   5.827   5.665   2.180
 4788TIP3    H214304   5.853   5.759   2.064
 4789TIP3   OH214305   5.498   5.781   0.476
 4789TIP3    H114306   5.433   5.848   0.458
 4789TIP3    H214307   5.569   5.828   0.521
 4790TIP3   OH214308   5.214   5.193   0.946
 4790TIP3    H114309   5.194   5.193   1.039
 4790TIP3    H214310   5.204   5.102   0.919
 4791TIP3   OH214311   5.040   5.653   1.994
 4791TIP3    H114312   5.005   5.669   2.081
 4791TIP3    H214313   5.019   5.733   1.945
 4792TIP3   OH214314   4.920   5.540   1.528
 4792TIP3    H114315   4.829   5.516   1.549
 4792TIP3    H214316   4.934   5.503   1.441
 4793TIP3   OH214317   5.391   5.624   1.274
 4793TIP3    H114318   5.349   5.698   1.231
 4793TIP3    H214319   5.459   5.596   1.214
 4794TIP3   OH214320   5.594   5.884   2.322
 4794TIP3    H114321   5.569   5.815   2.384
 4794TIP3    H214322   5.686   5.901   2.341
 4795TIP3   OH214323   5.560   5.630   1.488
 4795TIP3    H114324   5.493   5.652   1.424
 4795TIP3    H214325   5.607   5.555   1.449
 4796TIP3   OH214326   4.860   5.663   2.217
 4796TIP3    H114327   4.930   5.710   2.263
 4796TIP3    H214328   4.846   5.583   2.268
 4797TIP3   OH214329   4.899   5.138   0.952
 4797TIP3    H114330   4.888   5.153   1.046
 4797TIP3    H214331   4.830   5.189   0.911
 4798TIP3   OH214332   4.458   5.194   1.798
 4798TIP3    H114333   4.531   5.227   1.849
 4798TIP3    H214334   4.497   5.169   1.714
 4799TIP3   OH214335   4.387   5.172   1.305
 4799TIP3    H114336   4.430   5.204   1.225
 4799TIP3    H214337   4.326   5.242   1.328
 4800TIP3   OH214338   5.587   5.882   1.902
 4800TIP3    H114339   5.620   5.816   1.840
 4800TIP3    H214340   5.554   5.830   1.976
 4801TIP3   OH214341   5.273   5.333   1.574
 4801TIP3    H114342   5.198   5.334   1.632
 4801TIP3    H214343   5.349   5.326   1.632
 4802TIP3   OH214344   4.681   5.411   1.581
 4802TIP3    H114345   4.592   5.415   1.546
 4802TIP3    H214346   4.711   5.322   1.561
 4803TIP3   OH214347   4.939   5.405   1.293
 4803TIP3    H114348   5.031   5.418   1.272
 4803TIP3    H214349   4.893   5.425   1.211
 4804TIP3   OH214350   5.740   5.420   1.777
 4804TIP3    H114351   5.717   5.435   1.869
 4804TIP3    H214352   5.674   5.359   1.745
 4805TIP3   OH214353   4.783   5.434   1.073
 4805TIP3    H114354   4.718   5.393   1.017
 4805TIP3    H214355   4.843   5.478   1.012
 4806TIP3   OH214356   5.920   7.128   2.008
 4806TIP3    H114357   5.920   7.138   1.913
 4806TIP3    H214358   6.001   7.170   2.037
 4807TIP3   OH214359   4.862   6.225   2.426
 4807TIP3    H114360   4.945   6.248   2.468
 4807TIP3    H214361   4.796   6.238   2.494
 4808TIP3   OH214362   5.332   5.691   1.678
 4808TIP3    H114363   5.399   5.648   1.624
 4808TIP3    H214364   5.337   5.646   1.762
 4809TIP3   OH214365   4.830   5.165   1.562
 4809TIP3    H114366   4.801   5.089   1.613
 4809TIP3    H214367   4.863   5.128   1.480
 4810TIP3   OH214368   5.309   5.590   1.947
 4810TIP3    H114369   5.221   5.622   1.967
 4810TIP3    H214370   5.367   5.642   2.003
 4811TIP3   OH214371   5.027   5.933   1.111
 4811TIP3    H114372   4.950   5.878   1.094
 4811TIP3    H214373   5.004   5.983   1.190
 4812TIP3   OH214374   5.931   6.194   1.675
 4812TIP3    H114375   5.962   6.247   1.602
 4812TIP3    H214376   5.847   6.158   1.646
 4813TIP3   OH214377   5.472   5.286   0.998
 4813TIP3    H114378   5.388   5.263   0.958
 4813TIP3    H214379   5.510   5.351   0.939
 4814TIP3   OH214380   5.437   6.289   2.075
 4814TIP3    H114381   5.504   6.286   2.144
 4814TIP3    H214382   5.407   6.380   2.074
 4815TIP3   OH214383   5.578   5.554   1.096
 4815TIP3    H114384   5.671   5.531   1.087
 4815TIP3    H214385   5.549   5.572   1.007
 4816TIP3   OH214386   4.732   5.983   1.723
 4816TIP3    H114387   4.763   5.961   1.635
 4816TIP3    H214388   4.801   5.951   1.781
 4817TIP3   OH214389   5.091   6.066   0.892
 4817TIP3    H114390   5.118   6.150   0.927
 4817TIP3    H214391   5.072   6.012   0.969
 4818TIP3   OH214392   4.572   5.868   2.397
 4818TIP3    H114393   4.661   5.870   2.363
 4818TIP3    H214394   4.520   5.828   2.326
 4819TIP3   OH214395   5.364   6.038   2.349
 4819TIP3    H114396   5.318   6.017   2.268
 4819TIP3    H214397   5.450   5.999   2.339
 4820TIP3   OH214398   5.593   6.566   1.957
 4820TIP3    H114399   5.497   6.562   1.965
 4820TIP3    H214400   5.621   6.611   2.037
 4821TIP3   OH214401   5.962   5.636   0.867
 4821TIP3    H114402   5.936   5.591   0.787
 4821TIP3    H214403   5.956   5.729   0.847
 4822TIP3   OH214404   5.771   6.422   0.753
 4822TIP3    H114405   5.796   6.411   0.845
 4822TIP3    H214406   5.680   6.393   0.750
 4823TIP3   OH214407   5.694   6.071   1.582
 4823TIP3    H114408   5.603   6.052   1.603
 4823TIP3    H214409   5.729   5.988   1.549
 4824TIP3   OH214410   4.845   6.316   1.388
 4824TIP3    H114411   4.853   6.400   1.342
 4824TIP3    H214412   4.752   6.296   1.386
 4825TIP3   OH214413   4.420   5.591   1.107
 4825TIP3    H114414   4.464   5.673   1.127
 4825TIP3    H214415   4.335   5.598   1.151
 4826TIP3   OH214416   4.942   6.073   1.318
 4826TIP3    H114417   4.921   6.163   1.343
 4826TIP3    H214418   4.911   6.020   1.391
 4827TIP3   OH214419   5.130   6.634   1.830
 4827TIP3    H114420   5.165   6.709   1.782
 4827TIP3    H214421   5.204   6.600   1.879
 4828TIP3   OH214422   4.766   6.550   1.258
 4828TIP3    H114423   4.679   6.558   1.297
 4828TIP3    H214424   4.798   6.640   1.251
 4829TIP3   OH214425   5.488   6.286   1.803
 4829TIP3    H114426   5.474   6.280   1.898
 4829TIP3    H214427   5.575   6.248   1.790
 4830TIP3   OH214428   5.504   6.219   0.613
 4830TIP3    H114429   5.484   6.131   0.646
 4830TIP3    H214430   5.440   6.234   0.544
 4831TIP3   OH214431   5.734   6.800   1.855
 4831TIP3    H114432   5.664   6.735   1.855
 4831TIP3    H214433   5.717   6.854   1.777
 4832TIP3   OH214434   4.823   5.423   2.366
 4832TIP3    H114435   4.728   5.429   2.376
 4832TIP3    H214436   4.850   5.361   2.434
 4833TIP3   OH214437   5.650   6.075   0.983
 4833TIP3    H114438   5.599   6.031   1.050
 4833TIP3    H214439   5.704   6.005   0.944
 4834TIP3   OH214440   4.554   6.519   1.990
 4834TIP3    H114441   4.610   6.454   2.033
 4834TIP3    H214442   4.575   6.601   2.034
 4835TIP3   OH214443   4.907   6.211   0.730
 4835TIP3    H114444   4.964   6.135   0.718
 4835TIP3    H214445   4.863   6.195   0.814
 4836TIP3   OH214446   4.800   6.144   0.986
 4836TIP3    H114447   4.868   6.112   1.046
 4836TIP3    H214448   4.760   6.217   1.033
 4837TIP3   OH214449   4.512   5.838   1.197
 4837TIP3    H114450   4.453   5.897   1.244
 4837TIP3    H214451   4.528   5.882   1.113
 4838TIP3   OH214452   5.667   5.478   2.037
 4838TIP3    H114453   5.746   5.525   2.067
 4838TIP3    H214454   5.663   5.401   2.094
 4839TIP3   OH214455   5.559   5.225   1.248
 4839TIP3    H114456   5.524   5.253   1.163
 4839TIP3    H214457   5.602   5.303   1.283
 4840TIP3   OH214458   5.106   6.320   0.985
 4840TIP3    H114459   5.024   6.369   0.995
 4840TIP3    H214460   5.138   6.345   0.898
 4841TIP3   OH214461   5.217   5.418   1.315
 4841TIP3    H114462   5.277   5.489   1.294
 4841TIP3    H214463   5.235   5.398   1.407
 4842TIP3   OH214464   5.505   5.716   2.106
 4842TIP3    H114465   5.536   5.762   2.183
 4842TIP3    H214466   5.559   5.636   2.103
 4843TIP3   OH214467   5.369   5.121   1.414
 4843TIP3    H114468   5.344   5.197   1.466
 4843TIP3    H214469   5.441   5.151   1.359
 4844TIP3   OH214470   4.671   6.360   1.085
 4844TIP3    H114471   4.681   6.398   0.998
 4844TIP3    H214472   4.708   6.425   1.145
 4845TIP3   OH214473   4.890   5.137   1.231
 4845TIP3    H114474   4.883   5.227   1.262
 4845TIP3    H214475   4.984   5.120   1.227
 4846TIP3   OH214476   6.133   5.631   2.099
 4846TIP3    H114477   6.038   5.624   2.096
 4846TIP3    H214478   6.162   5.612   2.010
 4847TIP3   OH214479   5.786   5.818   1.492
 4847TIP3    H114480   5.710   5.763   1.511
 4847TIP3    H214481   5.856   5.780   1.545
 4848TIP3   OH214482   4.506   6.069   0.963
 4848TIP3    H114483   4.579   6.129   0.981
 4848TIP3    H214484   4.543   6.003   0.905
 4849TIP3   OH214485   4.442   5.316   1.075
 4849TIP3    H114486   4.455   5.408   1.099
 4849TIP3    H214487   4.364   5.316   1.020
 4850TIP3   OH214488   5.776   6.780   1.438
 4850TIP3    H114489   5.733   6.840   1.377
 4850TIP3    H214490   5.870   6.796   1.425
 4851TIP3   OH214491   4.836   5.043   1.952
 4851TIP3    H114492   4.809   5.010   1.866
 4851TIP3    H214493   4.829   4.967   2.010
 4852TIP3   OH214494   4.377   6.281   1.368
 4852TIP3    H114495   4.331   6.324   1.440
 4852TIP3    H214496   4.341   6.321   1.289
 4853TIP3   OH214497   4.553   6.830   2.409
 4853TIP3    H114498   4.635   6.834   2.457
 4853TIP3    H214499   4.534   6.736   2.401
 4854TIP3   OH214500   5.020   6.754   2.450
 4854TIP3    H114501   5.113   6.735   2.462
 4854TIP3    H214502   4.992   6.696   2.379
 4855TIP3   OH214503   4.956   6.427   0.583
 4855TIP3    H114504   4.925   6.344   0.621
 4855TIP3    H214505   5.005   6.400   0.505
 4856TIP3   OH214506   5.648   6.685   2.198
 4856TIP3    H114507   5.648   6.612   2.261
 4856TIP3    H214508   5.729   6.733   2.217
 4857TIP3   OH214509   4.660   6.241   2.616
 4857TIP3    H114510   4.664   6.165   2.674
 4857TIP3    H214511   4.574   6.235   2.574
 4858TIP3   OH214512   4.600   5.803   0.926
 4858TIP3    H114513   4.675   5.796   0.985
 4858TIP3    H214514   4.630   5.763   0.844
 4859TIP3   OH214515   5.281   6.312   2.382
 4859TIP3    H114516   5.244   6.336   2.297
 4859TIP3    H214517   5.325   6.228   2.366
 4860TIP3   OH214518   5.131   6.053   0.628
 4860TIP3    H114519   5.137   6.068   0.722
 4860TIP3    H214520   5.150   5.960   0.617
 4861TIP3   OH214521   5.755   6.337   1.984
 4861TIP3    H114522   5.839   6.363   1.947
 4861TIP3    H214523   5.698   6.413   1.971
 4862TIP3   OH214524   4.747   5.826   2.672
 4862TIP3    H114525   4.818   5.818   2.607
 4862TIP3    H214526   4.771   5.903   2.724
 4863TIP3   OH214527   4.823   5.762   1.069
 4863TIP3    H114528   4.812   5.715   1.152
 4863TIP3    H214529   4.872   5.701   1.014
 4864TIP3   OH214530   5.092   5.818   2.246
 4864TIP3    H114531   5.033   5.886   2.279
 4864TIP3    H214532   5.155   5.865   2.192
 4865TIP3   OH214533   4.955   5.564   0.915
 4865TIP3    H114534   4.943   5.613   0.834
 4865TIP3    H214535   5.049   5.570   0.933
 4866TIP3   OH214536   5.645   6.228   2.363
 4866TIP3    H114537   5.721   6.201   2.313
 4866TIP3    H214538   5.646   6.173   2.440
 4867TIP3   OH214539   5.746   5.882   0.550
 4867TIP3    H114540   5.765   5.811   0.488
 4867TIP3    H214541   5.770   5.962   0.503
 4868TIP3   OH214542   5.248   5.628   2.374
 4868TIP3    H114543   5.258   5.550   2.318
 4868TIP3    H214544   5.204   5.692   2.318
 4869TIP3   OH214545   5.253   5.421   2.179
 4869TIP3    H114546   5.283   5.454   2.095
 4869TIP3    H214547   5.162   5.395   2.165
 4870TIP3   OH214548   5.264   5.968   2.092
 4870TIP3    H114549   5.351   5.966   2.051
 4870TIP3    H214550   5.212   6.023   2.035
 4871TIP3   OH214551   5.860   5.915   2.423
 4871TIP3    H114552   5.903   5.830   2.433
 4871TIP3    H214553   5.929   5.973   2.390
 4872TIP3   OH214554   5.880   6.176   2.165
 4872TIP3    H114555   5.825   6.233   2.112
 4872TIP3    H214556   5.970   6.193   2.136
 4873TIP3   OH214557   5.120   5.711   2.608
 4873TIP3    H114558   5.069   5.630   2.616
 4873TIP3    H214559   5.164   5.703   2.524
 4874TIP3   OH214560   5.379   5.183   2.263
 4874TIP3    H114561   5.336   5.264   2.235
 4874TIP3    H214562   5.311   5.116   2.252
 4875TIP3   OH214563   5.510   5.670   2.472
 4875TIP3    H114564   5.507   5.657   2.567
 4875TIP3    H214565   5.422   5.650   2.442
 4876TIP3   OH214566   5.752   5.624   2.334
 4876TIP3    H114567   5.675   5.624   2.391
 4876TIP3    H214568   5.824   5.599   2.391
 4877TIP3   OH214569   5.981   5.581   2.489
 4877TIP3    H114570   5.996   5.487   2.498
 4877TIP3    H214571   5.976   5.613   2.579
 4878TIP3   OH214572   5.457   5.179   2.526
 4878TIP3    H114573   5.526   5.112   2.523
 4878TIP3    H214574   5.423   5.182   2.436
 4879TIP3   OH214575   5.538   5.392   2.677
 4879TIP3    H114576   5.513   5.320   2.619
 4879TIP3    H214577   5.462   5.451   2.674
 4880TIP3   OH214578   4.786   6.616   0.660
 4880TIP3    H114579   4.858   6.557   0.639
 4880TIP3    H214580   4.778   6.672   0.583
 4881TIP3   OH214581   4.253   6.006   1.040
 4881TIP3    H114582   4.344   6.027   1.017
 4881TIP3    H214583   4.241   5.916   1.012
 4882TIP3   OH214584   4.155   6.604   1.431
 4882TIP3    H114585   4.090   6.549   1.388
 4882TIP3    H214586   4.202   6.545   1.490
 4883TIP3   OH214587   4.300   6.441   1.599
 4883TIP3    H114588   4.289   6.376   1.668
 4883TIP3    H214589   4.352   6.510   1.639
 4884TIP3   OH214590   6.036   6.851   1.427
 4884TIP3    H114591   6.051   6.867   1.520
 4884TIP3    H214592   6.123   6.855   1.388
 4885TIP3   OH214593   6.054   6.873   1.700
 4885TIP3    H114594   6.005   6.790   1.696
 4885TIP3    H214595   6.125   6.856   1.762
 4886TIP3   OH214596   6.028   6.582   2.222
 4886TIP3    H114597   6.002   6.579   2.315
 4886TIP3    H214598   6.115   6.622   2.223
 4887TIP3   OH214599   5.948   6.089   0.900
 4887TIP3    H114600   6.017   6.143   0.861
 4887TIP3    H214601   5.977   6.075   0.990
 4888TIP3   OH214602   6.018   5.987   1.133
 4888TIP3    H114603   5.968   5.941   1.200
 4888TIP3    H214604   6.103   6.003   1.174
 4889TIP3   OH214605   6.082   6.344   1.508
 4889TIP3    H114606   6.144   6.277   1.476
 4889TIP3    H214607   6.107   6.423   1.461
 4890TIP3   OH214608   5.919   6.631   1.700
 4890TIP3    H114609   5.849   6.661   1.758
 4890TIP3    H214610   5.874   6.584   1.630
 4891TIP3   OH214611   5.950   5.887   0.724
 4891TIP3    H114612   5.870   5.902   0.674
 4891TIP3    H214613   5.955   5.960   0.786
 4892TIP3   OH214614   5.886   5.508   0.642
 4892TIP3    H114615   5.844   5.567   0.579
 4892TIP3    H214616   5.840   5.424   0.630
 4893TIP3   OH214617   5.852   5.787   1.233
 4893TIP3    H114618   5.858   5.693   1.221
 4893TIP3    H214619   5.839   5.799   1.327
 4894TIP3   OH214620   4.491   5.877   1.968
 4894TIP3    H114621   4.485   5.844   1.878
 4894TIP3    H214622   4.586   5.885   1.983
 4895TIP3   OH214623   6.127   6.238   2.068
 4895TIP3    H114624   6.201   6.184   2.038
 4895TIP3    H214625   6.117   6.305   2.000
 4896TIP3   OH214626   6.302   6.012   2.047
 4896TIP3    H114627   6.236   5.978   2.107
 4896TIP3    H214628   6.383   5.968   2.073
 4897TIP3   OH214629   5.769   5.257   0.677
 4897TIP3    H114630   5.860   5.243   0.701
 4897TIP3    H214631   5.719   5.201   0.737
 4898TIP3   OH214632   5.852   5.533   1.114
 4898TIP3    H114633   5.883   5.443   1.122
 4898TIP3    H214634   5.881   5.561   1.027
 4899TIP3   OH214635   6.005   5.695   1.613
 4899TIP3    H114636   6.087   5.716   1.569
 4899TIP3    H214637   6.016   5.730   1.702
 4900TIP3   OH214638   6.076   5.837   1.844
 4900TIP3    H114639   6.005   5.873   1.897
 4900TIP3    H214640   6.111   5.913   1.797
 4901TIP3   OH214641   6.542   5.440   2.384
 4901TIP3    H114642   6.603   5.381   2.340
 4901TIP3    H214643   6.503   5.492   2.313
 4902TIP3   OH214644   5.944   5.285   1.172
 4902TIP3    H114645   5.990   5.262   1.253
 4902TIP3    H214646   5.884   5.211   1.158
 4903TIP3   OH214647   4.666   5.262   1.972
 4903TIP3    H114648   4.721   5.183   1.976
 4903TIP3    H214649   4.728   5.333   1.957
 4904TIP3   OH214650   4.457   5.530   2.032
 4904TIP3    H114651   4.508   5.517   1.952
 4904TIP3    H214652   4.475   5.621   2.057
 4905TIP3   OH214653   6.394   5.561   2.191
 4905TIP3    H114654   6.314   5.604   2.221
 4905TIP3    H214655   6.362   5.491   2.134
 4906TIP3   OH214656   5.975   5.261   0.852
 4906TIP3    H114657   6.042   5.226   0.792
 4906TIP3    H214658   6.015   5.340   0.887
 4907TIP3   OH214659   4.443   5.037   1.536
 4907TIP3    H114660   4.355   5.025   1.571
 4907TIP3    H214661   4.430   5.091   1.458
 4908TIP3   OH214662   5.654   6.752   1.163
 4908TIP3    H114663   5.743   6.754   1.129
 4908TIP3    H214664   5.642   6.838   1.203
 4909TIP3   OH214665   4.664   5.106   2.351
 4909TIP3    H114666   4.614   5.098   2.433
 4909TIP3    H214667   4.603   5.150   2.291
 4910TIP3   OH214668   4.697   6.544   2.421
 4910TIP3    H114669   4.603   6.528   2.417
 4910TIP3    H214670   4.718   6.543   2.514
 4911TIP3   OH214671   4.900   6.588   1.975
 4911TIP3    H114672   4.849   6.662   1.942
 4911TIP3    H214673   4.986   6.598   1.934
 4912TIP3   OH214674   5.315   6.828   2.112
 4912TIP3    H114675   5.354   6.820   2.199
 4912TIP3    H214676   5.381   6.877   2.062
 4913TIP3   OH214677   5.509   6.975   1.981
 4913TIP3    H114678   5.575   6.921   1.938
 4913TIP3    H214679   5.558   7.034   2.038
 4914TIP3   OH214680   6.300   5.322   2.073
 4914TIP3    H114681   6.213   5.319   2.032
 4914TIP3    H214682   6.332   5.232   2.066
 4915TIP3   OH214683   4.562   6.840   2.019
 4915TIP3    H114684   4.471   6.861   1.997
 4915TIP3    H214685   4.585   6.903   2.087
 4916TIP3   OH214686   4.792   6.818   1.870
 4916TIP3    H114687   4.709   6.828   1.916
 4916TIP3    H214688   4.773   6.847   1.780
 4917TIP3   OH214689   5.217   6.842   1.667
 4917TIP3    H114690   5.152   6.853   1.597
 4917TIP3    H214691   5.235   6.931   1.697
 4918TIP3   OH214692   5.480   6.771   1.713
 4918TIP3    H114693   5.389   6.797   1.696
 4918TIP3    H214694   5.532   6.840   1.673
 4919TIP3   OH214695   5.683   6.951   1.633
 4919TIP3    H114696   5.668   7.037   1.596
 4919TIP3    H214697   5.715   6.898   1.560
 4920TIP3   OH214698   4.475   6.619   1.743
 4920TIP3    H114699   4.498   6.593   1.833
 4920TIP3    H214700   4.547   6.587   1.689
 4921TIP3   OH214701   4.678   6.503   1.608
 4921TIP3    H114702   4.689   6.418   1.652
 4921TIP3    H214703   4.765   6.542   1.607
 4922TIP3   OH214704   4.945   6.584   1.626
 4922TIP3    H114705   4.967   6.492   1.610
 4922TIP3    H214706   4.999   6.609   1.700
 4923TIP3   OH214707   5.506   5.242   1.703
 4923TIP3    H114708   5.469   5.169   1.753
 4923TIP3    H214709   5.576   5.202   1.651
 4924TIP3   OH214710   6.013   5.147   1.607
 4924TIP3    H114711   6.051   5.195   1.534
 4924TIP3    H214712   5.921   5.174   1.608
 4925TIP3   OH214713   6.123   5.216   1.367
 4925TIP3    H114714   6.195   5.158   1.343
 4925TIP3    H214715   6.160   5.304   1.359
 4926TIP3   OH214716   4.751   4.941   1.708
 4926TIP3    H114717   4.661   4.909   1.715
 4926TIP3    H214718   4.805   4.862   1.702
 4927TIP3   OH214719   4.561   4.839   1.363
 4927TIP3    H114720   4.590   4.890   1.287
 4927TIP3    H214721   4.527   4.904   1.424
 4928TIP3   OH214722   5.215   4.980   1.603
 4928TIP3    H114723   5.264   5.026   1.535
 4928TIP3    H214724   5.258   5.008   1.685
 4929TIP3   OH214725   5.725   5.130   1.577
 4929TIP3    H114726   5.742   5.096   1.488
 4929TIP3    H214727   5.727   5.052   1.632
 4930TIP3   OH214728   5.773   5.066   1.170
 4930TIP3    H114729   5.692   5.113   1.187
 4930TIP3    H214730   5.760   4.980   1.210
 4931TIP3   OH214731   4.265   6.401   1.153
 4931TIP3    H114732   4.177   6.367   1.141
 4931TIP3    H214733   4.258   6.495   1.133
 4932TIP3   OH214734   4.678   4.975   1.132
 4932TIP3    H114735   4.724   4.917   1.073
 4932TIP3    H214736   4.747   5.028   1.172
 4933TIP3   OH214737   5.167   5.167   1.219
 4933TIP3    H114738   5.226   5.115   1.272
 4933TIP3    H214739   5.185   5.258   1.245
 4934TIP3   OH214740   5.070   6.628   0.741
 4934TIP3    H114741   5.165   6.618   0.750
 4934TIP3    H214742   5.044   6.558   0.681
 4935TIP3   OH214743   5.771   6.694   0.794
 4935TIP3    H114744   5.803   6.620   0.743
 4935TIP3    H214745   5.757   6.763   0.729
 4936TIP3   OH214746   4.958   5.208   2.579
 4936TIP3    H114747   4.928   5.145   2.644
 4936TIP3    H214748   5.043   5.239   2.612
 4937TIP3   OH214749   5.202   5.243   2.719
 4937TIP3    H114750   5.283   5.222   2.673
 4937TIP3    H214751   5.192   5.174   2.784
 4938TIP3   OH214752   4.304   6.380   0.872
 4938TIP3    H114753   4.309   6.380   0.968
 4938TIP3    H214754   4.356   6.304   0.846
 4939TIP3   OH214755   6.046   5.311   2.504
 4939TIP3    H114756   6.062   5.280   2.593
 4939TIP3    H214757   6.132   5.305   2.461
 4940TIP3   OH214758   5.963   6.854   2.005
 4940TIP3    H114759   5.885   6.821   1.959
 4940TIP3    H214760   5.945   6.947   2.018
 4941TIP3   OH214761   7.261   6.171   1.164
 4941TIP3    H114762   7.245   6.230   1.238
 4941TIP3    H214763   7.245   6.084   1.200
 4942TIP3   OH214764   6.508   6.084   1.562
 4942TIP3    H114765   6.543   6.023   1.626
 4942TIP3    H214766   6.584   6.135   1.533
 4943TIP3   OH214767   6.500   6.493   1.321
 4943TIP3    H114768   6.492   6.397   1.321
 4943TIP3    H214769   6.567   6.511   1.387
 4944TIP3   OH214770   6.183   5.741   1.083
 4944TIP3    H114771   6.217   5.816   1.035
 4944TIP3    H214772   6.101   5.773   1.121
 4945TIP3   OH214773   6.266   6.005   1.237
 4945TIP3    H114774   6.320   5.929   1.260
 4945TIP3    H214775   6.315   6.048   1.166
 4946TIP3   OH214776   7.154   6.455   1.107
 4946TIP3    H114777   7.084   6.395   1.080
 4946TIP3    H214778   7.174   6.430   1.197
 4947TIP3   OH214779   8.062   5.792   1.270
 4947TIP3    H114780   8.138   5.812   1.326
 4947TIP3    H214781   8.071   5.853   1.196
 4948TIP3   OH214782   7.481   5.948   1.276
 4948TIP3    H114783   7.547   5.893   1.319
 4948TIP3    H214784   7.443   5.891   1.209
 4949TIP3   OH214785   6.817   5.565   1.253
 4949TIP3    H114786   6.843   5.619   1.178
 4949TIP3    H214787   6.767   5.493   1.214
 4950TIP3   OH214788   7.485   5.721   0.816
 4950TIP3    H114789   7.577   5.709   0.841
 4950TIP3    H214790   7.486   5.726   0.721
 4951TIP3   OH214791   6.415   5.793   1.311
 4951TIP3    H114792   6.501   5.778   1.351
 4951TIP3    H214793   6.396   5.711   1.265
 4952TIP3   OH214794   6.830   5.947   1.202
 4952TIP3    H114795   6.917   5.975   1.175
 4952TIP3    H214796   6.786   5.923   1.120
 4953TIP3   OH214797   6.781   5.594   1.631
 4953TIP3    H114798   6.732   5.643   1.566
 4953TIP3    H214799   6.731   5.604   1.712
 4954TIP3   OH214800   6.865   6.325   1.503
 4954TIP3    H114801   6.783   6.348   1.547
 4954TIP3    H214802   6.909   6.409   1.489
 4955TIP3   OH214803   7.650   5.809   1.053
 4955TIP3    H114804   7.677   5.731   1.004
 4955TIP3    H214805   7.728   5.864   1.056
 4956TIP3   OH214806   6.658   5.713   1.407
 4956TIP3    H114807   6.710   5.788   1.435
 4956TIP3    H214808   6.721   5.657   1.361
 4957TIP3   OH214809   6.679   6.527   1.532
 4957TIP3    H114810   6.698   6.608   1.485
 4957TIP3    H214811   6.615   6.554   1.599
 4958TIP3   OH214812   6.168   6.205   0.804
 4958TIP3    H114813   6.120   6.269   0.751
 4958TIP3    H214814   6.240   6.255   0.842
 4959TIP3   OH214815   7.912   5.658   1.460
 4959TIP3    H114816   7.828   5.702   1.441
 4959TIP3    H214817   7.966   5.677   1.383
 4960TIP3   OH214818   7.147   5.336   1.403
 4960TIP3    H114819   7.144   5.262   1.344
 4960TIP3    H214820   7.056   5.348   1.432
 4961TIP3   OH214821   8.032   6.342   1.152
 4961TIP3    H114822   7.940   6.341   1.124
 4961TIP3    H214823   8.068   6.262   1.114
 4962TIP3   OH214824   7.663   6.226   1.561
 4962TIP3    H114825   7.623   6.293   1.615
 4962TIP3    H214826   7.607   6.221   1.483
 4963TIP3   OH214827   6.700   6.178   0.997
 4963TIP3    H114828   6.640   6.162   0.925
 4963TIP3    H214829   6.726   6.090   1.026
 4964TIP3   OH214830   6.881   6.505   1.182
 4964TIP3    H114831   6.865   6.440   1.114
 4964TIP3    H214832   6.951   6.560   1.147
 4965TIP3   OH214833   6.733   6.115   1.387
 4965TIP3    H114834   6.776   6.070   1.314
 4965TIP3    H214835   6.796   6.182   1.413
 4966TIP3   OH214836   7.348   6.744   1.092
 4966TIP3    H114837   7.291   6.800   1.143
 4966TIP3    H214838   7.372   6.673   1.152
 4967TIP3   OH214839   6.926   6.666   1.694
 4967TIP3    H114840   6.853   6.711   1.737
 4967TIP3    H214841   6.885   6.616   1.624
 4968TIP3   OH214842   6.673   6.267   1.768
 4968TIP3    H114843   6.671   6.349   1.817
 4968TIP3    H214844   6.584   6.233   1.776
 4969TIP3   OH214845   6.728   6.820   1.801
 4969TIP3    H114846   6.692   6.853   1.719
 4969TIP3    H214847   6.652   6.808   1.858
 4970TIP3   OH214848   6.531   6.078   0.809
 4970TIP3    H114849   6.478   6.111   0.736
 4970TIP3    H214850   6.525   5.983   0.801
 4971TIP3   OH214851   6.320   6.378   1.681
 4971TIP3    H114852   6.235   6.350   1.647
 4971TIP3    H214853   6.348   6.305   1.737
 4972TIP3   OH214854   6.223   6.562   1.388
 4972TIP3    H114855   6.313   6.537   1.368
 4972TIP3    H214856   6.231   6.630   1.455
 4973TIP3   OH214857   7.102   6.835   1.573
 4973TIP3    H114858   7.104   6.912   1.630
 4973TIP3    H214859   7.052   6.770   1.622
 4974TIP3   OH214860   6.342   6.799   0.810
 4974TIP3    H114861   6.426   6.758   0.830
 4974TIP3    H214862   6.284   6.772   0.881
 4975TIP3   OH214863   7.904   6.195   1.705
 4975TIP3    H114864   7.824   6.207   1.653
 4975TIP3    H214865   7.945   6.116   1.670
 4976TIP3   OH214866   6.484   6.590   1.711
 4976TIP3    H114867   6.529   6.573   1.793
 4976TIP3    H214868   6.421   6.518   1.703
 4977TIP3   OH214869   6.882   5.378   1.481
 4977TIP3    H114870   6.794   5.348   1.456
 4977TIP3    H214871   6.867   5.461   1.525
 4978TIP3   OH214872   7.442   5.511   1.687
 4978TIP3    H114873   7.512   5.483   1.746
 4978TIP3    H214874   7.361   5.490   1.733
 4979TIP3   OH214875   7.671   5.946   1.598
 4979TIP3    H114876   7.629   5.925   1.681
 4979TIP3    H214877   7.658   6.041   1.588
 4980TIP3   OH214878   6.829   5.897   1.520
 4980TIP3    H114879   6.781   5.907   1.603
 4980TIP3    H214880   6.802   5.972   1.467
 4981TIP3   OH214881   6.728   5.904   0.959
 4981TIP3    H114882   6.710   5.814   0.986
 4981TIP3    H214883   6.756   5.897   0.868
 4982TIP3   OH214884   7.394   6.137   1.826
 4982TIP3    H114885   7.374   6.074   1.895
 4982TIP3    H214886   7.487   6.157   1.838
 4983TIP3   OH214887   7.281   5.881   0.883
 4983TIP3    H114888   7.321   5.966   0.900
 4983TIP3    H214889   7.354   5.826   0.852
 4984TIP3   OH214890   6.647   5.909   1.727
 4984TIP3    H114891   6.708   5.963   1.777
 4984TIP3    H214892   6.635   5.830   1.779
 4985TIP3   OH214893   6.242   5.452   1.318
 4985TIP3    H114894   6.302   5.478   1.388
 4985TIP3    H214895   6.287   5.476   1.238
 4986TIP3   OH214896   6.243   5.450   0.761
 4986TIP3    H114897   6.273   5.529   0.714
 4986TIP3    H214898   6.199   5.484   0.839
 4987TIP3   OH214899   7.281   6.116   1.465
 4987TIP3    H114900   7.339   6.056   1.419
 4987TIP3    H214901   7.339   6.175   1.512
 4988TIP3   OH214902   7.068   5.491   1.162
 4988TIP3    H114903   6.985   5.501   1.208
 4988TIP3    H214904   7.131   5.538   1.216
 4989TIP3   OH214905   6.371   5.546   1.102
 4989TIP3    H114906   6.302   5.611   1.085
 4989TIP3    H214907   6.453   5.593   1.086
 4990TIP3   OH214908   6.742   5.734   0.722
 4990TIP3    H114909   6.837   5.723   0.727
 4990TIP3    H214910   6.721   5.722   0.630
 4991TIP3   OH214911   7.529   5.603   1.304
 4991TIP3    H114912   7.512   5.643   1.389
 4991TIP3    H214913   7.469   5.528   1.301
 4992TIP3   OH214914   6.630   6.493   1.935
 4992TIP3    H114915   6.709   6.513   1.985
 4992TIP3    H214916   6.558   6.509   1.997
 4993TIP3   OH214917   7.178   5.931   1.248
 4993TIP3    H114918   7.213   5.843   1.234
 4993TIP3    H214919   7.141   5.928   1.336
 4994TIP3   OH214920   6.677   5.402   1.094
 4994TIP3    H114921   6.615   5.337   1.126
 4994TIP3    H214922   6.712   5.364   1.013
 4995TIP3   OH214923   7.099   5.847   1.494
 4995TIP3    H114924   7.010   5.879   1.510
 4995TIP3    H214925   7.153   5.893   1.559
 4996TIP3   OH214926   7.771   6.355   1.107
 4996TIP3    H114927   7.721   6.434   1.127
 4996TIP3    H214928   7.710   6.283   1.125
 4997TIP3   OH214929   6.510   6.231   1.285
 4997TIP3    H114930   6.482   6.186   1.206
 4997TIP3    H214931   6.579   6.175   1.322
 4998TIP3   OH214932   6.422   6.179   1.852
 4998TIP3    H114933   6.467   6.178   1.937
 4998TIP3    H214934   6.359   6.107   1.858
 4999TIP3   OH214935   7.169   6.299   1.848
 4999TIP3    H114936   7.117   6.267   1.775
 4999TIP3    H214937   7.257   6.264   1.831
 5000TIP3   OH214938   7.375   6.813   1.487
 5000TIP3    H114939   7.288   6.789   1.519
 5000TIP3    H214940   7.415   6.859   1.561
 5001TIP3   OH214941   7.460   6.354   1.110
 5001TIP3    H114942   7.374   6.313   1.101
 5001TIP3    H214943   7.500   6.346   1.024
 5002TIP3   OH214944   6.533   6.614   0.843
 5002TIP3    H114945   6.620   6.612   0.804
 5002TIP3    H214946   6.539   6.556   0.919
 5003TIP3   OH214947   6.227   5.907   0.386
 5003TIP3    H114948   6.274   5.954   0.455
 5003TIP3    H214949   6.163   5.854   0.433
 5004TIP3   OH214950   6.785   6.298   0.720
 5004TIP3    H114951   6.811   6.367   0.781
 5004TIP3    H214952   6.829   6.219   0.751
 5005TIP3   OH214953   6.950   6.866   1.339
 5005TIP3    H114954   7.010   6.930   1.300
 5005TIP3    H214955   6.995   6.836   1.418
 5006TIP3   OH214956   7.406   6.558   1.317
 5006TIP3    H114957   7.430   6.550   1.409
 5006TIP3    H214958   7.359   6.477   1.298
 5007TIP3   OH214959   6.619   5.658   1.848
 5007TIP3    H114960   6.524   5.664   1.858
 5007TIP3    H214961   6.648   5.608   1.925
 5008TIP3   OH214962   6.351   6.767   1.543
 5008TIP3    H114963   6.399   6.707   1.601
 5008TIP3    H214964   6.347   6.849   1.591
 5009TIP3   OH214965   6.379   6.173   0.604
 5009TIP3    H114966   6.291   6.181   0.642
 5009TIP3    H214967   6.416   6.261   0.610
 5010TIP3   OH214968   7.476   5.735   1.531
 5010TIP3    H114969   7.543   5.792   1.568
 5010TIP3    H214970   7.464   5.666   1.597
 5011TIP3   OH214971   7.067   5.612   0.785
 5011TIP3    H114972   7.128   5.655   0.725
 5011TIP3    H214973   7.087   5.649   0.871
 5012TIP3   OH214974   7.278   5.923   1.681
 5012TIP3    H114975   7.305   6.006   1.719
 5012TIP3    H214976   7.359   5.871   1.678
 5013TIP3   OH214977   7.131   5.357   0.932
 5013TIP3    H114978   7.113   5.400   1.016
 5013TIP3    H214979   7.204   5.408   0.895
 5014TIP3   OH214980   6.724   5.391   0.637
 5014TIP3    H114981   6.666   5.465   0.655
 5014TIP3    H214982   6.734   5.346   0.721
 5015TIP3   OH214983   7.949   5.933   1.566
 5015TIP3    H114984   7.854   5.933   1.575
 5015TIP3    H214985   7.972   5.840   1.559
 5016TIP3   OH214986   7.654   6.010   0.824
 5016TIP3    H114987   7.580   6.050   0.870
 5016TIP3    H214988   7.714   5.983   0.893
 5017TIP3   OH214989   6.294   5.681   0.622
 5017TIP3    H114990   6.316   5.774   0.622
 5017TIP3    H214991   6.217   5.674   0.566
 5018TIP3   OH214992   6.620   5.299   1.444
 5018TIP3    H114993   6.589   5.267   1.359
 5018TIP3    H214994   6.617   5.223   1.501
 5019TIP3   OH214995   6.208   6.561   0.815
 5019TIP3    H114996   6.120   6.541   0.847
 5019TIP3    H214997   6.193   6.611   0.734
 5020TIP3   OH214998   6.349   7.082   1.903
 5020TIP3    H114999   6.431   7.084   1.951
 5020TIP3    H215000   6.321   6.990   1.907
 5021TIP3   OH215001   6.829   7.035   1.939
 5021TIP3    H115002   6.920   7.014   1.961
 5021TIP3    H215003   6.799   6.959   1.888
 5022TIP3   OH215004   7.467   6.937   1.713
 5022TIP3    H115005   7.446   6.864   1.772
 5022TIP3    H215006   7.559   6.956   1.731
 5023TIP3   OH215007   7.085   6.567   1.888
 5023TIP3    H115008   7.041   6.589   1.807
 5023TIP3    H215009   7.128   6.483   1.870
 5024TIP3   OH215010   6.602   6.158   2.082
 5024TIP3    H115011   6.692   6.164   2.052
 5024TIP3    H215012   6.596   6.222   2.153
 5025TIP3   OH215013   6.867   6.073   1.770
 5025TIP3    H115014   6.805   6.146   1.774
 5025TIP3    H215015   6.942   6.108   1.720
 5026TIP3   OH215016   7.462   6.499   1.878
 5026TIP3    H115017   7.440   6.473   1.788
 5026TIP3    H215018   7.442   6.421   1.931
 5027TIP3   OH215019   7.038   5.878   1.876
 5027TIP3    H115020   7.050   5.802   1.818
 5027TIP3    H215021   6.989   5.940   1.823
 5028TIP3   OH215022   7.042   5.661   1.688
 5028TIP3    H115023   7.071   5.711   1.612
 5028TIP3    H215024   6.951   5.638   1.669
 5029TIP3   OH215025   7.064   6.177   1.619
 5029TIP3    H115026   7.136   6.153   1.561
 5029TIP3    H215027   7.005   6.229   1.563
 5030TIP3   OH215028   7.663   6.170   1.911
 5030TIP3    H115029   7.719   6.092   1.916
 5030TIP3    H215030   7.723   6.241   1.889
 5031TIP3   OH215031   6.919   5.977   2.107
 5031TIP3    H115032   6.850   5.912   2.123
 5031TIP3    H215033   6.952   5.955   2.020
 5032TIP3   OH215034   7.180   5.434   1.756
 5032TIP3    H115035   7.135   5.515   1.732
 5032TIP3    H215036   7.114   5.366   1.743
 5033TIP3   OH215037   7.307   5.922   1.973
 5033TIP3    H115038   7.283   5.910   2.065
 5033TIP3    H215039   7.226   5.907   1.924
 5034TIP3   OH215040   7.536   5.860   1.818
 5034TIP3    H115041   7.461   5.872   1.877
 5034TIP3    H215042   7.611   5.848   1.876
 5035TIP3   OH215043   7.767   5.843   1.970
 5035TIP3    H115044   7.782   5.749   1.977
 5035TIP3    H215045   7.764   5.874   2.061
 5036TIP3   OH215046   6.754   5.756   2.166
 5036TIP3    H115047   6.761   5.667   2.130
 5036TIP3    H215048   6.792   5.749   2.253
 5037TIP3   OH215049   7.248   5.429   2.021
 5037TIP3    H115050   7.317   5.363   2.017
 5037TIP3    H215051   7.215   5.435   1.931
 5038TIP3   OH215052   7.330   5.647   2.167
 5038TIP3    H115053   7.303   5.576   2.109
 5038TIP3    H215054   7.257   5.709   2.163
 5039TIP3   OH215055   6.010   6.800   0.850
 5039TIP3    H115056   5.930   6.787   0.800
 5039TIP3    H215057   5.996   6.753   0.932
 5040TIP3   OH215058   5.928   6.747   1.120
 5040TIP3    H115059   6.009   6.697   1.106
 5040TIP3    H215060   5.958   6.832   1.151
 5041TIP3   OH215061   6.265   6.150   1.464
 5041TIP3    H115062   6.262   6.103   1.381
 5041TIP3    H215063   6.356   6.144   1.492
 5042TIP3   OH215064   7.942   6.485   1.648
 5042TIP3    H115065   7.955   6.391   1.660
 5042TIP3    H215066   7.914   6.494   1.557
 5043TIP3   OH215067   7.865   5.972   1.004
 5043TIP3    H115068   7.954   5.989   1.034
 5043TIP3    H215069   7.811   6.035   1.053
 5044TIP3   OH215070   7.811   6.137   1.342
 5044TIP3    H115071   7.767   6.178   1.416
 5044TIP3    H215072   7.904   6.152   1.358
 5045TIP3   OH215073   6.488   5.807   2.101
 5045TIP3    H115074   6.582   5.812   2.118
 5045TIP3    H215075   6.459   5.727   2.145
 5046TIP3   OH215076   6.455   5.521   1.478
 5046TIP3    H115077   6.510   5.443   1.477
 5046TIP3    H215078   6.517   5.594   1.470
 5047TIP3   OH215079   6.247   5.792   1.532
 5047TIP3    H115080   6.304   5.798   1.456
 5047TIP3    H215081   6.263   5.873   1.580
 5048TIP3   OH215082   6.217   5.224   1.069
 5048TIP3    H115083   6.133   5.195   1.104
 5048TIP3    H215084   6.211   5.320   1.068
 5049TIP3   OH215085   6.459   5.356   1.839
 5049TIP3    H115086   6.412   5.352   1.922
 5049TIP3    H215087   6.399   5.403   1.780
 5050TIP3   OH215088   6.493   6.810   1.931
 5050TIP3    H115089   6.411   6.792   1.885
 5050TIP3    H215090   6.489   6.756   2.010
 5051TIP3   OH215091   6.636   6.897   1.563
 5051TIP3    H115092   6.573   6.949   1.512
 5051TIP3    H215093   6.663   6.828   1.503
 5052TIP3   OH215094   7.192   7.120   1.595
 5052TIP3    H115095   7.194   7.100   1.689
 5052TIP3    H215096   7.284   7.131   1.571
 5053TIP3   OH215097   8.127   5.563   1.601
 5053TIP3    H115098   8.049   5.591   1.552
 5053TIP3    H215099   8.161   5.489   1.550
 5054TIP3   OH215100   6.315   7.042   1.595
 5054TIP3    H115101   6.233   7.085   1.568
 5054TIP3    H215102   6.348   7.097   1.666
 5055TIP3   OH215103   6.501   7.066   1.404
 5055TIP3    H115104   6.426   7.061   1.464
 5055TIP3    H215105   6.523   7.159   1.401
 5056TIP3   OH215106   7.048   7.097   1.100
 5056TIP3    H115107   7.086   7.129   1.019
 5056TIP3    H215108   7.100   7.139   1.169
 5057TIP3   OH215109   6.286   6.885   1.305
 5057TIP3    H115110   6.316   6.854   1.390
 5057TIP3    H215111   6.332   6.830   1.241
 5058TIP3   OH215112   6.444   6.707   1.163
 5058TIP3    H115113   6.465   6.632   1.220
 5058TIP3    H215114   6.527   6.732   1.125
 5059TIP3   OH215115   6.713   6.698   1.077
 5059TIP3    H115116   6.765   6.647   1.139
 5059TIP3    H215117   6.763   6.779   1.065
 5060TIP3   OH215118   7.356   5.410   1.218
 5060TIP3    H115119   7.276   5.413   1.270
 5060TIP3    H215120   7.378   5.317   1.213
 5061TIP3   OH215121   7.862   5.420   0.991
 5061TIP3    H115122   7.930   5.488   0.996
 5061TIP3    H215123   7.791   5.455   1.046
 5062TIP3   OH215124   0.589   7.889   2.036
 5062TIP3    H115125   0.635   7.809   2.011
 5062TIP3    H215126   0.646   7.929   2.103
 5063TIP3   OH215127   6.531   5.197   1.203
 5063TIP3    H115128   6.444   5.165   1.227
 5063TIP3    H215129   6.586   5.119   1.201
 5064TIP3   OH215130   6.429   5.064   0.945
 5064TIP3    H115131   6.371   5.098   0.877
 5064TIP3    H215132   6.416   5.123   1.019
 5065TIP3   OH215133   6.929   5.245   1.105
 5065TIP3    H115134   7.021   5.270   1.099
 5065TIP3    H215135   6.905   5.265   1.196
 5066TIP3   OH215136   7.586   5.454   1.056
 5066TIP3    H115137   7.610   5.367   1.026
 5066TIP3    H215138   7.517   5.438   1.121
 5067TIP3   OH215139   6.454   5.269   0.630
 5067TIP3    H115140   6.452   5.260   0.535
 5067TIP3    H215141   6.515   5.341   0.646
 5068TIP3   OH215142   6.878   5.427   0.870
 5068TIP3    H115143   6.889   5.351   0.927
 5068TIP3    H215144   6.966   5.459   0.855
 5069TIP3   OH215145   6.763   5.481   2.077
 5069TIP3    H115146   6.729   5.413   2.136
 5069TIP3    H215147   6.855   5.488   2.100
 5070TIP3   OH215148   7.015   5.485   2.196
 5070TIP3    H115149   7.095   5.464   2.148
 5070TIP3    H215150   7.007   5.417   2.262
 5071TIP3   OH215151   7.832   5.575   1.985
 5071TIP3    H115152   7.845   5.545   2.075
 5071TIP3    H215153   7.919   5.570   1.945
 5072TIP3   OH215154   0.531   6.560   2.876
 5072TIP3    H115155   0.552   6.642   2.920
 5072TIP3    H215156   0.557   6.575   2.785
 5073TIP3   OH215157   8.439   6.436   2.526
 5073TIP3    H115158   8.504   6.470   2.588
 5073TIP3    H215159   8.458   6.481   2.444
 5074TIP3   OH215160   0.592   6.771   3.052
 5074TIP3    H115161   0.501   6.802   3.050
 5074TIP3    H215162   0.628   6.808   3.133
 5075TIP3   OH215163   0.127   6.516   2.708
 5075TIP3    H115164   0.184   6.439   2.703
 5075TIP3    H215165   0.186   6.588   2.730
 5076TIP3   OH215166   0.315   6.479   3.034
 5076TIP3    H115167   0.242   6.525   2.993
 5076TIP3    H215168   0.389   6.496   2.976
 5077TIP3   OH215169   0.229   7.488   2.969
 5077TIP3    H115170   0.205   7.401   2.937
 5077TIP3    H215171   0.166   7.546   2.927
 5078TIP3   OH215172   0.419   7.094   2.892
 5078TIP3    H115173   0.339   7.147   2.896
 5078TIP3    H215174   0.448   7.102   2.801
 5079TIP3   OH215175   0.239   6.042   2.153
 5079TIP3    H115176   0.153   6.068   2.187
 5079TIP3    H215177   0.266   6.115   2.098
 5080TIP3   OH215178   0.372   6.927   3.349
 5080TIP3    H115179   0.286   6.951   3.381
 5080TIP3    H215180   0.367   6.832   3.338
 5081TIP3   OH215181   0.191   7.244   2.836
 5081TIP3    H115182   0.229   7.289   2.761
 5081TIP3    H215183   0.112   7.201   2.802
 5082TIP3   OH215184   0.461   7.444   3.107
 5082TIP3    H115185   0.373   7.478   3.091
 5082TIP3    H215186   0.493   7.421   3.019
 5083TIP3   OH215187   0.345   6.659   3.273
 5083TIP3    H115188   0.279   6.611   3.323
 5083TIP3    H215189   0.352   6.611   3.190
 5084TIP3   OH215190   0.046   6.829   2.654
 5084TIP3    H115191  -0.012   6.752   2.648
 5084TIP3    H215192   0.125   6.796   2.696
 5085TIP3   OH215193   0.295   6.617   3.712
 5085TIP3    H115194   0.288   6.523   3.693
 5085TIP3    H215195   0.206   6.650   3.707
 5086TIP3   OH215196   0.328   6.966   2.220
 5086TIP3    H115197   0.257   6.936   2.277
 5086TIP3    H215198   0.385   7.018   2.277
 5087TIP3   OH215199   0.335   7.375   2.642
 5087TIP3    H115200   0.402   7.312   2.613
 5087TIP3    H215201   0.332   7.440   2.572
 5088TIP3   OH215202   0.153   6.841   2.391
 5088TIP3    H115203   0.138   6.748   2.372
 5088TIP3    H215204   0.108   6.855   2.475
 5089TIP3   OH215205   0.373   7.237   3.267
 5089TIP3    H115206   0.442   7.174   3.247
 5089TIP3    H215207   0.385   7.307   3.203
 5090TIP3   OH215208   0.583   7.061   3.248
 5090TIP3    H115209   0.510   7.013   3.289
 5090TIP3    H215210   0.659   7.005   3.263
 5091TIP3   OH215211   0.124   6.571   2.315
 5091TIP3    H115212   0.162   6.484   2.329
 5091TIP3    H215213   0.115   6.578   2.220
 5092TIP3   OH215214   0.270   6.733   2.788
 5092TIP3    H115215   0.350   6.753   2.739
 5092TIP3    H215216   0.283   6.774   2.873
 5093TIP3   OH215217   0.331   6.871   3.017
 5093TIP3    H115218   0.277   6.902   3.090
 5093TIP3    H215219   0.364   6.951   2.976
 5094TIP3   OH215220   0.798   6.489   3.552
 5094TIP3    H115221   0.857   6.427   3.509
 5094TIP3    H215222   0.759   6.539   3.480
 5095TIP3   OH215223   0.212   6.311   2.330
 5095TIP3    H115224   0.258   6.289   2.411
 5095TIP3    H215225   0.143   6.245   2.323
 5096TIP3   OH215226   0.640   6.616   3.367
 5096TIP3    H115227   0.577   6.655   3.427
 5096TIP3    H215228   0.589   6.555   3.315
 5097TIP3   OH215229   0.335   6.242   1.990
 5097TIP3    H115230   0.360   6.179   1.923
 5097TIP3    H215231   0.378   6.323   1.965
 5098TIP3   OH215232   0.550   6.358   3.256
 5098TIP3    H115233   0.463   6.333   3.225
 5098TIP3    H215234   0.602   6.278   3.250
 5099TIP3   OH215235   0.290   6.166   2.761
 5099TIP3    H115236   0.329   6.219   2.692
 5099TIP3    H215237   0.198   6.191   2.762
 5100TIP3   OH215238   0.388   6.294   2.545
 5100TIP3    H115239   0.455   6.235   2.510
 5100TIP3    H215240   0.417   6.382   2.520
 5101TIP3   OH215241   8.521   6.218   2.756
 5101TIP3    H115242   8.464   6.237   2.682
 5101TIP3    H215243   8.498   6.129   2.782
 5102TIP3   OH215244   8.516   6.110   2.306
 5102TIP3    H115245   8.429   6.121   2.267
 5102TIP3    H215246   8.514   6.023   2.345
 5103TIP3   OH215247   0.315   6.346   3.668
 5103TIP3    H115248   0.327   6.318   3.759
 5103TIP3    H215249   0.402   6.342   3.630
 5104TIP3   OH215250   1.500   7.245   1.959
 5104TIP3    H115251   1.444   7.321   1.972
 5104TIP3    H215252   1.447   7.185   1.906
 5105TIP3   OH215253   1.488   7.263   2.336
 5105TIP3    H115254   1.532   7.243   2.419
 5105TIP3    H215255   1.444   7.182   2.312
 5106TIP3   OH215256   0.778   7.161   2.707
 5106TIP3    H115257   0.808   7.087   2.759
 5106TIP3    H215258   0.846   7.228   2.718
 5107TIP3   OH215259   1.756   7.545   2.031
 5107TIP3    H115260   1.733   7.486   2.103
 5107TIP3    H215261   1.789   7.623   2.075
 5108TIP3   OH215262   0.893   7.477   2.440
 5108TIP3    H115263   0.844   7.395   2.433
 5108TIP3    H215264   0.907   7.505   2.349
 5109TIP3   OH215265   0.453   6.723   2.180
 5109TIP3    H115266   0.412   6.810   2.177
 5109TIP3    H215267   0.417   6.682   2.258
 5110TIP3   OH215268   0.536   7.068   2.384
 5110TIP3    H115269   0.580   6.986   2.407
 5110TIP3    H215270   0.607   7.126   2.358
 5111TIP3   OH215271   1.322   7.481   2.431
 5111TIP3    H115272   1.342   7.417   2.362
 5111TIP3    H215273   1.408   7.517   2.455
 5112TIP3   OH215274   2.316   6.815   2.365
 5112TIP3    H115275   2.340   6.898   2.405
 5112TIP3    H215276   2.341   6.824   2.273
 5113TIP3   OH215277   1.710   6.983   2.393
 5113TIP3    H115278   1.748   6.899   2.417
 5113TIP3    H215279   1.672   6.969   2.306
 5114TIP3   OH215280   1.057   6.642   2.355
 5114TIP3    H115281   1.035   6.715   2.297
 5114TIP3    H215282   1.006   6.569   2.321
 5115TIP3   OH215283   1.753   6.741   1.981
 5115TIP3    H115284   1.819   6.732   2.050
 5115TIP3    H215285   1.802   6.774   1.906
 5116TIP3   OH215286   0.680   6.848   2.470
 5116TIP3    H115287   0.762   6.830   2.515
 5116TIP3    H215288   0.685   6.797   2.390
 5117TIP3   OH215289   1.122   7.049   2.259
 5117TIP3    H115290   1.214   7.027   2.275
 5117TIP3    H215291   1.082   6.966   2.235
 5118TIP3   OH215292   2.389   7.030   2.535
 5118TIP3    H115293   2.300   7.064   2.532
 5118TIP3    H215294   2.427   7.068   2.614
 5119TIP3   OH215295   1.037   6.640   2.801
 5119TIP3    H115296   0.984   6.673   2.729
 5119TIP3    H215297   0.984   6.654   2.879
 5120TIP3   OH215298   1.480   7.454   1.693
 5120TIP3    H115299   1.408   7.458   1.631
 5120TIP3    H215300   1.487   7.543   1.728
 5121TIP3   OH215301   1.153   7.341   2.580
 5121TIP3    H115302   1.097   7.403   2.627
 5121TIP3    H215303   1.207   7.397   2.524
 5122TIP3   OH215304   1.923   6.760   2.193
 5122TIP3    H115305   1.888   6.733   2.278
 5122TIP3    H215306   1.981   6.834   2.214
 5123TIP3   OH215307   0.921   6.747   2.573
 5123TIP3    H115308   0.977   6.821   2.599
 5123TIP3    H215309   0.969   6.705   2.502
 5124TIP3   OH215310   1.004   7.513   2.718
 5124TIP3    H115311   0.968   7.576   2.656
 5124TIP3    H215312   0.928   7.483   2.769
 5125TIP3   OH215313   2.107   6.715   2.532
 5125TIP3    H115314   2.021   6.730   2.493
 5125TIP3    H215315   2.170   6.739   2.463
 5126TIP3   OH215316   1.382   6.337   2.523
 5126TIP3    H115317   1.373   6.245   2.546
 5126TIP3    H215318   1.307   6.380   2.563
 5127TIP3   OH215319   1.753   7.578   1.729
 5127TIP3    H115320   1.725   7.513   1.664
 5127TIP3    H215321   1.732   7.537   1.813
 5128TIP3   OH215322   2.115   7.711   2.426
 5128TIP3    H115323   2.050   7.644   2.406
 5128TIP3    H215324   2.074   7.793   2.402
 5129TIP3   OH215325   1.350   7.112   1.769
 5129TIP3    H115326   1.268   7.162   1.764
 5129TIP3    H215327   1.388   7.120   1.682
 5130TIP3   OH215328   1.376   6.863   1.551
 5130TIP3    H115329   1.436   6.938   1.559
 5130TIP3    H215330   1.408   6.815   1.474
 5131TIP3   OH215331   2.222   7.359   2.375
 5131TIP3    H115332   2.136   7.402   2.375
 5131TIP3    H215333   2.254   7.371   2.286
 5132TIP3   OH215334   1.688   7.207   1.760
 5132TIP3    H115335   1.630   7.230   1.832
 5132TIP3    H215336   1.766   7.172   1.803
 5133TIP3   OH215337   1.900   7.211   2.658
 5133TIP3    H115338   1.905   7.290   2.711
 5133TIP3    H215339   1.814   7.217   2.614
 5134TIP3   OH215340   0.906   7.183   2.142
 5134TIP3    H115341   0.861   7.120   2.086
 5134TIP3    H215342   0.985   7.137   2.171
 5135TIP3   OH215343   0.981   7.538   2.196
 5135TIP3    H115344   1.001   7.625   2.161
 5135TIP3    H215345   1.067   7.498   2.208
 5136TIP3   OH215346   1.004   7.141   2.486
 5136TIP3    H115347   1.046   7.113   2.405
 5136TIP3    H215348   1.055   7.215   2.516
 5137TIP3   OH215349   1.241   7.597   2.835
 5137TIP3    H115350   1.248   7.677   2.783
 5137TIP3    H215351   1.157   7.558   2.808
 5138TIP3   OH215352   1.557   7.067   1.564
 5138TIP3    H115353   1.601   7.126   1.625
 5138TIP3    H215354   1.593   7.089   1.479
 5139TIP3   OH215355   0.933   7.269   2.948
 5139TIP3    H115356   0.941   7.353   2.992
 5139TIP3    H215357   0.842   7.243   2.962
 5140TIP3   OH215358   2.019   6.296   1.623
 5140TIP3    H115359   1.940   6.315   1.674
 5140TIP3    H215360   2.031   6.374   1.568
 5141TIP3   OH215361   0.766   7.016   1.976
 5141TIP3    H115362   0.733   7.039   1.889
 5141TIP3    H215363   0.719   6.935   1.998
 5142TIP3   OH215364   0.539   7.360   2.861
 5142TIP3    H115365   0.484   7.325   2.790
 5142TIP3    H215366   0.585   7.283   2.895
 5143TIP3   OH215367   2.163   7.173   2.863
 5143TIP3    H115368   2.078   7.208   2.836
 5143TIP3    H215369   2.167   7.086   2.825
 5144TIP3   OH215370   0.761   7.503   2.834
 5144TIP3    H115371   0.745   7.582   2.884
 5144TIP3    H215372   0.679   7.455   2.836
 5145TIP3   OH215373   1.147   6.430   2.651
 5145TIP3    H115374   1.064   6.396   2.619
 5145TIP3    H215375   1.123   6.509   2.700
 5146TIP3   OH215376   1.683   6.547   2.852
 5146TIP3    H115377   1.747   6.512   2.913
 5146TIP3    H215378   1.598   6.529   2.892
 5147TIP3   OH215379   1.913   6.964   2.790
 5147TIP3    H115380   1.866   6.966   2.874
 5147TIP3    H215381   1.891   7.048   2.749
 5148TIP3   OH215382   1.659   7.084   1.290
 5148TIP3    H115383   1.574   7.047   1.266
 5148TIP3    H215384   1.641   7.176   1.307
 5149TIP3   OH215385   1.287   6.468   1.617
 5149TIP3    H115386   1.261   6.481   1.708
 5149TIP3    H215387   1.255   6.380   1.595
 5150TIP3   OH215388   1.082   6.952   2.667
 5150TIP3    H115389   1.032   6.965   2.748
 5150TIP3    H215390   1.052   7.022   2.609
 5151TIP3   OH215391   0.963   6.837   2.190
 5151TIP3    H115392   0.872   6.814   2.210
 5151TIP3    H215393   0.978   6.800   2.103
 5152TIP3   OH215394   1.463   6.907   1.908
 5152TIP3    H115395   1.415   6.975   1.861
 5152TIP3    H215396   1.524   6.872   1.843
 5153TIP3   OH215397   1.645   7.166   2.965
 5153TIP3    H115398   1.612   7.110   3.036
 5153TIP3    H215399   1.729   7.198   2.998
 5154TIP3   OH215400   1.619   6.932   2.139
 5154TIP3    H115401   1.553   6.960   2.076
 5154TIP3    H215402   1.661   6.856   2.099
 5155TIP3   OH215403   0.902   6.969   2.875
 5155TIP3    H115404   0.919   7.033   2.945
 5155TIP3    H215405   0.889   6.886   2.922
 5156TIP3   OH215406   0.939   6.438   1.592
 5156TIP3    H115407   0.935   6.444   1.688
 5156TIP3    H215408   0.860   6.483   1.562
 5157TIP3   OH215409   0.495   6.530   2.449
 5157TIP3    H115410   0.575   6.541   2.499
 5157TIP3    H215411   0.520   6.477   2.374
 5158TIP3   OH215412   0.470   6.498   1.997
 5158TIP3    H115413   0.474   6.505   1.902
 5158TIP3    H215414   0.462   6.588   2.027
 5159TIP3   OH215415   1.636   7.183   2.559
 5159TIP3    H115416   1.668   7.118   2.496
 5159TIP3    H215417   1.599   7.131   2.630
 5160TIP3   OH215418   1.325   6.640   2.242
 5160TIP3    H115419   1.246   6.637   2.295
 5160TIP3    H215420   1.397   6.628   2.305
 5161TIP3   OH215421   0.724   6.707   2.238
 5161TIP3    H115422   0.635   6.700   2.205
 5161TIP3    H215423   0.761   6.619   2.227
 5162TIP3   OH215424   1.000   6.709   1.955
 5162TIP3    H115425   1.093   6.722   1.937
 5162TIP3    H215426   0.956   6.729   1.872
 5163TIP3   OH215427   1.789   6.720   2.446
 5163TIP3    H115428   1.764   6.737   2.536
 5163TIP3    H215429   1.723   6.659   2.414
 5164TIP3   OH215430   0.834   6.729   1.739
 5164TIP3    H115431   0.752   6.679   1.744
 5164TIP3    H215432   0.850   6.739   1.645
 5165TIP3   OH215433   0.930   7.505   3.104
 5165TIP3    H115434   1.000   7.509   3.169
 5165TIP3    H215435   0.849   7.504   3.155
 5166TIP3   OH215436   1.384   6.990   2.340
 5166TIP3    H115437   1.449   6.937   2.295
 5166TIP3    H215438   1.377   6.951   2.427
 5167TIP3   OH215439   0.877   6.467   2.229
 5167TIP3    H115440   0.845   6.392   2.279
 5167TIP3    H215441   0.906   6.429   2.146
 5168TIP3   OH215442   1.347   6.898   2.606
 5168TIP3    H115443   1.259   6.927   2.631
 5168TIP3    H215444   1.406   6.949   2.661
 5169TIP3   OH215445   1.121   7.266   1.762
 5169TIP3    H115446   1.066   7.188   1.752
 5169TIP3    H215447   1.085   7.312   1.837
 5170TIP3   OH215448   1.975   7.481   2.340
 5170TIP3    H115449   2.008   7.521   2.260
 5170TIP3    H215450   1.893   7.439   2.313
 5171TIP3   OH215451   1.541   6.579   1.615
 5171TIP3    H115452   1.447   6.560   1.611
 5171TIP3    H215453   1.545   6.674   1.630
 5172TIP3   OH215454   1.516   7.524   2.755
 5172TIP3    H115455   1.553   7.512   2.842
 5172TIP3    H215456   1.424   7.545   2.770
 5173TIP3   OH215457   1.635   6.835   1.700
 5173TIP3    H115458   1.730   6.832   1.709
 5173TIP3    H215459   1.618   6.912   1.646
 5174TIP3   OH215460   0.767   7.232   2.378
 5174TIP3    H115461   0.803   7.228   2.289
 5174TIP3    H215462   0.832   7.186   2.432
 5175TIP3   OH215463   1.228   7.441   1.578
 5175TIP3    H115464   1.159   7.505   1.563
 5175TIP3    H215465   1.185   7.371   1.629
 5176TIP3   OH215466   0.677   7.171   3.010
 5176TIP3    H115467   0.688   7.162   3.105
 5176TIP3    H215468   0.602   7.115   2.989
 5177TIP3   OH215469   1.403   7.283   3.038
 5177TIP3    H115470   1.334   7.234   2.992
 5177TIP3    H215471   1.483   7.261   2.991
 5178TIP3   OH215472   2.041   6.920   1.524
 5178TIP3    H115473   1.982   6.873   1.466
 5178TIP3    H215474   2.047   7.008   1.487
 5179TIP3   OH215475   2.318   7.711   2.596
 5179TIP3    H115476   2.232   7.731   2.557
 5179TIP3    H215477   2.373   7.689   2.520
 5180TIP3   OH215478   1.743   7.358   2.245
 5180TIP3    H115479   1.651   7.338   2.263
 5180TIP3    H215480   1.778   7.277   2.206
 5181TIP3   OH215481   0.982   7.386   1.968
 5181TIP3    H115482   0.973   7.456   2.033
 5181TIP3    H215483   0.950   7.308   2.012
 5182TIP3   OH215484   1.580   7.543   2.480
 5182TIP3    H115485   1.558   7.556   2.572
 5182TIP3    H215486   1.658   7.488   2.481
 5183TIP3   OH215487   1.540   7.319   1.357
 5183TIP3    H115488   1.602   7.352   1.423
 5183TIP3    H215489   1.464   7.376   1.365
 5184TIP3   OH215490   0.868   6.717   3.008
 5184TIP3    H115491   0.773   6.724   3.018
 5184TIP3    H215492   0.897   6.669   3.086
 5185TIP3   OH215493   1.725   7.369   1.545
 5185TIP3    H115494   1.707   7.315   1.622
 5185TIP3    H215495   1.820   7.368   1.536
 5186TIP3   OH215496   1.720   6.781   2.707
 5186TIP3    H115497   1.798   6.822   2.744
 5186TIP3    H215498   1.706   6.703   2.761
 5187TIP3   OH215499   1.602   6.526   1.884
 5187TIP3    H115500   1.581   6.545   1.793
 5187TIP3    H215501   1.646   6.605   1.915
 5188TIP3   OH215502   1.277   6.721   1.982
 5188TIP3    H115503   1.342   6.786   1.956
 5188TIP3    H215504   1.294   6.706   2.075
 5189TIP3   OH215505   1.555   7.010   2.753
 5189TIP3    H115506   1.583   7.056   2.833
 5189TIP3    H215507   1.606   6.929   2.753
 5190TIP3   OH215508   1.427   6.427   2.076
 5190TIP3    H115509   1.405   6.505   2.127
 5190TIP3    H215510   1.492   6.456   2.013
 5191TIP3   OH215511   0.949   6.445   1.876
 5191TIP3    H115512   0.945   6.533   1.912
 5191TIP3    H215513   1.042   6.424   1.875
 5192TIP3   OH215514   2.175   6.914   2.749
 5192TIP3    H115515   2.081   6.920   2.767
 5192TIP3    H215516   2.181   6.863   2.668
 5193TIP3   OH215517   1.839   7.115   2.146
 5193TIP3    H115518   1.763   7.057   2.152
 5193TIP3    H215519   1.906   7.072   2.198
 5194TIP3   OH215520   0.886   6.342   2.614
 5194TIP3    H115521   0.857   6.308   2.529
 5194TIP3    H215522   0.877   6.267   2.673
 5195TIP3   OH215523   0.692   7.445   3.260
 5195TIP3    H115524   0.742   7.364   3.260
 5195TIP3    H215525   0.620   7.429   3.198
 5196TIP3   OH215526   1.310   7.532   3.089
 5196TIP3    H115527   1.292   7.569   3.002
 5196TIP3    H215528   1.347   7.446   3.070
 5197TIP3   OH215529   1.785   7.547   2.671
 5197TIP3    H115530   1.793   7.629   2.720
 5197TIP3    H215531   1.697   7.515   2.694
 5198TIP3   OH215532   0.863   7.229   3.262
 5198TIP3    H115533   0.945   7.187   3.238
 5198TIP3    H215534   0.879   7.262   3.351
 5199TIP3   OH215535   0.975   7.042   1.734
 5199TIP3    H115536   0.900   6.997   1.773
 5199TIP3    H215537   1.015   6.977   1.676
 5200TIP3   OH215538   1.176   7.139   2.922
 5200TIP3    H115539   1.095   7.191   2.926
 5200TIP3    H215540   1.222   7.173   2.846
 5201TIP3   OH215541   1.113   6.908   1.533
 5201TIP3    H115542   1.125   6.881   1.442
 5201TIP3    H215543   1.199   6.896   1.573
 5202TIP3   OH215544   1.665   7.484   3.010
 5202TIP3    H115545   1.761   7.484   3.010
 5202TIP3    H215546   1.642   7.468   3.102
 5203TIP3   OH215547   1.881   7.216   1.163
 5203TIP3    H115548   1.820   7.142   1.162
 5203TIP3    H215549   1.826   7.294   1.161
 5204TIP3   OH215550   1.292   6.921   3.034
 5204TIP3    H115551   1.294   6.848   2.973
 5204TIP3    H215552   1.249   6.992   2.985
 5205TIP3   OH215553   1.298   6.721   2.834
 5205TIP3    H115554   1.323   6.758   2.750
 5205TIP3    H215555   1.206   6.696   2.823
 5206TIP3   OH215556   1.346   7.241   2.738
 5206TIP3    H115557   1.431   7.264   2.701
 5206TIP3    H215558   1.282   7.278   2.676
 5207TIP3   OH215559   1.890   7.214   3.092
 5207TIP3    H115560   1.946   7.137   3.097
 5207TIP3    H215561   1.951   7.288   3.095
 5208TIP3   OH215562   1.958   7.419   2.832
 5208TIP3    H115563   1.891   7.468   2.784
 5208TIP3    H215564   2.041   7.456   2.801
 5209TIP3   OH215565   1.170   7.019   3.272
 5209TIP3    H115566   1.104   6.954   3.296
 5209TIP3    H215567   1.201   6.991   3.186
 5210TIP3   OH215568   1.421   6.487   2.925
 5210TIP3    H115569   1.378   6.567   2.896
 5210TIP3    H215570   1.355   6.418   2.915
 5211TIP3   OH215571   1.543   6.976   3.133
 5211TIP3    H115572   1.529   6.962   3.227
 5211TIP3    H215573   1.459   6.955   3.092
 5212TIP3   OH215574   1.792   6.907   3.030
 5212TIP3    H115575   1.703   6.929   3.059
 5212TIP3    H215576   1.829   6.856   3.103
 5213TIP3   OH215577   1.014   6.796   3.339
 5213TIP3    H115578   1.017   6.705   3.307
 5213TIP3    H215579   1.049   6.791   3.428
 5214TIP3   OH215580   1.498   6.477   3.190
 5214TIP3    H115581   1.567   6.411   3.184
 5214TIP3    H215582   1.463   6.483   3.101
 5215TIP3   OH215583   1.583   6.693   3.338
 5215TIP3    H115584   1.551   6.622   3.282
 5215TIP3    H215585   1.512   6.757   3.337
 5216TIP3   OH215586   2.156   7.945   2.866
 5216TIP3    H115587   2.097   7.988   2.928
 5216TIP3    H215588   2.243   7.977   2.889
 5217TIP3   OH215589   1.992   7.371   1.538
 5217TIP3    H115590   2.053   7.437   1.505
 5217TIP3    H215591   2.036   7.333   1.615
 5218TIP3   OH215592   2.105   7.234   1.742
 5218TIP3    H115593   2.038   7.197   1.799
 5218TIP3    H215594   2.165   7.278   1.801
 5219TIP3   OH215595   2.138   7.606   2.157
 5219TIP3    H115596   2.204   7.541   2.134
 5219TIP3    H215597   2.123   7.655   2.077
 5220TIP3   OH215598   2.035   7.154   1.380
 5220TIP3    H115599   1.977   7.165   1.304
 5220TIP3    H215600   2.014   7.228   1.437
 5221TIP3   OH215601   1.880   6.814   1.336
 5221TIP3    H115602   1.826   6.864   1.275
 5221TIP3    H215603   1.872   6.723   1.307
 5222TIP3   OH215604   1.909   7.097   1.881
 5222TIP3    H115605   1.916   7.003   1.865
 5222TIP3    H215606   1.892   7.104   1.975
 5223TIP3   OH215607   0.514   7.151   2.644
 5223TIP3    H115608   0.503   7.121   2.554
 5223TIP3    H215609   0.608   7.160   2.656
 5224TIP3   OH215610   2.194   7.515   2.744
 5224TIP3    H115611   2.257   7.444   2.732
 5224TIP3    H215612   2.220   7.582   2.681
 5225TIP3   OH215613   2.369   7.309   2.748
 5225TIP3    H115614   2.298   7.262   2.791
 5225TIP3    H215615   2.446   7.254   2.760
 5226TIP3   OH215616   1.843   6.541   1.281
 5226TIP3    H115617   1.912   6.523   1.345
 5226TIP3    H215618   1.764   6.501   1.318
 5227TIP3   OH215619   1.910   6.829   1.759
 5227TIP3    H115620   1.951   6.743   1.772
 5227TIP3    H215621   1.956   6.867   1.684
 5228TIP3   OH215622   2.055   6.993   2.276
 5228TIP3    H115623   2.135   7.013   2.228
 5228TIP3    H215624   2.070   7.027   2.364
 5229TIP3   OH215625   2.130   7.135   2.509
 5229TIP3    H115626   2.050   7.162   2.555
 5229TIP3    H215627   2.159   7.215   2.464
 5230TIP3   OH215628   0.752   6.850   3.276
 5230TIP3    H115629   0.846   6.848   3.296
 5230TIP3    H215630   0.717   6.771   3.317
 5231TIP3   OH215631   2.574   6.748   3.036
 5231TIP3    H115632   2.642   6.688   3.005
 5231TIP3    H215633   2.547   6.796   2.958
 5232TIP3   OH215634   2.012   6.575   1.806
 5232TIP3    H115635   2.056   6.559   1.889
 5232TIP3    H215636   1.948   6.504   1.798
 5233TIP3   OH215637   0.712   6.558   2.625
 5233TIP3    H115638   0.767   6.481   2.632
 5233TIP3    H215639   0.774   6.631   2.613
 5234TIP3   OH215640   0.511   6.824   2.695
 5234TIP3    H115641   0.555   6.814   2.610
 5234TIP3    H215642   0.542   6.909   2.728
 5235TIP3   OH215643   2.434   6.856   2.823
 5235TIP3    H115644   2.345   6.890   2.818
 5235TIP3    H215645   2.430   6.772   2.776
 5236TIP3   OH215646   2.068   6.500   1.441
 5236TIP3    H115647   2.114   6.435   1.388
 5236TIP3    H215648   2.128   6.575   1.443
 5237TIP3   OH215649   0.487   6.359   2.230
 5237TIP3    H115650   0.397   6.328   2.240
 5237TIP3    H215651   0.487   6.405   2.146
 5238TIP3   OH215652   0.708   6.402   3.020
 5238TIP3    H115653   0.658   6.401   3.102
 5238TIP3    H215654   0.652   6.447   2.958
 5239TIP3   OH215655   2.349   6.603   2.730
 5239TIP3    H115656   2.261   6.586   2.696
 5239TIP3    H215657   2.393   6.518   2.725
 5240TIP3   OH215658   1.557   6.541   2.372
 5240TIP3    H115659   1.516   6.468   2.418
 5240TIP3    H215660   1.624   6.500   2.318
 5241TIP3   OH215661   2.059   6.450   2.266
 5241TIP3    H115662   2.097   6.496   2.192
 5241TIP3    H215663   1.965   6.466   2.259
 5242TIP3   OH215664   2.170   6.528   2.028
 5242TIP3    H115665   2.240   6.469   1.998
 5242TIP3    H215666   2.205   6.616   2.014
 5243TIP3   OH215667   0.797   6.243   2.372
 5243TIP3    H115668   0.706   6.213   2.374
 5243TIP3    H215669   0.848   6.163   2.363
 5244TIP3   OH215670   0.634   6.144   2.053
 5244TIP3    H115671   0.657   6.190   1.972
 5244TIP3    H215672   0.574   6.204   2.098
 5245TIP3   OH215673   1.264   6.285   2.262
 5245TIP3    H115674   1.315   6.330   2.195
 5245TIP3    H215675   1.304   6.311   2.345
 5246TIP3   OH215676   1.775   6.429   2.239
 5246TIP3    H115677   1.783   6.393   2.150
 5246TIP3    H215678   1.775   6.352   2.296
 5247TIP3   OH215679   1.822   6.369   1.806
 5247TIP3    H115680   1.741   6.415   1.827
 5247TIP3    H215681   1.812   6.282   1.845
 5248TIP3   OH215682   0.733   6.280   1.823
 5248TIP3    H115683   0.774   6.211   1.770
 5248TIP3    H215684   0.806   6.335   1.851
 5249TIP3   OH215685   1.224   6.472   1.883
 5249TIP3    H115686   1.278   6.416   1.939
 5249TIP3    H215687   1.242   6.561   1.914
 5250TIP3   OH215688   1.016   6.523   3.256
 5250TIP3    H115689   0.980   6.455   3.313
 5250TIP3    H215690   1.108   6.529   3.281
 5251TIP3   OH215691   1.266   6.529   3.377
 5251TIP3    H115692   1.346   6.504   3.330
 5251TIP3    H215693   1.255   6.462   3.444
 5252TIP3   OH215694   2.140   6.641   3.200
 5252TIP3    H115695   2.096   6.556   3.193
 5252TIP3    H215696   2.201   6.642   3.126
 5253TIP3   OH215697   3.196   7.537   1.481
 5253TIP3    H115698   3.208   7.613   1.423
 5253TIP3    H215699   3.173   7.465   1.421
 5254TIP3   OH215700   3.200   7.508   1.804
 5254TIP3    H115701   3.246   7.554   1.873
 5254TIP3    H215702   3.207   7.415   1.828
 5255TIP3   OH215703   2.593   7.407   2.186
 5255TIP3    H115704   2.618   7.332   2.240
 5255TIP3    H215705   2.650   7.478   2.216
 5256TIP3   OH215706   3.529   7.786   1.494
 5256TIP3    H115707   3.538   7.729   1.570
 5256TIP3    H215708   3.557   7.872   1.525
 5257TIP3   OH215709   2.597   7.766   1.923
 5257TIP3    H115710   2.579   7.672   1.917
 5257TIP3    H215711   2.688   7.775   1.896
 5258TIP3   OH215712   2.268   7.023   1.660
 5258TIP3    H115713   2.224   7.103   1.688
 5258TIP3    H215714   2.199   6.970   1.621
 5259TIP3   OH215715   2.337   7.323   1.867
 5259TIP3    H115716   2.382   7.242   1.892
 5259TIP3    H215717   2.407   7.383   1.842
 5260TIP3   OH215718   4.113   7.071   1.851
 5260TIP3    H115719   4.135   7.154   1.895
 5260TIP3    H215720   4.139   7.085   1.760
 5261TIP3   OH215721   3.500   7.246   1.875
 5261TIP3    H115722   3.546   7.167   1.904
 5261TIP3    H215723   3.460   7.221   1.791
 5262TIP3   OH215724   2.845   6.908   1.839
 5262TIP3    H115725   2.826   6.979   1.779
 5262TIP3    H215726   2.795   6.833   1.805
 5263TIP3   OH215727   3.544   6.990   1.480
 5263TIP3    H115728   3.614   6.981   1.544
 5263TIP3    H215729   3.588   7.025   1.402
 5264TIP3   OH215730   2.476   7.105   1.962
 5264TIP3    H115731   2.558   7.087   2.008
 5264TIP3    H215732   2.482   7.054   1.882
 5265TIP3   OH215733   2.931   7.307   1.742
 5265TIP3    H115734   3.017   7.276   1.770
 5265TIP3    H215735   2.883   7.228   1.718
 5266TIP3   OH215736   4.182   7.286   2.021
 5266TIP3    H115737   4.093   7.322   2.015
 5266TIP3    H215738   4.217   7.321   2.103
 5267TIP3   OH215739   2.835   6.896   2.287
 5267TIP3    H115740   2.783   6.931   2.215
 5267TIP3    H215741   2.782   6.910   2.365
 5268TIP3   OH215742   3.187   7.735   1.296
 5268TIP3    H115743   3.145   7.720   1.211
 5268TIP3    H215744   3.245   7.809   1.281
 5269TIP3   OH215745   2.999   7.670   2.000
 5269TIP3    H115746   2.934   7.682   2.070
 5269TIP3    H215747   3.035   7.758   1.985
 5270TIP3   OH215748   3.725   7.014   1.681
 5270TIP3    H115749   3.690   6.993   1.768
 5270TIP3    H215750   3.782   7.090   1.696
 5271TIP3   OH215751   2.718   7.007   2.063
 5271TIP3    H115752   2.773   7.082   2.086
 5271TIP3    H215753   2.763   6.966   1.990
 5272TIP3   OH215754   2.821   7.727   2.191
 5272TIP3    H115755   2.805   7.814   2.154
 5272TIP3    H215756   2.742   7.708   2.242
 5273TIP3   OH215757   2.154   7.550   1.409
 5273TIP3    H115758   2.119   7.546   1.320
 5273TIP3    H215759   2.155   7.643   1.430
 5274TIP3   OH215760   3.909   6.967   2.020
 5274TIP3    H115761   3.823   6.994   1.987
 5274TIP3    H215762   3.970   6.994   1.951
 5275TIP3   OH215763   3.177   6.591   2.009
 5275TIP3    H115764   3.170   6.499   2.035
 5275TIP3    H215765   3.101   6.633   2.050
 5276TIP3   OH215766   3.480   7.860   1.231
 5276TIP3    H115767   3.481   7.783   1.175
 5276TIP3    H215768   3.505   7.828   1.317
 5277TIP3   OH215769   3.807   7.999   2.000
 5277TIP3    H115770   3.806   7.928   1.935
 5277TIP3    H215771   3.770   8.074   1.953
 5278TIP3   OH215772   3.097   7.374   1.288
 5278TIP3    H115773   3.019   7.416   1.253
 5278TIP3    H215774   3.155   7.363   1.213
 5279TIP3   OH215775   3.068   7.178   0.994
 5279TIP3    H115776   3.128   7.234   1.043
 5279TIP3    H215777   3.121   7.104   0.965
 5280TIP3   OH215778   4.004   7.609   1.821
 5280TIP3    H115779   3.933   7.670   1.840
 5280TIP3    H215780   4.053   7.651   1.750
 5281TIP3   OH215781   3.464   7.453   1.268
 5281TIP3    H115782   3.429   7.488   1.350
 5281TIP3    H215783   3.548   7.415   1.293
 5282TIP3   OH215784   3.696   7.489   2.153
 5282TIP3    H115785   3.701   7.569   2.204
 5282TIP3    H215786   3.614   7.498   2.104
 5283TIP3   OH215787   2.711   7.442   1.634
 5283TIP3    H115788   2.658   7.394   1.570
 5283TIP3    H215789   2.776   7.378   1.664
 5284TIP3   OH215790   2.846   7.436   1.973
 5284TIP3    H115791   2.877   7.392   1.894
 5284TIP3    H215792   2.904   7.510   1.984
 5285TIP3   OH215793   3.017   7.898   2.319
 5285TIP3    H115794   2.932   7.937   2.340
 5285TIP3    H215795   2.996   7.825   2.260
 5286TIP3   OH215796   3.282   7.323   1.105
 5286TIP3    H115797   3.356   7.362   1.153
 5286TIP3    H215798   3.299   7.344   1.014
 5287TIP3   OH215799   2.723   7.526   2.428
 5287TIP3    H115800   2.734   7.607   2.477
 5287TIP3    H215801   2.636   7.495   2.452
 5288TIP3   OH215802   3.807   6.538   1.134
 5288TIP3    H115803   3.725   6.552   1.181
 5288TIP3    H215804   3.825   6.622   1.091
 5289TIP3   OH215805   2.567   7.290   1.445
 5289TIP3    H115806   2.496   7.332   1.397
 5289TIP3    H215807   2.535   7.202   1.464
 5290TIP3   OH215808   2.373   7.619   2.339
 5290TIP3    H115809   2.278   7.621   2.336
 5290TIP3    H215810   2.394   7.533   2.376
 5291TIP3   OH215811   3.951   7.442   2.327
 5291TIP3    H115812   3.867   7.455   2.284
 5291TIP3    H215813   3.968   7.348   2.318
 5292TIP3   OH215814   2.570   7.791   2.288
 5292TIP3    H115815   2.524   7.861   2.334
 5292TIP3    H215816   2.509   7.717   2.289
 5293TIP3   OH215817   2.941   6.685   2.136
 5293TIP3    H115818   2.857   6.652   2.105
 5293TIP3    H215819   2.920   6.764   2.185
 5294TIP3   OH215820   3.486   6.801   2.335
 5294TIP3    H115821   3.559   6.777   2.393
 5294TIP3    H215822   3.407   6.782   2.386
 5295TIP3   OH215823   3.702   7.226   2.245
 5295TIP3    H115824   3.665   7.224   2.333
 5295TIP3    H215825   3.688   7.316   2.215
 5296TIP3   OH215826   3.320   7.365   0.849
 5296TIP3    H115827   3.277   7.335   0.768
 5296TIP3    H215828   3.402   7.404   0.820
 5297TIP3   OH215829   3.082   6.729   1.107
 5297TIP3    H115830   3.050   6.735   1.197
 5297TIP3    H215831   3.047   6.647   1.074
 5298TIP3   OH215832   2.875   7.218   2.145
 5298TIP3    H115833   2.829   7.229   2.228
 5298TIP3    H215834   2.860   7.300   2.098
 5299TIP3   OH215835   2.759   7.106   1.667
 5299TIP3    H115836   2.671   7.078   1.694
 5299TIP3    H215837   2.771   7.068   1.581
 5300TIP3   OH215838   3.249   7.170   1.401
 5300TIP3    H115839   3.195   7.235   1.356
 5300TIP3    H215840   3.309   7.138   1.334
 5301TIP3   OH215841   3.442   7.430   2.466
 5301TIP3    H115842   3.417   7.361   2.528
 5301TIP3    H215843   3.531   7.453   2.490
 5302TIP3   OH215844   3.410   7.183   1.624
 5302TIP3    H115845   3.342   7.200   1.560
 5302TIP3    H215846   3.459   7.108   1.590
 5303TIP3   OH215847   2.705   7.221   2.365
 5303TIP3    H115848   2.727   7.283   2.435
 5303TIP3    H215849   2.692   7.138   2.410
 5304TIP3   OH215850   2.752   6.711   1.079
 5304TIP3    H115851   2.743   6.712   1.174
 5304TIP3    H215852   2.676   6.759   1.047
 5305TIP3   OH215853   2.297   6.752   1.948
 5305TIP3    H115854   2.373   6.784   1.997
 5305TIP3    H215855   2.334   6.724   1.864
 5306TIP3   OH215856   2.232   6.728   1.458
 5306TIP3    H115857   2.275   6.761   1.379
 5306TIP3    H215858   2.169   6.796   1.481
 5307TIP3   OH215859   3.411   7.446   2.035
 5307TIP3    H115860   3.444   7.383   1.971
 5307TIP3    H215861   3.387   7.392   2.111
 5308TIP3   OH215862   3.109   6.923   1.731
 5308TIP3    H115863   3.033   6.909   1.787
 5308TIP3    H215864   3.182   6.886   1.781
 5309TIP3   OH215865   2.528   6.971   1.729
 5309TIP3    H115866   2.439   6.975   1.695
 5309TIP3    H215867   2.556   6.881   1.712
 5310TIP3   OH215868   2.779   6.974   1.429
 5310TIP3    H115869   2.873   6.981   1.414
 5310TIP3    H215870   2.739   6.990   1.344
 5311TIP3   OH215871   3.594   6.985   1.931
 5311TIP3    H115872   3.565   7.001   2.021
 5311TIP3    H215873   3.538   6.915   1.899
 5312TIP3   OH215874   2.646   6.999   1.191
 5312TIP3    H115875   2.577   6.950   1.145
 5312TIP3    H215876   2.700   7.035   1.122
 5313TIP3   OH215877   2.730   7.746   2.597
 5313TIP3    H115878   2.810   7.763   2.648
 5313TIP3    H215879   2.659   7.764   2.658
 5314TIP3   OH215880   3.179   7.233   1.835
 5314TIP3    H115881   3.238   7.175   1.787
 5314TIP3    H215882   3.175   7.197   1.923
 5315TIP3   OH215883   2.674   6.722   1.716
 5315TIP3    H115884   2.642   6.648   1.767
 5315TIP3    H215885   2.712   6.683   1.637
 5316TIP3   OH215886   3.144   7.156   2.101
 5316TIP3    H115887   3.057   7.189   2.122
 5316TIP3    H215888   3.203   7.210   2.153
 5317TIP3   OH215889   2.872   7.515   1.212
 5317TIP3    H115890   2.808   7.454   1.176
 5317TIP3    H215891   2.838   7.538   1.299
 5318TIP3   OH215892   3.782   7.785   1.825
 5318TIP3    H115893   3.815   7.823   1.743
 5318TIP3    H215894   3.706   7.733   1.798
 5319TIP3   OH215895   3.338   6.817   1.101
 5319TIP3    H115896   3.244   6.795   1.102
 5319TIP3    H215897   3.340   6.910   1.080
 5320TIP3   OH215898   3.281   7.773   2.190
 5320TIP3    H115899   3.350   7.751   2.253
 5320TIP3    H215900   3.274   7.868   2.193
 5321TIP3   OH215901   3.419   7.085   1.199
 5321TIP3    H115902   3.514   7.080   1.193
 5321TIP3    H215903   3.391   7.126   1.117
 5322TIP3   OH215904   2.575   7.492   1.877
 5322TIP3    H115905   2.620   7.478   1.793
 5322TIP3    H215906   2.635   7.457   1.943
 5323TIP3   OH215907   3.033   7.687   1.064
 5323TIP3    H115908   2.976   7.761   1.046
 5323TIP3    H215909   2.977   7.624   1.109
 5324TIP3   OH215910   2.476   7.424   2.510
 5324TIP3    H115911   2.491   7.411   2.604
 5324TIP3    H215912   2.402   7.367   2.490
 5325TIP3   OH215913   3.193   7.538   2.523
 5325TIP3    H115914   3.130   7.480   2.482
 5325TIP3    H215915   3.278   7.509   2.490
 5326TIP3   OH215916   3.845   7.189   1.060
 5326TIP3    H115917   3.778   7.138   1.014
 5326TIP3    H215918   3.827   7.280   1.036
 5327TIP3   OH215919   6.909  -0.018   2.070
 5327TIP3    H115920   6.814  -0.003   2.075
 5327TIP3    H215921   6.938   0.041   2.001
 5328TIP3   OH215922   3.569   7.634   1.723
 5328TIP3    H115923   3.499   7.627   1.787
 5328TIP3    H215924   3.588   7.544   1.697
 5329TIP3   OH215925   2.259   7.148   1.220
 5329TIP3    H115926   2.303   7.231   1.239
 5329TIP3    H215927   2.183   7.148   1.279
 5330TIP3   OH215928   2.926   7.614   1.600
 5330TIP3    H115929   2.894   7.694   1.557
 5330TIP3    H215930   2.848   7.561   1.614
 5331TIP3   OH215931   3.370   7.778   1.924
 5331TIP3    H115932   3.316   7.770   2.003
 5331TIP3    H215933   3.453   7.813   1.955
 5332TIP3   OH215934   3.280   7.695   0.870
 5332TIP3    H115935   3.345   7.671   0.937
 5332TIP3    H215936   3.196   7.685   0.914
 5333TIP3   OH215937   2.669   6.971   2.497
 5333TIP3    H115938   2.573   6.972   2.502
 5333TIP3    H215939   2.696   6.915   2.570
 5334TIP3   OH215940   3.466   7.634   1.063
 5334TIP3    H115941   3.458   7.566   1.130
 5334TIP3    H215942   3.560   7.646   1.052
 5335TIP3   OH215943   2.650   7.651   0.893
 5335TIP3    H115944   2.653   7.565   0.851
 5335TIP3    H215945   2.737   7.687   0.880
 5336TIP3   OH215946   2.360   7.401   1.297
 5336TIP3    H115947   2.293   7.441   1.352
 5336TIP3    H215948   2.374   7.462   1.225
 5337TIP3   OH215949   3.507   7.036   2.189
 5337TIP3    H115950   3.584   7.082   2.222
 5337TIP3    H215951   3.499   6.959   2.245
 5338TIP3   OH215952   3.393   6.783   1.371
 5338TIP3    H115953   3.376   6.803   1.279
 5338TIP3    H215954   3.437   6.861   1.405
 5339TIP3   OH215955   3.059   6.981   1.467
 5339TIP3    H115956   3.127   7.044   1.441
 5339TIP3    H215957   3.075   6.964   1.560
 5340TIP3   OH215958   3.353   7.278   2.245
 5340TIP3    H115959   3.386   7.321   2.324
 5340TIP3    H215960   3.401   7.195   2.241
 5341TIP3   OH215961   3.222   6.679   1.558
 5341TIP3    H115962   3.229   6.745   1.626
 5341TIP3    H215963   3.282   6.708   1.490
 5342TIP3   OH215964   2.732   6.700   1.357
 5342TIP3    H115965   2.720   6.789   1.392
 5342TIP3    H215966   2.826   6.685   1.363
 5343TIP3   OH215967   3.968   7.173   2.235
 5343TIP3    H115968   3.873   7.180   2.244
 5343TIP3    H215969   3.981   7.115   2.160
 5344TIP3   OH215970   3.629   7.373   1.633
 5344TIP3    H115971   3.556   7.313   1.647
 5344TIP3    H215972   3.702   7.335   1.684
 5345TIP3   OH215973   2.362   7.604   1.087
 5345TIP3    H115974   2.401   7.690   1.068
 5345TIP3    H215975   2.418   7.542   1.041
 5346TIP3   OH215976   2.285   6.869   1.230
 5346TIP3    H115977   2.287   6.965   1.228
 5346TIP3    H215978   2.217   6.845   1.168
 5347TIP3   OH215979   2.678   6.599   2.103
 5347TIP3    H115980   2.649   6.565   2.018
 5347TIP3    H215981   2.669   6.524   2.162
 5348TIP3   OH215982   2.514   7.706   2.780
 5348TIP3    H115983   2.564   7.625   2.769
 5348TIP3    H215984   2.449   7.704   2.709
 5349TIP3   OH215985   2.501   7.393   0.987
 5349TIP3    H115986   2.556   7.367   1.061
 5349TIP3    H215987   2.561   7.396   0.913
 5350TIP3   OH215988   3.117   7.797   2.547
 5350TIP3    H115989   3.090   7.826   2.460
 5350TIP3    H215990   3.153   7.709   2.532
 5351TIP3   OH215991   2.920   7.605   0.820
 5351TIP3    H115992   2.986   7.618   0.887
 5351TIP3    H215993   2.934   7.515   0.789
 5352TIP3   OH215994   3.580   7.861   2.086
 5352TIP3    H115995   3.665   7.898   2.060
 5352TIP3    H215996   3.559   7.905   2.169
 5353TIP3   OH215997   2.664   7.469   2.754
 5353TIP3    H115998   2.748   7.438   2.720
 5353TIP3    H215999   2.684   7.505   2.840
 5354TIP3   OH216000   2.686   7.317   1.176
 5354TIP3    H116001   2.657   7.274   1.257
 5354TIP3    H216002   2.723   7.246   1.123
 5355TIP3   OH216003   2.976   7.403   2.394
 5355TIP3    H116004   2.895   7.454   2.400
 5355TIP3    H216005   3.016   7.433   2.313
 5356TIP3   OH216006   2.798   7.130   1.008
 5356TIP3    H116007   2.774   7.127   0.915
 5356TIP3    H216008   2.893   7.140   1.007
 5357TIP3   OH216009   3.463   7.751   2.525
 5357TIP3    H116010   3.548   7.732   2.485
 5357TIP3    H216011   3.463   7.702   2.607
 5358TIP3   OH216012   3.540   7.497   0.754
 5358TIP3    H116013   3.586   7.464   0.677
 5358TIP3    H216014   3.482   7.565   0.719
 5359TIP3   OH216015   3.083   7.186   2.525
 5359TIP3    H116016   3.092   7.110   2.468
 5359TIP3    H216017   3.047   7.254   2.469
 5360TIP3   OH216018   3.094   6.981   2.327
 5360TIP3    H116019   3.123   7.018   2.243
 5360TIP3    H216020   3.004   6.954   2.311
 5361TIP3   OH216021   3.118   7.494   2.180
 5361TIP3    H116022   3.214   7.499   2.179
 5361TIP3    H216023   3.090   7.562   2.118
 5362TIP3   OH216024   3.701   7.473   2.582
 5362TIP3    H116025   3.753   7.392   2.589
 5362TIP3    H216026   3.766   7.543   2.576
 5363TIP3   OH216027   3.736   7.718   2.306
 5363TIP3    H116028   3.682   7.792   2.281
 5363TIP3    H216029   3.822   7.738   2.270
 5364TIP3   OH216030   2.948   7.284   2.752
 5364TIP3    H116031   2.894   7.209   2.778
 5364TIP3    H216032   2.992   7.255   2.672
 5365TIP3   OH216033   3.219   6.744   2.415
 5365TIP3    H116034   3.176   6.824   2.386
 5365TIP3    H216035   3.153   6.675   2.403
 5366TIP3   OH216036   3.348   7.226   2.622
 5366TIP3    H116037   3.348   7.218   2.717
 5366TIP3    H216038   3.259   7.204   2.595
 5367TIP3   OH216039   3.591   7.173   2.485
 5367TIP3    H116040   3.515   7.173   2.543
 5367TIP3    H216041   3.665   7.152   2.543
 5368TIP3   OH216042   3.826   7.139   2.635
 5368TIP3    H116043   3.840   7.044   2.644
 5368TIP3    H216044   3.819   7.171   2.725
 5369TIP3   OH216045   2.808   7.053   2.828
 5369TIP3    H116046   2.816   6.965   2.792
 5369TIP3    H216047   2.846   7.047   2.915
 5370TIP3   OH216048   3.288   6.737   2.681
 5370TIP3    H116049   3.360   6.673   2.681
 5370TIP3    H216050   3.259   6.740   2.590
 5371TIP3   OH216051   3.374   6.954   2.827
 5371TIP3    H116052   3.349   6.881   2.770
 5371TIP3    H216053   3.298   7.012   2.825
 5372TIP3   OH216054   2.100   7.532   1.142
 5372TIP3    H116055   2.185   7.565   1.112
 5372TIP3    H216056   2.082   7.457   1.084
 5373TIP3   OH216057   6.805   0.107   2.344
 5373TIP3    H116058   6.711   0.124   2.347
 5373TIP3    H216059   6.845   0.193   2.335
 5374TIP3   OH216060   3.736   7.660   1.067
 5374TIP3    H116061   3.784   7.743   1.059
 5374TIP3    H216062   3.785   7.611   1.134
 5375TIP3   OH216063   3.874   7.501   1.234
 5375TIP3    H116064   3.818   7.453   1.295
 5375TIP3    H216065   3.943   7.538   1.289
 5376TIP3   OH216066   3.907   7.893   1.611
 5376TIP3    H116067   3.983   7.835   1.601
 5376TIP3    H216068   3.927   7.967   1.554
 5377TIP3   OH216069   3.737   7.424   0.931
 5377TIP3    H116070   3.657   7.435   0.880
 5377TIP3    H216071   3.736   7.496   0.994
 5378TIP3   OH216072   3.630   7.096   0.931
 5378TIP3    H116073   3.645   7.139   0.847
 5378TIP3    H216074   3.623   7.003   0.910
 5379TIP3   OH216075   3.695   7.345   1.369
 5379TIP3    H116076   3.700   7.250   1.356
 5379TIP3    H216077   3.682   7.356   1.463
 5380TIP3   OH216078   2.325   7.407   2.125
 5380TIP3    H116079   2.316   7.379   2.034
 5380TIP3    H216080   2.419   7.418   2.137
 5381TIP3   OH216081   3.988   7.774   2.212
 5381TIP3    H116082   4.057   7.709   2.213
 5381TIP3    H216083   4.021   7.844   2.156
 5382TIP3   OH216084   4.173   7.582   2.256
 5382TIP3    H116085   4.097   7.531   2.285
 5382TIP3    H216086   4.244   7.518   2.250
 5383TIP3   OH216087   3.595   6.833   0.864
 5383TIP3    H116088   3.647   6.790   0.932
 5383TIP3    H216089   3.517   6.779   0.855
 5384TIP3   OH216090   3.700   7.080   1.268
 5384TIP3    H116091   3.737   6.992   1.280
 5384TIP3    H216092   3.754   7.120   1.201
 5385TIP3   OH216093   3.846   7.252   1.758
 5385TIP3    H116094   3.928   7.269   1.712
 5385TIP3    H216095   3.861   7.287   1.846
 5386TIP3   OH216096   3.924   7.399   1.983
 5386TIP3    H116097   3.853   7.433   2.038
 5386TIP3    H216098   3.954   7.475   1.934
 5387TIP3   OH216099   2.544   7.104   2.772
 5387TIP3    H116100   2.638   7.102   2.786
 5387TIP3    H216101   2.513   7.018   2.803
 5388TIP3   OH216102   4.379   7.003   2.531
 5388TIP3    H116103   4.442   6.942   2.492
 5388TIP3    H216104   4.343   7.051   2.457
 5389TIP3   OH216105   3.795   6.828   1.309
 5389TIP3    H116106   3.843   6.810   1.390
 5389TIP3    H216107   3.734   6.755   1.300
 5390TIP3   OH216108   2.509   6.819   2.119
 5390TIP3    H116109   2.563   6.740   2.125
 5390TIP3    H216110   2.571   6.890   2.105
 5391TIP3   OH216111   2.297   7.085   2.181
 5391TIP3    H116112   2.346   7.072   2.099
 5391TIP3    H216113   2.328   7.169   2.215
 5392TIP3   OH216114   4.234   7.123   2.335
 5392TIP3    H116115   4.157   7.163   2.374
 5392TIP3    H216116   4.200   7.052   2.281
 5393TIP3   OH216117   3.844   6.772   0.996
 5393TIP3    H116118   3.881   6.703   0.941
 5393TIP3    H216119   3.857   6.852   0.945
 5394TIP3   OH216120   2.285   6.597   1.691
 5394TIP3    H116121   2.196   6.582   1.723
 5394TIP3    H216122   2.273   6.649   1.612
 5395TIP3   OH216123   2.509   6.677   2.509
 5395TIP3    H116124   2.453   6.652   2.583
 5395TIP3    H216125   2.449   6.713   2.444
 5396TIP3   OH216126   4.142   6.874   2.226
 5396TIP3    H116127   4.053   6.861   2.195
 5396TIP3    H216128   4.182   6.787   2.220
 5397TIP3   OH216129   3.322   6.778   1.830
 5397TIP3    H116130   3.297   6.712   1.894
 5397TIP3    H216131   3.406   6.748   1.796
 5398TIP3   OH216132   3.857   6.700   1.751
 5398TIP3    H116133   3.896   6.750   1.679
 5398TIP3    H216134   3.764   6.726   1.750
 5399TIP3   OH216135   3.968   6.789   1.519
 5399TIP3    H116136   4.038   6.731   1.487
 5399TIP3    H216137   4.001   6.877   1.503
 5400TIP3   OH216138   2.591   6.499   1.859
 5400TIP3    H116139   2.501   6.467   1.866
 5400TIP3    H216140   2.645   6.419   1.853
 5401TIP3   OH216141   2.401   6.398   1.513
 5401TIP3    H116142   2.430   6.449   1.437
 5401TIP3    H216143   2.369   6.464   1.575
 5402TIP3   OH216144   3.057   6.543   1.748
 5402TIP3    H116145   3.108   6.587   1.681
 5402TIP3    H216146   3.099   6.566   1.830
 5403TIP3   OH216147   3.568   6.692   1.731
 5403TIP3    H116148   3.583   6.659   1.643
 5403TIP3    H216149   3.570   6.613   1.786
 5404TIP3   OH216150   3.609   6.621   1.303
 5404TIP3    H116151   3.528   6.669   1.321
 5404TIP3    H216152   3.597   6.536   1.346
 5405TIP3   OH216153   2.518   6.531   1.279
 5405TIP3    H116154   2.563   6.469   1.221
 5405TIP3    H216155   2.587   6.588   1.312
 5406TIP3   OH216156   3.008   6.729   1.374
 5406TIP3    H116157   3.066   6.676   1.429
 5406TIP3    H216158   3.026   6.819   1.401
 5407TIP3   OH216159   2.813   6.780   2.743
 5407TIP3    H116160   2.779   6.713   2.803
 5407TIP3    H216161   2.906   6.786   2.765
 5408TIP3   OH216162   3.065   6.785   2.858
 5408TIP3    H116163   3.144   6.767   2.807
 5408TIP3    H216164   3.063   6.716   2.925
 5409TIP3   OH216165   3.888   6.869   2.654
 5409TIP3    H116166   3.902   6.838   2.744
 5409TIP3    H216167   3.973   6.862   2.612
 5410TIP3   OH216168   4.935   7.839   0.914
 5410TIP3    H116169   5.017   7.880   0.939
 5410TIP3    H216170   4.942   7.826   0.819
 5411TIP3   OH216171   5.036   7.743   1.329
 5411TIP3    H116172   5.095   7.754   1.404
 5411TIP3    H216173   4.998   7.656   1.341
 5412TIP3   OH216174   4.474   7.744   1.775
 5412TIP3    H116175   4.454   7.652   1.792
 5412TIP3    H216176   4.494   7.748   1.682
 5413TIP3   OH216177   8.136   0.037   0.903
 5413TIP3    H116178   8.211  -0.010   0.940
 5413TIP3    H216179   8.160   0.129   0.911
 5414TIP3   OH216180   4.403   8.013   1.466
 5414TIP3    H116181   4.368   7.932   1.430
 5414TIP3    H216182   4.474   8.038   1.407
 5415TIP3   OH216183   4.061   7.296   1.190
 5415TIP3    H116184   4.019   7.378   1.217
 5415TIP3    H216185   3.988   7.237   1.168
 5416TIP3   OH216186   4.109   7.567   1.357
 5416TIP3    H116187   4.164   7.496   1.391
 5416TIP3    H216188   4.171   7.627   1.316
 5417TIP3   OH216189   4.889   7.983   1.364
 5417TIP3    H116190   4.945   7.909   1.340
 5417TIP3    H216191   4.949   8.053   1.389
 5418TIP3   OH216192   5.886   7.324   1.413
 5418TIP3    H116193   5.921   7.402   1.456
 5418TIP3    H216194   5.859   7.354   1.326
 5419TIP3   OH216195   5.320   7.510   1.400
 5419TIP3    H116196   5.385   7.440   1.408
 5419TIP3    H216197   5.275   7.492   1.318
 5420TIP3   OH216198   4.633   7.149   1.357
 5420TIP3    H116199   4.619   7.222   1.297
 5420TIP3    H216200   4.583   7.077   1.319
 5421TIP3   OH216201   5.359   7.259   0.940
 5421TIP3    H116202   5.431   7.257   1.003
 5421TIP3    H216203   5.341   7.352   0.928
 5422TIP3   OH216204   4.272   7.374   1.462
 5422TIP3    H116205   4.354   7.353   1.507
 5422TIP3    H216206   4.272   7.317   1.384
 5423TIP3   OH216207   4.700   7.567   1.315
 5423TIP3    H116208   4.786   7.533   1.338
 5423TIP3    H216209   4.649   7.490   1.292
 5424TIP3   OH216210   5.972   7.547   1.550
 5424TIP3    H116211   5.883   7.583   1.545
 5424TIP3    H216212   5.993   7.546   1.643
 5425TIP3   OH216213   4.629   7.151   1.778
 5425TIP3    H116214   4.577   7.187   1.706
 5425TIP3    H216215   4.575   7.164   1.856
 5426TIP3   OH216216   7.750   0.068   0.778
 5426TIP3    H116217   7.709  -0.014   0.748
 5426TIP3    H216218   7.755   0.059   0.873
 5427TIP3   OH216219   4.732   7.929   1.583
 5427TIP3    H116220   4.682   8.007   1.609
 5427TIP3    H216221   4.790   7.959   1.513
 5428TIP3   OH216222   5.529   7.332   1.363
 5428TIP3    H116223   5.520   7.264   1.296
 5428TIP3    H216224   5.597   7.390   1.329
 5429TIP3   OH216225   4.509   7.272   1.562
 5429TIP3    H116226   4.570   7.343   1.582
 5429TIP3    H216227   4.551   7.222   1.493
 5430TIP3   OH216228   7.380   0.116   1.666
 5430TIP3    H116229   7.329   0.081   1.593
 5430TIP3    H216230   7.321   0.176   1.710
 5431TIP3   OH216231   3.995   7.777   1.038
 5431TIP3    H116232   3.971   7.752   0.949
 5431TIP3    H216233   3.981   7.872   1.041
 5432TIP3   OH216234   5.688   7.212   1.554
 5432TIP3    H116235   5.608   7.245   1.512
 5432TIP3    H216236   5.758   7.239   1.494
 5433TIP3   OH216237   4.967   6.841   1.513
 5433TIP3    H116238   4.961   6.748   1.537
 5433TIP3    H216239   4.891   6.881   1.555
 5434TIP3   OH216240   8.407   0.231   1.530
 5434TIP3    H116241   8.343   0.193   1.469
 5434TIP3    H216242   8.425   0.319   1.494
 5435TIP3   OH216243   4.865   7.590   0.715
 5435TIP3    H116244   4.802   7.662   0.722
 5435TIP3    H216245   4.910   7.605   0.631
 5436TIP3   OH216246   5.805   7.901   1.369
 5436TIP3    H116247   5.712   7.918   1.355
 5436TIP3    H216248   5.846   7.916   1.284
 5437TIP3   OH216249   5.265   7.675   0.636
 5437TIP3    H116250   5.219   7.756   0.657
 5437TIP3    H216251   5.345   7.677   0.689
 5438TIP3   OH216252   5.474   7.755   1.641
 5438TIP3    H116253   5.479   7.829   1.701
 5438TIP3    H216254   5.396   7.771   1.589
 5439TIP3   OH216255   4.482   7.692   1.167
 5439TIP3    H116256   4.437   7.624   1.117
 5439TIP3    H216257   4.567   7.654   1.188
 5440TIP3   OH216258   7.463   0.075   1.332
 5440TIP3    H116259   7.461   0.138   1.260
 5440TIP3    H216260   7.556   0.060   1.348
 5441TIP3   OH216261   4.588   7.708   1.518
 5441TIP3    H116262   4.628   7.669   1.440
 5441TIP3    H216263   4.641   7.786   1.535
 5442TIP3   OH216264   7.581   0.142   1.852
 5442TIP3    H116265   7.646   0.199   1.811
 5442TIP3    H216266   7.513   0.131   1.785
 5443TIP3   OH216267   4.344   7.528   1.009
 5443TIP3    H116268   4.301   7.597   0.959
 5443TIP3    H216269   4.315   7.446   0.968
 5444TIP3   OH216270   5.736   7.698   1.833
 5444TIP3    H116271   5.672   7.711   1.762
 5444TIP3    H216272   5.755   7.604   1.831
 5445TIP3   OH216273   4.735   6.939   1.629
 5445TIP3    H116274   4.651   6.909   1.595
 5445TIP3    H216275   4.714   7.020   1.676
 5446TIP3   OH216276   5.284   7.061   1.831
 5446TIP3    H116277   5.357   7.031   1.885
 5446TIP3    H216278   5.206   7.032   1.878
 5447TIP3   OH216279   5.498   7.496   1.737
 5447TIP3    H116280   5.458   7.493   1.824
 5447TIP3    H216281   5.477   7.583   1.703
 5448TIP3   OH216282   4.815   6.994   0.607
 5448TIP3    H116283   4.827   6.983   0.701
 5448TIP3    H216284   4.794   6.907   0.575
 5449TIP3   OH216285   4.676   7.477   1.645
 5449TIP3    H116286   4.626   7.479   1.727
 5449TIP3    H216287   4.653   7.559   1.601
 5450TIP3   OH216288   4.539   7.373   1.223
 5450TIP3    H116289   4.451   7.341   1.242
 5450TIP3    H216290   4.553   7.351   1.131
 5451TIP3   OH216291   5.253   7.500   0.871
 5451TIP3    H116292   5.167   7.537   0.891
 5451TIP3    H216293   5.265   7.515   0.777
 5452TIP3   OH216294   5.239   7.695   1.969
 5452TIP3    H116295   5.216   7.623   2.028
 5452TIP3    H216296   5.332   7.711   1.985
 5453TIP3   OH216297   5.080   7.397   1.138
 5453TIP3    H116298   5.112   7.438   1.058
 5453TIP3    H216299   5.147   7.333   1.161
 5454TIP3   OH216300   4.519   7.483   1.870
 5454TIP3    H116301   4.575   7.512   1.942
 5454TIP3    H216302   4.484   7.399   1.900
 5455TIP3   OH216303   4.429   6.911   0.646
 5455TIP3    H116304   4.513   6.900   0.692
 5455TIP3    H216305   4.423   7.005   0.630
 5456TIP3   OH216306   4.092   7.017   1.433
 5456TIP3    H116307   4.166   7.044   1.487
 5456TIP3    H216308   4.131   6.965   1.363
 5457TIP3   OH216309   4.082   7.032   1.030
 5457TIP3    H116310   4.091   7.028   0.935
 5457TIP3    H216311   3.998   7.075   1.045
 5458TIP3   OH216312   5.181   7.684   1.560
 5458TIP3    H116313   5.235   7.628   1.505
 5458TIP3    H216314   5.163   7.632   1.638
 5459TIP3   OH216315   4.895   7.196   1.281
 5459TIP3    H116316   4.821   7.159   1.330
 5459TIP3    H216317   4.970   7.142   1.307
 5460TIP3   OH216318   4.317   7.217   1.244
 5460TIP3    H116319   4.226   7.210   1.218
 5460TIP3    H216320   4.351   7.127   1.239
 5461TIP3   OH216321   4.561   7.265   0.978
 5461TIP3    H116322   4.656   7.263   0.987
 5461TIP3    H216323   4.544   7.335   0.915
 5462TIP3   OH216324   5.303   7.152   1.492
 5462TIP3    H116325   5.293   7.216   1.562
 5462TIP3    H216326   5.301   7.204   1.411
 5463TIP3   OH216327   4.420   7.334   0.743
 5463TIP3    H116328   4.371   7.252   0.750
 5463TIP3    H216329   4.480   7.320   0.671
 5464TIP3   OH216330   4.526   7.991   2.019
 5464TIP3    H116331   4.595   8.047   2.055
 5464TIP3    H216332   4.453   7.999   2.080
 5465TIP3   OH216333   4.952   7.486   1.359
 5465TIP3    H116334   4.989   7.436   1.286
 5465TIP3    H216335   4.963   7.430   1.435
 5466TIP3   OH216336   4.451   6.980   1.243
 5466TIP3    H116337   4.424   6.899   1.288
 5466TIP3    H216338   4.485   6.950   1.159
 5467TIP3   OH216339   4.939   7.389   1.617
 5467TIP3    H116340   4.854   7.432   1.626
 5467TIP3    H216341   5.000   7.446   1.664
 5468TIP3   OH216342   4.699   7.801   0.726
 5468TIP3    H116343   4.641   7.748   0.672
 5468TIP3    H216344   4.651   7.815   0.807
 5469TIP3   OH216345   5.559   7.967   1.303
 5469TIP3    H116346   5.574   8.024   1.228
 5469TIP3    H216347   5.475   7.997   1.340
 5470TIP3   OH216348   7.876   0.056   1.748
 5470TIP3    H116349   7.961   0.074   1.787
 5470TIP3    H216350   7.881   0.092   1.659
 5471TIP3   OH216351   4.345   7.750   1.392
 5471TIP3    H116352   4.376   7.742   1.302
 5471TIP3    H216353   4.420   7.725   1.446
 5472TIP3   OH216354   4.997   7.816   1.984
 5472TIP3    H116355   4.972   7.833   1.893
 5472TIP3    H216356   5.086   7.781   1.978
 5473TIP3   OH216357   0.187   0.243   1.603
 5473TIP3    H116358   0.094   0.261   1.610
 5473TIP3    H216359   0.225   0.325   1.571
 5474TIP3   OH216360   5.306   7.860   1.342
 5474TIP3    H116361   5.237   7.925   1.323
 5474TIP3    H216362   5.287   7.788   1.282
 5475TIP3   OH216363   4.101   7.380   0.631
 5475TIP3    H116364   4.177   7.439   0.627
 5475TIP3    H216365   4.050   7.413   0.706
 5476TIP3   OH216366   4.552   7.844   0.947
 5476TIP3    H116367   4.621   7.884   1.000
 5476TIP3    H216368   4.510   7.782   1.007
 5477TIP3   OH216369   4.458   7.230   1.982
 5477TIP3    H116370   4.363   7.237   1.989
 5477TIP3    H216371   4.484   7.179   2.059
 5478TIP3   OH216372   4.218   7.729   0.875
 5478TIP3    H116373   4.161   7.759   0.946
 5478TIP3    H216374   4.197   7.786   0.801
 5479TIP3   OH216375   5.288   7.311   1.714
 5479TIP3    H116376   5.377   7.346   1.722
 5479TIP3    H216377   5.292   7.226   1.758
 5480TIP3   OH216378   5.135   7.115   0.930
 5480TIP3    H116379   5.081   7.179   0.884
 5480TIP3    H216380   5.220   7.157   0.940
 5481TIP3   OH216381   4.830   7.263   1.027
 5481TIP3    H116382   4.909   7.302   0.990
 5481TIP3    H216383   4.853   7.242   1.118
 5482TIP3   OH216384   5.127   7.522   1.773
 5482TIP3    H116385   5.171   7.573   1.841
 5482TIP3    H216386   5.183   7.446   1.760
 5483TIP3   OH216387   5.004   6.952   1.099
 5483TIP3    H116388   5.043   6.974   1.183
 5483TIP3    H216389   5.058   6.999   1.035
 5484TIP3   OH216390   4.513   6.899   0.999
 5484TIP3    H116391   4.458   6.966   0.957
 5484TIP3    H216392   4.570   6.867   0.928
 5485TIP3   OH216393   5.757   7.423   1.732
 5485TIP3    H116394   5.665   7.447   1.738
 5485TIP3    H216395   5.759   7.348   1.672
 5486TIP3   OH216396   5.479   7.480   1.080
 5486TIP3    H116397   5.408   7.542   1.097
 5486TIP3    H216398   5.555   7.518   1.122
 5487TIP3   OH216399   4.148   7.832   0.618
 5487TIP3    H116400   4.168   7.926   0.612
 5487TIP3    H216401   4.220   7.790   0.571
 5488TIP3   OH216402   4.090   7.128   0.769
 5488TIP3    H116403   4.135   7.192   0.826
 5488TIP3    H216404   4.014   7.175   0.735
 5489TIP3   OH216405   4.472   6.857   1.594
 5489TIP3    H116406   4.442   6.823   1.509
 5489TIP3    H216407   4.466   6.783   1.653
 5490TIP3   OH216408   4.319   7.999   2.206
 5490TIP3    H116409   4.336   7.908   2.230
 5490TIP3    H216410   4.228   7.999   2.177
 5491TIP3   OH216411   7.755   0.075   2.052
 5491TIP3    H116412   7.711   0.091   1.969
 5491TIP3    H216413   7.824   0.011   2.031
 5492TIP3   OH216414   8.184   0.109   1.661
 5492TIP3    H116415   8.253   0.168   1.629
 5492TIP3    H216416   8.111   0.122   1.600
 5493TIP3   OH216417   4.490   7.753   2.205
 5493TIP3    H116418   4.526   7.666   2.222
 5493TIP3    H216419   4.494   7.798   2.289
 5494TIP3   OH216420   4.570   7.598   0.604
 5494TIP3    H116421   4.572   7.556   0.690
 5494TIP3    H216422   4.627   7.544   0.550
 5495TIP3   OH216423   4.729   7.727   1.918
 5495TIP3    H116424   4.793   7.728   1.989
 5495TIP3    H216425   4.781   7.726   1.838
 5496TIP3   OH216426   8.105   0.037   2.016
 5496TIP3    H116427   8.173   0.010   1.954
 5496TIP3    H216428   8.113  -0.024   2.089
 5497TIP3   OH216429   4.875   7.440   2.002
 5497TIP3    H116430   4.885   7.352   1.966
 5497TIP3    H216431   4.885   7.498   1.926
 5498TIP3   OH216432   4.889   7.221   1.829
 5498TIP3    H116433   4.921   7.260   1.748
 5498TIP3    H216434   4.799   7.196   1.809
 5499TIP3   OH216435   4.914   7.770   1.716
 5499TIP3    H116436   5.000   7.769   1.673
 5499TIP3    H216437   4.865   7.839   1.671
 5500TIP3   OH216438   5.500   7.725   2.068
 5500TIP3    H116439   5.540   7.638   2.073
 5500TIP3    H216440   5.569   7.781   2.033
 5501TIP3   OH216441   5.513   7.975   1.819
 5501TIP3    H116442   5.453   8.029   1.767
 5501TIP3    H216443   5.600   7.992   1.780
 5502TIP3   OH216444   4.753   7.535   2.236
 5502TIP3    H116445   4.693   7.466   2.265
 5502TIP3    H216446   4.791   7.501   2.155
 5503TIP3   OH216447   5.018   6.990   1.908
 5503TIP3    H116448   4.977   7.071   1.878
 5503TIP3    H216449   4.952   6.923   1.892
 5504TIP3   OH216450   5.142   7.482   2.111
 5504TIP3    H116451   5.137   7.471   2.206
 5504TIP3    H216452   5.055   7.459   2.079
 5505TIP3   OH216453   5.394   7.445   1.981
 5505TIP3    H116454   5.317   7.434   2.037
 5505TIP3    H216455   5.467   7.414   2.035
 5506TIP3   OH216456   5.626   7.395   2.127
 5506TIP3    H116457   5.638   7.301   2.135
 5506TIP3    H216458   5.619   7.427   2.217
 5507TIP3   OH216459   4.605   7.309   2.311
 5507TIP3    H116460   4.609   7.220   2.277
 5507TIP3    H216461   4.641   7.303   2.399
 5508TIP3   OH216462   5.090   6.990   2.171
 5508TIP3    H116463   5.162   6.926   2.168
 5508TIP3    H216464   5.058   6.994   2.081
 5509TIP3   OH216465   5.171   7.210   2.314
 5509TIP3    H116466   5.147   7.136   2.258
 5509TIP3    H216467   5.095   7.268   2.311
 5510TIP3   OH216468   3.873   7.798   0.466
 5510TIP3    H116469   3.823   7.880   0.468
 5510TIP3    H216470   3.827   7.741   0.528
 5511TIP3   OH216471   0.105   0.391   1.872
 5511TIP3    H116472   0.032   0.387   1.932
 5511TIP3    H216473   0.136   0.482   1.878
 5512TIP3   OH216474   8.474   0.103   1.095
 5512TIP3    H116475   8.554   0.122   1.046
 5512TIP3    H216476   8.413   0.172   1.067
 5513TIP3   OH216477   5.455   7.713   0.835
 5513TIP3    H116478   5.538   7.665   0.845
 5513TIP3    H216479   5.454   7.775   0.908
 5514TIP3   OH216480   4.120   7.718   1.587
 5514TIP3    H116481   4.097   7.660   1.515
 5514TIP3    H216482   4.205   7.754   1.561
 5515TIP3   OH216483   0.099   0.007   1.719
 5515TIP3    H116484   0.166  -0.061   1.713
 5515TIP3    H216485   0.131   0.078   1.663
 5516TIP3   OH216486   5.957   7.825   1.730
 5516TIP3    H116487   5.883   7.775   1.765
 5516TIP3    H216488   6.034   7.771   1.750
 5517TIP3   OH216489   5.522   7.227   0.546
 5517TIP3    H116490   5.524   7.204   0.639
 5517TIP3    H216491   5.497   7.319   0.544
 5518TIP3   OH216492   5.715   7.495   1.254
 5518TIP3    H116493   5.788   7.537   1.207
 5518TIP3    H216494   5.666   7.567   1.292
 5519TIP3   OH216495   5.739   7.682   1.527
 5519TIP3    H116496   5.643   7.686   1.533
 5519TIP3    H216497   5.762   7.755   1.469
 5520TIP3   OH216498   4.340   7.363   2.253
 5520TIP3    H116499   4.433   7.362   2.272
 5520TIP3    H216500   4.306   7.282   2.291
 5521TIP3   OH216501   6.170   7.260   2.016
 5521TIP3    H116502   6.234   7.195   1.986
 5521TIP3    H216503   6.142   7.305   1.936
 5522TIP3   OH216504   5.578   7.106   0.797
 5522TIP3    H116505   5.615   7.054   0.868
 5522TIP3    H216506   5.490   7.070   0.784
 5523TIP3   OH216507   4.302   7.075   1.605
 5523TIP3    H116508   4.358   6.998   1.611
 5523TIP3    H216509   4.363   7.149   1.597
 5524TIP3   OH216510   4.088   7.341   1.670
 5524TIP3    H116511   4.148   7.345   1.595
 5524TIP3    H216512   4.102   7.424   1.716
 5525TIP3   OH216513   6.029   7.380   1.813
 5525TIP3    H116514   5.952   7.416   1.858
 5525TIP3    H216515   5.996   7.303   1.767
 5526TIP3   OH216516   4.073   6.830   1.210
 5526TIP3    H116517   3.979   6.822   1.224
 5526TIP3    H216518   4.082   6.900   1.146
 5527TIP3   OH216519   4.300   6.919   1.993
 5527TIP3    H116520   4.250   6.913   2.074
 5527TIP3    H216521   4.240   6.963   1.931
 5528TIP3   OH216522   5.933   7.122   1.725
 5528TIP3    H116523   5.844   7.113   1.692
 5528TIP3    H216524   5.970   7.034   1.722
 5529TIP3   OH216525   5.095   7.016   1.344
 5529TIP3    H116526   5.066   6.954   1.411
 5529TIP3    H216527   5.189   7.027   1.361
 5530TIP3   OH216528   5.648   6.984   1.305
 5530TIP3    H116529   5.682   7.046   1.241
 5530TIP3    H216530   5.555   7.003   1.312
 5531TIP3   OH216531   5.736   6.992   0.999
 5531TIP3    H116532   5.795   6.926   0.963
 5531TIP3    H216533   5.792   7.067   1.019
 5532TIP3   OH216534   4.377   6.749   1.361
 5532TIP3    H116535   4.288   6.713   1.367
 5532TIP3    H216536   4.433   6.672   1.351
 5533TIP3   OH216537   4.159   6.628   1.041
 5533TIP3    H116538   4.190   6.677   0.965
 5533TIP3    H216539   4.134   6.696   1.104
 5534TIP3   OH216540   4.835   6.811   1.260
 5534TIP3    H116541   4.873   6.866   1.191
 5534TIP3    H216542   4.884   6.834   1.339
 5535TIP3   OH216543   5.368   6.975   1.268
 5535TIP3    H116544   5.382   6.951   1.177
 5535TIP3    H216545   5.350   6.892   1.312
 5536TIP3   OH216546   5.515   6.818   0.764
 5536TIP3    H116547   5.431   6.852   0.734
 5536TIP3    H216548   5.493   6.770   0.844
 5537TIP3   OH216549   4.261   6.763   0.824
 5537TIP3    H116550   4.316   6.699   0.780
 5537TIP3    H216551   4.315   6.843   0.826
 5538TIP3   OH216552   4.830   7.024   0.884
 5538TIP3    H116553   4.881   6.964   0.939
 5538TIP3    H216554   4.835   7.108   0.930
 5539TIP3   OH216555   4.609   7.037   2.228
 5539TIP3    H116556   4.572   6.971   2.287
 5539TIP3    H216557   4.702   7.042   2.253
 5540TIP3   OH216558   4.860   7.040   2.348
 5540TIP3    H116559   4.940   7.020   2.300
 5540TIP3    H216560   4.853   6.972   2.414
 5541TIP3   OH216561   5.680   7.124   2.144
 5541TIP3    H116562   5.697   7.092   2.233
 5541TIP3    H216563   5.765   7.121   2.101
 5542TIP3   OH216564   6.216   7.918   1.057
 5542TIP3    H116565   6.217   7.951   1.147
 5542TIP3    H216566   6.170   7.986   1.007
 5543TIP3   OH216567   6.081   7.607   0.839
 5543TIP3    H116568   6.109   7.612   0.931
 5543TIP3    H216569   6.107   7.520   0.811
 5544TIP3   OH216570   6.385   7.446   1.265
 5544TIP3    H116571   6.326   7.427   1.191
 5544TIP3    H216572   6.327   7.447   1.341
 5545TIP3   OH216573   6.274   7.450   1.013
 5545TIP3    H116574   6.251   7.537   1.046
 5545TIP3    H216575   6.348   7.465   0.955
 5546TIP3   OH216576   6.780   7.197   0.978
 5546TIP3    H116577   6.747   7.137   0.910
 5546TIP3    H216578   6.712   7.196   1.045
 5547TIP3   OH216579   0.680   0.097   1.515
 5547TIP3    H116580   0.593   0.098   1.554
 5547TIP3    H216581   0.675   0.028   1.448
 5548TIP3   OH216582   0.364   0.199   1.349
 5548TIP3    H116583   0.278   0.202   1.308
 5548TIP3    H216584   0.353   0.141   1.424
 5549TIP3   OH216585   6.558   7.249   1.164
 5549TIP3    H116586   6.507   7.181   1.121
 5549TIP3    H216587   6.494   7.299   1.215
 5550TIP3   OH216588   7.101   7.272   1.316
 5550TIP3    H116589   7.147   7.304   1.394
 5550TIP3    H216590   7.015   7.312   1.321
 5551TIP3   OH216591   6.436   7.736   1.188
 5551TIP3    H116592   6.379   7.739   1.265
 5551TIP3    H216593   6.452   7.828   1.167
 5552TIP3   OH216594   6.310   7.734   1.435
 5552TIP3    H116595   6.335   7.782   1.514
 5552TIP3    H216596   6.284   7.647   1.467
 5553TIP3   OH216597   5.906   7.374   0.910
 5553TIP3    H116598   5.924   7.281   0.899
 5553TIP3    H216599   5.825   7.389   0.861
 5554TIP3   OH216600   6.017   7.991   1.516
 5554TIP3    H116601   6.023   7.947   1.601
 5554TIP3    H216602   5.939   7.954   1.475
 5555TIP3   OH216603   6.242   7.477   1.504
 5555TIP3    H116604   6.147   7.484   1.518
 5555TIP3    H216605   6.271   7.413   1.569
 5556TIP3   OH216606   6.399   7.088   1.036
 5556TIP3    H116607   6.321   7.073   0.982
 5556TIP3    H216608   6.407   7.008   1.088
 5557TIP3   OH216609   0.438   0.241   1.729
 5557TIP3    H116610   0.466   0.150   1.734
 5557TIP3    H216611   0.350   0.237   1.690
 5558TIP3   OH216612   6.228   8.005   1.747
 5558TIP3    H116613   6.315   7.992   1.708
 5558TIP3    H216614   6.247   8.040   1.834
 5559TIP3   OH216615   6.740   7.700   1.612
 5559TIP3    H116616   6.827   7.676   1.579
 5559TIP3    H216617   6.679   7.658   1.552
 5560TIP3   OH216618   6.661   7.520   1.174
 5560TIP3    H116619   6.661   7.574   1.095
 5560TIP3    H216620   6.569   7.518   1.202
 5561TIP3   OH216621   6.523   7.816   1.738
 5561TIP3    H116622   6.472   7.742   1.769
 5561TIP3    H216623   6.601   7.777   1.698
 5562TIP3   OH216624   6.843   7.366   1.310
 5562TIP3    H116625   6.787   7.428   1.264
 5562TIP3    H216626   6.814   7.279   1.281
 5563TIP3   OH216627   6.408   7.570   1.805
 5563TIP3    H116628   6.410   7.483   1.765
 5563TIP3    H216629   6.443   7.556   1.893
 5564TIP3   OH216630   6.976   7.298   1.601
 5564TIP3    H116631   7.049   7.235   1.603
 5564TIP3    H216632   6.901   7.246   1.574
 5565TIP3   OH216633   6.997   7.460   1.820
 5565TIP3    H116634   6.987   7.407   1.741
 5565TIP3    H216635   6.916   7.510   1.826
 5566TIP3   OH216636   5.922   7.968   1.129
 5566TIP3    H116637   5.921   7.930   1.041
 5566TIP3    H216638   6.015   7.974   1.151
 5567TIP3   OH216639   6.143   7.630   1.780
 5567TIP3    H116640   6.239   7.624   1.786
 5567TIP3    H216641   6.111   7.545   1.810
 5568TIP3   OH216642   6.129   7.233   1.053
 5568TIP3    H116643   6.168   7.191   1.130
 5568TIP3    H216644   6.193   7.299   1.027
 5569TIP3   OH216645   5.867   7.685   1.135
 5569TIP3    H116646   5.945   7.659   1.087
 5569TIP3    H216647   5.901   7.721   1.217
 5570TIP3   OH216648   6.098   7.189   1.514
 5570TIP3    H116649   6.050   7.166   1.593
 5570TIP3    H216650   6.033   7.227   1.455
 5571TIP3   OH216651   6.190   6.981   0.916
 5571TIP3    H116652   6.117   6.923   0.893
 5571TIP3    H216653   6.259   6.960   0.853
 5572TIP3   OH216654   6.390   7.297   1.730
 5572TIP3    H116655   6.361   7.237   1.798
 5572TIP3    H216656   6.485   7.301   1.740
 5573TIP3   OH216657   6.639   7.294   1.843
 5573TIP3    H116658   6.733   7.292   1.824
 5573TIP3    H216659   6.627   7.229   1.912
 5574TIP3   OH216660   1.857   0.515   5.762
 5574TIP3    H116661   1.861   0.448   5.830
 5574TIP3    H216662   1.881   0.596   5.806
 5575TIP3   OH216663   1.514   0.951   5.783
 5575TIP3    H116664   1.559   0.888   5.726
 5575TIP3    H216665   1.507   0.906   5.867
 5576TIP3   OH216666   8.105   7.968   6.354
 5576TIP3    H116667   8.022   7.982   6.308
 5576TIP3    H216668   8.148   8.053   6.355
 5577TIP3   OH216669   1.514   0.444   5.526
 5577TIP3    H116670   1.453   0.385   5.481
 5577TIP3    H216671   1.465   0.525   5.538
 5578TIP3   OH216672   1.889   0.761   5.906
 5578TIP3    H116673   1.797   0.751   5.931
 5578TIP3    H216674   1.891   0.844   5.857
 5579TIP3   OH216675   1.629   0.798   5.586
 5579TIP3    H116676   1.680   0.719   5.570
 5579TIP3    H216677   1.679   0.868   5.542
 5580TIP3   OH216678   1.761   0.572   5.508
 5580TIP3    H116679   1.688   0.510   5.500
 5580TIP3    H216680   1.809   0.543   5.585
 5581TIP3   OH216681   2.133   0.659   6.249
 5581TIP3    H116682   2.121   0.582   6.193
 5581TIP3    H216683   2.115   0.734   6.192
 5582TIP3   OH216684   2.323   0.307   6.112
 5582TIP3    H116685   2.240   0.355   6.113
 5582TIP3    H216686   2.356   0.317   6.023
 5583TIP3   OH216687   1.788   0.159   5.498
 5583TIP3    H116688   1.724   0.193   5.561
 5583TIP3    H216689   1.856   0.120   5.552
 5584TIP3   OH216690   1.635   0.752   6.008
 5584TIP3    H116691   1.634   0.829   6.065
 5584TIP3    H216692   1.644   0.678   6.068
 5585TIP3   OH216693   1.379   0.689   5.541
 5585TIP3    H116694   1.458   0.731   5.576
 5585TIP3    H216695   1.316   0.760   5.532
 5586TIP3   OH216696   1.936   0.599   4.908
 5586TIP3    H116697   1.935   0.694   4.895
 5586TIP3    H216698   2.025   0.572   4.884
 5587TIP3   OH216699   2.364   1.006   6.304
 5587TIP3    H116700   2.370   0.911   6.317
 5587TIP3    H216701   2.283   1.031   6.349
 5588TIP3   OH216702   1.487   0.816   6.413
 5588TIP3    H116703   1.473   0.907   6.443
 5588TIP3    H216704   1.432   0.764   6.471
 5589TIP3   OH216705   1.232   0.913   5.388
 5589TIP3    H116706   1.178   0.905   5.309
 5589TIP3    H216707   1.203   0.995   5.429
 5590TIP3   OH216708   1.454   0.823   5.031
 5590TIP3    H116709   1.512   0.755   4.996
 5590TIP3    H216710   1.483   0.834   5.122
 5591TIP3   OH216711   1.490   0.867   5.301
 5591TIP3    H116712   1.401   0.876   5.337
 5591TIP3    H216713   1.535   0.809   5.362
 5592TIP3   OH216714   2.248   0.140   6.590
 5592TIP3    H116715   2.174   0.200   6.584
 5592TIP3    H216716   2.211   0.054   6.566
 5593TIP3   OH216717   7.388   7.973   5.074
 5593TIP3    H116718   7.329   7.976   4.999
 5593TIP3    H216719   7.437   8.055   5.069
 5594TIP3   OH216720   2.079   1.356   6.401
 5594TIP3    H116721   2.079   1.371   6.307
 5594TIP3    H216722   2.158   1.400   6.433
 5595TIP3   OH216723   2.085   0.447   6.080
 5595TIP3    H116724   2.128   0.493   6.007
 5595TIP3    H216725   2.009   0.405   6.041
 5596TIP3   OH216726   1.382   0.406   5.207
 5596TIP3    H116727   1.322   0.470   5.245
 5596TIP3    H216728   1.345   0.321   5.231
 5597TIP3   OH216729   1.761   0.796   6.380
 5597TIP3    H116730   1.666   0.799   6.375
 5597TIP3    H216731   1.782   0.834   6.465
 5598TIP3   OH216732   7.862   7.874   5.231
 5598TIP3    H116733   7.795   7.819   5.190
 5598TIP3    H216734   7.842   7.963   5.201
 5599TIP3   OH216735   2.384   0.727   6.333
 5599TIP3    H116736   2.290   0.713   6.334
 5599TIP3    H216737   2.412   0.697   6.247
 5600TIP3   OH216738   1.847   0.667   5.179
 5600TIP3    H116739   1.842   0.604   5.251
 5600TIP3    H216740   1.885   0.617   5.106
 5601TIP3   OH216741   1.872   0.315   5.964
 5601TIP3    H116742   1.786   0.305   6.005
 5601TIP3    H216743   1.895   0.227   5.934
 5602TIP3   OH216744   1.273   0.911   6.254
 5602TIP3    H116745   1.306   0.961   6.180
 5602TIP3    H216746   1.350   0.864   6.287
 5603TIP3   OH216747   1.704   0.545   6.187
 5603TIP3    H116748   1.662   0.542   6.272
 5603TIP3    H216749   1.798   0.536   6.206
 5604TIP3   OH216750   1.630   0.408   5.086
 5604TIP3    H116751   1.695   0.375   5.150
 5604TIP3    H216752   1.548   0.412   5.135
 5605TIP3   OH216753   1.884   1.043   6.248
 5605TIP3    H116754   1.812   0.981   6.250
 5605TIP3    H216755   1.866   1.098   6.172
 5606TIP3   OH216756   1.949   0.880   4.887
 5606TIP3    H116757   1.999   0.958   4.861
 5606TIP3    H216758   1.868   0.914   4.923
 5607TIP3   OH216759   1.809   0.319   5.268
 5607TIP3    H116760   1.793   0.262   5.344
 5607TIP3    H216761   1.904   0.327   5.264
 5608TIP3   OH216762   1.185   0.586   5.282
 5608TIP3    H116763   1.137   0.591   5.365
 5608TIP3    H216764   1.199   0.678   5.258
 5609TIP3   OH216765   1.917   1.028   5.819
 5609TIP3    H116766   1.876   1.083   5.753
 5609TIP3    H216767   2.011   1.035   5.802
 5610TIP3   OH216768   1.170   0.553   5.003
 5610TIP3    H116769   1.170   0.542   5.098
 5610TIP3    H216770   1.251   0.510   4.974
 5611TIP3   OH216771   1.822   0.888   6.633
 5611TIP3    H116772   1.849   0.823   6.698
 5611TIP3    H216773   1.893   0.953   6.634
 5612TIP3   OH216774   1.607   0.631   4.916
 5612TIP3    H116775   1.653   0.575   4.979
 5612TIP3    H216776   1.663   0.629   4.838
 5613TIP3   OH216777   1.920   0.565   6.398
 5613TIP3    H116778   2.002   0.597   6.359
 5613TIP3    H216779   1.863   0.642   6.399
 5614TIP3   OH216780   1.910   0.131   4.946
 5614TIP3    H116781   1.896   0.077   4.868
 5614TIP3    H216782   1.876   0.217   4.921
 5615TIP3   OH216783   2.075   0.370   6.546
 5615TIP3    H116784   2.004   0.421   6.506
 5615TIP3    H216785   2.155   0.407   6.509
 5616TIP3   OH216786   0.943   0.903   5.181
 5616TIP3    H116787   1.028   0.869   5.150
 5616TIP3    H216788   0.903   0.941   5.103
 5617TIP3   OH216789   2.188   1.079   5.805
 5617TIP3    H116790   2.213   1.100   5.895
 5617TIP3    H216791   2.257   1.118   5.751
 5618TIP3   OH216792   2.211   1.108   6.085
 5618TIP3    H116793   2.159   1.028   6.079
 5618TIP3    H216794   2.279   1.088   6.149
 5619TIP3   OH216795   2.264   0.803   6.632
 5619TIP3    H116796   2.191   0.808   6.694
 5619TIP3    H216797   2.308   0.887   6.640
 5620TIP3   OH216798   2.085   0.322   5.270
 5620TIP3    H116799   2.153   0.389   5.262
 5620TIP3    H216800   2.106   0.276   5.352
 5621TIP3   OH216801   2.162   0.183   5.493
 5621TIP3    H116802   2.102   0.161   5.564
 5621TIP3    H216803   2.232   0.233   5.536
 5622TIP3   OH216804   2.252   0.569   5.906
 5622TIP3    H116805   2.304   0.503   5.861
 5622TIP3    H216806   2.255   0.646   5.849
 5623TIP3   OH216807   2.059   0.876   6.095
 5623TIP3    H116808   1.989   0.915   6.148
 5623TIP3    H216809   2.013   0.831   6.024
 5624TIP3   OH216810   2.120   0.097   5.114
 5624TIP3    H116811   2.046   0.108   5.054
 5624TIP3    H216812   2.116   0.175   5.170
 5625TIP3   OH216813   7.669   7.804   5.044
 5625TIP3    H116814   7.619   7.878   5.078
 5625TIP3    H216815   7.604   7.748   5.000
 5626TIP3   OH216816   1.992   0.037   5.666
 5626TIP3    H116817   2.018  -0.040   5.614
 5626TIP3    H216818   2.027   0.019   5.753
 5627TIP3   OH216819   2.316   0.463   6.452
 5627TIP3    H116820   2.377   0.391   6.442
 5627TIP3    H216821   2.347   0.530   6.391
 5628TIP3   OH216822   2.472   0.240   6.463
 5628TIP3    H116823   2.398   0.203   6.511
 5628TIP3    H216824   2.548   0.191   6.494
 5629TIP3   OH216825   7.798   7.999   5.977
 5629TIP3    H116826   7.886   8.006   5.940
 5629TIP3    H216827   7.812   8.001   6.072
 5630TIP3   OH216828   2.215   0.086   6.240
 5630TIP3    H116829   2.140   0.130   6.278
 5630TIP3    H216830   2.263   0.154   6.193
 5631TIP3   OH216831   1.757   0.995   5.449
 5631TIP3    H116832   1.795   0.968   5.366
 5631TIP3    H216833   1.824   1.052   5.488
 5632TIP3   OH216834   1.465   1.077   6.502
 5632TIP3    H116835   1.503   1.060   6.588
 5632TIP3    H216836   1.535   1.121   6.454
 5633TIP3   OH216837   1.680   1.197   6.391
 5633TIP3    H116838   1.751   1.150   6.347
 5633TIP3    H216839   1.724   1.268   6.437
 5634TIP3   OH216840   1.377   1.084   6.060
 5634TIP3    H116841   1.312   1.074   5.991
 5634TIP3    H216842   1.359   1.171   6.097
 5635TIP3   OH216843   1.636   1.009   6.112
 5635TIP3    H116844   1.543   1.029   6.101
 5635TIP3    H216845   1.682   1.079   6.067
 5636TIP3   OH216846   1.840   1.198   6.021
 5636TIP3    H116847   1.828   1.282   5.977
 5636TIP3    H216848   1.865   1.138   5.951
 5637TIP3   OH216849   1.191   0.812   5.110
 5637TIP3    H116850   1.279   0.837   5.081
 5637TIP3    H216851   1.167   0.739   5.054
 5638TIP3   OH216852   1.888   0.935   5.213
 5638TIP3    H116853   1.882   0.840   5.207
 5638TIP3    H216854   1.844   0.967   5.134
 5639TIP3   OH216855   2.118   1.083   6.394
 5639TIP3    H116856   2.039   1.053   6.348
 5639TIP3    H216857   2.104   1.177   6.407
 5640TIP3   OH216858   3.384   0.453   5.169
 5640TIP3    H116859   3.361   0.544   5.150
 5640TIP3    H216860   3.311   0.402   5.132
 5641TIP3   OH216861   3.366   0.471   5.589
 5641TIP3    H116862   3.425   0.443   5.659
 5641TIP3    H216863   3.326   0.390   5.558
 5642TIP3   OH216864   2.690   0.338   5.916
 5642TIP3    H116865   2.726   0.278   5.981
 5642TIP3    H216866   2.763   0.355   5.857
 5643TIP3   OH216867   3.647   0.766   5.245
 5643TIP3    H116868   3.639   0.699   5.313
 5643TIP3    H216869   3.669   0.846   5.293
 5644TIP3   OH216870   2.672   0.770   5.648
 5644TIP3    H116871   2.654   0.676   5.643
 5644TIP3    H216872   2.765   0.777   5.628
 5645TIP3   OH216873   8.002   7.989   5.439
 5645TIP3    H116874   7.951   8.067   5.457
 5645TIP3    H216875   7.950   7.939   5.376
 5646TIP3   OH216876   2.400   0.273   5.602
 5646TIP3    H116877   2.463   0.202   5.608
 5646TIP3    H216878   2.431   0.327   5.529
 5647TIP3   OH216879   3.294   1.210   5.265
 5647TIP3    H116880   3.326   1.142   5.206
 5647TIP3    H216881   3.292   1.168   5.351
 5648TIP3   OH216882   3.189   0.695   5.595
 5648TIP3    H116883   3.241   0.616   5.580
 5648TIP3    H216884   3.254   0.764   5.605
 5649TIP3   OH216885   3.616   0.148   5.621
 5649TIP3    H116886   3.691   0.089   5.623
 5649TIP3    H216887   3.570   0.125   5.540
 5650TIP3   OH216888   0.063   7.833   5.603
 5650TIP3    H116889   0.069   7.904   5.539
 5650TIP3    H216890   0.031   7.758   5.552
 5651TIP3   OH216891   2.562   0.049   5.677
 5651TIP3    H116892   2.644   0.041   5.725
 5651TIP3    H216893   2.571  -0.011   5.603
 5652TIP3   OH216894   2.993   0.237   5.518
 5652TIP3    H116895   3.088   0.223   5.520
 5652TIP3    H216896   2.958   0.153   5.488
 5653TIP3   OH216897   4.271   0.241   5.766
 5653TIP3    H116898   4.178   0.260   5.755
 5653TIP3    H216899   4.287   0.255   5.859
 5654TIP3   OH216900   3.291   0.682   5.020
 5654TIP3    H116901   3.249   0.645   4.942
 5654TIP3    H216902   3.233   0.753   5.048
 5655TIP3   OH216903   3.036   0.599   5.805
 5655TIP3    H116904   2.983   0.668   5.846
 5655TIP3    H216905   3.085   0.645   5.737
 5656TIP3   OH216906  -0.030   8.007   5.793
 5656TIP3    H116907   0.048   8.048   5.830
 5656TIP3    H216908   0.004   7.937   5.737
 5657TIP3   OH216909   2.878   0.794   5.923
 5657TIP3    H116910   2.865   0.883   5.889
 5657TIP3    H216911   2.798   0.775   5.972
 5658TIP3   OH216912   3.697   1.005   5.384
 5658TIP3    H116913   3.641   1.000   5.461
 5658TIP3    H216914   3.685   1.093   5.350
 5659TIP3   OH216915   3.393   1.053   5.053
 5659TIP3    H116916   3.444   0.972   5.044
 5659TIP3    H216917   3.451   1.121   5.019
 5660TIP3   OH216918   3.532   0.824   5.001
 5660TIP3    H116919   3.462   0.759   4.997
 5660TIP3    H216920   3.584   0.798   5.077
 5661TIP3   OH216921   3.928   0.904   5.744
 5661TIP3    H116922   3.904   0.830   5.688
 5661TIP3    H216923   3.906   0.981   5.692
 5662TIP3   OH216924   3.199   0.339   5.003
 5662TIP3    H116925   3.117   0.378   4.972
 5662TIP3    H216926   3.247   0.317   4.923
 5663TIP3   OH216927   3.172   0.096   4.715
 5663TIP3    H116928   3.233   0.162   4.748
 5663TIP3    H216929   3.212   0.012   4.742
 5664TIP3   OH216930   4.116   0.584   5.605
 5664TIP3    H116931   4.027   0.620   5.606
 5664TIP3    H216932   4.143   0.588   5.514
 5665TIP3   OH216933   3.560   0.398   4.965
 5665TIP3    H116934   3.497   0.416   5.035
 5665TIP3    H216935   3.645   0.400   5.009
 5666TIP3   OH216936   3.789   0.438   5.890
 5666TIP3    H116937   3.774   0.517   5.941
 5666TIP3    H216938   3.706   0.423   5.843
 5667TIP3   OH216939   2.803   0.384   5.377
 5667TIP3    H116940   2.763   0.326   5.312
 5667TIP3    H216941   2.871   0.331   5.418
 5668TIP3   OH216942   2.926   0.799   5.522
 5668TIP3    H116943   2.901   0.767   5.435
 5668TIP3    H216944   3.012   0.758   5.538
 5669TIP3   OH216945   2.910   0.362   5.751
 5669TIP3    H116946   2.944   0.325   5.669
 5669TIP3    H216947   2.961   0.442   5.764
 5670TIP3   OH216948   3.063   0.910   6.094
 5670TIP3    H116949   2.998   0.971   6.128
 5670TIP3    H216950   3.013   0.852   6.036
 5671TIP3   OH216951   3.363   0.283   4.784
 5671TIP3    H116952   3.436   0.303   4.843
 5671TIP3    H216953   3.404   0.273   4.698
 5672TIP3   OH216954   2.824   0.464   6.198
 5672TIP3    H116955   2.832   0.556   6.223
 5672TIP3    H216956   2.729   0.450   6.190
 5673TIP3   OH216957   3.150   0.921   5.064
 5673TIP3    H116958   3.231   0.973   5.068
 5673TIP3    H216959   3.089   0.974   5.013
 5674TIP3   OH216960   2.853   1.080   6.150
 5674TIP3    H116961   2.828   1.079   6.058
 5674TIP3    H216962   2.773   1.060   6.197
 5675TIP3   OH216963   2.673   0.227   5.172
 5675TIP3    H116964   2.597   0.275   5.139
 5675TIP3    H216965   2.637   0.152   5.218
 5676TIP3   OH216966   3.731   0.858   4.406
 5676TIP3    H116967   3.732   0.951   4.385
 5676TIP3    H216968   3.819   0.828   4.386
 5677TIP3   OH216969   2.454   0.618   6.095
 5677TIP3    H116970   2.387   0.600   6.028
 5677TIP3    H216971   2.491   0.532   6.115
 5678TIP3   OH216972   2.301   0.796   5.764
 5678TIP3    H116973   2.382   0.807   5.715
 5678TIP3    H216974   2.267   0.885   5.774
 5679TIP3   OH216975   4.160   1.269   5.796
 5679TIP3    H116976   4.167   1.175   5.806
 5679TIP3    H216977   4.079   1.293   5.843
 5680TIP3   OH216978   3.220   1.052   5.919
 5680TIP3    H116979   3.240   1.138   5.958
 5680TIP3    H216980   3.176   1.004   5.989
 5681TIP3   OH216981   3.039   1.157   4.876
 5681TIP3    H116982   2.986   1.133   4.801
 5681TIP3    H216983   3.002   1.240   4.907
 5682TIP3   OH216984   2.474   1.027   5.270
 5682TIP3    H116985   2.522   1.012   5.352
 5682TIP3    H216986   2.421   0.948   5.260
 5683TIP3   OH216987   3.239   1.077   4.510
 5683TIP3    H116988   3.289   1.004   4.473
 5683TIP3    H216989   3.272   1.087   4.599
 5684TIP3   OH216990   3.292   1.121   4.779
 5684TIP3    H116991   3.205   1.126   4.820
 5684TIP3    H216992   3.346   1.077   4.845
 5685TIP3   OH216993   4.039   0.390   6.084
 5685TIP3    H116994   3.970   0.438   6.037
 5685TIP3    H216995   4.012   0.298   6.079
 5686TIP3   OH216996   2.652   0.807   6.084
 5686TIP3    H116997   2.703   0.790   6.163
 5686TIP3    H216998   2.583   0.742   6.085
 5687TIP3   OH216999   3.853   0.196   6.033
 5687TIP3    H117000   3.774   0.170   6.081
 5687TIP3    H217001   3.821   0.250   5.961
 5688TIP3   OH217002   3.471   0.242   4.528
 5688TIP3    H117003   3.437   0.252   4.439
 5688TIP3    H217004   3.555   0.288   4.526
 5689TIP3   OH217005   3.004   0.150   5.913
 5689TIP3    H117006   2.945   0.158   5.987
 5689TIP3    H217007   2.983   0.225   5.856
 5690TIP3   OH217008   8.521   8.030   5.413
 5690TIP3    H117009   8.429   8.005   5.423
 5690TIP3    H217010   8.544   8.005   5.324
 5691TIP3   OH217011   3.536   0.392   6.201
 5691TIP3    H117012   3.501   0.324   6.259
 5691TIP3    H217013   3.627   0.401   6.228
 5692TIP3   OH217014   3.480   0.135   5.363
 5692TIP3    H117015   3.440   0.210   5.320
 5692TIP3    H217016   3.466   0.062   5.303
 5693TIP3   OH217017   2.817   0.185   6.113
 5693TIP3    H117018   2.826   0.262   6.168
 5693TIP3    H217019   2.768   0.122   6.167
 5694TIP3   OH217020   8.126   7.770   5.223
 5694TIP3    H117021   8.126   7.774   5.127
 5694TIP3    H217022   8.038   7.798   5.248
 5695TIP3   OH217023   3.539   0.357   5.782
 5695TIP3    H117024   3.567   0.288   5.722
 5695TIP3    H217025   3.498   0.309   5.855
 5696TIP3   OH217026   8.264   7.920   5.425
 5696TIP3    H117027   8.173   7.951   5.435
 5696TIP3    H217028   8.258   7.848   5.362
 5697TIP3   OH217029   0.070   7.938   5.161
 5697TIP3    H117030   0.161   7.942   5.129
 5697TIP3    H217031   0.018   7.920   5.083
 5698TIP3   OH217032   8.426   7.911   4.920
 5698TIP3    H117033   8.337   7.942   4.903
 5698TIP3    H217034   8.482   7.962   4.861
 5699TIP3   OH217035   3.868   1.608   5.896
 5699TIP3    H117036   3.863   1.615   5.801
 5699TIP3    H217037   3.950   1.652   5.920
 5700TIP3   OH217038   2.809   0.725   6.307
 5700TIP3    H117039   2.893   0.745   6.350
 5700TIP3    H217040   2.745   0.727   6.378
 5701TIP3   OH217041   3.268   0.198   5.556
 5701TIP3    H117042   3.332   0.147   5.506
 5701TIP3    H217043   3.272   0.162   5.644
 5702TIP3   OH217044   3.266   0.115   5.818
 5702TIP3    H117045   3.178   0.119   5.857
 5702TIP3    H217046   3.323   0.154   5.884
 5703TIP3   OH217047   2.956   0.470   4.934
 5703TIP3    H117048   2.891   0.401   4.923
 5703TIP3    H217049   2.945   0.499   5.025
 5704TIP3   OH217050   3.872   0.701   5.567
 5704TIP3    H117051   3.899   0.752   5.491
 5704TIP3    H217052   3.788   0.661   5.542
 5705TIP3   OH217053   0.462   7.879   4.845
 5705TIP3    H117054   0.441   7.791   4.876
 5705TIP3    H217055   0.498   7.923   4.922
 5706TIP3   OH217056   3.351   0.778   5.972
 5706TIP3    H117057   3.432   0.796   6.019
 5706TIP3    H217058   3.332   0.860   5.925
 5707TIP3   OH217059   3.569   0.089   4.900
 5707TIP3    H117060   3.624   0.155   4.943
 5707TIP3    H217061   3.512   0.056   4.970
 5708TIP3   OH217062   2.692   0.496   5.611
 5708TIP3    H117063   2.711   0.467   5.521
 5708TIP3    H217064   2.748   0.442   5.666
 5709TIP3   OH217065   3.131   0.612   4.779
 5709TIP3    H117066   3.090   0.698   4.783
 5709TIP3    H217067   3.073   0.555   4.830
 5710TIP3   OH217068   2.556   0.397   6.238
 5710TIP3    H117069   2.568   0.370   6.329
 5710TIP3    H217070   2.481   0.346   6.207
 5711TIP3   OH217071   3.294   0.526   6.266
 5711TIP3    H117072   3.223   0.475   6.227
 5711TIP3    H217073   3.372   0.497   6.219
 5712TIP3   OH217074   3.910   0.133   4.750
 5712TIP3    H117075   3.854   0.083   4.690
 5712TIP3    H217076   3.917   0.219   4.711
 5713TIP3   OH217077   4.177   0.993   5.820
 5713TIP3    H117078   4.083   0.976   5.823
 5713TIP3    H217079   4.206   0.954   5.738
 5714TIP3   OH217080   3.655   0.927   4.674
 5714TIP3    H117081   3.629   0.858   4.737
 5714TIP3    H217082   3.672   0.880   4.593
 5715TIP3   OH217083   3.639   0.581   5.464
 5715TIP3    H117084   3.552   0.569   5.503
 5715TIP3    H217085   3.659   0.495   5.426
 5716TIP3   OH217086   2.776   0.793   5.266
 5716TIP3    H117087   2.768   0.870   5.211
 5716TIP3    H217088   2.687   0.757   5.269
 5717TIP3   OH217089   2.351   0.083   4.962
 5717TIP3    H117090   2.396   0.166   4.980
 5717TIP3    H217091   2.271   0.088   5.013
 5718TIP3   OH217092   2.898   0.558   5.182
 5718TIP3    H117093   2.871   0.645   5.210
 5718TIP3    H217094   2.872   0.500   5.254
 5719TIP3   OH217095   3.044   1.126   5.723
 5719TIP3    H117096   3.085   1.199   5.677
 5719TIP3    H217097   3.113   1.092   5.780
 5720TIP3   OH217098   2.698   1.027   5.109
 5720TIP3    H117099   2.614   1.031   5.155
 5720TIP3    H217100   2.729   1.118   5.109
 5721TIP3   OH217101   3.407   0.662   4.568
 5721TIP3    H117102   3.467   0.637   4.639
 5721TIP3    H217103   3.323   0.627   4.596
 5722TIP3   OH217104   3.686   1.308   5.745
 5722TIP3    H117105   3.636   1.228   5.736
 5722TIP3    H217106   3.669   1.357   5.665
 5723TIP3   OH217107   3.747   1.136   4.373
 5723TIP3    H117108   3.793   1.211   4.335
 5723TIP3    H217109   3.667   1.173   4.410
 5724TIP3   OH217110   3.586   0.582   4.754
 5724TIP3    H117111   3.567   0.524   4.828
 5724TIP3    H217112   3.682   0.588   4.753
 5725TIP3   OH217113   2.526   0.991   5.882
 5725TIP3    H117114   2.567   0.908   5.858
 5725TIP3    H217115   2.537   0.995   5.977
 5726TIP3   OH217116   2.765   0.635   4.570
 5726TIP3    H117117   2.779   0.545   4.543
 5726TIP3    H217118   2.750   0.630   4.665
 5727TIP3   OH217119   2.723   0.645   4.842
 5727TIP3    H117120   2.797   0.609   4.891
 5727TIP3    H217121   2.728   0.740   4.857
 5728TIP3   OH217122   2.447   0.332   5.046
 5728TIP3    H117123   2.411   0.373   5.125
 5728TIP3    H217124   2.453   0.403   4.982
 5729TIP3   OH217125   2.994   0.845   4.788
 5729TIP3    H117126   2.907   0.863   4.824
 5729TIP3    H217127   3.009   0.916   4.726
 5730TIP3   OH217128   3.453   0.214   6.005
 5730TIP3    H117129   3.468   0.287   6.065
 5730TIP3    H217130   3.476   0.136   6.055
 5731TIP3   OH217131   2.739   0.922   4.859
 5731TIP3    H117132   2.711   0.991   4.800
 5731TIP3    H217133   2.722   0.956   4.947
 5732TIP3   OH217134   3.691   0.327   5.369
 5732TIP3    H117135   3.633   0.252   5.378
 5732TIP3    H217136   3.768   0.304   5.422
 5733TIP3   OH217137   2.467   0.529   4.845
 5733TIP3    H117138   2.540   0.589   4.860
 5733TIP3    H217139   2.501   0.463   4.785
 5734TIP3   OH217140   8.031   7.817   4.957
 5734TIP3    H117141   8.045   7.912   4.952
 5734TIP3    H217142   7.943   7.809   4.996
 5735TIP3   OH217143   3.707   1.285   5.314
 5735TIP3    H117144   3.664   1.335   5.245
 5735TIP3    H217145   3.800   1.298   5.300
 5736TIP3   OH217146   2.329   0.799   5.245
 5736TIP3    H117147   2.335   0.706   5.268
 5736TIP3    H217148   2.295   0.799   5.156
 5737TIP3   OH217149   2.493   1.305   6.305
 5737TIP3    H117150   2.576   1.315   6.352
 5737TIP3    H217151   2.477   1.210   6.305
 5738TIP3   OH217152   2.962   1.242   6.344
 5738TIP3    H117153   3.054   1.219   6.352
 5738TIP3    H217154   2.930   1.189   6.271
 5739TIP3   OH217155   2.933   0.826   4.468
 5739TIP3    H117156   2.880   0.759   4.510
 5739TIP3    H217157   3.008   0.779   4.433
 5740TIP3   OH217158   3.575   1.204   6.117
 5740TIP3    H117159   3.588   1.119   6.160
 5740TIP3    H217160   3.662   1.244   6.117
 5741TIP3   OH217161   3.372   0.868   4.391
 5741TIP3    H117162   3.397   0.803   4.456
 5741TIP3    H217163   3.435   0.859   4.320
 5742TIP3   OH217164   2.606   0.713   6.500
 5742TIP3    H117165   2.629   0.620   6.502
 5742TIP3    H217166   2.522   0.717   6.455
 5743TIP3   OH217167   2.605   0.340   4.703
 5743TIP3    H117168   2.653   0.313   4.781
 5743TIP3    H217169   2.671   0.350   4.635
 5744TIP3   OH217170   3.231   0.802   6.281
 5744TIP3    H117171   3.191   0.825   6.197
 5744TIP3    H217172   3.269   0.715   6.266
 5745TIP3   OH217173   3.120   0.550   4.510
 5745TIP3    H117174   3.114   0.564   4.605
 5745TIP3    H217175   3.117   0.455   4.500
 5746TIP3   OH217176   3.687   0.826   5.874
 5746TIP3    H117177   3.766   0.867   5.840
 5746TIP3    H217178   3.616   0.864   5.821
 5747TIP3   OH217179   2.727   0.462   6.490
 5747TIP3    H117180   2.802   0.435   6.438
 5747TIP3    H217181   2.762   0.474   6.579
 5748TIP3   OH217182   2.773   0.264   4.911
 5748TIP3    H117183   2.751   0.241   5.001
 5748TIP3    H217184   2.820   0.188   4.877
 5749TIP3   OH217185   3.085   0.370   6.154
 5749TIP3    H117186   2.998   0.412   6.153
 5749TIP3    H217187   3.123   0.392   6.069
 5750TIP3   OH217188   2.900   0.066   4.757
 5750TIP3    H117189   2.871   0.079   4.666
 5750TIP3    H217190   2.995   0.076   4.754
 5751TIP3   OH217191   3.591   0.722   6.266
 5751TIP3    H117192   3.642   0.674   6.201
 5751TIP3    H217193   3.582   0.661   6.339
 5752TIP3   OH217194   3.700   0.371   4.422
 5752TIP3    H117195   3.684   0.334   4.335
 5752TIP3    H217196   3.674   0.463   4.413
 5753TIP3   OH217197   3.148   0.137   6.274
 5753TIP3    H117198   3.133   0.072   6.206
 5753TIP3    H217199   3.126   0.221   6.233
 5754TIP3   OH217200   3.226   0.453   5.939
 5754TIP3    H117201   3.312   0.487   5.913
 5754TIP3    H217202   3.164   0.508   5.891
 5755TIP3   OH217203   3.790   0.404   6.312
 5755TIP3    H117204   3.823   0.352   6.385
 5755TIP3    H217205   3.868   0.443   6.273
 5756TIP3   OH217206   3.816   0.670   6.059
 5756TIP3    H117207   3.759   0.725   6.007
 5756TIP3    H217208   3.904   0.688   6.026
 5757TIP3   OH217209   3.037   0.268   6.503
 5757TIP3    H117210   2.968   0.216   6.546
 5757TIP3    H217211   3.067   0.213   6.431
 5758TIP3   OH217212   3.419   0.180   6.327
 5758TIP3    H117213   3.434   0.136   6.411
 5758TIP3    H217214   3.326   0.169   6.310
 5759TIP3   OH217215   2.726   1.136   4.674
 5759TIP3    H117216   2.814   1.109   4.648
 5759TIP3    H217217   2.690   1.179   4.597
 5760TIP3   OH217218   2.191   0.523   4.824
 5760TIP3    H117219   2.280   0.541   4.854
 5760TIP3    H217220   2.189   0.428   4.811
 5761TIP3   OH217221   2.086   1.111   5.292
 5761TIP3    H117222   2.028   1.045   5.253
 5761TIP3    H217223   2.135   1.063   5.358
 5762TIP3   OH217224   2.224   0.983   5.484
 5762TIP3    H117225   2.244   0.893   5.461
 5762TIP3    H217226   2.289   1.005   5.551
 5763TIP3   OH217227   3.969   1.360   5.291
 5763TIP3    H117228   4.002   1.372   5.380
 5763TIP3    H217229   4.042   1.387   5.235
 5764TIP3   OH217230   4.013   1.359   5.571
 5764TIP3    H117231   3.956   1.282   5.567
 5764TIP3    H217232   4.079   1.336   5.636
 5765TIP3   OH217233   4.047   1.060   6.148
 5765TIP3    H117234   3.974   1.068   6.208
 5765TIP3    H217235   4.092   1.144   6.153
 5766TIP3   OH217236   3.863   0.591   4.749
 5766TIP3    H117237   3.924   0.658   4.719
 5766TIP3    H217238   3.903   0.556   4.829
 5767TIP3   OH217239   3.989   0.475   4.962
 5767TIP3    H117240   3.920   0.453   5.025
 5767TIP3    H217241   4.057   0.517   5.014
 5768TIP3   OH217242   4.047   0.841   5.394
 5768TIP3    H117243   4.091   0.767   5.352
 5768TIP3    H217244   4.041   0.908   5.325
 5769TIP3   OH217245   3.863   1.125   5.580
 5769TIP3    H117246   3.784   1.143   5.631
 5769TIP3    H217247   3.831   1.077   5.504
 5770TIP3   OH217248   3.909   0.365   4.603
 5770TIP3    H117249   3.838   0.356   4.539
 5770TIP3    H217250   3.886   0.443   4.653
 5771TIP3   OH217251   3.750   0.061   4.539
 5771TIP3    H117252   3.718   0.105   4.461
 5771TIP3    H217253   3.680  -0.001   4.562
 5772TIP3   OH217254   3.790   0.380   5.121
 5772TIP3    H117255   3.805   0.289   5.096
 5772TIP3    H217256   3.755   0.375   5.209
 5773TIP3   OH217257   2.424   0.357   5.862
 5773TIP3    H117258   2.411   0.329   5.772
 5773TIP3    H217259   2.519   0.360   5.872
 5774TIP3   OH217260   4.068   0.718   5.955
 5774TIP3    H117261   4.139   0.657   5.938
 5774TIP3    H217262   4.062   0.773   5.877
 5775TIP3   OH217263   4.254   0.517   5.964
 5775TIP3    H117264   4.178   0.470   5.999
 5775TIP3    H217265   4.329   0.462   5.987
 5776TIP3   OH217266   3.824   0.136   5.012
 5776TIP3    H117267   3.819   0.045   5.041
 5776TIP3    H217268   3.848   0.130   4.919
 5777TIP3   OH217269   3.921   0.290   5.505
 5777TIP3    H117270   4.004   0.299   5.459
 5777TIP3    H217271   3.944   0.296   5.598
 5778TIP3   OH217272   4.020   0.361   5.752
 5778TIP3    H117273   3.940   0.389   5.797
 5778TIP3    H217274   4.053   0.441   5.711
 5779TIP3   OH217275   2.655   0.048   6.525
 5779TIP3    H117276   2.741   0.017   6.555
 5779TIP3    H217277   2.605  -0.032   6.509
 5780TIP3   OH217278   2.389   0.038   5.898
 5780TIP3    H117279   2.437   0.025   5.816
 5780TIP3    H217280   2.434   0.111   5.941
 5781TIP3   OH217281   3.540   1.248   4.936
 5781TIP3    H117282   3.592   1.229   4.858
 5781TIP3    H217283   3.598   1.301   4.991
 5782TIP3   OH217284   2.637   1.038   6.320
 5782TIP3    H117285   2.546   1.012   6.310
 5782TIP3    H217286   2.658   1.019   6.411
 5783TIP3   OH217287   2.824   1.061   5.871
 5783TIP3    H117288   2.754   1.077   5.808
 5783TIP3    H217289   2.903   1.090   5.826
 5784TIP3   OH217290   3.247   1.319   6.022
 5784TIP3    H117291   3.292   1.312   6.106
 5784TIP3    H217292   3.308   1.367   5.966
 5785TIP3   OH217293   3.429   1.470   5.872
 5785TIP3    H117294   3.478   1.409   5.817
 5785TIP3    H217295   3.496   1.514   5.925
 5786TIP3   OH217296   3.119   1.341   5.576
 5786TIP3    H117297   3.101   1.370   5.487
 5786TIP3    H217298   3.214   1.346   5.585
 5787TIP3   OH217299   3.394   1.312   5.596
 5787TIP3    H117300   3.420   1.225   5.626
 5787TIP3    H217301   3.469   1.344   5.547
 5788TIP3   OH217302   3.657   1.470   5.514
 5788TIP3    H117303   3.637   1.551   5.467
 5788TIP3    H217304   3.676   1.406   5.445
 5789TIP3   OH217305   2.426   1.110   5.658
 5789TIP3    H117306   2.458   1.081   5.743
 5789TIP3    H217307   2.492   1.079   5.596
 5790TIP3   OH217308   2.617   0.997   5.504
 5790TIP3    H117309   2.631   0.911   5.545
 5790TIP3    H217310   2.706   1.032   5.493
 5791TIP3   OH217311   2.886   1.074   5.503
 5791TIP3    H117312   2.905   0.981   5.491
 5791TIP3    H217313   2.939   1.100   5.578
 5792TIP3   OH217314   2.222   0.884   4.971
 5792TIP3    H117315   2.138   0.838   4.968
 5792TIP3    H217316   2.199   0.976   4.967
 5793TIP3   OH217317   2.980   1.058   4.604
 5793TIP3    H117318   3.066   1.082   4.569
 5793TIP3    H217319   2.953   0.983   4.550
 5794TIP3   OH217320   3.689   1.195   4.706
 5794TIP3    H117321   3.683   1.100   4.700
 5794TIP3    H217322   3.646   1.227   4.627
 5795TIP3   OH217323   2.283   0.897   4.682
 5795TIP3    H117324   2.277   0.885   4.777
 5795TIP3    H217325   2.365   0.854   4.658
 5796TIP3   OH217326   3.913   1.335   5.898
 5796TIP3    H117327   3.837   1.303   5.850
 5796TIP3    H217328   3.895   1.428   5.912
 5797TIP3   OH217329   5.201   0.702   5.004
 5797TIP3    H117330   5.151   0.729   5.081
 5797TIP3    H217331   5.149   0.733   4.929
 5798TIP3   OH217332   4.475   0.609   5.396
 5798TIP3    H117333   4.513   0.566   5.473
 5798TIP3    H217334   4.550   0.649   5.352
 5799TIP3   OH217335   5.425   1.026   4.721
 5799TIP3    H117336   5.381   0.975   4.789
 5799TIP3    H217337   5.460   1.103   4.767
 5800TIP3   OH217338   4.452   1.013   5.119
 5800TIP3    H117339   4.440   0.918   5.110
 5800TIP3    H217340   4.546   1.027   5.103
 5801TIP3   OH217341   4.127   0.251   4.890
 5801TIP3    H117342   4.086   0.334   4.913
 5801TIP3    H217343   4.055   0.189   4.884
 5802TIP3   OH217344   4.221   0.567   5.077
 5802TIP3    H117345   4.286   0.502   5.104
 5802TIP3    H217346   4.274   0.642   5.048
 5803TIP3   OH217347   5.087   1.459   4.750
 5803TIP3    H117348   5.136   1.398   4.695
 5803TIP3    H217349   5.085   1.416   4.836
 5804TIP3   OH217350   4.970   0.959   5.076
 5804TIP3    H117351   4.978   0.919   4.990
 5804TIP3    H217352   5.058   0.989   5.097
 5805TIP3   OH217353   5.365   0.478   5.124
 5805TIP3    H117354   5.379   0.384   5.111
 5805TIP3    H217355   5.333   0.509   5.040
 5806TIP3   OH217356   4.818   0.014   5.021
 5806TIP3    H117357   4.801   0.072   5.096
 5806TIP3    H217358   4.732  -0.002   4.983
 5807TIP3   OH217359   5.327   0.128   4.647
 5807TIP3    H117360   5.378   0.103   4.724
 5807TIP3    H217361   5.359   0.215   4.624
 5808TIP3   OH217362   4.406   0.401   5.181
 5808TIP3    H117363   4.439   0.404   5.271
 5808TIP3    H217364   4.472   0.350   5.133
 5809TIP3   OH217365   4.800   0.540   4.994
 5809TIP3    H117366   4.895   0.528   4.985
 5809TIP3    H217367   4.762   0.467   4.946
 5810TIP3   OH217368   6.060   0.488   5.251
 5810TIP3    H117369   5.967   0.511   5.243
 5810TIP3    H217370   6.083   0.513   5.340
 5811TIP3   OH217371   4.841   0.868   5.301
 5811TIP3    H117372   4.780   0.935   5.333
 5811TIP3    H217373   4.882   0.908   5.224
 5812TIP3   OH217374   4.569   0.252   5.362
 5812TIP3    H117375   4.645   0.310   5.353
 5812TIP3    H217376   4.565   0.203   5.280
 5813TIP3   OH217377   4.667   1.060   5.396
 5813TIP3    H117378   4.649   1.147   5.359
 5813TIP3    H217379   4.590   1.041   5.449
 5814TIP3   OH217380   4.047   0.768   4.639
 5814TIP3    H117381   4.012   0.786   4.552
 5814TIP3    H217382   4.074   0.853   4.673
 5815TIP3   OH217383   5.490   1.265   4.872
 5815TIP3    H117384   5.406   1.256   4.916
 5815TIP3    H217385   5.485   1.350   4.828
 5816TIP3   OH217386   5.228   1.307   4.573
 5816TIP3    H117387   5.268   1.225   4.543
 5816TIP3    H217388   5.270   1.375   4.520
 5817TIP3   OH217389   5.342   1.078   4.463
 5817TIP3    H117390   5.285   1.004   4.443
 5817TIP3    H217391   5.382   1.055   4.547
 5818TIP3   OH217392   5.721   1.168   5.230
 5818TIP3    H117393   5.706   1.092   5.174
 5818TIP3    H217394   5.704   1.244   5.173
 5819TIP3   OH217395   4.981   0.530   4.430
 5819TIP3    H117396   4.916   0.600   4.440
 5819TIP3    H217397   5.055   0.573   4.386
 5820TIP3   OH217398   4.945   0.391   4.192
 5820TIP3    H117399   4.964   0.439   4.272
 5820TIP3    H217400   4.996   0.310   4.199
 5821TIP3   OH217401   5.914   0.832   5.085
 5821TIP3    H117402   5.828   0.873   5.092
 5821TIP3    H217403   5.936   0.839   4.992
 5822TIP3   OH217404   5.344   0.691   4.475
 5822TIP3    H117405   5.291   0.707   4.553
 5822TIP3    H217406   5.432   0.672   4.510
 5823TIP3   OH217407   5.598   0.725   5.369
 5823TIP3    H117408   5.584   0.799   5.429
 5823TIP3    H217409   5.511   0.707   5.334
 5824TIP3   OH217410   4.586   0.652   4.851
 5824TIP3    H117411   4.557   0.581   4.794
 5824TIP3    H217412   4.666   0.619   4.892
 5825TIP3   OH217413   4.710   1.062   5.019
 5825TIP3    H117414   4.686   1.048   4.928
 5825TIP3    H217415   4.798   1.025   5.027
 5826TIP3   OH217416   4.693   0.653   5.219
 5826TIP3    H117417   4.732   0.618   5.138
 5826TIP3    H217418   4.747   0.730   5.240
 5827TIP3   OH217419   5.261   1.253   5.017
 5827TIP3    H117420   5.244   1.330   5.071
 5827TIP3    H217421   5.242   1.179   5.074
 5828TIP3   OH217422   4.867   1.167   5.554
 5828TIP3    H117423   4.808   1.227   5.601
 5828TIP3    H217424   4.809   1.114   5.499
 5829TIP3   OH217425   5.215   0.540   4.278
 5829TIP3    H117426   5.269   0.609   4.316
 5829TIP3    H217427   5.233   0.544   4.184
 5830TIP3   OH217428   4.621   0.742   5.667
 5830TIP3    H117429   4.626   0.830   5.706
 5830TIP3    H217430   4.531   0.714   5.684
 5831TIP3   OH217431   4.946   1.198   4.476
 5831TIP3    H117432   4.995   1.176   4.555
 5831TIP3    H217433   4.897   1.277   4.500
 5832TIP3   OH217434   4.657   1.328   5.638
 5832TIP3    H117435   4.630   1.332   5.546
 5832TIP3    H217436   4.576   1.310   5.686
 5833TIP3   OH217437   4.453   0.468   4.654
 5833TIP3    H117438   4.386   0.525   4.618
 5833TIP3    H217439   4.404   0.393   4.688
 5834TIP3   OH217440   5.524   1.110   3.889
 5834TIP3    H117441   5.523   1.204   3.875
 5834TIP3    H217442   5.614   1.084   3.871
 5835TIP3   OH217443   4.247   0.868   5.588
 5835TIP3    H117444   4.174   0.863   5.526
 5835TIP3    H217445   4.276   0.777   5.598
 5836TIP3   OH217446   4.115   1.056   5.216
 5836TIP3    H117447   4.208   1.046   5.196
 5836TIP3    H217448   4.112   1.128   5.279
 5837TIP3   OH217449   5.955   1.526   5.283
 5837TIP3    H117450   5.961   1.431   5.295
 5837TIP3    H217451   5.875   1.551   5.330
 5838TIP3   OH217452   5.058   1.301   5.411
 5838TIP3    H117453   5.054   1.393   5.439
 5838TIP3    H217454   4.991   1.257   5.462
 5839TIP3   OH217455   4.817   1.429   4.349
 5839TIP3    H117456   4.776   1.407   4.265
 5839TIP3    H217457   4.781   1.515   4.371
 5840TIP3   OH217458   4.271   1.264   4.750
 5840TIP3    H117459   4.319   1.255   4.832
 5840TIP3    H217460   4.230   1.178   4.737
 5841TIP3   OH217461   5.034   1.336   3.998
 5841TIP3    H117462   5.087   1.263   3.966
 5841TIP3    H217463   5.061   1.347   4.089
 5842TIP3   OH217464   5.076   1.377   4.271
 5842TIP3    H117465   4.986   1.386   4.303
 5842TIP3    H217466   5.119   1.320   4.335
 5843TIP3   OH217467   5.834   0.668   5.525
 5843TIP3    H117468   5.767   0.727   5.491
 5843TIP3    H217469   5.815   0.583   5.485
 5844TIP3   OH217470   4.449   1.056   5.564
 5844TIP3    H117471   4.498   1.048   5.646
 5844TIP3    H217472   4.378   0.992   5.572
 5845TIP3   OH217473   5.739   0.414   5.487
 5845TIP3    H117474   5.659   0.406   5.539
 5845TIP3    H217475   5.713   0.391   5.398
 5846TIP3   OH217476   5.274   0.511   4.010
 5846TIP3    H117477   5.240   0.511   3.920
 5846TIP3    H217478   5.360   0.552   4.003
 5847TIP3   OH217479   4.755   0.453   5.392
 5847TIP3    H117480   4.711   0.476   5.474
 5847TIP3    H217481   4.728   0.522   5.331
 5848TIP3   OH217482   4.657   0.360   4.853
 5848TIP3    H117483   4.563   0.345   4.844
 5848TIP3    H217484   4.696   0.311   4.780
 5849TIP3   OH217485   5.131   0.405   4.622
 5849TIP3    H117486   5.064   0.462   4.583
 5849TIP3    H217487   5.173   0.364   4.547
 5850TIP3   OH217488   5.314   0.695   5.684
 5850TIP3    H117489   5.287   0.611   5.721
 5850TIP3    H217490   5.409   0.696   5.694
 5851TIP3   OH217491   5.280   0.432   4.854
 5851TIP3    H117492   5.205   0.455   4.799
 5851TIP3    H217493   5.266   0.339   4.875
 5852TIP3   OH217494   4.569   0.447   5.610
 5852TIP3    H117495   4.521   0.511   5.663
 5852TIP3    H217496   4.516   0.367   5.614
 5853TIP3   OH217497   4.217   0.104   4.677
 5853TIP3    H117498   4.231   0.034   4.741
 5853TIP3    H217499   4.176   0.175   4.727
 5854TIP3   OH217500   5.333   0.681   5.301
 5854TIP3    H117501   5.342   0.624   5.225
 5854TIP3    H217502   5.297   0.625   5.369
 5855TIP3   OH217503   4.404   0.235   4.871
 5855TIP3    H117504   4.310   0.250   4.885
 5855TIP3    H217505   4.408   0.151   4.825
 5856TIP3   OH217506   4.716   0.211   4.637
 5856TIP3    H117507   4.810   0.202   4.622
 5856TIP3    H217508   4.679   0.222   4.549
 5857TIP3   OH217509   4.564   0.196   4.416
 5857TIP3    H117510   4.472   0.188   4.389
 5857TIP3    H217511   4.608   0.235   4.340
 5858TIP3   OH217512   5.664   1.866   5.382
 5858TIP3    H117513   5.661   1.885   5.288
 5858TIP3    H217514   5.741   1.912   5.413
 5859TIP3   OH217515   4.607   0.987   5.798
 5859TIP3    H117516   4.688   1.004   5.846
 5859TIP3    H217517   4.539   0.985   5.866
 5860TIP3   OH217518   5.062   0.448   5.032
 5860TIP3    H117519   5.132   0.503   4.997
 5860TIP3    H217520   5.065   0.462   5.126
 5861TIP3   OH217521   5.010   0.462   5.297
 5861TIP3    H117522   4.925   0.458   5.342
 5861TIP3    H217523   5.062   0.521   5.351
 5862TIP3   OH217524   4.774   0.715   4.429
 5862TIP3    H117525   4.700   0.656   4.415
 5862TIP3    H217526   4.757   0.755   4.514
 5863TIP3   OH217527   5.675   0.962   5.058
 5863TIP3    H117528   5.701   1.011   4.980
 5863TIP3    H217529   5.594   0.918   5.033
 5864TIP3   OH217530   5.103   0.174   4.237
 5864TIP3    H117531   5.075   0.091   4.275
 5864TIP3    H217532   5.154   0.217   4.307
 5865TIP3   OH217533   5.178   1.030   5.445
 5865TIP3    H117534   5.229   1.028   5.526
 5865TIP3    H217535   5.138   1.117   5.443
 5866TIP3   OH217536   5.289   0.310   4.394
 5866TIP3    H117537   5.351   0.335   4.462
 5866TIP3    H217538   5.264   0.393   4.353
 5867TIP3   OH217539   4.455   0.734   5.081
 5867TIP3    H117540   4.492   0.717   4.994
 5867TIP3    H217541   4.519   0.697   5.142
 5868TIP3   OH217542   4.927   0.856   4.243
 5868TIP3    H117543   4.888   0.943   4.252
 5868TIP3    H217544   4.884   0.804   4.310
 5869TIP3   OH217545   4.371   0.620   5.720
 5869TIP3    H117546   4.368   0.617   5.816
 5869TIP3    H217547   4.285   0.588   5.692
 5870TIP3   OH217548   5.069   0.796   5.754
 5870TIP3    H117549   5.008   0.730   5.718
 5870TIP3    H217550   5.154   0.771   5.719
 5871TIP3   OH217551   5.328   1.318   5.333
 5871TIP3    H117552   5.234   1.308   5.341
 5871TIP3    H217553   5.356   1.360   5.415
 5872TIP3   OH217554   5.704   0.395   4.221
 5872TIP3    H117555   5.649   0.355   4.153
 5872TIP3    H217556   5.724   0.482   4.187
 5873TIP3   OH217557   5.971   1.246   5.309
 5873TIP3    H117558   5.876   1.235   5.306
 5873TIP3    H217559   6.002   1.209   5.226
 5874TIP3   OH217560   5.459   1.187   4.162
 5874TIP3    H117561   5.428   1.127   4.229
 5874TIP3    H217562   5.468   1.133   4.083
 5875TIP3   OH217563   5.450   0.824   4.972
 5875TIP3    H117564   5.363   0.789   4.994
 5875TIP3    H217565   5.488   0.758   4.914
 5876TIP3   OH217566   4.587   1.082   4.771
 5876TIP3    H117567   4.567   1.149   4.705
 5876TIP3    H217568   4.593   1.001   4.721
 5877TIP3   OH217569   4.153   0.354   4.484
 5877TIP3    H117570   4.196   0.439   4.486
 5877TIP3    H217571   4.071   0.367   4.530
 5878TIP3   OH217572   4.703   0.829   4.671
 5878TIP3    H117573   4.792   0.838   4.706
 5878TIP3    H217574   4.658   0.773   4.735
 5879TIP3   OH217575   4.865   1.378   5.207
 5879TIP3    H117576   4.903   1.451   5.157
 5879TIP3    H217577   4.939   1.341   5.256
 5880TIP3   OH217578   4.497   1.288   4.590
 5880TIP3    H117579   4.413   1.288   4.637
 5880TIP3    H217580   4.528   1.378   4.596
 5881TIP3   OH217581   5.229   1.015   5.172
 5881TIP3    H117582   5.217   1.015   5.267
 5881TIP3    H217583   5.309   0.963   5.157
 5882TIP3   OH217584   5.201   0.916   4.058
 5882TIP3    H117585   5.262   0.889   4.126
 5882TIP3    H217586   5.114   0.896   4.094
 5883TIP3   OH217587   5.483   1.542   5.218
 5883TIP3    H117588   5.409   1.481   5.230
 5883TIP3    H217589   5.455   1.600   5.148
 5884TIP3   OH217590   5.537   1.387   3.863
 5884TIP3    H117591   5.575   1.457   3.809
 5884TIP3    H217592   5.460   1.426   3.904
 5885TIP3   OH217593   5.379   0.832   4.244
 5885TIP3    H117594   5.368   0.791   4.330
 5885TIP3    H217595   5.474   0.845   4.236
 5886TIP3   OH217596   4.286   1.254   5.372
 5886TIP3    H117597   4.340   1.185   5.410
 5886TIP3    H217598   4.307   1.332   5.423
 5887TIP3   OH217599   4.558   0.892   4.062
 5887TIP3    H117600   4.576   0.802   4.035
 5887TIP3    H217601   4.546   0.886   4.157
 5888TIP3   OH217602   4.513   0.904   4.336
 5888TIP3    H117603   4.584   0.876   4.393
 5888TIP3    H217604   4.516   1.000   4.339
 5889TIP3   OH217605   4.249   0.609   4.537
 5889TIP3    H117606   4.183   0.653   4.591
 5889TIP3    H217607   4.265   0.670   4.465
 5890TIP3   OH217608   4.791   1.090   4.272
 5890TIP3    H117609   4.703   1.123   4.290
 5890TIP3    H217610   4.847   1.138   4.333
 5891TIP3   OH217611   4.983   0.171   4.618
 5891TIP3    H117612   5.030   0.254   4.634
 5891TIP3    H217613   4.973   0.132   4.705
 5892TIP3   OH217614   5.235   0.499   5.481
 5892TIP3    H117615   5.180   0.558   5.532
 5892TIP3    H217616   5.300   0.466   5.543
 5893TIP3   OH217617   4.533   1.178   4.340
 5893TIP3    H117618   4.509   1.247   4.279
 5893TIP3    H217619   4.520   1.216   4.427
 5894TIP3   OH217620   5.508   0.584   4.824
 5894TIP3    H117621   5.435   0.532   4.857
 5894TIP3    H217622   5.579   0.567   4.886
 5895TIP3   OH217623   4.260   0.787   4.322
 5895TIP3    H117624   4.332   0.848   4.334
 5895TIP3    H217625   4.294   0.722   4.260
 5896TIP3   OH217626   4.016   0.137   4.382
 5896TIP3    H117627   4.060   0.204   4.435
 5896TIP3    H217628   4.008   0.062   4.440
 5897TIP3   OH217629   5.508   1.537   4.798
 5897TIP3    H117630   5.466   1.585   4.727
 5897TIP3    H217631   5.602   1.549   4.782
 5898TIP3   OH217632   4.103   1.033   4.722
 5898TIP3    H117633   4.056   1.069   4.797
 5898TIP3    H217634   4.065   1.077   4.646
 5899TIP3   OH217635   4.288   1.571   5.796
 5899TIP3    H117636   4.373   1.573   5.841
 5899TIP3    H217637   4.269   1.478   5.784
 5900TIP3   OH217638   4.758   1.501   5.827
 5900TIP3    H117639   4.850   1.476   5.841
 5900TIP3    H217640   4.729   1.443   5.757
 5901TIP3   OH217641   4.726   1.083   3.955
 5901TIP3    H117642   4.669   1.022   4.003
 5901TIP3    H217643   4.806   1.032   3.940
 5902TIP3   OH217644   5.387   1.430   5.576
 5902TIP3    H117645   5.393   1.362   5.643
 5902TIP3    H217646   5.461   1.487   5.594
 5903TIP3   OH217647   5.172   1.128   3.882
 5903TIP3    H117648   5.197   1.061   3.945
 5903TIP3    H217649   5.236   1.120   3.812
 5904TIP3   OH217650   4.401   0.971   5.984
 5904TIP3    H117651   4.419   0.877   5.992
 5904TIP3    H217652   4.316   0.975   5.941
 5905TIP3   OH217653   4.397   0.594   4.185
 5905TIP3    H117654   4.448   0.571   4.263
 5905TIP3    H217655   4.462   0.605   4.116
 5906TIP3   OH217656   5.017   1.069   5.762
 5906TIP3    H117657   4.973   1.087   5.679
 5906TIP3    H217658   5.045   0.977   5.754
 5907TIP3   OH217659   4.899   0.814   3.977
 5907TIP3    H117660   4.900   0.828   4.072
 5907TIP3    H217661   4.898   0.718   3.967
 5908TIP3   OH217662   5.495   1.095   5.375
 5908TIP3    H117663   5.573   1.125   5.329
 5908TIP3    H217664   5.429   1.161   5.355
 5909TIP3   OH217665   4.534   0.715   5.973
 5909TIP3    H117666   4.619   0.689   5.940
 5909TIP3    H217667   4.549   0.736   6.065
 5910TIP3   OH217668   4.570   0.528   4.398
 5910TIP3    H117669   4.544   0.493   4.483
 5910TIP3    H217670   4.609   0.453   4.352
 5911TIP3   OH217671   4.868   0.620   5.628
 5911TIP3    H117672   4.785   0.664   5.642
 5911TIP3    H217673   4.907   0.663   5.552
 5912TIP3   OH217674   4.681   0.339   4.223
 5912TIP3    H117675   4.651   0.340   4.132
 5912TIP3    H217676   4.776   0.356   4.216
 5913TIP3   OH217677   5.377   0.989   5.740
 5913TIP3    H117678   5.438   0.944   5.681
 5913TIP3    H217679   5.368   0.930   5.815
 5914TIP3   OH217680   5.502   0.634   3.910
 5914TIP3    H117681   5.491   0.594   3.823
 5914TIP3    H217682   5.472   0.724   3.898
 5915TIP3   OH217683   4.986   0.374   5.670
 5915TIP3    H117684   4.931   0.310   5.624
 5915TIP3    H217685   4.945   0.458   5.652
 5916TIP3   OH217686   5.037   0.727   5.432
 5916TIP3    H117687   5.116   0.781   5.426
 5916TIP3    H217688   4.969   0.777   5.386
 5917TIP3   OH217689   5.582   0.647   5.748
 5917TIP3    H117690   5.575   0.636   5.843
 5917TIP3    H217691   5.640   0.723   5.737
 5918TIP3   OH217692   5.617   0.935   5.553
 5918TIP3    H117693   5.560   0.992   5.502
 5918TIP3    H217694   5.705   0.951   5.519
 5919TIP3   OH217695   4.829   0.573   6.013
 5919TIP3    H117696   4.753   0.516   6.018
 5919TIP3    H217697   4.895   0.521   5.967
 5920TIP3   OH217698   5.231   0.455   5.767
 5920TIP3    H117699   5.245   0.436   5.860
 5920TIP3    H217700   5.148   0.412   5.746
 5921TIP3   OH217701   4.513   1.386   4.156
 5921TIP3    H117702   4.603   1.366   4.131
 5921TIP3    H217703   4.477   1.432   4.081
 5922TIP3   OH217704   3.987   0.763   4.354
 5922TIP3    H117705   4.081   0.779   4.344
 5922TIP3    H217706   3.973   0.677   4.314
 5923TIP3   OH217707   3.892   1.355   4.800
 5923TIP3    H117708   3.829   1.298   4.756
 5923TIP3    H217709   3.939   1.297   4.861
 5924TIP3   OH217710   4.034   1.195   4.975
 5924TIP3    H117711   4.025   1.125   5.040
 5924TIP3    H217712   4.087   1.262   5.019
 5925TIP3   OH217713   5.778   1.592   4.780
 5925TIP3    H117714   5.797   1.623   4.868
 5925TIP3    H217715   5.832   1.647   4.723
 5926TIP3   OH217716   5.795   1.624   5.061
 5926TIP3    H117717   5.748   1.541   5.055
 5926TIP3    H217718   5.866   1.607   5.124
 5927TIP3   OH217719   5.842   1.317   5.635
 5927TIP3    H117720   5.769   1.326   5.696
 5927TIP3    H217721   5.886   1.402   5.637
 5928TIP3   OH217722   5.653   0.857   4.233
 5928TIP3    H117723   5.711   0.924   4.199
 5928TIP3    H217724   5.700   0.820   4.307
 5929TIP3   OH217725   5.797   0.739   4.430
 5929TIP3    H117726   5.727   0.717   4.492
 5929TIP3    H217727   5.865   0.778   4.484
 5930TIP3   OH217728   5.842   1.100   4.880
 5930TIP3    H117729   5.890   1.030   4.836
 5930TIP3    H217730   5.840   1.171   4.815
 5931TIP3   OH217731   5.656   1.382   5.068
 5931TIP3    H117732   5.587   1.426   5.118
 5931TIP3    H217733   5.609   1.340   4.996
 5932TIP3   OH217734   5.711   0.633   4.088
 5932TIP3    H117735   5.640   0.620   4.024
 5932TIP3    H217736   5.685   0.711   4.137
 5933TIP3   OH217737   5.545   0.323   4.015
 5933TIP3    H117738   5.519   0.339   3.924
 5933TIP3    H217739   5.481   0.261   4.048
 5934TIP3   OH217740   5.596   0.631   4.575
 5934TIP3    H117741   5.629   0.544   4.554
 5934TIP3    H217742   5.577   0.627   4.669
 5935TIP3   OH217743   4.209   0.616   5.348
 5935TIP3    H117744   4.197   0.598   5.255
 5935TIP3    H217745   4.304   0.625   5.358
 5936TIP3   OH217746   5.863   0.980   5.442
 5936TIP3    H117747   5.936   0.921   5.424
 5936TIP3    H217748   5.869   1.047   5.373
 5937TIP3   OH217749   6.070   0.805   5.439
 5937TIP3    H117750   6.016   0.730   5.463
 5937TIP3    H217751   6.141   0.806   5.503
 5938TIP3   OH217752   5.685   0.383   4.488
 5938TIP3    H117753   5.655   0.293   4.503
 5938TIP3    H217754   5.682   0.394   4.393
 5939TIP3   OH217755   5.724   0.569   4.980
 5939TIP3    H117756   5.811   0.576   4.942
 5939TIP3    H217757   5.739   0.565   5.075
 5940TIP3   OH217758   5.812   0.614   5.234
 5940TIP3    H117759   5.734   0.648   5.279
 5940TIP3    H217760   5.852   0.692   5.194
 5941TIP3   OH217761   4.360   0.266   6.041
 5941TIP3    H117762   4.407   0.193   6.001
 5941TIP3    H217763   4.307   0.226   6.110
 5942TIP3   OH217764   4.189   0.318   5.423
 5942TIP3    H117765   4.229   0.290   5.341
 5942TIP3    H217766   4.218   0.409   5.434
 5943TIP3   OH217767   5.338   1.500   4.417
 5943TIP3    H117768   5.392   1.487   4.340
 5943TIP3    H217769   5.384   1.567   4.468
 5944TIP3   OH217770   4.435   1.295   5.804
 5944TIP3    H117771   4.342   1.274   5.795
 5944TIP3    H217772   4.455   1.275   5.896
 5945TIP3   OH217773   4.635   1.336   5.355
 5945TIP3    H117774   4.584   1.410   5.322
 5945TIP3    H217775   4.720   1.344   5.311
 5946TIP3   OH217776   5.049   1.569   5.491
 5946TIP3    H117777   5.087   1.562   5.579
 5946TIP3    H217778   5.112   1.623   5.442
 5947TIP3   OH217779   5.235   1.727   5.361
 5947TIP3    H117780   5.298   1.672   5.313
 5947TIP3    H217781   5.290   1.781   5.417
 5948TIP3   OH217782   4.299   1.593   5.395
 5948TIP3    H117783   4.207   1.614   5.375
 5948TIP3    H217784   4.321   1.652   5.467
 5949TIP3   OH217785   4.531   1.569   5.248
 5949TIP3    H117786   4.447   1.577   5.293
 5949TIP3    H217787   4.511   1.592   5.157
 5950TIP3   OH217788   4.953   1.584   5.041
 5950TIP3    H117789   4.884   1.597   4.976
 5950TIP3    H217790   4.963   1.670   5.082
 5951TIP3   OH217791   5.219   1.525   5.096
 5951TIP3    H117792   5.127   1.541   5.076
 5951TIP3    H217793   5.267   1.592   5.047
 5952TIP3   OH217794   5.422   1.706   4.998
 5952TIP3    H117795   5.415   1.792   4.957
 5952TIP3    H217796   5.451   1.648   4.928
 5953TIP3   OH217797   4.210   1.366   5.129
 5953TIP3    H117798   4.234   1.336   5.216
 5953TIP3    H217799   4.280   1.334   5.072
 5954TIP3   OH217800   4.411   1.254   4.988
 5954TIP3    H117801   4.421   1.167   5.026
 5954TIP3    H217802   4.500   1.289   4.982
 5955TIP3   OH217803   4.684   1.340   4.995
 5955TIP3    H117804   4.695   1.247   4.980
 5955TIP3    H217805   4.735   1.358   5.074
 5956TIP3   OH217806   3.991   1.156   4.505
 5956TIP3    H117807   3.908   1.117   4.478
 5956TIP3    H217808   3.986   1.246   4.473
 5957TIP3   OH217809   4.768   1.332   4.080
 5957TIP3    H117810   4.857   1.349   4.049
 5957TIP3    H217811   4.749   1.243   4.049
 5958TIP3   OH217812   5.493   1.456   4.189
 5958TIP3    H117813   5.486   1.361   4.183
 5958TIP3    H217814   5.445   1.488   4.113
 5959TIP3   OH217815   4.082   1.156   4.156
 5959TIP3    H117816   4.084   1.154   4.251
 5959TIP3    H217817   4.163   1.111   4.129
 5960TIP3   OH217818   5.706   1.593   5.382
 5960TIP3    H117819   5.630   1.562   5.332
 5960TIP3    H217820   5.691   1.687   5.392
 5961TIP3   OH217821   6.965   0.963   4.148
 5961TIP3    H117822   6.950   1.056   4.133
 5961TIP3    H217823   6.895   0.919   4.100
 5962TIP3   OH217824   6.985   1.003   4.533
 5962TIP3    H117825   7.022   0.986   4.620
 5962TIP3    H217826   6.941   0.921   4.510
 5963TIP3   OH217827   6.267   0.871   4.878
 5963TIP3    H117828   6.295   0.814   4.950
 5963TIP3    H217829   6.340   0.931   4.866
 5964TIP3   OH217830   7.239   1.281   4.221
 5964TIP3    H117831   7.227   1.219   4.293
 5964TIP3    H217832   7.265   1.363   4.264
 5965TIP3   OH217833   6.263   1.270   4.598
 5965TIP3    H117834   6.245   1.176   4.599
 5965TIP3    H217835   6.357   1.277   4.585
 5966TIP3   OH217836   5.933   0.507   4.386
 5966TIP3    H117837   5.892   0.593   4.390
 5966TIP3    H217838   5.867   0.447   4.421
 5967TIP3   OH217839   6.021   0.825   4.560
 5967TIP3    H117840   6.085   0.758   4.584
 5967TIP3    H217841   6.073   0.901   4.537
 5968TIP3   OH217842   6.891   1.719   4.231
 5968TIP3    H117843   6.924   1.652   4.171
 5968TIP3    H217844   6.883   1.674   4.315
 5969TIP3   OH217845   6.779   1.204   4.562
 5969TIP3    H117846   6.820   1.127   4.522
 5969TIP3    H217847   6.852   1.257   4.592
 5970TIP3   OH217848   7.161   0.719   4.592
 5970TIP3    H117849   7.188   0.628   4.583
 5970TIP3    H217850   7.119   0.740   4.508
 5971TIP3   OH217851   6.610   0.265   4.521
 5971TIP3    H117852   6.582   0.325   4.590
 5971TIP3    H217853   6.530   0.245   4.472
 5972TIP3   OH217854   7.144   0.409   4.266
 5972TIP3    H117855   7.236   0.399   4.292
 5972TIP3    H217856   7.146   0.471   4.193
 5973TIP3   OH217857   6.210   0.655   4.652
 5973TIP3    H117858   6.246   0.659   4.740
 5973TIP3    H217859   6.276   0.610   4.600
 5974TIP3   OH217860   6.599   0.808   4.465
 5974TIP3    H117861   6.694   0.794   4.469
 5974TIP3    H217862   6.566   0.729   4.421
 5975TIP3   OH217863   7.848   0.741   4.736
 5975TIP3    H117864   7.758   0.774   4.740
 5975TIP3    H217865   7.880   0.748   4.826
 5976TIP3   OH217866   6.878   1.188   3.997
 5976TIP3    H117867   6.839   1.163   3.913
 5976TIP3    H217868   6.827   1.264   4.025
 5977TIP3   OH217869   6.635   1.126   4.785
 5977TIP3    H117870   6.574   1.193   4.817
 5977TIP3    H217871   6.678   1.167   4.710
 5978TIP3   OH217872   6.356   0.506   4.841
 5978TIP3    H117873   6.434   0.562   4.845
 5978TIP3    H217874   6.366   0.457   4.759
 5979TIP3   OH217875   6.461   1.318   4.880
 5979TIP3    H117876   6.445   1.407   4.847
 5979TIP3    H217877   6.384   1.298   4.933
 5980TIP3   OH217878   5.840   1.029   4.123
 5980TIP3    H117879   5.807   1.049   4.036
 5980TIP3    H217880   5.866   1.114   4.159
 5981TIP3   OH217881   7.287   1.524   4.363
 5981TIP3    H117882   7.201   1.515   4.403
 5981TIP3    H217883   7.283   1.609   4.318
 5982TIP3   OH217884   6.989   1.558   4.026
 5982TIP3    H117885   7.040   1.478   4.013
 5982TIP3    H217886   7.046   1.628   3.993
 5983TIP3   OH217887   7.135   1.336   3.971
 5983TIP3    H117888   7.078   1.262   3.950
 5983TIP3    H217889   7.180   1.310   4.052
 5984TIP3   OH217890   7.522   1.420   4.712
 5984TIP3    H117891   7.503   1.345   4.655
 5984TIP3    H217892   7.504   1.497   4.658
 5985TIP3   OH217893   6.796   0.839   3.967
 5985TIP3    H117894   6.713   0.882   3.947
 5985TIP3    H217895   6.839   0.828   3.882
 5986TIP3   OH217896   6.758   0.641   3.686
 5986TIP3    H117897   6.836   0.691   3.712
 5986TIP3    H217898   6.793   0.554   3.664
 5987TIP3   OH217899   7.696   1.080   4.562
 5987TIP3    H117900   7.613   1.126   4.561
 5987TIP3    H217901   7.724   1.078   4.471
 5988TIP3   OH217902   7.144   0.920   3.942
 5988TIP3    H117903   7.088   0.939   4.017
 5988TIP3    H217904   7.232   0.915   3.978
 5989TIP3   OH217905   7.389   0.983   4.853
 5989TIP3    H117906   7.371   1.057   4.911
 5989TIP3    H217907   7.304   0.961   4.815
 5990TIP3   OH217908   6.370   0.906   4.343
 5990TIP3    H117909   6.337   0.841   4.280
 5990TIP3    H217910   6.450   0.868   4.378
 5991TIP3   OH217911   6.522   1.311   4.491
 5991TIP3    H117912   6.501   1.293   4.399
 5991TIP3    H217913   6.610   1.275   4.503
 5992TIP3   OH217914   6.500   0.904   4.700
 5992TIP3    H117915   6.536   0.875   4.617
 5992TIP3    H217916   6.550   0.982   4.723
 5993TIP3   OH217917   7.051   1.515   4.496
 5993TIP3    H117918   7.036   1.595   4.547
 5993TIP3    H217919   7.036   1.444   4.559
 5994TIP3   OH217920   6.661   1.423   5.040
 5994TIP3    H117921   6.603   1.483   5.087
 5994TIP3    H217922   6.603   1.370   4.986
 5995TIP3   OH217923   6.987   0.779   3.768
 5995TIP3    H117924   7.044   0.837   3.819
 5995TIP3    H217925   7.017   0.791   3.677
 5996TIP3   OH217926   6.415   1.005   5.136
 5996TIP3    H117927   6.420   1.092   5.177
 5996TIP3    H217928   6.328   0.973   5.159
 5997TIP3   OH217929   6.744   1.432   4.038
 5997TIP3    H117930   6.826   1.482   4.041
 5997TIP3    H217931   6.683   1.488   3.989
 5998TIP3   OH217932   6.454   1.585   5.126
 5998TIP3    H117933   6.427   1.592   5.035
 5998TIP3    H217934   6.374   1.567   5.174
 5999TIP3   OH217935   6.247   0.733   4.146
 5999TIP3    H117936   6.180   0.789   4.106
 5999TIP3    H217937   6.199   0.654   4.173
 6000TIP3   OH217938   7.316   1.374   3.379
 6000TIP3    H117939   7.317   1.468   3.360
 6000TIP3    H217940   7.406   1.345   3.364
 6001TIP3   OH217941   6.043   1.126   5.075
 6001TIP3    H117942   5.971   1.118   5.012
 6001TIP3    H217943   6.076   1.036   5.086
 6002TIP3   OH217944   5.892   1.326   4.714
 6002TIP3    H117945   5.986   1.338   4.720
 6002TIP3    H217946   5.854   1.404   4.754
 6003TIP3   OH217947   7.755   1.793   4.766
 6003TIP3    H117948   7.763   1.698   4.771
 6003TIP3    H217949   7.673   1.813   4.812
 6004TIP3   OH217950   6.854   1.557   4.898
 6004TIP3    H117951   6.850   1.648   4.927
 6004TIP3    H217952   6.786   1.513   4.949
 6005TIP3   OH217953   6.631   1.670   3.854
 6005TIP3    H117954   6.583   1.650   3.774
 6005TIP3    H217955   6.596   1.754   3.883
 6006TIP3   OH217956   6.066   1.520   4.234
 6006TIP3    H117957   6.111   1.513   4.319
 6006TIP3    H217958   6.017   1.439   4.226
 6007TIP3   OH217959   6.832   1.591   3.484
 6007TIP3    H117960   6.883   1.518   3.448
 6007TIP3    H217961   6.866   1.602   3.573
 6008TIP3   OH217962   6.884   1.636   3.754
 6008TIP3    H117963   6.798   1.641   3.796
 6008TIP3    H217964   6.942   1.600   3.821
 6009TIP3   OH217965   7.614   0.922   5.019
 6009TIP3    H117966   7.548   0.973   4.973
 6009TIP3    H217967   7.609   0.835   4.980
 6010TIP3   OH217968   6.241   1.317   5.045
 6010TIP3    H117969   6.291   1.312   5.127
 6010TIP3    H217970   6.171   1.252   5.056
 6011TIP3   OH217971   7.534   0.664   4.969
 6011TIP3    H117972   7.459   0.651   5.027
 6011TIP3    H217973   7.499   0.653   4.881
 6012TIP3   OH217974   7.081   0.807   3.521
 6012TIP3    H117975   7.033   0.780   3.442
 6012TIP3    H217976   7.166   0.837   3.488
 6013TIP3   OH217977   6.545   0.707   4.880
 6013TIP3    H117978   6.494   0.729   4.958
 6013TIP3    H217979   6.522   0.774   4.816
 6014TIP3   OH217980   6.455   0.619   4.337
 6014TIP3    H117981   6.361   0.600   4.332
 6014TIP3    H217982   6.493   0.571   4.264
 6015TIP3   OH217983   6.924   0.653   4.114
 6015TIP3    H117984   6.869   0.721   4.074
 6015TIP3    H217985   6.974   0.616   4.041
 6016TIP3   OH217986   7.107   0.953   5.167
 6016TIP3    H117987   7.082   0.869   5.206
 6016TIP3    H217988   7.203   0.955   5.174
 6017TIP3   OH217989   7.080   0.746   4.326
 6017TIP3    H117990   7.026   0.808   4.278
 6017TIP3    H217991   7.025   0.668   4.334
 6018TIP3   OH217992   6.348   0.700   5.077
 6018TIP3    H117993   6.307   0.761   5.139
 6018TIP3    H217994   6.317   0.614   5.104
 6019TIP3   OH217995   6.007   0.358   4.167
 6019TIP3    H117996   6.034   0.288   4.226
 6019TIP3    H217997   5.966   0.423   4.224
 6020TIP3   OH217998   7.127   0.924   4.763
 6020TIP3    H117999   7.148   0.856   4.699
 6020TIP3    H218000   7.091   0.876   4.838
 6021TIP3   OH218001   6.207   0.490   4.361
 6021TIP3    H118002   6.114   0.504   4.376
 6021TIP3    H218003   6.211   0.411   4.306
 6022TIP3   OH218004   6.509   0.473   4.115
 6022TIP3    H118005   6.603   0.461   4.100
 6022TIP3    H218006   6.472   0.483   4.027
 6023TIP3   OH218007   6.358   0.454   3.895
 6023TIP3    H118008   6.269   0.448   3.860
 6023TIP3    H218009   6.409   0.495   3.824
 6024TIP3   OH218010   7.459   2.122   4.869
 6024TIP3    H118011   7.454   2.140   4.775
 6024TIP3    H218012   7.537   2.170   4.898
 6025TIP3   OH218013   6.408   1.251   5.274
 6025TIP3    H118014   6.489   1.268   5.322
 6025TIP3    H218015   6.340   1.249   5.341
 6026TIP3   OH218016   6.861   0.758   4.525
 6026TIP3    H118017   6.893   0.672   4.500
 6026TIP3    H218018   6.849   0.752   4.620
 6027TIP3   OH218019   6.802   0.728   4.788
 6027TIP3    H118020   6.719   0.719   4.836
 6027TIP3    H218021   6.855   0.786   4.843
 6028TIP3   OH218022   6.558   0.972   3.916
 6028TIP3    H118023   6.487   0.910   3.900
 6028TIP3    H218024   6.541   1.006   4.004
 6029TIP3   OH218025   7.463   1.221   4.534
 6029TIP3    H118026   7.495   1.267   4.458
 6029TIP3    H218027   7.379   1.184   4.506
 6030TIP3   OH218028   6.918   0.406   3.716
 6030TIP3    H118029   6.895   0.324   3.759
 6030TIP3    H218030   6.968   0.455   3.782
 6031TIP3   OH218031   6.973   1.284   4.938
 6031TIP3    H118032   7.023   1.282   5.020
 6031TIP3    H218033   6.934   1.371   4.936
 6032TIP3   OH218034   7.064   0.554   3.904
 6032TIP3    H118035   7.140   0.574   3.959
 6032TIP3    H218036   7.053   0.632   3.849
 6033TIP3   OH218037   6.253   0.990   4.577
 6033TIP3    H118038   6.290   0.970   4.491
 6033TIP3    H218039   6.311   0.948   4.639
 6034TIP3   OH218040   6.726   1.123   3.763
 6034TIP3    H118041   6.681   1.207   3.761
 6034TIP3    H218042   6.667   1.066   3.814
 6035TIP3   OH218043   6.164   0.880   5.190
 6035TIP3    H118044   6.159   0.874   5.286
 6035TIP3    H218045   6.080   0.847   5.159
 6036TIP3   OH218046   6.863   1.055   5.234
 6036TIP3    H118047   6.802   0.987   5.207
 6036TIP3    H218048   6.948   1.027   5.199
 6037TIP3   OH218049   7.126   1.573   4.820
 6037TIP3    H118050   7.031   1.562   4.827
 6037TIP3    H218051   7.151   1.615   4.902
 6038TIP3   OH218052   7.500   0.655   3.693
 6038TIP3    H118053   7.432   0.619   3.636
 6038TIP3    H218054   7.515   0.743   3.660
 6039TIP3   OH218055   7.770   1.514   4.787
 6039TIP3    H118056   7.676   1.494   4.788
 6039TIP3    H218057   7.801   1.479   4.703
 6040TIP3   OH218058   7.248   1.440   3.647
 6040TIP3    H118059   7.220   1.371   3.707
 6040TIP3    H218060   7.261   1.396   3.563
 6041TIP3   OH218061   7.228   1.103   4.438
 6041TIP3    H118062   7.139   1.077   4.461
 6041TIP3    H218063   7.265   1.025   4.397
 6042TIP3   OH218064   6.382   1.313   4.237
 6042TIP3    H118065   6.379   1.390   4.181
 6042TIP3    H218066   6.290   1.294   4.257
 6043TIP3   OH218067   5.949   0.619   3.959
 6043TIP3    H118068   5.995   0.702   3.964
 6043TIP3    H218069   5.870   0.632   4.011
 6044TIP3   OH218070   6.488   1.072   4.156
 6044TIP3    H118071   6.467   1.162   4.179
 6044TIP3    H218072   6.450   1.019   4.225
 6045TIP3   OH218073   6.663   1.636   4.695
 6045TIP3    H118074   6.699   1.709   4.644
 6045TIP3    H218075   6.737   1.602   4.744
 6046TIP3   OH218076   6.297   1.539   4.084
 6046TIP3    H118077   6.211   1.544   4.126
 6046TIP3    H218078   6.330   1.629   4.088
 6047TIP3   OH218079   7.024   1.293   4.665
 6047TIP3    H118080   7.016   1.285   4.760
 6047TIP3    H218081   7.099   1.237   4.642
 6048TIP3   OH218082   7.003   1.178   3.536
 6048TIP3    H118083   7.054   1.155   3.613
 6048TIP3    H218084   6.919   1.133   3.548
 6049TIP3   OH218085   7.277   1.800   4.706
 6049TIP3    H118086   7.203   1.739   4.714
 6049TIP3    H218087   7.251   1.858   4.634
 6050TIP3   OH218088   7.333   1.648   3.345
 6050TIP3    H118089   7.350   1.710   3.274
 6050TIP3    H218090   7.261   1.687   3.394
 6051TIP3   OH218091   7.170   1.111   3.741
 6051TIP3    H118092   7.156   1.047   3.811
 6051TIP3    H218093   7.265   1.114   3.730
 6052TIP3   OH218094   6.092   1.515   4.854
 6052TIP3    H118095   6.142   1.450   4.903
 6052TIP3    H218096   6.106   1.597   4.902
 6053TIP3   OH218097   6.362   1.148   3.545
 6053TIP3    H118098   6.374   1.057   3.518
 6053TIP3    H218099   6.346   1.143   3.639
 6054TIP3   OH218100   6.310   1.159   3.817
 6054TIP3    H118101   6.384   1.129   3.869
 6054TIP3    H218102   6.312   1.255   3.826
 6055TIP3   OH218103   6.045   0.871   4.024
 6055TIP3    H118104   5.978   0.915   4.076
 6055TIP3    H218105   6.062   0.931   3.951
 6056TIP3   OH218106   6.581   1.352   3.762
 6056TIP3    H118107   6.494   1.375   3.796
 6056TIP3    H218108   6.603   1.424   3.703
 6057TIP3   OH218109   6.781   0.431   4.105
 6057TIP3    H118110   6.829   0.513   4.110
 6057TIP3    H218111   6.757   0.412   4.196
 6058TIP3   OH218112   7.030   0.764   4.964
 6058TIP3    H118113   6.988   0.832   5.017
 6058TIP3    H218114   7.094   0.723   5.023
 6059TIP3   OH218115   6.327   1.432   3.833
 6059TIP3    H118116   6.303   1.502   3.771
 6059TIP3    H218117   6.314   1.471   3.919
 6060TIP3   OH218118   7.321   0.866   4.329
 6060TIP3    H118119   7.241   0.816   4.343
 6060TIP3    H218120   7.385   0.826   4.387
 6061TIP3   OH218121   6.056   1.045   3.806
 6061TIP3    H118122   6.128   1.107   3.817
 6061TIP3    H218123   6.089   0.979   3.746
 6062TIP3   OH218124   5.801   0.410   3.862
 6062TIP3    H118125   5.851   0.477   3.908
 6062TIP3    H218126   5.802   0.334   3.921
 6063TIP3   OH218127   7.304   1.792   4.283
 6063TIP3    H118128   7.261   1.841   4.213
 6063TIP3    H218129   7.397   1.804   4.267
 6064TIP3   OH218130   5.898   1.292   4.210
 6064TIP3    H118131   5.851   1.328   4.285
 6064TIP3    H218132   5.858   1.335   4.134
 6065TIP3   OH218133   6.085   1.828   5.275
 6065TIP3    H118134   6.168   1.832   5.323
 6065TIP3    H218135   6.065   1.735   5.268
 6066TIP3   OH218136   6.555   1.754   5.320
 6066TIP3    H118137   6.648   1.733   5.327
 6066TIP3    H218138   6.523   1.698   5.249
 6067TIP3   OH218139   6.526   1.344   3.440
 6067TIP3    H118140   6.476   1.274   3.484
 6067TIP3    H218141   6.601   1.299   3.401
 6068TIP3   OH218142   7.185   1.686   5.063
 6068TIP3    H118143   7.192   1.618   5.130
 6068TIP3    H218144   7.259   1.744   5.079
 6069TIP3   OH218145   6.964   1.385   3.361
 6069TIP3    H118146   6.992   1.319   3.424
 6069TIP3    H218147   7.026   1.376   3.288
 6070TIP3   OH218148   6.201   1.243   5.466
 6070TIP3    H118149   6.231   1.152   5.468
 6070TIP3    H218150   6.115   1.239   5.426
 6071TIP3   OH218151   6.187   0.849   3.670
 6071TIP3    H118152   6.237   0.823   3.747
 6071TIP3    H218153   6.252   0.860   3.601
 6072TIP3   OH218154   6.814   1.326   5.246
 6072TIP3    H118155   6.768   1.345   5.165
 6072TIP3    H218156   6.841   1.234   5.237
 6073TIP3   OH218157   6.733   1.067   3.492
 6073TIP3    H118158   6.719   1.076   3.586
 6073TIP3    H218159   6.729   0.973   3.476
 6074TIP3   OH218160   7.292   1.350   4.856
 6074TIP3    H118161   7.371   1.378   4.810
 6074TIP3    H218162   7.228   1.418   4.837
 6075TIP3   OH218163   6.330   0.998   5.426
 6075TIP3    H118164   6.423   0.987   5.409
 6075TIP3    H218165   6.312   0.945   5.503
 6076TIP3   OH218166   6.360   0.782   3.882
 6076TIP3    H118167   6.340   0.745   3.968
 6076TIP3    H218168   6.406   0.712   3.836
 6077TIP3   OH218169   6.661   0.876   5.112
 6077TIP3    H118170   6.578   0.922   5.122
 6077TIP3    H218171   6.704   0.918   5.038
 6078TIP3   OH218172   6.489   0.601   3.714
 6078TIP3    H118173   6.460   0.602   3.623
 6078TIP3    H218174   6.584   0.615   3.709
 6079TIP3   OH218175   7.172   1.249   5.219
 6079TIP3    H118176   7.240   1.208   5.165
 6079TIP3    H218177   7.165   1.191   5.295
 6080TIP3   OH218178   7.305   0.896   3.385
 6080TIP3    H118179   7.282   0.853   3.303
 6080TIP3    H218180   7.276   0.986   3.374
 6081TIP3   OH218181   6.776   0.629   5.163
 6081TIP3    H118182   6.726   0.565   5.112
 6081TIP3    H218183   6.736   0.713   5.142
 6082TIP3   OH218184   6.830   0.990   4.921
 6082TIP3    H118185   6.905   1.050   4.918
 6082TIP3    H218186   6.761   1.036   4.874
 6083TIP3   OH218187   7.374   0.904   5.218
 6083TIP3    H118188   7.371   0.897   5.314
 6083TIP3    H218189   7.448   0.962   5.201
 6084TIP3   OH218190   7.413   1.194   5.040
 6084TIP3    H118191   7.359   1.252   4.986
 6084TIP3    H218192   7.502   1.205   5.005
 6085TIP3   OH218193   6.652   0.838   5.446
 6085TIP3    H118194   6.598   0.806   5.518
 6085TIP3    H218195   6.716   0.768   5.431
 6086TIP3   OH218196   7.023   0.714   5.252
 6086TIP3    H118197   7.039   0.690   5.343
 6086TIP3    H218198   6.940   0.671   5.230
 6087TIP3   OH218199   6.315   1.638   3.646
 6087TIP3    H118200   6.406   1.619   3.622
 6087TIP3    H218201   6.279   1.685   3.571
 6088TIP3   OH218202   5.784   1.022   3.839
 6088TIP3    H118203   5.878   1.041   3.830
 6088TIP3    H218204   5.773   0.935   3.801
 6089TIP3   OH218205   5.695   1.612   4.286
 6089TIP3    H118206   5.631   1.558   4.240
 6089TIP3    H218207   5.739   1.552   4.346
 6090TIP3   OH218208   5.835   1.447   4.458
 6090TIP3    H118209   5.824   1.380   4.525
 6090TIP3    H218210   5.887   1.516   4.501
 6091TIP3   OH218211   7.573   1.844   4.262
 6091TIP3    H118212   7.597   1.877   4.349
 6091TIP3    H218213   7.635   1.886   4.203
 6092TIP3   OH218214   7.589   1.883   4.544
 6092TIP3    H118215   7.542   1.799   4.540
 6092TIP3    H218216   7.664   1.865   4.601
 6093TIP3   OH218217   7.636   1.574   5.120
 6093TIP3    H118218   7.564   1.583   5.182
 6093TIP3    H218219   7.679   1.660   5.122
 6094TIP3   OH218220   7.446   1.112   3.719
 6094TIP3    H118221   7.507   1.176   3.682
 6094TIP3    H218222   7.490   1.081   3.799
 6095TIP3   OH218223   7.582   1.017   3.933
 6095TIP3    H118224   7.507   0.986   3.984
 6095TIP3    H218225   7.644   1.049   3.999
 6096TIP3   OH218226   7.638   1.346   4.359
 6096TIP3    H118227   7.689   1.279   4.314
 6096TIP3    H218228   7.641   1.421   4.300
 6097TIP3   OH218229   7.452   1.639   4.558
 6097TIP3    H118230   7.383   1.683   4.608
 6097TIP3    H218231   7.405   1.597   4.486
 6098TIP3   OH218232   7.507   0.894   3.566
 6098TIP3    H118233   7.437   0.889   3.501
 6098TIP3    H218234   7.484   0.970   3.620
 6099TIP3   OH218235   7.335   0.578   3.487
 6099TIP3    H118236   7.359   0.632   3.413
 6099TIP3    H218237   7.319   0.491   3.450
 6100TIP3   OH218238   7.385   0.898   4.069
 6100TIP3    H118239   7.420   0.812   4.045
 6100TIP3    H218240   7.370   0.893   4.164
 6101TIP3   OH218241   6.003   0.881   4.828
 6101TIP3    H118242   5.991   0.857   4.736
 6101TIP3    H218243   6.097   0.888   4.839
 6102TIP3   OH218244   7.661   1.234   4.926
 6102TIP3    H118245   7.731   1.171   4.912
 6102TIP3    H218246   7.665   1.292   4.850
 6103TIP3   OH218247   7.867   1.057   4.927
 6103TIP3    H118248   7.823   0.975   4.951
 6103TIP3    H218249   7.941   1.063   4.987
 6104TIP3   OH218250   7.463   0.661   3.962
 6104TIP3    H118251   7.416   0.578   3.970
 6104TIP3    H218252   7.488   0.667   3.870
 6105TIP3   OH218253   7.522   0.776   4.480
 6105TIP3    H118254   7.603   0.803   4.436
 6105TIP3    H218255   7.537   0.796   4.572
 6106TIP3   OH218256   7.605   0.871   4.722
 6106TIP3    H118257   7.527   0.905   4.766
 6106TIP3    H218258   7.641   0.947   4.676
 6107TIP3   OH218259   6.144   0.523   5.520
 6107TIP3    H118260   6.193   0.450   5.482
 6107TIP3    H218261   6.105   0.486   5.600
 6108TIP3   OH218262   5.997   0.582   4.912
 6108TIP3    H118263   6.047   0.551   4.837
 6108TIP3    H218264   6.044   0.659   4.942
 6109TIP3   OH218265   7.134   1.753   3.910
 6109TIP3    H118266   7.190   1.740   3.834
 6109TIP3    H218267   7.178   1.820   3.962
 6110TIP3   OH218268   6.232   1.547   5.289
 6110TIP3    H118269   6.138   1.531   5.280
 6110TIP3    H218270   6.251   1.528   5.381
 6111TIP3   OH218271   6.434   1.592   4.842
 6111TIP3    H118272   6.381   1.665   4.809
 6111TIP3    H218273   6.519   1.603   4.799
 6112TIP3   OH218274   6.848   1.824   4.977
 6112TIP3    H118275   6.885   1.819   5.065
 6112TIP3    H218276   6.910   1.878   4.928
 6113TIP3   OH218277   7.034   1.982   4.848
 6113TIP3    H118278   7.098   1.929   4.800
 6113TIP3    H218279   7.087   2.038   4.905
 6114TIP3   OH218280   6.097   1.842   4.885
 6114TIP3    H118281   6.006   1.861   4.862
 6114TIP3    H218282   6.118   1.906   4.953
 6115TIP3   OH218283   6.327   1.823   4.734
 6115TIP3    H118284   6.244   1.831   4.782
 6115TIP3    H218285   6.306   1.850   4.645
 6116TIP3   OH218286   6.749   1.842   4.527
 6116TIP3    H118287   6.678   1.854   4.463
 6116TIP3    H218288   6.760   1.928   4.567
 6117TIP3   OH218289   7.015   1.781   4.579
 6117TIP3    H118290   6.923   1.798   4.559
 6117TIP3    H218291   7.063   1.848   4.531
 6118TIP3   OH218292   7.218   1.961   4.484
 6118TIP3    H118293   7.210   2.047   4.442
 6118TIP3    H218294   7.247   1.903   4.413
 6119TIP3   OH218295   6.011   1.621   4.607
 6119TIP3    H118296   6.033   1.594   4.696
 6119TIP3    H218297   6.082   1.588   4.553
 6120TIP3   OH218298   6.211   1.504   4.467
 6120TIP3    H118299   6.222   1.421   4.515
 6120TIP3    H218300   6.299   1.544   4.469
 6121TIP3   OH218301   6.479   1.590   4.486
 6121TIP3    H118302   6.498   1.497   4.473
 6121TIP3    H218303   6.531   1.614   4.564
 6122TIP3   OH218304   5.784   1.412   3.993
 6122TIP3    H118305   5.699   1.376   3.967
 6122TIP3    H218306   5.783   1.502   3.961
 6123TIP3   OH218307   6.575   1.571   3.583
 6123TIP3    H118308   6.659   1.598   3.547
 6123TIP3    H218309   6.547   1.498   3.527
 6124TIP3   OH218310   7.285   1.709   3.681
 6124TIP3    H118311   7.277   1.613   3.674
 6124TIP3    H218312   7.239   1.742   3.604
 6125TIP3   OH218313   5.877   1.415   3.641
 6125TIP3    H118314   5.879   1.424   3.736
 6125TIP3    H218315   5.959   1.370   3.620
 6126TIP3   OH218316   7.503   1.849   4.867
 6126TIP3    H118317   7.427   1.817   4.817
 6126TIP3    H218318   7.487   1.943   4.877
 6127TIP3   OH218319   8.047   1.527   4.117
 6127TIP3    H118320   8.027   1.434   4.101
 6127TIP3    H218321   8.132   1.526   4.161
 6128TIP3   OH218322   7.753   0.783   3.935
 6128TIP3    H118323   7.671   0.819   3.901
 6128TIP3    H218324   7.796   0.745   3.858
 6129TIP3   OH218325   7.849   1.005   4.057
 6129TIP3    H118326   7.811   0.926   4.018
 6129TIP3    H218327   7.899   1.045   3.985
 6130TIP3   OH218328   7.641   1.274   3.611
 6130TIP3    H118329   7.604   1.292   3.525
 6130TIP3    H218330   7.660   1.361   3.647
 6131TIP3   OH218331   8.239   1.919   4.649
 6131TIP3    H118332   8.242   1.872   4.565
 6131TIP3    H218333   8.164   1.882   4.695
 6132TIP3   OH218334   7.841   1.398   4.550
 6132TIP3    H118335   7.769   1.373   4.492
 6132TIP3    H218336   7.874   1.314   4.583
 6133TIP3   OH218337   7.691   1.583   4.210
 6133TIP3    H118338   7.784   1.605   4.222
 6133TIP3    H218339   7.644   1.659   4.243
 6134TIP3   OH218340   7.844   1.783   3.739
 6134TIP3    H118341   7.913   1.773   3.804
 6134TIP3    H218342   7.812   1.693   3.725
 6135TIP3   OH218343   8.021   1.605   4.527
 6135TIP3    H118344   8.094   1.574   4.581
 6135TIP3    H218345   7.958   1.533   4.528
 6136TIP3   OH218346   7.855   0.661   3.708
 6136TIP3    H118347   7.846   0.643   3.615
 6136TIP3    H218348   7.840   0.576   3.750
 6137TIP3   OH218349   8.210   1.486   4.733
 6137TIP3    H118350   8.190   1.554   4.798
 6137TIP3    H218351   8.178   1.405   4.773
 6138TIP3   OH218352   7.928   1.170   4.677
 6138TIP3    H118353   7.941   1.146   4.768
 6138TIP3    H218354   7.852   1.118   4.649
 6139TIP3   OH218355   7.733   0.867   3.416
 6139TIP3    H118356   7.792   0.940   3.436
 6139TIP3    H218357   7.657   0.882   3.473
 6140TIP3   OH218358   7.885   1.780   4.342
 6140TIP3    H118359   7.937   1.722   4.397
 6140TIP3    H218360   7.901   1.868   4.378
 6141TIP3   OH218361   7.837   1.112   3.488
 6141TIP3    H118362   7.779   1.156   3.551
 6141TIP3    H218363   7.846   1.175   3.416
 6142TIP3   OH218364   7.841   1.304   3.278
 6142TIP3    H118365   7.904   1.370   3.307
 6142TIP3    H218366   7.854   1.298   3.184
 6143TIP3   OH218367   7.604   0.633   3.356
 6143TIP3    H118368   7.653   0.709   3.387
 6143TIP3    H218369   7.622   0.565   3.420
 6144TIP3   OH218370   7.682   1.539   3.696
 6144TIP3    H118371   7.636   1.579   3.770
 6144TIP3    H218372   7.647   1.584   3.619
 6145TIP3   OH218373   7.870   2.070   4.761
 6145TIP3    H118374   7.952   2.067   4.809
 6145TIP3    H218375   7.842   1.979   4.756
 6146TIP3   OH218376   7.987   1.499   4.961
 6146TIP3    H118377   8.027   1.413   4.945
 6146TIP3    H218378   7.906   1.498   4.911
 6147TIP3   OH218379   8.135   1.263   4.890
 6147TIP3    H118380   8.189   1.199   4.842
 6147TIP3    H218381   8.108   1.217   4.969
 6148TIP3   OH218382   7.572   1.278   3.340
 6148TIP3    H118383   7.665   1.289   3.321
 6148TIP3    H218384   7.550   1.193   3.302
 6149TIP3   OH218385   7.487   1.866   3.774
 6149TIP3    H118386   7.422   1.812   3.730
 6149TIP3    H218387   7.533   1.806   3.833
 6150TIP3   OH218388   7.623   1.697   3.947
 6150TIP3    H118389   7.616   1.631   4.016
 6150TIP3    H218390   7.684   1.762   3.981
 6151TIP3   OH218391   7.815   1.139   4.299
 6151TIP3    H118392   7.815   1.085   4.220
 6151TIP3    H218393   7.908   1.159   4.313
 6152TIP3   OH218394   7.905   0.794   5.033
 6152TIP3    H118395   7.996   0.822   5.031
 6152TIP3    H218396   7.909   0.701   5.056
 6153TIP3   OH218397   7.779   0.838   4.393
 6153TIP3    H118398   7.828   0.804   4.318
 6153TIP3    H218399   7.846   0.875   4.451
 6154TIP3   OH218400   8.037   1.802   4.808
 6154TIP3    H118401   7.953   1.783   4.766
 6154TIP3    H218402   8.027   1.771   4.898
 6155TIP3   OH218403   7.878   2.073   4.385
 6155TIP3    H118404   7.791   2.103   4.359
 6155TIP3    H218405   7.907   2.138   4.449
 6156TIP3   OH218406   8.107   2.046   4.230
 6156TIP3    H118407   8.029   2.055   4.284
 6156TIP3    H218408   8.090   2.103   4.154
 6157TIP3   OH218409   7.804   1.871   4.091
 6157TIP3    H118410   7.832   1.848   4.180
 6157TIP3    H218411   7.875   1.840   4.035
 6158TIP3   OH218412   8.011   1.751   3.962
 6158TIP3    H118413   8.018   1.669   4.010
 6158TIP3    H218414   8.093   1.797   3.981
 6159TIP3   OH218415   7.582   1.663   3.472
 6159TIP3    H118416   7.495   1.636   3.442
 6159TIP3    H218417   7.587   1.756   3.450
 6160TIP3   OH218418   7.644   1.692   3.153
 6160TIP3    H118419   7.615   1.747   3.226
 6160TIP3    H218420   7.682   1.615   3.195
 6161TIP3   OH218421   1.229   2.027   5.305
 6161TIP3    H118422   1.196   2.113   5.281
 6161TIP3    H218423   1.160   1.966   5.281
 6162TIP3   OH218424   1.226   2.011   5.722
 6162TIP3    H118425   1.272   1.990   5.804
 6162TIP3    H218426   1.186   1.928   5.696
 6163TIP3   OH218427   0.540   1.923   6.061
 6163TIP3    H118428   0.562   1.847   6.115
 6163TIP3    H218429   0.618   1.938   6.008
 6164TIP3   OH218430   1.488   2.320   5.398
 6164TIP3    H118431   1.475   2.253   5.465
 6164TIP3    H218432   1.511   2.399   5.447
 6165TIP3   OH218433   0.499   2.316   5.790
 6165TIP3    H118434   0.497   2.222   5.775
 6165TIP3    H218435   0.569   2.329   5.854
 6166TIP3   OH218436   0.268   1.812   5.791
 6166TIP3    H118437   0.322   1.737   5.814
 6166TIP3    H218438   0.294   1.834   5.702
 6167TIP3   OH218439   1.125   2.758   5.404
 6167TIP3    H118440   1.172   2.689   5.357
 6167TIP3    H218441   1.128   2.731   5.495
 6168TIP3   OH218442   1.035   2.235   5.746
 6168TIP3    H118443   1.074   2.154   5.712
 6168TIP3    H218444   1.110   2.288   5.773
 6169TIP3   OH218445   2.075   1.553   5.749
 6169TIP3    H118446   2.087   1.641   5.785
 6169TIP3    H218447   2.093   1.564   5.655
 6170TIP3   OH218448   1.444   1.722   5.775
 6170TIP3    H118449   1.491   1.641   5.793
 6170TIP3    H218450   1.405   1.708   5.688
 6171TIP3   OH218451   1.486   1.492   5.356
 6171TIP3    H118452   1.553   1.481   5.424
 6171TIP3    H218453   1.535   1.523   5.280
 6172TIP3   OH218454   0.441   1.604   5.846
 6172TIP3    H118455   0.505   1.568   5.907
 6172TIP3    H218456   0.450   1.550   5.767
 6173TIP3   OH218457   0.851   1.806   5.670
 6173TIP3    H118458   0.944   1.785   5.667
 6173TIP3    H218459   0.808   1.730   5.631
 6174TIP3   OH218460   2.129   1.782   5.915
 6174TIP3    H118461   2.038   1.810   5.902
 6174TIP3    H218462   2.150   1.811   6.003
 6175TIP3   OH218463   0.821   1.416   6.200
 6175TIP3    H118464   0.766   1.440   6.125
 6175TIP3    H218465   0.762   1.368   6.258
 6176TIP3   OH218466   1.111   2.238   5.168
 6176TIP3    H118467   1.076   2.208   5.085
 6176TIP3    H218468   1.064   2.320   5.186
 6177TIP3   OH218469   0.883   2.161   5.967
 6177TIP3    H118470   0.821   2.228   5.997
 6177TIP3    H218471   0.930   2.202   5.895
 6178TIP3   OH218472   1.673   1.503   5.552
 6178TIP3    H118473   1.680   1.439   5.623
 6178TIP3    H218474   1.719   1.580   5.585
 6179TIP3   OH218475   0.677   1.494   5.977
 6179TIP3    H118476   0.734   1.570   5.967
 6179TIP3    H218477   0.703   1.435   5.906
 6180TIP3   OH218478   0.698   2.358   6.053
 6180TIP3    H118479   0.693   2.451   6.032
 6180TIP3    H218480   0.625   2.343   6.112
 6181TIP3   OH218481   0.121   2.060   5.298
 6181TIP3    H118482   0.065   2.081   5.223
 6181TIP3    H218483   0.145   2.145   5.335
 6182TIP3   OH218484   1.533   2.566   5.540
 6182TIP3    H118485   1.447   2.557   5.580
 6182TIP3    H218486   1.530   2.651   5.496
 6183TIP3   OH218487   1.855   1.461   5.914
 6183TIP3    H118488   1.769   1.482   5.879
 6183TIP3    H218489   1.916   1.481   5.843
 6184TIP3   OH218490   1.164   1.114   5.891
 6184TIP3    H118491   1.120   1.075   5.815
 6184TIP3    H218492   1.093   1.145   5.947
 6185TIP3   OH218493   1.245   2.592   5.219
 6185TIP3    H118494   1.296   2.513   5.202
 6185TIP3    H218495   1.298   2.662   5.181
 6186TIP3   OH218496   1.393   2.377   5.145
 6186TIP3    H118497   1.358   2.296   5.107
 6186TIP3    H218498   1.433   2.350   5.227
 6187TIP3   OH218499   1.764   2.465   5.886
 6187TIP3    H118500   1.748   2.389   5.829
 6187TIP3    H218501   1.748   2.541   5.829
 6188TIP3   OH218502   1.058   1.867   5.154
 6188TIP3    H118503   0.974   1.909   5.134
 6188TIP3    H218504   1.101   1.860   5.069
 6189TIP3   OH218505   1.024   1.664   4.855
 6189TIP3    H118506   1.092   1.712   4.903
 6189TIP3    H218507   1.072   1.596   4.809
 6190TIP3   OH218508   1.949   2.114   5.740
 6190TIP3    H118509   1.866   2.161   5.743
 6190TIP3    H218510   1.984   2.134   5.653
 6191TIP3   OH218511   1.412   1.953   5.117
 6191TIP3    H118512   1.357   1.980   5.190
 6191TIP3    H218513   1.493   1.921   5.157
 6192TIP3   OH218514   1.638   1.987   6.047
 6192TIP3    H118515   1.640   2.069   6.097
 6192TIP3    H218516   1.555   1.989   6.000
 6193TIP3   OH218517   0.646   1.937   5.527
 6193TIP3    H118518   0.607   1.878   5.462
 6193TIP3    H218519   0.716   1.886   5.567
 6194TIP3   OH218520   0.801   2.363   5.657
 6194TIP3    H118521   0.755   2.291   5.614
 6194TIP3    H218522   0.883   2.325   5.686
 6195TIP3   OH218523   0.769   1.918   5.907
 6195TIP3    H118524   0.795   1.889   5.820
 6195TIP3    H218525   0.811   2.003   5.918
 6196TIP3   OH218526   1.296   2.557   5.669
 6196TIP3    H118527   1.283   2.637   5.719
 6196TIP3    H218528   1.282   2.486   5.733
 6197TIP3   OH218529   0.908   2.465   6.216
 6197TIP3    H118530   0.850   2.525   6.264
 6197TIP3    H218531   0.849   2.413   6.162
 6198TIP3   OH218532   1.243   1.814   4.949
 6198TIP3    H118533   1.304   1.870   4.999
 6198TIP3    H218534   1.270   1.826   4.858
 6199TIP3   OH218535   0.703   2.022   6.339
 6199TIP3    H118536   0.701   2.110   6.378
 6199TIP3    H218537   0.615   2.009   6.305
 6200TIP3   OH218538   0.991   2.511   5.161
 6200TIP3    H118539   1.079   2.534   5.191
 6200TIP3    H218540   0.934   2.540   5.231
 6201TIP3   OH218541   0.703   2.630   6.307
 6201TIP3    H118542   0.681   2.641   6.215
 6201TIP3    H218543   0.618   2.629   6.351
 6202TIP3   OH218544   1.748   1.039   4.996
 6202TIP3    H118545   1.672   1.059   5.051
 6202TIP3    H218546   1.762   1.119   4.945
 6203TIP3   OH218547   0.524   1.788   5.320
 6203TIP3    H118548   0.438   1.814   5.285
 6203TIP3    H218549   0.512   1.696   5.345
 6204TIP3   OH218550   1.574   2.414   4.557
 6204TIP3    H118551   1.574   2.508   4.537
 6204TIP3    H218552   1.663   2.386   4.538
 6205TIP3   OH218553   0.326   2.138   6.237
 6205TIP3    H118554   0.283   2.104   6.158
 6205TIP3    H218555   0.362   2.060   6.279
 6206TIP3   OH218556   0.176   2.331   5.838
 6206TIP3    H118557   0.271   2.329   5.850
 6206TIP3    H218558   0.144   2.386   5.909
 6207TIP3   OH218559   1.999   2.820   5.949
 6207TIP3    H118560   2.005   2.726   5.965
 6207TIP3    H218561   1.920   2.848   5.995
 6208TIP3   OH218562   1.102   2.602   6.076
 6208TIP3    H118563   1.100   2.693   6.106
 6208TIP3    H218564   1.033   2.559   6.126
 6209TIP3   OH218565   0.800   2.719   5.023
 6209TIP3    H118566   0.832   2.698   4.935
 6209TIP3    H218567   0.847   2.799   5.047
 6210TIP3   OH218568   0.337   2.566   5.382
 6210TIP3    H118569   0.387   2.555   5.463
 6210TIP3    H218570   0.292   2.482   5.371
 6211TIP3   OH218571   1.076   2.634   4.667
 6211TIP3    H118572   1.128   2.563   4.629
 6211TIP3    H218573   1.111   2.644   4.756
 6212TIP3   OH218574   1.120   2.679   4.948
 6212TIP3    H118575   1.066   2.623   5.004
 6212TIP3    H218576   1.204   2.684   4.993
 6213TIP3   OH218577   1.887   1.934   6.221
 6213TIP3    H118578   1.804   1.942   6.173
 6213TIP3    H218579   1.906   1.841   6.220
 6214TIP3   OH218580   0.491   2.358   6.245
 6214TIP3    H118581   0.551   2.330   6.315
 6214TIP3    H218582   0.426   2.288   6.240
 6215TIP3   OH218583   0.950   1.229   6.016
 6215TIP3    H118584   0.913   1.250   5.931
 6215TIP3    H218585   0.876   1.234   6.076
 6216TIP3   OH218586   1.657   1.725   6.132
 6216TIP3    H118587   1.601   1.705   6.208
 6216TIP3    H218588   1.628   1.812   6.104
 6217TIP3   OH218589   1.325   1.832   4.692
 6217TIP3    H118590   1.280   1.815   4.609
 6217TIP3    H218591   1.409   1.871   4.667
 6218TIP3   OH218592   1.043   1.228   4.997
 6218TIP3    H118593   1.009   1.229   5.087
 6218TIP3    H218594   1.006   1.149   4.958
 6219TIP3   OH218595   0.849   1.705   6.060
 6219TIP3    H118596   0.784   1.713   6.129
 6219TIP3    H218597   0.832   1.780   6.002
 6220TIP3   OH218598   0.695   1.624   5.541
 6220TIP3    H118599   0.630   1.571   5.588
 6220TIP3    H218600   0.719   1.570   5.465
 6221TIP3   OH218601   1.193   1.672   5.290
 6221TIP3    H118602   1.141   1.739   5.247
 6221TIP3    H218603   1.248   1.636   5.221
 6222TIP3   OH218604   1.368   1.949   6.371
 6222TIP3    H118605   1.340   1.879   6.429
 6222TIP3    H218606   1.461   1.961   6.389
 6223TIP3   OH218607   1.352   1.681   5.515
 6223TIP3    H118608   1.290   1.705   5.446
 6223TIP3    H218609   1.397   1.604   5.481
 6224TIP3   OH218610   0.637   1.729   6.238
 6224TIP3    H118611   0.620   1.790   6.310
 6224TIP3    H218612   0.576   1.657   6.253
 6225TIP3   OH218613   0.706   1.203   4.975
 6225TIP3    H118614   0.693   1.196   5.070
 6225TIP3    H218615   0.629   1.251   4.944
 6226TIP3   OH218616   1.371   1.919   5.946
 6226TIP3    H118617   1.402   1.855   5.882
 6226TIP3    H218618   1.346   1.868   6.022
 6227TIP3   OH218619   1.085   1.411   5.611
 6227TIP3    H118620   1.001   1.393   5.655
 6227TIP3    H218621   1.151   1.386   5.676
 6228TIP3   OH218622   0.490   1.447   5.624
 6228TIP3    H118623   0.424   1.400   5.573
 6228TIP3    H218624   0.560   1.382   5.637
 6229TIP3   OH218625   0.728   1.468   5.318
 6229TIP3    H118626   0.823   1.470   5.301
 6229TIP3    H218627   0.689   1.483   5.232
 6230TIP3   OH218628   1.538   1.464   5.831
 6230TIP3    H118629   1.514   1.452   5.923
 6230TIP3    H218630   1.475   1.410   5.783
 6231TIP3   OH218631   0.591   1.509   5.082
 6231TIP3    H118632   0.536   1.448   5.033
 6231TIP3    H218633   0.650   1.546   5.017
 6232TIP3   OH218634   1.706   3.167   6.046
 6232TIP3    H118635   1.704   3.187   5.952
 6232TIP3    H218636   1.785   3.212   6.078
 6233TIP3   OH218637   0.657   2.274   6.460
 6233TIP3    H118638   0.737   2.300   6.507
 6233TIP3    H218639   0.588   2.278   6.526
 6234TIP3   OH218640   1.123   1.738   5.696
 6234TIP3    H118641   1.180   1.700   5.629
 6234TIP3    H218642   1.113   1.668   5.761
 6235TIP3   OH218643   1.103   1.602   6.089
 6235TIP3    H118644   1.037   1.658   6.048
 6235TIP3    H218645   1.179   1.659   6.100
 6236TIP3   OH218646   0.819   2.003   5.100
 6236TIP3    H118647   0.749   1.940   5.082
 6236TIP3    H218648   0.799   2.038   5.187
 6237TIP3   OH218649   1.712   2.255   5.711
 6237TIP3    H118650   1.743   2.305   5.636
 6237TIP3    H218651   1.631   2.214   5.681
 6238TIP3   OH218652   1.292   1.330   4.987
 6238TIP3    H118653   1.199   1.305   4.989
 6238TIP3    H218654   1.292   1.423   5.008
 6239TIP3   OH218655   1.227   2.339   6.110
 6239TIP3    H118656   1.273   2.330   6.194
 6239TIP3    H218657   1.185   2.425   6.115
 6240TIP3   OH218658   1.350   1.586   5.074
 6240TIP3    H118659   1.445   1.588   5.081
 6240TIP3    H218660   1.328   1.662   5.019
 6241TIP3   OH218661   0.529   2.049   5.753
 6241TIP3    H118662   0.565   2.012   5.672
 6241TIP3    H218663   0.534   1.977   5.816
 6242TIP3   OH218664   0.959   2.169   4.941
 6242TIP3    H118665   0.901   2.245   4.942
 6242TIP3    H218666   0.914   2.103   4.993
 6243TIP3   OH218667   0.434   1.926   6.392
 6243TIP3    H118668   0.470   1.949   6.477
 6243TIP3    H218669   0.356   1.875   6.411
 6244TIP3   OH218670   1.130   2.087   6.414
 6244TIP3    H118671   1.067   2.024   6.379
 6244TIP3    H218672   1.215   2.056   6.384
 6245TIP3   OH218673   1.375   2.616   5.994
 6245TIP3    H118674   1.280   2.605   6.003
 6245TIP3    H218675   1.402   2.658   6.076
 6246TIP3   OH218676   1.776   1.668   4.893
 6246TIP3    H118677   1.719   1.620   4.832
 6246TIP3    H218678   1.777   1.757   4.859
 6247TIP3   OH218679   2.012   2.534   5.980
 6247TIP3    H118680   1.916   2.525   5.976
 6247TIP3    H218681   2.042   2.507   5.893
 6248TIP3   OH218682   1.494   2.485   4.820
 6248TIP3    H118683   1.470   2.414   4.879
 6248TIP3    H218684   1.512   2.442   4.737
 6249TIP3   OH218685   1.481   2.118   5.613
 6249TIP3    H118686   1.391   2.095   5.636
 6249TIP3    H218687   1.518   2.038   5.577
 6250TIP3   OH218688   0.601   2.339   5.407
 6250TIP3    H118689   0.598   2.414   5.466
 6250TIP3    H218690   0.510   2.310   5.399
 6251TIP3   OH218691   0.168   1.639   5.129
 6251TIP3    H118692   0.220   1.719   5.142
 6251TIP3    H218693   0.105   1.641   5.201
 6252TIP3   OH218694   0.737   2.112   5.332
 6252TIP3    H118695   0.700   2.198   5.355
 6252TIP3    H218696   0.710   2.054   5.403
 6253TIP3   OH218697   0.916   2.686   5.872
 6253TIP3    H118698   0.953   2.759   5.823
 6253TIP3    H218699   0.990   2.651   5.923
 6254TIP3   OH218700   1.276   2.334   5.840
 6254TIP3    H118701   1.263   2.332   5.935
 6254TIP3    H218702   1.355   2.281   5.825
 6255TIP3   OH218703   1.259   2.219   4.713
 6255TIP3    H118704   1.307   2.195   4.792
 6255TIP3    H218705   1.176   2.173   4.719
 6256TIP3   OH218706   1.523   2.844   5.883
 6256TIP3    H118707   1.451   2.782   5.892
 6256TIP3    H218708   1.497   2.901   5.811
 6257TIP3   OH218709   1.584   2.689   4.524
 6257TIP3    H118710   1.615   2.755   4.462
 6257TIP3    H218711   1.509   2.730   4.567
 6258TIP3   OH218712   1.427   2.153   4.925
 6258TIP3    H118713   1.413   2.085   4.991
 6258TIP3    H218714   1.521   2.154   4.912
 6259TIP3   OH218715   0.380   2.559   6.009
 6259TIP3    H118716   0.399   2.497   6.080
 6259TIP3    H218717   0.374   2.644   6.053
 6260TIP3   OH218718   0.613   2.186   4.717
 6260TIP3    H118719   0.621   2.097   4.684
 6260TIP3    H218720   0.598   2.176   4.811
 6261TIP3   OH218721   0.588   2.196   4.992
 6261TIP3    H118722   0.626   2.135   5.056
 6261TIP3    H218723   0.649   2.269   4.989
 6262TIP3   OH218724   0.293   1.880   5.192
 6262TIP3    H118725   0.234   1.932   5.246
 6262TIP3    H218726   0.318   1.940   5.121
 6263TIP3   OH218727   1.344   1.273   5.258
 6263TIP3    H118728   1.324   1.291   5.166
 6263TIP3    H218729   1.385   1.354   5.290
 6264TIP3   OH218730   0.789   2.387   4.944
 6264TIP3    H118731   0.838   2.454   4.992
 6264TIP3    H218732   0.793   2.416   4.853
 6265TIP3   OH218733   1.012   1.472   5.352
 6265TIP3    H118734   1.074   1.541   5.328
 6265TIP3    H218735   1.026   1.459   5.445
 6266TIP3   OH218736   1.318   1.764   6.169
 6266TIP3    H118737   1.314   1.839   6.228
 6266TIP3    H218738   1.380   1.704   6.211
 6267TIP3   OH218739   1.168   1.186   5.454
 6267TIP3    H118740   1.151   1.267   5.502
 6267TIP3    H218741   1.233   1.212   5.388
 6268TIP3   OH218742   0.686   1.197   5.246
 6268TIP3    H118743   0.681   1.280   5.294
 6268TIP3    H218744   0.777   1.169   5.256
 6269TIP3   OH218745   1.916   1.657   6.122
 6269TIP3    H118746   1.822   1.676   6.133
 6269TIP3    H218747   1.920   1.594   6.051
 6270TIP3   OH218748   1.576   1.863   5.520
 6270TIP3    H118749   1.498   1.807   5.529
 6270TIP3    H218750   1.643   1.820   5.572
 6271TIP3   OH218751   0.313   2.083   4.990
 6271TIP3    H118752   0.381   2.150   5.002
 6271TIP3    H218753   0.350   2.023   4.925
 6272TIP3   OH218754   0.262   1.386   5.029
 6272TIP3    H118755   0.247   1.468   5.076
 6272TIP3    H218756   0.257   1.319   5.096
 6273TIP3   OH218757   1.549   2.835   5.459
 6273TIP3    H118758   1.509   2.882   5.386
 6273TIP3    H218759   1.643   2.848   5.446
 6274TIP3   OH218760   0.183   2.328   5.372
 6274TIP3    H118761   0.149   2.364   5.454
 6274TIP3    H218762   0.122   2.358   5.305
 6275TIP3   OH218763   0.350   2.901   6.454
 6275TIP3    H118764   0.425   2.910   6.513
 6275TIP3    H218765   0.350   2.808   6.430
 6276TIP3   OH218766   0.808   2.805   6.497
 6276TIP3    H118767   0.899   2.779   6.511
 6276TIP3    H218768   0.777   2.746   6.428
 6277TIP3   OH218769   0.780   2.389   4.642
 6277TIP3    H118770   0.724   2.315   4.663
 6277TIP3    H218771   0.851   2.352   4.590
 6278TIP3   OH218772   1.435   2.730   6.235
 6278TIP3    H118773   1.436   2.661   6.301
 6278TIP3    H218774   1.510   2.785   6.257
 6279TIP3   OH218775   1.211   2.430   4.540
 6279TIP3    H118776   1.244   2.363   4.601
 6279TIP3    H218777   1.269   2.424   4.465
 6280TIP3   OH218778   0.437   2.246   6.629
 6280TIP3    H118779   0.463   2.154   6.627
 6280TIP3    H218780   0.345   2.246   6.602
 6281TIP3   OH218781   0.442   1.892   4.845
 6281TIP3    H118782   0.493   1.863   4.920
 6281TIP3    H218783   0.506   1.900   4.774
 6282TIP3   OH218784   1.062   2.362   6.423
 6282TIP3    H118785   1.019   2.383   6.340
 6282TIP3    H218786   1.096   2.273   6.411
 6283TIP3   OH218787   0.996   2.108   4.675
 6283TIP3    H118788   0.974   2.120   4.767
 6283TIP3    H218789   0.984   2.015   4.659
 6284TIP3   OH218790   1.541   2.389   6.032
 6284TIP3    H118791   1.619   2.422   5.988
 6284TIP3    H218792   1.475   2.456   6.018
 6285TIP3   OH218793   0.543   1.983   6.643
 6285TIP3    H118794   0.594   1.902   6.654
 6285TIP3    H218795   0.557   2.031   6.724
 6286TIP3   OH218796   0.616   1.827   5.054
 6286TIP3    H118797   0.592   1.795   5.142
 6286TIP3    H218798   0.659   1.752   5.013
 6287TIP3   OH218799   0.943   1.889   6.321
 6287TIP3    H118800   0.858   1.933   6.321
 6287TIP3    H218801   0.981   1.910   6.236
 6288TIP3   OH218802   0.750   1.638   4.901
 6288TIP3    H118803   0.720   1.635   4.810
 6288TIP3    H218804   0.845   1.639   4.895
 6289TIP3   OH218805   1.422   2.280   6.414
 6289TIP3    H118806   1.497   2.248   6.365
 6289TIP3    H218807   1.416   2.221   6.490
 6290TIP3   OH218808   1.553   1.936   4.573
 6290TIP3    H118809   1.536   1.891   4.491
 6290TIP3    H218810   1.525   2.026   4.557
 6291TIP3   OH218811   0.986   1.616   6.363
 6291TIP3    H118812   0.966   1.609   6.456
 6291TIP3    H218813   0.982   1.709   6.344
 6292TIP3   OH218814   1.061   1.988   6.094
 6292TIP3    H118815   1.145   2.013   6.057
 6292TIP3    H218816   0.999   2.050   6.055
 6293TIP3   OH218817   1.635   1.955   6.471
 6293TIP3    H118818   1.676   1.869   6.480
 6293TIP3    H218819   1.707   2.012   6.444
 6294TIP3   OH218820   1.673   2.221   6.200
 6294TIP3    H118821   1.617   2.280   6.150
 6294TIP3    H218822   1.761   2.238   6.167
 6295TIP3   OH218823   0.907   1.773   6.614
 6295TIP3    H118824   0.828   1.780   6.667
 6295TIP3    H218825   0.894   1.836   6.543
 6296TIP3   OH218826   1.298   1.732   6.520
 6296TIP3    H118827   1.341   1.725   6.606
 6296TIP3    H218828   1.216   1.684   6.530
 6297TIP3   OH218829   1.511   1.664   6.355
 6297TIP3    H118830   1.442   1.670   6.420
 6297TIP3    H218831   1.589   1.641   6.405
 6298TIP3   OH218832   1.747   1.638   6.508
 6298TIP3    H118833   1.768   1.545   6.515
 6298TIP3    H218834   1.744   1.668   6.598
 6299TIP3   OH218835   1.252   1.245   6.472
 6299TIP3    H118836   1.330   1.190   6.478
 6299TIP3    H218837   1.181   1.183   6.456
 6300TIP3   OH218838   1.328   1.440   6.650
 6300TIP3    H118839   1.310   1.374   6.584
 6300TIP3    H218840   1.245   1.487   6.660
 6301TIP3   OH218841   0.561   2.702   4.873
 6301TIP3    H118842   0.640   2.676   4.825
 6301TIP3    H218843   0.502   2.736   4.805
 6302TIP3   OH218844   0.036   2.047   5.013
 6302TIP3    H118845   0.130   2.062   5.007
 6302TIP3    H218846   0.021   1.966   4.965
 6303TIP3   OH218847   8.463   2.597   5.425
 6303TIP3    H118848   8.389   2.537   5.410
 6303TIP3    H218849   8.519   2.551   5.486
 6304TIP3   OH218850   0.121   2.468   5.604
 6304TIP3    H118851   0.134   2.400   5.671
 6304TIP3    H218852   0.126   2.550   5.653
 6305TIP3   OH218853   1.818   2.891   5.446
 6305TIP3    H118854   1.837   2.921   5.535
 6305TIP3    H218855   1.874   2.944   5.390
 6306TIP3   OH218856   1.839   2.926   5.726
 6306TIP3    H118857   1.792   2.843   5.723
 6306TIP3    H218858   1.910   2.911   5.788
 6307TIP3   OH218859   1.884   2.622   6.295
 6307TIP3    H118860   1.813   2.630   6.358
 6307TIP3    H218861   1.930   2.706   6.299
 6308TIP3   OH218862   1.706   2.135   4.910
 6308TIP3    H118863   1.768   2.202   4.880
 6308TIP3    H218864   1.748   2.097   4.987
 6309TIP3   OH218865   1.827   1.995   5.118
 6309TIP3    H118866   1.758   1.950   5.166
 6309TIP3    H218867   1.886   2.028   5.186
 6310TIP3   OH218868   1.883   2.394   5.540
 6310TIP3    H118869   1.936   2.328   5.494
 6310TIP3    H218870   1.884   2.470   5.482
 6311TIP3   OH218871   1.699   2.685   5.732
 6311TIP3    H118872   1.632   2.727   5.786
 6311TIP3    H218873   1.650   2.641   5.663
 6312TIP3   OH218874   1.754   1.909   4.758
 6312TIP3    H118875   1.684   1.908   4.693
 6312TIP3    H218876   1.734   1.986   4.813
 6313TIP3   OH218877   1.620   1.561   4.694
 6313TIP3    H118878   1.573   1.597   4.620
 6313TIP3    H218879   1.611   1.466   4.684
 6314TIP3   OH218880   1.634   1.847   5.248
 6314TIP3    H118881   1.640   1.752   5.235
 6314TIP3    H218882   1.618   1.857   5.342
 6315TIP3   OH218883   0.268   1.967   6.015
 6315TIP3    H118884   0.258   1.917   5.934
 6315TIP3    H218885   0.361   1.959   6.038
 6316TIP3   OH218886   1.929   2.275   6.108
 6316TIP3    H118887   1.994   2.206   6.094
 6316TIP3    H218888   1.954   2.344   6.048
 6317TIP3   OH218889   2.099   2.060   6.104
 6317TIP3    H118890   2.026   2.017   6.147
 6317TIP3    H218891   2.175   2.006   6.125
 6318TIP3   OH218892   1.580   1.288   4.659
 6318TIP3    H118893   1.641   1.264   4.728
 6318TIP3    H218894   1.496   1.253   4.687
 6319TIP3   OH218895   1.637   1.574   5.130
 6319TIP3    H118896   1.678   1.489   5.147
 6319TIP3    H218897   1.686   1.609   5.055
 6320TIP3   OH218898   1.789   1.735   5.654
 6320TIP3    H118899   1.871   1.753   5.608
 6320TIP3    H218900   1.801   1.773   5.741
 6321TIP3   OH218901   1.865   1.888   5.877
 6321TIP3    H118902   1.792   1.915   5.932
 6321TIP3    H218903   1.894   1.968   5.834
 6322TIP3   OH218904   2.326   1.494   6.417
 6322TIP3    H118905   2.387   1.429   6.383
 6322TIP3    H218906   2.292   1.539   6.340
 6323TIP3   OH218907   1.744   1.323   5.186
 6323TIP3    H118908   1.788   1.308   5.270
 6323TIP3    H218909   1.683   1.249   5.178
 6324TIP3   OH218910   2.177   1.606   6.219
 6324TIP3    H118911   2.097   1.646   6.253
 6324TIP3    H218912   2.145   1.533   6.166
 6325TIP3   OH218913   1.803   1.248   4.822
 6325TIP3    H118914   1.845   1.181   4.767
 6325TIP3    H218915   1.866   1.320   4.824
 6326TIP3   OH218916   1.365   2.791   5.079
 6326TIP3    H118917   1.429   2.782   5.007
 6326TIP3    H218918   1.405   2.856   5.137
 6327TIP3   OH218919   0.459   2.610   6.450
 6327TIP3    H118920   0.437   2.524   6.414
 6327TIP3    H218921   0.466   2.596   6.544
 6328TIP3   OH218922   0.694   2.630   6.025
 6328TIP3    H118923   0.630   2.694   5.991
 6328TIP3    H218924   0.775   2.651   5.979
 6329TIP3   OH218925   1.101   2.868   6.153
 6329TIP3    H118926   1.137   2.862   6.241
 6329TIP3    H218927   1.163   2.922   6.105
 6330TIP3   OH218928   1.290   3.024   6.025
 6330TIP3    H118929   1.357   2.969   5.986
 6330TIP3    H218930   1.337   3.084   6.083
 6331TIP3   OH218931   2.090   1.356   6.113
 6331TIP3    H118932   2.000   1.347   6.081
 6331TIP3    H218933   2.125   1.267   6.110
 6332TIP3   OH218934   0.395   2.841   6.081
 6332TIP3    H118935   0.309   2.846   6.038
 6332TIP3    H218936   0.400   2.921   6.133
 6333TIP3   OH218937   0.599   2.863   5.900
 6333TIP3    H118938   0.521   2.860   5.957
 6333TIP3    H218939   0.564   2.883   5.813
 6334TIP3   OH218940   1.003   2.889   5.701
 6334TIP3    H118941   0.929   2.901   5.641
 6334TIP3    H218942   1.012   2.974   5.744
 6335TIP3   OH218943   1.265   2.822   5.749
 6335TIP3    H118944   1.173   2.844   5.735
 6335TIP3    H218945   1.313   2.895   5.711
 6336TIP3   OH218946   1.464   3.005   5.660
 6336TIP3    H118947   1.459   3.091   5.620
 6336TIP3    H218948   1.494   2.947   5.590
 6337TIP3   OH218949   0.296   2.650   5.750
 6337TIP3    H118950   0.297   2.629   5.843
 6337TIP3    H218951   0.361   2.593   5.711
 6338TIP3   OH218952   0.497   2.516   5.605
 6338TIP3    H118953   0.495   2.444   5.668
 6338TIP3    H218954   0.573   2.568   5.632
 6339TIP3   OH218955   0.745   2.632   5.657
 6339TIP3    H118956   0.771   2.540   5.648
 6339TIP3    H218957   0.788   2.661   5.738
 6340TIP3   OH218958   1.311   1.303   5.749
 6340TIP3    H118959   1.263   1.238   5.800
 6340TIP3    H218960   1.370   1.252   5.693
 6341TIP3   OH218961   1.797   1.216   5.655
 6341TIP3    H118962   1.831   1.246   5.572
 6341TIP3    H218963   1.703   1.201   5.639
 6342TIP3   OH218964   1.903   1.277   5.410
 6342TIP3    H118965   1.969   1.219   5.371
 6342TIP3    H218966   1.938   1.365   5.396
 6343TIP3   OH218967   1.016   1.073   5.666
 6343TIP3    H118968   1.055   1.103   5.583
 6343TIP3    H218969   0.937   1.126   5.675
 6344TIP3   OH218970   1.520   1.167   5.617
 6344TIP3    H118971   1.527   1.124   5.531
 6344TIP3    H218972   1.515   1.094   5.679
 6345TIP3   OH218973   1.560   1.111   5.187
 6345TIP3    H118974   1.480   1.158   5.208
 6345TIP3    H218975   1.550   1.026   5.230
 6346TIP3   OH218976   0.024   2.414   5.168
 6346TIP3    H118977  -0.036   2.370   5.108
 6346TIP3    H218978   0.038   2.501   5.129
 6347TIP3   OH218979   0.963   1.219   5.260
 6347TIP3    H118980   1.013   1.163   5.319
 6347TIP3    H218981   0.980   1.308   5.291
 6348TIP3   OH218982   0.815   2.633   4.761
 6348TIP3    H118983   0.901   2.658   4.725
 6348TIP3    H218984   0.787   2.559   4.707
 6349TIP3   OH218985   1.532   2.753   4.859
 6349TIP3    H118986   1.525   2.658   4.850
 6349TIP3    H218987   1.490   2.788   4.780
 6350TIP3   OH218988   0.137   2.455   4.821
 6350TIP3    H118989   0.141   2.480   4.913
 6350TIP3    H218990   0.220   2.409   4.805
 6351TIP3   OH218991   1.837   1.380   6.529
 6351TIP3    H118992   1.847   1.339   6.615
 6351TIP3    H218993   1.922   1.370   6.487
 6352TIP3   OH218994   1.750   2.894   6.043
 6352TIP3    H118995   1.673   2.864   5.996
 6352TIP3    H218996   1.736   2.988   6.056
 6353TIP3   OH218997   3.030   2.326   4.848
 6353TIP3    H118998   2.987   2.387   4.789
 6353TIP3    H218999   2.980   2.245   4.840
 6354TIP3   OH219000   3.262   2.543   4.925
 6354TIP3    H119001   3.349   2.533   4.886
 6354TIP3    H219002   3.259   2.635   4.953
 6355TIP3   OH219003   2.298   2.584   5.258
 6355TIP3    H119004   2.283   2.495   5.289
 6355TIP3    H219005   2.392   2.589   5.243
 6356TIP3   OH219006   1.998   1.781   5.040
 6356TIP3    H119007   1.946   1.857   5.064
 6356TIP3    H219008   1.934   1.720   5.002
 6357TIP3   OH219009   2.071   2.060   5.247
 6357TIP3    H119010   2.117   1.983   5.279
 6357TIP3    H219011   2.106   2.075   5.159
 6358TIP3   OH219012   2.921   3.026   4.884
 6358TIP3    H119013   2.962   2.952   4.839
 6358TIP3    H219014   2.912   2.998   4.975
 6359TIP3   OH219015   3.850   1.819   5.223
 6359TIP3    H119016   3.875   1.899   5.267
 6359TIP3    H219017   3.887   1.827   5.135
 6360TIP3   OH219018   3.237   1.987   5.248
 6360TIP3    H119019   3.280   1.907   5.278
 6360TIP3    H219020   3.197   1.964   5.165
 6361TIP3   OH219021   2.579   1.656   5.224
 6361TIP3    H119022   2.561   1.725   5.160
 6361TIP3    H219023   2.533   1.579   5.190
 6362TIP3   OH219024   3.287   1.740   4.843
 6362TIP3    H119025   3.351   1.732   4.913
 6362TIP3    H219026   3.337   1.772   4.768
 6363TIP3   OH219027   2.216   1.849   5.346
 6363TIP3    H119028   2.295   1.823   5.393
 6363TIP3    H219029   2.218   1.796   5.266
 6364TIP3   OH219030   2.629   2.054   5.225
 6364TIP3    H119031   2.722   2.036   5.210
 6364TIP3    H219032   2.583   1.986   5.175
 6365TIP3   OH219033   3.918   2.031   5.397
 6365TIP3    H119034   3.828   2.063   5.394
 6365TIP3    H219035   3.953   2.064   5.480
 6366TIP3   OH219036   2.553   1.636   5.692
 6366TIP3    H119037   2.510   1.661   5.610
 6366TIP3    H219038   2.511   1.690   5.759
 6367TIP3   OH219039   2.902   2.488   4.675
 6367TIP3    H119040   2.874   2.466   4.586
 6367TIP3    H219041   2.857   2.571   4.694
 6368TIP3   OH219042   2.625   2.380   5.439
 6368TIP3    H119043   2.555   2.428   5.483
 6368TIP3    H219044   2.693   2.445   5.423
 6369TIP3   OH219045   3.459   1.769   5.050
 6369TIP3    H119046   3.445   1.725   5.133
 6369TIP3    H219047   3.518   1.842   5.070
 6370TIP3   OH219048   2.459   1.749   5.451
 6370TIP3    H119049   2.511   1.828   5.465
 6370TIP3    H219050   2.502   1.704   5.379
 6371TIP3   OH219051   2.494   2.608   5.543
 6371TIP3    H119052   2.485   2.698   5.512
 6371TIP3    H219053   2.421   2.595   5.603
 6372TIP3   OH219054   1.888   2.315   4.792
 6372TIP3    H119055   1.851   2.332   4.706
 6372TIP3    H219056   1.912   2.402   4.825
 6373TIP3   OH219057   3.305   2.803   5.012
 6373TIP3    H119058   3.238   2.809   5.079
 6373TIP3    H219059   3.310   2.891   4.975
 6374TIP3   OH219060   3.643   1.729   5.397
 6374TIP3    H119061   3.555   1.748   5.363
 6374TIP3    H219062   3.702   1.752   5.325
 6375TIP3   OH219063   2.907   1.342   5.361
 6375TIP3    H119064   2.914   1.254   5.397
 6375TIP3    H219065   2.835   1.382   5.409
 6376TIP3   OH219066   3.042   2.847   4.709
 6376TIP3    H119067   3.089   2.768   4.682
 6376TIP3    H219068   3.092   2.919   4.671
 6377TIP3   OH219069   3.181   2.625   4.629
 6377TIP3    H119070   3.184   2.563   4.556
 6377TIP3    H219071   3.186   2.569   4.707
 6378TIP3   OH219072   3.557   2.736   5.381
 6378TIP3    H119073   3.556   2.659   5.324
 6378TIP3    H219074   3.542   2.810   5.322
 6379TIP3   OH219075   2.877   2.144   4.652
 6379TIP3    H119076   2.790   2.183   4.639
 6379TIP3    H219077   2.911   2.133   4.564
 6380TIP3   OH219078   2.813   1.915   4.352
 6380TIP3    H119079   2.880   1.964   4.400
 6380TIP3    H219080   2.862   1.849   4.304
 6381TIP3   OH219081   3.756   2.366   5.234
 6381TIP3    H119082   3.677   2.420   5.238
 6381TIP3    H219083   3.792   2.383   5.146
 6382TIP3   OH219084   3.199   2.211   4.609
 6382TIP3    H119085   3.146   2.229   4.687
 6382TIP3    H219086   3.281   2.176   4.643
 6383TIP3   OH219087   3.450   2.239   5.544
 6383TIP3    H119088   3.448   2.321   5.594
 6383TIP3    H219089   3.369   2.242   5.492
 6384TIP3   OH219090   2.449   2.193   5.004
 6384TIP3    H119091   2.404   2.131   4.947
 6384TIP3    H219092   2.496   2.139   5.067
 6385TIP3   OH219093   2.548   2.622   5.139
 6385TIP3    H119094   2.508   2.611   5.052
 6385TIP3    H219095   2.635   2.582   5.130
 6386TIP3   OH219096   3.119   2.806   5.208
 6386TIP3    H119097   3.085   2.895   5.202
 6386TIP3    H219098   3.134   2.793   5.302
 6387TIP3   OH219099   2.703   2.719   5.700
 6387TIP3    H119100   2.647   2.779   5.750
 6387TIP3    H219101   2.642   2.664   5.651
 6388TIP3   OH219102   3.043   2.064   4.431
 6388TIP3    H119103   3.102   2.123   4.478
 6388TIP3    H219104   3.063   2.079   4.339
 6389TIP3   OH219105   2.432   2.311   5.758
 6389TIP3    H119106   2.453   2.384   5.815
 6389TIP3    H219107   2.352   2.273   5.795
 6390TIP3   OH219108   2.788   2.739   4.707
 6390TIP3    H119109   2.871   2.787   4.711
 6390TIP3    H219110   2.728   2.799   4.662
 6391TIP3   OH219111   2.498   2.882   5.791
 6391TIP3    H119112   2.468   2.889   5.700
 6391TIP3    H219113   2.419   2.866   5.841
 6392TIP3   OH219114   3.552   1.299   4.487
 6392TIP3    H119115   3.473   1.316   4.538
 6392TIP3    H219116   3.562   1.376   4.432
 6393TIP3   OH219117   2.306   2.034   4.814
 6393TIP3    H119118   2.230   2.077   4.777
 6393TIP3    H219119   2.278   1.943   4.825
 6394TIP3   OH219120   3.370   2.671   4.037
 6394TIP3    H119121   3.371   2.765   4.018
 6394TIP3    H219122   3.459   2.643   4.020
 6395TIP3   OH219123   2.083   2.432   5.738
 6395TIP3    H119124   2.011   2.411   5.678
 6395TIP3    H219125   2.114   2.346   5.769
 6396TIP3   OH219126   1.932   2.635   5.391
 6396TIP3    H119127   2.022   2.661   5.411
 6396TIP3    H219128   1.879   2.708   5.421
 6397TIP3   OH219129   3.792   3.075   5.437
 6397TIP3    H119130   3.799   2.981   5.453
 6397TIP3    H219131   3.711   3.101   5.480
 6398TIP3   OH219132   2.888   2.861   5.554
 6398TIP3    H119133   2.889   2.950   5.589
 6398TIP3    H219134   2.826   2.814   5.611
 6399TIP3   OH219135   2.677   2.975   4.520
 6399TIP3    H119136   2.633   2.955   4.437
 6399TIP3    H219137   2.642   3.059   4.546
 6400TIP3   OH219138   2.108   2.822   4.891
 6400TIP3    H119139   2.151   2.819   4.977
 6400TIP3    H219140   2.060   2.740   4.886
 6401TIP3   OH219141   2.876   2.889   4.149
 6401TIP3    H119142   2.930   2.818   4.114
 6401TIP3    H219143   2.912   2.905   4.236
 6402TIP3   OH219144   2.931   2.944   4.415
 6402TIP3    H119145   2.849   2.946   4.463
 6402TIP3    H219146   2.999   2.935   4.482
 6403TIP3   OH219147   3.684   2.186   5.704
 6403TIP3    H119148   3.602   2.199   5.656
 6403TIP3    H219149   3.702   2.093   5.695
 6404TIP3   OH219150   2.281   2.622   5.714
 6404TIP3    H119151   2.332   2.612   5.795
 6404TIP3    H219152   2.212   2.556   5.722
 6405TIP3   OH219153   2.685   1.432   5.501
 6405TIP3    H119154   2.595   1.399   5.493
 6405TIP3    H219155   2.683   1.490   5.576
 6406TIP3   OH219156   3.223   1.585   5.724
 6406TIP3    H119157   3.294   1.541   5.770
 6406TIP3    H219158   3.144   1.538   5.752
 6407TIP3   OH219159   3.443   1.975   5.632
 6407TIP3    H119160   3.404   1.973   5.719
 6407TIP3    H219161   3.433   2.066   5.603
 6408TIP3   OH219162   3.091   2.085   4.156
 6408TIP3    H119163   3.078   2.049   4.069
 6408TIP3    H219164   3.177   2.128   4.152
 6409TIP3   OH219165   2.831   1.477   4.491
 6409TIP3    H119166   2.798   1.481   4.581
 6409TIP3    H219167   2.795   1.395   4.456
 6410TIP3   OH219168   2.643   2.057   5.579
 6410TIP3    H119169   2.561   2.021   5.613
 6410TIP3    H219170   2.695   2.077   5.656
 6411TIP3   OH219171   2.490   1.860   5.058
 6411TIP3    H119172   2.404   1.824   5.078
 6411TIP3    H219173   2.510   1.826   4.971
 6412TIP3   OH219174   2.984   1.924   4.777
 6412TIP3    H119175   2.939   1.997   4.734
 6412TIP3    H219176   3.038   1.885   4.708
 6413TIP3   OH219177   3.157   2.190   5.843
 6413TIP3    H119178   3.134   2.117   5.901
 6413TIP3    H219179   3.247   2.211   5.866
 6414TIP3   OH219180   3.152   1.931   4.994
 6414TIP3    H119181   3.080   1.942   4.933
 6414TIP3    H219182   3.199   1.855   4.962
 6415TIP3   OH219183   2.467   1.961   5.762
 6415TIP3    H119184   2.513   2.023   5.818
 6415TIP3    H219185   2.432   1.895   5.822
 6416TIP3   OH219186   2.488   1.458   4.454
 6416TIP3    H119187   2.482   1.455   4.550
 6416TIP3    H219188   2.410   1.506   4.426
 6417TIP3   OH219189   2.033   1.501   5.325
 6417TIP3    H119190   2.112   1.525   5.373
 6417TIP3    H219191   2.066   1.462   5.244
 6418TIP3   OH219192   1.970   1.474   4.834
 6418TIP3    H119193   2.017   1.507   4.757
 6418TIP3    H219194   1.907   1.543   4.854
 6419TIP3   OH219195   3.208   2.202   5.407
 6419TIP3    H119196   3.219   2.126   5.350
 6419TIP3    H219197   3.160   2.169   5.483
 6420TIP3   OH219198   2.843   1.676   5.113
 6420TIP3    H119199   2.768   1.657   5.169
 6420TIP3    H219200   2.917   1.632   5.155
 6421TIP3   OH219201   2.261   1.714   5.110
 6421TIP3    H119202   2.172   1.718   5.076
 6421TIP3    H219203   2.290   1.625   5.093
 6422TIP3   OH219204   2.515   1.725   4.815
 6422TIP3    H119205   2.610   1.727   4.799
 6422TIP3    H219206   2.476   1.738   4.728
 6423TIP3   OH219207   3.331   1.733   5.317
 6423TIP3    H119208   3.299   1.750   5.406
 6423TIP3    H219209   3.278   1.660   5.287
 6424TIP3   OH219210   2.385   1.747   4.571
 6424TIP3    H119211   2.316   1.699   4.526
 6424TIP3    H219212   2.438   1.785   4.501
 6425TIP3   OH219213   3.491   3.418   5.524
 6425TIP3    H119214   3.485   3.434   5.430
 6425TIP3    H219215   3.575   3.457   5.550
 6426TIP3   OH219216   2.449   2.535   5.939
 6426TIP3    H119217   2.531   2.553   5.984
 6426TIP3    H219218   2.382   2.537   6.007
 6427TIP3   OH219219   2.894   1.988   5.222
 6427TIP3    H119220   2.956   1.943   5.164
 6427TIP3    H219221   2.900   1.942   5.305
 6428TIP3   OH219222   2.415   1.468   5.098
 6428TIP3    H119223   2.378   1.397   5.150
 6428TIP3    H219224   2.463   1.423   5.028
 6429TIP3   OH219225   2.875   1.898   5.488
 6429TIP3    H119226   2.802   1.945   5.529
 6429TIP3    H219227   2.952   1.933   5.532
 6430TIP3   OH219228   2.626   2.260   4.590
 6430TIP3    H119229   2.552   2.202   4.571
 6430TIP3    H219230   2.603   2.301   4.673
 6431TIP3   OH219231   3.531   2.526   5.204
 6431TIP3    H119232   3.567   2.571   5.127
 6431TIP3    H219233   3.440   2.510   5.182
 6432TIP3   OH219234   3.063   1.600   4.425
 6432TIP3    H119235   2.980   1.564   4.455
 6432TIP3    H219236   3.075   1.679   4.478
 6433TIP3   OH219237   2.964   2.541   5.599
 6433TIP3    H119238   3.037   2.539   5.660
 6433TIP3    H219239   2.950   2.634   5.581
 6434TIP3   OH219240   3.143   1.832   4.562
 6434TIP3    H119241   3.238   1.832   4.572
 6434TIP3    H219242   3.125   1.908   4.507
 6435TIP3   OH219243   2.773   2.422   4.426
 6435TIP3    H119244   2.726   2.506   4.426
 6435TIP3    H219245   2.719   2.364   4.479
 6436TIP3   OH219246   2.195   2.217   5.878
 6436TIP3    H119247   2.229   2.210   5.967
 6436TIP3    H219248   2.128   2.148   5.872
 6437TIP3   OH219249   2.909   2.312   5.898
 6437TIP3    H119250   2.852   2.237   5.914
 6437TIP3    H219251   2.992   2.275   5.870
 6438TIP3   OH219252   3.153   2.841   5.481
 6438TIP3    H119253   3.060   2.846   5.501
 6438TIP3    H219254   3.196   2.890   5.551
 6439TIP3   OH219255   3.562   1.927   4.386
 6439TIP3    H119256   3.504   1.881   4.326
 6439TIP3    H219257   3.571   2.015   4.348
 6440TIP3   OH219258   3.810   2.788   5.468
 6440TIP3    H119259   3.715   2.783   5.465
 6440TIP3    H219260   3.839   2.761   5.381
 6441TIP3   OH219261   3.289   2.740   4.296
 6441TIP3    H119262   3.273   2.662   4.348
 6441TIP3    H219263   3.313   2.707   4.209
 6442TIP3   OH219264   3.224   2.314   5.136
 6442TIP3    H119265   3.212   2.301   5.230
 6442TIP3    H219266   3.285   2.246   5.110
 6443TIP3   OH219267   2.419   2.610   4.896
 6443TIP3    H119268   2.419   2.689   4.842
 6443TIP3    H219269   2.326   2.588   4.905
 6444TIP3   OH219270   1.984   1.901   4.608
 6444TIP3    H119271   2.029   1.982   4.629
 6444TIP3    H219272   1.906   1.902   4.664
 6445TIP3   OH219273   2.547   2.374   4.823
 6445TIP3    H119274   2.513   2.460   4.846
 6445TIP3    H219275   2.514   2.315   4.891
 6446TIP3   OH219276   2.705   2.936   5.351
 6446TIP3    H119277   2.743   3.009   5.301
 6446TIP3    H219278   2.776   2.907   5.408
 6447TIP3   OH219279   2.346   2.838   4.751
 6447TIP3    H119280   2.258   2.845   4.789
 6447TIP3    H219281   2.381   2.927   4.753
 6448TIP3   OH219282   3.060   2.475   4.212
 6448TIP3    H119283   3.107   2.459   4.293
 6448TIP3    H219284   2.970   2.449   4.231
 6449TIP3   OH219285   3.307   3.105   5.358
 6449TIP3    H119286   3.228   3.051   5.358
 6449TIP3    H219287   3.293   3.168   5.288
 6450TIP3   OH219288   3.382   2.947   4.013
 6450TIP3    H119289   3.424   3.015   3.962
 6450TIP3    H219290   3.305   2.989   4.051
 6451TIP3   OH219291   2.408   1.700   5.928
 6451TIP3    H119292   2.317   1.729   5.927
 6451TIP3    H219293   2.447   1.745   6.004
 6452TIP3   OH219294   3.227   2.424   4.433
 6452TIP3    H119295   3.211   2.348   4.489
 6452TIP3    H219296   3.320   2.418   4.410
 6453TIP3   OH219297   2.137   2.819   5.520
 6453TIP3    H119298   2.186   2.757   5.574
 6453TIP3    H219299   2.150   2.904   5.562
 6454TIP3   OH219300   2.418   2.442   4.205
 6454TIP3    H119301   2.428   2.349   4.181
 6454TIP3    H219302   2.394   2.441   4.297
 6455TIP3   OH219303   2.354   2.459   4.475
 6455TIP3    H119304   2.423   2.429   4.535
 6455TIP3    H219305   2.353   2.554   4.484
 6456TIP3   OH219306   2.087   2.150   4.688
 6456TIP3    H119307   2.021   2.195   4.741
 6456TIP3    H219308   2.105   2.210   4.616
 6457TIP3   OH219309   3.233   1.806   5.569
 6457TIP3    H119310   3.316   1.843   5.599
 6457TIP3    H219311   3.221   1.728   5.623
 6458TIP3   OH219312   3.134   1.531   4.743
 6458TIP3    H119313   3.118   1.558   4.652
 6458TIP3    H219314   3.181   1.605   4.781
 6459TIP3   OH219315   2.627   2.650   4.426
 6459TIP3    H119316   2.541   2.673   4.462
 6459TIP3    H219317   2.650   2.725   4.371
 6460TIP3   OH219318   2.797   1.729   4.847
 6460TIP3    H119319   2.862   1.796   4.825
 6460TIP3    H219320   2.812   1.712   4.940
 6461TIP3   OH219321   3.084   2.048   5.610
 6461TIP3    H119322   3.107   2.088   5.694
 6461TIP3    H219323   3.135   1.967   5.607
 6462TIP3   OH219324   2.963   1.425   4.935
 6462TIP3    H119325   2.986   1.479   5.011
 6462TIP3    H219326   3.022   1.456   4.866
 6463TIP3   OH219327   2.372   2.729   4.499
 6463TIP3    H119328   2.349   2.797   4.436
 6463TIP3    H219329   2.361   2.771   4.585
 6464TIP3   OH219330   2.471   1.447   4.731
 6464TIP3    H119331   2.458   1.532   4.773
 6464TIP3    H219332   2.565   1.430   4.740
 6465TIP3   OH219333   3.707   1.913   5.616
 6465TIP3    H119334   3.613   1.923   5.629
 6465TIP3    H219335   3.716   1.852   5.543
 6466TIP3   OH219336   3.369   2.117   5.005
 6466TIP3    H119337   3.302   2.049   5.013
 6466TIP3    H219338   3.445   2.081   5.052
 6467TIP3   OH219339   2.101   2.336   4.476
 6467TIP3    H119340   2.169   2.402   4.484
 6467TIP3    H219341   2.136   2.273   4.413
 6468TIP3   OH219342   2.022   1.623   4.606
 6468TIP3    H119343   2.019   1.718   4.610
 6468TIP3    H219344   1.945   1.599   4.554
 6469TIP3   OH219345   3.347   3.075   4.944
 6469TIP3    H119346   3.304   3.123   4.874
 6469TIP3    H219347   3.440   3.094   4.932
 6470TIP3   OH219348   2.416   1.342   5.492
 6470TIP3    H119349   2.389   1.309   5.406
 6470TIP3    H219350   2.411   1.265   5.549
 6471TIP3   OH219351   1.942   2.587   4.872
 6471TIP3    H119352   1.895   2.623   4.947
 6471TIP3    H219353   1.903   2.630   4.796
 6472TIP3   OH219354   2.131   3.133   5.940
 6472TIP3    H119355   2.212   3.140   5.991
 6472TIP3    H219356   2.114   3.039   5.936
 6473TIP3   OH219357   2.596   3.059   5.981
 6473TIP3    H119358   2.688   3.038   5.997
 6473TIP3    H219359   2.569   3.000   5.911
 6474TIP3   OH219360   2.572   2.646   4.102
 6474TIP3    H119361   2.525   2.574   4.145
 6474TIP3    H219362   2.648   2.604   4.061
 6475TIP3   OH219363   3.246   2.969   5.701
 6475TIP3    H119364   3.239   2.908   5.774
 6475TIP3    H219365   3.313   3.032   5.729
 6476TIP3   OH219366   3.010   2.682   4.026
 6476TIP3    H119367   3.051   2.621   4.088
 6476TIP3    H219368   3.068   2.681   3.950
 6477TIP3   OH219369   2.246   2.523   6.130
 6477TIP3    H119370   2.263   2.429   6.140
 6477TIP3    H219371   2.158   2.527   6.092
 6478TIP3   OH219372   2.237   2.146   4.334
 6478TIP3    H119373   2.288   2.122   4.412
 6478TIP3    H219374   2.303   2.157   4.266
 6479TIP3   OH219375   2.856   2.604   5.904
 6479TIP3    H119376   2.815   2.627   5.821
 6479TIP3    H219377   2.884   2.513   5.893
 6480TIP3   OH219378   2.770   2.370   4.155
 6480TIP3    H119379   2.758   2.384   4.249
 6480TIP3    H219380   2.761   2.275   4.144
 6481TIP3   OH219381   3.339   2.634   5.517
 6481TIP3    H119382   3.416   2.676   5.479
 6481TIP3    H219383   3.268   2.698   5.505
 6482TIP3   OH219384   2.370   2.258   6.119
 6482TIP3    H119385   2.452   2.231   6.079
 6482TIP3    H219386   2.393   2.287   6.207
 6483TIP3   OH219387   2.415   2.081   4.547
 6483TIP3    H119388   2.390   2.049   4.633
 6483TIP3    H219389   2.455   2.005   4.504
 6484TIP3   OH219390   2.537   1.886   4.387
 6484TIP3    H119391   2.511   1.889   4.295
 6484TIP3    H219392   2.633   1.889   4.385
 6485TIP3   OH219393   3.220   2.543   5.897
 6485TIP3    H119394   3.302   2.513   5.857
 6485TIP3    H219395   3.210   2.486   5.974
 6486TIP3   OH219396   3.335   2.189   4.069
 6486TIP3    H119397   3.328   2.145   3.984
 6486TIP3    H219398   3.313   2.280   4.051
 6487TIP3   OH219399   2.833   1.662   5.652
 6487TIP3    H119400   2.853   1.729   5.587
 6487TIP3    H219401   2.741   1.676   5.674
 6488TIP3   OH219402   2.861   2.233   5.526
 6488TIP3    H119403   2.939   2.180   5.542
 6488TIP3    H219404   2.879   2.316   5.571
 6489TIP3   OH219405   3.424   2.218   5.953
 6489TIP3    H119406   3.448   2.126   5.955
 6489TIP3    H219407   3.506   2.264   5.937
 6490TIP3   OH219408   3.475   2.476   5.689
 6490TIP3    H119409   3.417   2.532   5.638
 6490TIP3    H219410   3.562   2.495   5.656
 6491TIP3   OH219411   2.969   1.470   5.791
 6491TIP3    H119412   2.922   1.539   5.744
 6491TIP3    H219413   2.988   1.404   5.725
 6492TIP3   OH219414   3.067   1.979   5.989
 6492TIP3    H119415   3.071   1.952   6.080
 6492TIP3    H219416   2.973   1.980   5.968
 6493TIP3   OH219417   3.328   1.943   5.873
 6493TIP3    H119418   3.245   1.927   5.918
 6493TIP3    H219419   3.394   1.899   5.926
 6494TIP3   OH219420   3.559   1.880   6.016
 6494TIP3    H119421   3.572   1.785   6.022
 6494TIP3    H219422   3.553   1.909   6.106
 6495TIP3   OH219423   2.548   1.815   6.152
 6495TIP3    H119424   2.614   1.872   6.113
 6495TIP3    H219425   2.587   1.787   6.235
 6496TIP3   OH219426   3.019   1.479   6.063
 6496TIP3    H119427   3.090   1.415   6.065
 6496TIP3    H219428   2.992   1.481   5.971
 6497TIP3   OH219429   3.109   1.699   6.204
 6497TIP3    H119430   3.085   1.625   6.149
 6497TIP3    H219431   3.033   1.756   6.202
 6498TIP3   OH219432   2.354   2.924   4.306
 6498TIP3    H119433   2.448   2.916   4.286
 6498TIP3    H219434   2.319   2.976   4.234
 6499TIP3   OH219435   1.829   2.315   4.506
 6499TIP3    H119436   1.922   2.332   4.497
 6499TIP3    H219437   1.816   2.229   4.465
 6500TIP3   OH219438   1.739   2.910   4.949
 6500TIP3    H119439   1.674   2.855   4.905
 6500TIP3    H219440   1.785   2.851   5.008
 6501TIP3   OH219441   1.881   2.747   5.123
 6501TIP3    H119442   1.872   2.680   5.190
 6501TIP3    H219443   1.931   2.817   5.166
 6502TIP3   OH219444   3.610   3.155   4.929
 6502TIP3    H119445   3.634   3.193   5.013
 6502TIP3    H219446   3.669   3.198   4.866
 6503TIP3   OH219447   3.626   3.194   5.212
 6503TIP3    H119448   3.585   3.108   5.206
 6503TIP3    H219449   3.700   3.181   5.272
 6504TIP3   OH219450   3.672   2.881   5.776
 6504TIP3    H119451   3.605   2.887   5.844
 6504TIP3    H219452   3.722   2.963   5.784
 6505TIP3   OH219453   3.500   2.391   4.398
 6505TIP3    H119454   3.561   2.456   4.363
 6505TIP3    H219455   3.548   2.351   4.471
 6506TIP3   OH219456   3.629   2.252   4.600
 6506TIP3    H119457   3.568   2.208   4.659
 6506TIP3    H219458   3.699   2.284   4.656
 6507TIP3   OH219459   3.666   2.644   5.001
 6507TIP3    H119460   3.733   2.582   4.974
 6507TIP3    H219461   3.684   2.722   4.949
 6508TIP3   OH219462   3.491   2.946   5.215
 6508TIP3    H119463   3.423   2.992   5.264
 6508TIP3    H219464   3.446   2.913   5.137
 6509TIP3   OH219465   3.549   2.165   4.243
 6509TIP3    H119466   3.476   2.165   4.180
 6509TIP3    H219467   3.534   2.243   4.296
 6510TIP3   OH219468   3.401   1.824   4.187
 6510TIP3    H119469   3.419   1.858   4.100
 6510TIP3    H219470   3.390   1.729   4.175
 6511TIP3   OH219471   3.423   2.104   4.733
 6511TIP3    H119472   3.439   2.011   4.714
 6511TIP3    H219473   3.417   2.108   4.828
 6512TIP3   OH219474   2.063   2.183   5.492
 6512TIP3    H119475   2.052   2.142   5.406
 6512TIP3    H219476   2.157   2.195   5.502
 6513TIP3   OH219477   3.727   2.532   5.589
 6513TIP3    H119478   3.791   2.461   5.580
 6513TIP3    H219479   3.760   2.602   5.534
 6514TIP3   OH219480   3.897   2.318   5.596
 6514TIP3    H119481   3.823   2.275   5.641
 6514TIP3    H219482   3.971   2.261   5.612
 6515TIP3   OH219483   3.371   1.549   4.146
 6515TIP3    H119484   3.437   1.524   4.211
 6515TIP3    H219485   3.291   1.505   4.175
 6516TIP3   OH219486   3.431   1.830   4.618
 6516TIP3    H119487   3.474   1.746   4.634
 6516TIP3    H219488   3.479   1.867   4.544
 6517TIP3   OH219489   3.588   2.004   5.131
 6517TIP3    H119490   3.670   2.023   5.086
 6517TIP3    H219491   3.602   2.035   5.220
 6518TIP3   OH219492   3.659   2.143   5.364
 6518TIP3    H119493   3.592   2.175   5.424
 6518TIP3    H219494   3.695   2.221   5.323
 6519TIP3   OH219495   2.277   1.854   6.154
 6519TIP3    H119496   2.372   1.853   6.167
 6519TIP3    H219497   2.246   1.773   6.194
 6520TIP3   OH219498   4.114   1.749   5.908
 6520TIP3    H119499   4.177   1.688   5.869
 6520TIP3    H219500   4.074   1.794   5.834
 6521TIP3   OH219501   3.536   1.580   4.674
 6521TIP3    H119502   3.585   1.565   4.754
 6521TIP3    H219503   3.478   1.505   4.667
 6522TIP3   OH219504   2.249   1.560   5.498
 6522TIP3    H119505   2.299   1.479   5.503
 6522TIP3    H219506   2.314   1.629   5.484
 6523TIP3   OH219507   2.034   1.823   5.565
 6523TIP3    H119508   2.085   1.817   5.484
 6523TIP3    H219509   2.065   1.903   5.607
 6524TIP3   OH219510   3.966   1.857   5.707
 6524TIP3    H119511   3.879   1.895   5.713
 6524TIP3    H219512   3.954   1.777   5.656
 6525TIP3   OH219513   3.597   1.502   4.302
 6525TIP3    H119514   3.641   1.436   4.248
 6525TIP3    H219515   3.660   1.574   4.308
 6526TIP3   OH219516   2.022   1.352   5.073
 6526TIP3    H119517   1.933   1.332   5.103
 6526TIP3    H219518   2.009   1.399   4.991
 6527TIP3   OH219519   3.167   3.041   4.570
 6527TIP3    H119520   3.227   3.035   4.495
 6527TIP3    H219521   3.204   3.110   4.625
 6528TIP3   OH219522   2.269   1.434   5.908
 6528TIP3    H119523   2.215   1.394   5.976
 6528TIP3    H219524   2.206   1.460   5.840
 6529TIP3   OH219525   2.277   2.848   5.957
 6529TIP3    H119526   2.183   2.830   5.949
 6529TIP3    H219527   2.294   2.839   6.051
 6530TIP3   OH219528   2.478   2.884   5.502
 6530TIP3    H119529   2.425   2.957   5.471
 6530TIP3    H219530   2.563   2.896   5.460
 6531TIP3   OH219531   2.899   3.124   5.643
 6531TIP3    H119532   2.939   3.113   5.729
 6531TIP3    H219533   2.962   3.178   5.594
 6532TIP3   OH219534   3.087   3.280   5.511
 6532TIP3    H119535   3.159   3.232   5.471
 6532TIP3    H219536   3.129   3.342   5.570
 6533TIP3   OH219537   3.891   1.603   5.610
 6533TIP3    H119538   3.802   1.578   5.586
 6533TIP3    H219539   3.941   1.521   5.603
 6534TIP3   OH219540   2.141   3.137   5.548
 6534TIP3    H119541   2.050   3.157   5.526
 6534TIP3    H219542   2.164   3.201   5.616
 6535TIP3   OH219543   2.370   3.115   5.395
 6535TIP3    H119544   2.288   3.125   5.443
 6535TIP3    H219545   2.351   3.147   5.307
 6536TIP3   OH219546   2.792   3.140   5.181
 6536TIP3    H119547   2.720   3.159   5.121
 6536TIP3    H219548   2.806   3.223   5.228
 6537TIP3   OH219549   3.058   3.071   5.204
 6537TIP3    H119550   2.966   3.098   5.198
 6537TIP3    H219551   3.108   3.146   5.172
 6538TIP3   OH219552   3.254   3.260   5.135
 6538TIP3    H119553   3.252   3.350   5.102
 6538TIP3    H219554   3.288   3.208   5.062
 6539TIP3   OH219555   2.050   2.925   5.274
 6539TIP3    H119556   2.075   2.898   5.362
 6539TIP3    H219557   2.121   2.895   5.218
 6540TIP3   OH219558   2.250   2.818   5.127
 6540TIP3    H119559   2.260   2.736   5.175
 6540TIP3    H219560   2.336   2.859   5.130
 6541TIP3   OH219561   2.517   2.901   5.146
 6541TIP3    H119562   2.534   2.808   5.133
 6541TIP3    H219563   2.568   2.925   5.223
 6542TIP3   OH219564   3.057   1.519   5.192
 6542TIP3    H119565   3.023   1.456   5.255
 6542TIP3    H219566   3.144   1.485   5.169
 6543TIP3   OH219567   3.593   1.454   5.130
 6543TIP3    H119568   3.629   1.498   5.053
 6543TIP3    H219569   3.499   1.462   5.120
 6544TIP3   OH219570   3.702   1.534   4.889
 6544TIP3    H119571   3.770   1.473   4.862
 6544TIP3    H219572   3.741   1.621   4.876
 6545TIP3   OH219573   2.323   1.253   5.244
 6545TIP3    H119574   2.233   1.219   5.244
 6545TIP3    H219575   2.378   1.175   5.241
 6546TIP3   OH219576   2.108   1.133   4.892
 6546TIP3    H119577   2.148   1.182   4.820
 6546TIP3    H219578   2.091   1.198   4.960
 6547TIP3   OH219579   2.781   1.293   5.113
 6547TIP3    H119580   2.840   1.336   5.051
 6547TIP3    H219581   2.820   1.311   5.198
 6548TIP3   OH219582   3.310   1.425   5.103
 6548TIP3    H119583   3.326   1.383   5.019
 6548TIP3    H219584   3.308   1.353   5.166
 6549TIP3   OH219585   3.354   1.368   4.671
 6549TIP3    H119586   3.272   1.410   4.696
 6549TIP3    H219587   3.348   1.280   4.710
 6550TIP3   OH219588   1.827   2.714   4.658
 6550TIP3    H119589   1.743   2.681   4.627
 6550TIP3    H219590   1.831   2.805   4.627
 6551TIP3   OH219591   2.253   1.281   4.656
 6551TIP3    H119592   2.297   1.213   4.606
 6551TIP3    H219593   2.324   1.335   4.692
 6552TIP3   OH219594   2.747   1.476   4.754
 6552TIP3    H119595   2.801   1.420   4.810
 6552TIP3    H219596   2.766   1.565   4.785
 6553TIP3   OH219597   2.620   2.872   4.250
 6553TIP3    H119598   2.703   2.902   4.214
 6553TIP3    H219599   2.592   2.801   4.193
 6554TIP3   OH219600   3.324   3.008   4.344
 6554TIP3    H119601   3.316   2.914   4.330
 6554TIP3    H219602   3.283   3.047   4.266
 6555TIP3   OH219603   2.547   1.468   6.090
 6555TIP3    H119604   2.522   1.406   6.158
 6555TIP3    H219605   2.631   1.505   6.120
 6556TIP3   OH219606   2.785   1.527   6.228
 6556TIP3    H119607   2.867   1.510   6.182
 6556TIP3    H219608   2.783   1.461   6.298
 6557TIP3   OH219609   1.916   2.714   4.305
 6557TIP3    H119610   1.921   2.735   4.398
 6557TIP3    H219611   1.999   2.670   4.285
 6558TIP3   OH219612   3.623   1.611   6.030
 6558TIP3    H119613   3.637   1.577   6.118
 6558TIP3    H219614   3.708   1.600   5.987
 6559TIP3   OH219615   3.539   3.145   5.527
 6559TIP3    H119616   3.462   3.114   5.479
 6559TIP3    H219617   3.524   3.239   5.537
 6560TIP3   OH219618   4.818   2.535   4.280
 6560TIP3    H119619   4.789   2.623   4.256
 6560TIP3    H219620   4.747   2.478   4.253
 6561TIP3   OH219621   4.814   2.525   4.696
 6561TIP3    H119622   4.864   2.510   4.776
 6561TIP3    H219623   4.773   2.441   4.677
 6562TIP3   OH219624   4.116   2.402   5.051
 6562TIP3    H119625   4.150   2.345   5.121
 6562TIP3    H219626   4.193   2.429   5.002
 6563TIP3   OH219627   5.078   2.833   4.372
 6563TIP3    H119628   5.069   2.768   4.442
 6563TIP3    H219629   5.104   2.913   4.418
 6564TIP3   OH219630   4.099   2.819   4.747
 6564TIP3    H119631   4.086   2.724   4.750
 6564TIP3    H219632   4.193   2.830   4.735
 6565TIP3   OH219633   3.795   2.026   4.526
 6565TIP3    H119634   3.756   2.111   4.546
 6565TIP3    H219635   3.722   1.975   4.489
 6566TIP3   OH219636   3.863   2.327   4.735
 6566TIP3    H119637   3.913   2.250   4.762
 6566TIP3    H219638   3.930   2.389   4.704
 6567TIP3   OH219639   4.728   3.278   4.377
 6567TIP3    H119640   4.763   3.211   4.318
 6567TIP3    H219641   4.727   3.237   4.463
 6568TIP3   OH219642   4.621   2.749   4.713
 6568TIP3    H119643   4.663   2.670   4.680
 6568TIP3    H219644   4.694   2.805   4.741
 6569TIP3   OH219645   5.649   2.074   4.720
 6569TIP3    H119646   5.670   2.156   4.763
 6569TIP3    H219647   5.671   2.088   4.628
 6570TIP3   OH219648   5.034   2.242   4.744
 6570TIP3    H119649   5.074   2.159   4.769
 6570TIP3    H219650   4.996   2.225   4.657
 6571TIP3   OH219651   4.382   1.904   4.708
 6571TIP3    H119652   4.363   1.976   4.648
 6571TIP3    H219653   4.331   1.831   4.675
 6572TIP3   OH219654   5.080   2.002   4.334
 6572TIP3    H119655   5.145   1.992   4.404
 6572TIP3    H219656   5.130   2.035   4.259
 6573TIP3   OH219657   4.010   2.111   4.826
 6573TIP3    H119658   4.092   2.094   4.872
 6573TIP3    H219659   4.016   2.059   4.746
 6574TIP3   OH219660   4.435   2.311   4.642
 6574TIP3    H119661   4.529   2.295   4.650
 6574TIP3    H219662   4.399   2.230   4.606
 6575TIP3   OH219663   5.714   2.289   4.890
 6575TIP3    H119664   5.626   2.326   4.882
 6575TIP3    H219665   5.748   2.324   4.972
 6576TIP3   OH219666   4.368   1.899   5.154
 6576TIP3    H119667   4.315   1.933   5.082
 6576TIP3    H219668   4.315   1.913   5.232
 6577TIP3   OH219669   4.715   2.754   4.140
 6577TIP3    H119670   4.675   2.730   4.056
 6577TIP3    H219671   4.664   2.830   4.170
 6578TIP3   OH219672   4.467   2.673   4.931
 6578TIP3    H119673   4.413   2.744   4.964
 6578TIP3    H219674   4.516   2.713   4.858
 6579TIP3   OH219675   5.251   2.017   4.547
 6579TIP3    H119676   5.215   1.994   4.632
 6579TIP3    H219677   5.308   2.092   4.565
 6580TIP3   OH219678   4.250   2.008   4.928
 6580TIP3    H119679   4.305   2.082   4.952
 6580TIP3    H219680   4.297   1.965   4.856
 6581TIP3   OH219681   4.305   2.877   5.031
 6581TIP3    H119682   4.288   2.964   4.997
 6581TIP3    H219683   4.228   2.857   5.084
 6582TIP3   OH219684   3.679   2.569   4.278
 6582TIP3    H119685   3.650   2.589   4.189
 6582TIP3    H219686   3.706   2.654   4.314
 6583TIP3   OH219687   5.126   3.077   4.514
 6583TIP3    H119688   5.039   3.070   4.553
 6583TIP3    H219689   5.125   3.162   4.469
 6584TIP3   OH219690   5.444   1.966   4.887
 6584TIP3    H119691   5.357   1.990   4.853
 6584TIP3    H219692   5.505   1.994   4.819
 6585TIP3   OH219693   4.709   1.595   4.872
 6585TIP3    H119694   4.703   1.504   4.899
 6585TIP3    H219695   4.634   1.638   4.914
 6586TIP3   OH219696   4.832   3.112   4.182
 6586TIP3    H119697   4.882   3.031   4.166
 6586TIP3    H219698   4.886   3.181   4.144
 6587TIP3   OH219699   4.972   2.884   4.121
 6587TIP3    H119700   4.902   2.819   4.117
 6587TIP3    H219701   5.020   2.862   4.201
 6588TIP3   OH219702   5.356   2.976   4.861
 6588TIP3    H119703   5.343   2.901   4.803
 6588TIP3    H219704   5.341   3.052   4.806
 6589TIP3   OH219705   4.647   2.376   4.126
 6589TIP3    H119706   4.566   2.424   4.106
 6589TIP3    H219707   4.696   2.376   4.044
 6590TIP3   OH219708   4.613   2.177   3.828
 6590TIP3    H119709   4.678   2.226   3.878
 6590TIP3    H219710   4.664   2.110   3.781
 6591TIP3   OH219711   5.547   2.629   4.720
 6591TIP3    H119712   5.464   2.675   4.722
 6591TIP3    H219713   5.582   2.646   4.632
 6592TIP3   OH219714   5.003   2.461   4.092
 6592TIP3    H119715   4.949   2.491   4.166
 6592TIP3    H219716   5.086   2.436   4.132
 6593TIP3   OH219717   5.233   2.495   5.027
 6593TIP3    H119718   5.233   2.578   5.076
 6593TIP3    H219719   5.150   2.495   4.979
 6594TIP3   OH219720   4.232   2.448   4.502
 6594TIP3    H119721   4.197   2.389   4.435
 6594TIP3    H219722   4.306   2.400   4.539
 6595TIP3   OH219723   4.361   2.864   4.643
 6595TIP3    H119724   4.343   2.849   4.551
 6595TIP3    H219725   4.449   2.828   4.656
 6596TIP3   OH219726   4.335   2.440   4.870
 6596TIP3    H119727   4.374   2.405   4.789
 6596TIP3    H219728   4.386   2.519   4.888
 6597TIP3   OH219729   4.889   3.071   4.646
 6597TIP3    H119730   4.875   3.152   4.696
 6597TIP3    H219731   4.873   3.001   4.710
 6598TIP3   OH219732   4.506   2.981   5.192
 6598TIP3    H119733   4.447   3.040   5.239
 6598TIP3    H219734   4.448   2.928   5.137
 6599TIP3   OH219735   4.836   2.325   3.922
 6599TIP3    H119736   4.896   2.381   3.971
 6599TIP3    H219737   4.862   2.335   3.830
 6600TIP3   OH219738   4.265   2.539   5.320
 6600TIP3    H119739   4.267   2.631   5.348
 6600TIP3    H219740   4.172   2.517   5.317
 6601TIP3   OH219741   4.581   2.997   4.183
 6601TIP3    H119742   4.665   3.044   4.191
 6601TIP3    H219743   4.524   3.058   4.137
 6602TIP3   OH219744   4.294   3.141   5.274
 6602TIP3    H119745   4.268   3.149   5.182
 6602TIP3    H219746   4.212   3.125   5.320
 6603TIP3   OH219747   5.345   1.552   3.976
 6603TIP3    H119748   5.267   1.569   4.029
 6603TIP3    H219749   5.356   1.631   3.924
 6604TIP3   OH219750   4.107   2.293   4.297
 6604TIP3    H119751   4.030   2.336   4.260
 6604TIP3    H219752   4.079   2.203   4.315
 6605TIP3   OH219753   5.164   2.929   3.524
 6605TIP3    H119754   5.165   3.024   3.509
 6605TIP3    H219755   5.254   2.901   3.507
 6606TIP3   OH219756   3.882   2.683   5.226
 6606TIP3    H119757   3.828   2.654   5.153
 6606TIP3    H219758   3.924   2.603   5.259
 6607TIP3   OH219759   3.747   2.875   4.864
 6607TIP3    H119760   3.842   2.876   4.851
 6607TIP3    H219761   3.729   2.955   4.914
 6608TIP3   OH219762   5.592   3.335   4.924
 6608TIP3    H119763   5.596   3.240   4.937
 6608TIP3    H219764   5.511   3.362   4.968
 6609TIP3   OH219765   4.695   3.119   5.048
 6609TIP3    H119766   4.691   3.210   5.077
 6609TIP3    H219767   4.628   3.074   5.100
 6610TIP3   OH219768   4.476   3.228   4.006
 6610TIP3    H119769   4.435   3.215   3.920
 6610TIP3    H219770   4.444   3.313   4.035
 6611TIP3   OH219771   3.905   3.076   4.386
 6611TIP3    H119772   3.952   3.070   4.469
 6611TIP3    H219773   3.859   2.992   4.378
 6612TIP3   OH219774   4.670   3.132   3.633
 6612TIP3    H119775   4.722   3.061   3.595
 6612TIP3    H219776   4.704   3.143   3.722
 6613TIP3   OH219777   4.726   3.203   3.893
 6613TIP3    H119778   4.645   3.205   3.944
 6613TIP3    H219779   4.795   3.193   3.958
 6614TIP3   OH219780   5.480   2.452   5.195
 6614TIP3    H119781   5.398   2.462   5.147
 6614TIP3    H219782   5.499   2.358   5.190
 6615TIP3   OH219783   4.086   2.871   5.200
 6615TIP3    H119784   4.137   2.860   5.281
 6615TIP3    H219785   4.014   2.808   5.208
 6616TIP3   OH219786   4.473   1.687   5.003
 6616TIP3    H119787   4.389   1.654   4.972
 6616TIP3    H219788   4.452   1.766   5.052
 6617TIP3   OH219789   5.016   1.804   5.201
 6617TIP3    H119790   5.086   1.780   5.262
 6617TIP3    H219791   4.935   1.786   5.249
 6618TIP3   OH219792   5.238   2.231   5.116
 6618TIP3    H119793   5.198   2.228   5.202
 6618TIP3    H219794   5.223   2.320   5.085
 6619TIP3   OH219795   4.913   2.325   3.659
 6619TIP3    H119796   4.875   2.318   3.572
 6619TIP3    H219797   4.995   2.374   3.646
 6620TIP3   OH219798   4.622   1.733   3.972
 6620TIP3    H119799   4.590   1.738   4.062
 6620TIP3    H219800   4.588   1.650   3.938
 6621TIP3   OH219801   4.410   2.215   5.014
 6621TIP3    H119802   4.368   2.226   5.099
 6621TIP3    H219803   4.389   2.296   4.967
 6622TIP3   OH219804   4.293   2.097   4.534
 6622TIP3    H119805   4.205   2.070   4.558
 6622TIP3    H219806   4.305   2.061   4.446
 6623TIP3   OH219807   4.776   2.173   4.262
 6623TIP3    H119808   4.729   2.245   4.221
 6623TIP3    H219809   4.835   2.141   4.194
 6624TIP3   OH219810   4.963   2.443   5.339
 6624TIP3    H119811   4.936   2.374   5.400
 6624TIP3    H219812   5.055   2.458   5.360
 6625TIP3   OH219813   4.940   2.190   4.491
 6625TIP3    H119814   4.874   2.215   4.427
 6625TIP3    H219815   4.985   2.116   4.450
 6626TIP3   OH219816   4.239   2.228   5.235
 6626TIP3    H119817   4.290   2.282   5.296
 6626TIP3    H219818   4.224   2.146   5.282
 6627TIP3   OH219819   4.284   1.711   3.944
 6627TIP3    H119820   4.277   1.711   4.039
 6627TIP3    H219821   4.207   1.760   3.915
 6628TIP3   OH219822   3.835   1.756   4.809
 6628TIP3    H119823   3.905   1.789   4.865
 6628TIP3    H219824   3.879   1.724   4.731
 6629TIP3   OH219825   3.758   1.732   4.327
 6629TIP3    H119826   3.804   1.767   4.250
 6629TIP3    H219827   3.697   1.802   4.351
 6630TIP3   OH219828   4.970   2.441   4.916
 6630TIP3    H119829   4.999   2.375   4.853
 6630TIP3    H219830   4.932   2.391   4.988
 6631TIP3   OH219831   4.650   1.902   4.591
 6631TIP3    H119832   4.573   1.899   4.649
 6631TIP3    H219833   4.724   1.886   4.650
 6632TIP3   OH219834   4.058   1.968   4.596
 6632TIP3    H119835   3.969   1.970   4.561
 6632TIP3    H219836   4.087   1.878   4.580
 6633TIP3   OH219837   4.309   1.971   4.290
 6633TIP3    H119838   4.403   1.982   4.278
 6633TIP3    H219839   4.271   1.990   4.204
 6634TIP3   OH219840   5.117   1.979   4.794
 6634TIP3    H119841   5.093   1.996   4.885
 6634TIP3    H219842   5.052   1.916   4.763
 6635TIP3   OH219843   4.183   2.001   4.047
 6635TIP3    H119844   4.119   1.952   3.994
 6635TIP3    H219845   4.239   2.045   3.983
 6636TIP3   OH219846   5.299   3.680   5.017
 6636TIP3    H119847   5.294   3.702   4.924
 6636TIP3    H219848   5.377   3.726   5.047
 6637TIP3   OH219849   4.244   2.795   5.432
 6637TIP3    H119850   4.326   2.816   5.477
 6637TIP3    H219851   4.177   2.797   5.501
 6638TIP3   OH219852   4.706   2.252   4.695
 6638TIP3    H119853   4.772   2.204   4.645
 6638TIP3    H219854   4.705   2.211   4.781
 6639TIP3   OH219855   4.207   1.722   4.585
 6639TIP3    H119856   4.175   1.647   4.635
 6639TIP3    H219857   4.250   1.683   4.509
 6640TIP3   OH219858   4.679   2.157   4.964
 6640TIP3    H119859   4.592   2.188   4.986
 6640TIP3    H219860   4.738   2.209   5.018
 6641TIP3   OH219861   4.413   2.520   4.069
 6641TIP3    H119862   4.339   2.463   4.049
 6641TIP3    H219863   4.391   2.558   4.154
 6642TIP3   OH219864   5.310   2.767   4.685
 6642TIP3    H119865   5.343   2.817   4.610
 6642TIP3    H219866   5.228   2.729   4.653
 6643TIP3   OH219867   4.875   1.837   3.957
 6643TIP3    H119868   4.781   1.815   3.962
 6643TIP3    H219869   4.879   1.930   3.979
 6644TIP3   OH219870   4.814   2.848   5.086
 6644TIP3    H119871   4.868   2.840   5.165
 6644TIP3    H219872   4.780   2.937   5.090
 6645TIP3   OH219873   4.940   2.094   4.046
 6645TIP3    H119874   5.035   2.097   4.057
 6645TIP3    H219875   4.919   2.173   3.995
 6646TIP3   OH219876   4.101   2.530   4.731
 6646TIP3    H119877   4.139   2.514   4.645
 6646TIP3    H219878   4.167   2.500   4.793
 6647TIP3   OH219879   4.565   2.679   3.906
 6647TIP3    H119880   4.517   2.762   3.908
 6647TIP3    H219881   4.513   2.620   3.961
 6648TIP3   OH219882   3.994   2.475   5.369
 6648TIP3    H119883   4.018   2.463   5.461
 6648TIP3    H219884   3.930   2.406   5.352
 6649TIP3   OH219885   4.731   2.595   5.376
 6649TIP3    H119886   4.669   2.545   5.322
 6649TIP3    H219887   4.817   2.559   5.353
 6650TIP3   OH219888   4.967   3.124   4.974
 6650TIP3    H119889   4.872   3.118   4.980
 6650TIP3    H219890   4.993   3.170   5.054
 6651TIP3   OH219891   5.364   2.182   3.870
 6651TIP3    H119892   5.309   2.135   3.807
 6651TIP3    H219893   5.367   2.271   3.836
 6652TIP3   OH219894   5.604   3.049   4.952
 6652TIP3    H119895   5.509   3.039   4.946
 6652TIP3    H219896   5.636   3.020   4.867
 6653TIP3   OH219897   5.085   3.001   3.791
 6653TIP3    H119898   5.062   2.935   3.856
 6653TIP3    H219899   5.104   2.952   3.711
 6654TIP3   OH219900   5.074   2.635   4.587
 6654TIP3    H119901   4.984   2.613   4.609
 6654TIP3    H219902   5.110   2.554   4.550
 6655TIP3   OH219903   4.227   2.867   4.387
 6655TIP3    H119904   4.229   2.944   4.330
 6655TIP3    H219905   4.134   2.853   4.404
 6656TIP3   OH219906   3.775   2.157   4.080
 6656TIP3    H119907   3.824   2.237   4.101
 6656TIP3    H219908   3.701   2.159   4.140
 6657TIP3   OH219909   4.326   2.622   4.304
 6657TIP3    H119910   4.306   2.713   4.329
 6657TIP3    H219911   4.298   2.570   4.379
 6658TIP3   OH219912   4.503   3.195   4.845
 6658TIP3    H119913   4.539   3.268   4.794
 6658TIP3    H219914   4.577   3.161   4.894
 6659TIP3   OH219915   4.137   3.091   4.233
 6659TIP3    H119916   4.051   3.100   4.274
 6659TIP3    H219917   4.175   3.179   4.237
 6660TIP3   OH219918   4.863   2.847   4.815
 6660TIP3    H119919   4.850   2.842   4.909
 6660TIP3    H219920   4.945   2.799   4.799
 6661TIP3   OH219921   4.851   2.731   3.693
 6661TIP3    H119922   4.908   2.705   3.765
 6661TIP3    H219923   4.764   2.701   3.719
 6662TIP3   OH219924   5.116   3.359   4.855
 6662TIP3    H119925   5.041   3.300   4.860
 6662TIP3    H219926   5.096   3.418   4.783
 6663TIP3   OH219927   5.182   3.206   3.498
 6663TIP3    H119928   5.230   3.280   3.459
 6663TIP3    H219929   5.101   3.245   3.532
 6664TIP3   OH219930   4.198   1.976   5.362
 6664TIP3    H119931   4.102   1.980   5.366
 6664TIP3    H219932   4.222   1.918   5.434
 6665TIP3   OH219933   5.025   2.645   3.883
 6665TIP3    H119934   5.010   2.592   3.962
 6665TIP3    H219935   5.120   2.655   3.878
 6666TIP3   OH219936   3.927   3.081   5.005
 6666TIP3    H119937   3.980   3.017   5.052
 6666TIP3    H219938   3.950   3.165   5.044
 6667TIP3   OH219939   4.207   2.697   3.694
 6667TIP3    H119940   4.219   2.605   3.671
 6667TIP3    H219941   4.187   2.696   3.787
 6668TIP3   OH219942   4.147   2.716   3.966
 6668TIP3    H119943   4.222   2.691   4.021
 6668TIP3    H219944   4.145   2.812   3.971
 6669TIP3   OH219945   3.881   2.402   4.173
 6669TIP3    H119946   3.817   2.449   4.227
 6669TIP3    H219947   3.902   2.464   4.103
 6670TIP3   OH219948   5.046   2.037   5.054
 6670TIP3    H119949   5.123   2.083   5.088
 6670TIP3    H219950   5.037   1.960   5.110
 6671TIP3   OH219951   4.933   1.787   4.232
 6671TIP3    H119952   4.917   1.805   4.140
 6671TIP3    H219953   4.977   1.865   4.266
 6672TIP3   OH219954   4.413   2.903   3.917
 6672TIP3    H119955   4.328   2.927   3.952
 6672TIP3    H219956   4.440   2.978   3.864
 6673TIP3   OH219957   4.588   1.984   4.333
 6673TIP3    H119958   4.652   2.050   4.307
 6673TIP3    H219959   4.608   1.966   4.425
 6674TIP3   OH219960   4.883   2.276   5.119
 6674TIP3    H119961   4.910   2.321   5.198
 6674TIP3    H219962   4.934   2.195   5.118
 6675TIP3   OH219963   4.748   1.693   4.420
 6675TIP3    H119964   4.730   1.769   4.475
 6675TIP3    H219965   4.817   1.722   4.361
 6676TIP3   OH219966   4.158   2.988   3.978
 6676TIP3    H119967   4.143   3.059   3.915
 6676TIP3    H219968   4.149   3.030   4.064
 6677TIP3   OH219969   4.264   1.699   4.222
 6677TIP3    H119970   4.254   1.788   4.256
 6677TIP3    H219971   4.358   1.681   4.227
 6678TIP3   OH219972   5.504   2.179   5.106
 6678TIP3    H119973   5.409   2.186   5.114
 6678TIP3    H219974   5.518   2.126   5.028
 6679TIP3   OH219975   5.166   2.379   4.494
 6679TIP3    H119976   5.090   2.323   4.506
 6679TIP3    H219977   5.235   2.338   4.546
 6680TIP3   OH219978   3.896   2.593   3.965
 6680TIP3    H119979   3.965   2.659   3.975
 6680TIP3    H219980   3.932   2.531   3.902
 6681TIP3   OH219981   3.818   1.882   4.106
 6681TIP3    H119982   3.824   1.978   4.103
 6681TIP3    H219983   3.804   1.856   4.015
 6682TIP3   OH219984   5.146   3.344   4.432
 6682TIP3    H119985   5.104   3.391   4.360
 6682TIP3    H219986   5.240   3.359   4.418
 6683TIP3   OH219987   4.207   1.602   4.971
 6683TIP3    H119988   4.181   1.566   4.886
 6683TIP3    H219989   4.201   1.528   5.031
 6684TIP3   OH219990   3.735   2.837   4.364
 6684TIP3    H119991   3.695   2.880   4.440
 6684TIP3    H219992   3.697   2.883   4.289
 6685TIP3   OH219993   3.932   3.385   5.429
 6685TIP3    H119994   4.013   3.394   5.478
 6685TIP3    H219995   3.920   3.291   5.418
 6686TIP3   OH219996   4.394   3.312   5.467
 6686TIP3    H119997   4.487   3.293   5.478
 6686TIP3    H219998   4.366   3.255   5.395
 6687TIP3   OH219999   4.363   2.896   3.585
 6687TIP3    H120000   4.315   2.827   3.631
 6687TIP3    H220001   4.441   2.853   3.551
 6688TIP3   OH220002   5.021   3.245   5.215
 6688TIP3    H120003   5.025   3.174   5.279
 6688TIP3    H220004   5.098   3.299   5.234
 6689TIP3   OH220005   4.809   2.933   3.510
 6689TIP3    H120006   4.841   2.871   3.575
 6689TIP3    H220007   4.876   2.933   3.442
 6690TIP3   OH220008   4.042   2.784   5.623
 6690TIP3    H120009   4.062   2.691   5.634
 6690TIP3    H220010   3.955   2.784   5.582
 6691TIP3   OH220011   4.027   2.402   3.822
 6691TIP3    H120012   4.080   2.378   3.898
 6691TIP3    H220013   4.091   2.413   3.751
 6692TIP3   OH220014   4.656   2.870   5.397
 6692TIP3    H120015   4.615   2.892   5.313
 6692TIP3    H220016   4.694   2.784   5.384
 6693TIP3   OH220017   4.560   2.623   3.636
 6693TIP3    H120018   4.552   2.637   3.730
 6693TIP3    H220019   4.555   2.528   3.626
 6694TIP3   OH220020   5.134   2.900   5.007
 6694TIP3    H120021   5.212   2.930   4.962
 6694TIP3    H220022   5.069   2.969   4.993
 6695TIP3   OH220023   4.158   2.525   5.616
 6695TIP3    H120024   4.237   2.500   5.566
 6695TIP3    H220025   4.191   2.543   5.704
 6696TIP3   OH220026   4.206   2.337   4.028
 6696TIP3    H120027   4.188   2.307   4.117
 6696TIP3    H220028   4.252   2.264   3.987
 6697TIP3   OH220029   4.488   2.389   5.265
 6697TIP3    H120030   4.418   2.452   5.282
 6697TIP3    H220031   4.538   2.427   5.193
 6698TIP3   OH220032   4.338   2.145   3.874
 6698TIP3    H120033   4.311   2.148   3.782
 6698TIP3    H220034   4.434   2.151   3.870
 6699TIP3   OH220035   5.015   2.789   5.381
 6699TIP3    H120036   5.089   2.755   5.330
 6699TIP3    H220037   5.013   2.734   5.460
 6700TIP3   OH220038   5.139   2.447   3.551
 6700TIP3    H120039   5.125   2.404   3.467
 6700TIP3    H220040   5.113   2.538   3.537
 6701TIP3   OH220041   4.619   2.185   5.392
 6701TIP3    H120042   4.625   2.110   5.333
 6701TIP3    H220043   4.578   2.253   5.340
 6702TIP3   OH220044   4.628   1.982   5.193
 6702TIP3    H120045   4.656   2.018   5.109
 6702TIP3    H220046   4.537   1.955   5.178
 6703TIP3   OH220047   4.640   2.515   5.079
 6703TIP3    H120048   4.729   2.534   5.051
 6703TIP3    H220049   4.585   2.576   5.028
 6704TIP3   OH220050   5.229   2.472   5.442
 6704TIP3    H120051   5.271   2.387   5.454
 6704TIP3    H220052   5.300   2.532   5.422
 6705TIP3   OH220053   5.264   2.733   5.178
 6705TIP3    H120054   5.208   2.792   5.127
 6705TIP3    H220055   5.352   2.750   5.147
 6706TIP3   OH220056   4.499   2.278   5.631
 6706TIP3    H120057   4.430   2.214   5.650
 6706TIP3    H220058   4.531   2.253   5.544
 6707TIP3   OH220059   4.751   1.746   5.282
 6707TIP3    H120060   4.709   1.826   5.253
 6707TIP3    H220061   4.685   1.678   5.270
 6708TIP3   OH220062   4.878   2.230   5.488
 6708TIP3    H120063   4.871   2.218   5.583
 6708TIP3    H220064   4.791   2.208   5.455
 6709TIP3   OH220065   5.122   2.182   5.354
 6709TIP3    H120066   5.044   2.182   5.410
 6709TIP3    H220067   5.193   2.156   5.411
 6710TIP3   OH220068   5.356   2.139   5.503
 6710TIP3    H120069   5.370   2.045   5.512
 6710TIP3    H220070   5.351   2.172   5.593
 6711TIP3   OH220071   4.335   2.056   5.697
 6711TIP3    H120072   4.342   1.968   5.661
 6711TIP3    H220073   4.376   2.051   5.783
 6712TIP3   OH220074   4.825   1.735   5.547
 6712TIP3    H120075   4.894   1.668   5.543
 6712TIP3    H220076   4.793   1.741   5.457
 6713TIP3   OH220077   4.911   1.953   5.691
 6713TIP3    H120078   4.885   1.880   5.635
 6713TIP3    H220079   4.837   2.013   5.689
 6714TIP3   OH220080   4.150   3.191   3.789
 6714TIP3    H120081   4.245   3.193   3.779
 6714TIP3    H220082   4.117   3.234   3.710
 6715TIP3   OH220083   3.625   2.571   3.993
 6715TIP3    H120084   3.718   2.590   3.984
 6715TIP3    H220085   3.613   2.486   3.952
 6716TIP3   OH220086   3.535   3.162   4.436
 6716TIP3    H120087   3.470   3.109   4.389
 6716TIP3    H220088   3.580   3.100   4.493
 6717TIP3   OH220089   3.678   2.996   4.608
 6717TIP3    H120090   3.671   2.934   4.680
 6717TIP3    H220091   3.727   3.070   4.644
 6718TIP3   OH220092   5.414   3.406   4.415
 6718TIP3    H120093   5.433   3.442   4.501
 6718TIP3    H220094   5.466   3.459   4.355
 6719TIP3   OH220095   5.427   3.440   4.698
 6719TIP3    H120096   5.383   3.355   4.692
 6719TIP3    H220097   5.501   3.425   4.757
 6720TIP3   OH220098   5.475   3.131   5.270
 6720TIP3    H120099   5.406   3.140   5.336
 6720TIP3    H220100   5.521   3.215   5.273
 6721TIP3   OH220101   5.303   2.646   3.881
 6721TIP3    H120102   5.363   2.715   3.852
 6721TIP3    H220103   5.346   2.608   3.958
 6722TIP3   OH220104   5.428   2.504   4.084
 6722TIP3    H120105   5.362   2.466   4.141
 6722TIP3    H220106   5.493   2.541   4.143
 6723TIP3   OH220107   5.481   2.907   4.515
 6723TIP3    H120108   5.534   2.839   4.472
 6723TIP3    H220109   5.481   2.980   4.453
 6724TIP3   OH220110   5.292   3.195   4.708
 6724TIP3    H120111   5.224   3.240   4.758
 6724TIP3    H220112   5.245   3.153   4.636
 6725TIP3   OH220113   5.347   2.421   3.729
 6725TIP3    H120114   5.275   2.421   3.666
 6725TIP3    H220115   5.331   2.497   3.784
 6726TIP3   OH220116   5.212   2.073   3.669
 6726TIP3    H120117   5.162   2.113   3.598
 6726TIP3    H220118   5.199   1.979   3.658
 6727TIP3   OH220119   5.230   2.365   4.224
 6727TIP3    H120120   5.238   2.270   4.214
 6727TIP3    H220121   5.212   2.378   4.317
 6728TIP3   OH220122   3.856   2.446   4.986
 6728TIP3    H120123   3.848   2.404   4.899
 6728TIP3    H220124   3.949   2.440   5.006
 6729TIP3   OH220125   5.519   2.788   5.084
 6729TIP3    H120126   5.585   2.721   5.067
 6729TIP3    H220127   5.539   2.857   5.022
 6730TIP3   OH220128   5.694   2.577   5.077
 6730TIP3    H120129   5.620   2.535   5.121
 6730TIP3    H220130   5.769   2.520   5.097
 6731TIP3   OH220131   5.165   1.802   3.641
 6731TIP3    H120132   5.230   1.778   3.708
 6731TIP3    H220133   5.084   1.761   3.670
 6732TIP3   OH220134   5.227   2.085   4.106
 6732TIP3    H120135   5.270   2.001   4.119
 6732TIP3    H220136   5.274   2.125   4.033
 6733TIP3   OH220137   5.382   2.252   4.624
 6733TIP3    H120138   5.463   2.271   4.577
 6733TIP3    H220139   5.395   2.291   4.711
 6734TIP3   OH220140   5.455   2.403   4.852
 6734TIP3    H120141   5.382   2.433   4.906
 6734TIP3    H220142   5.488   2.481   4.809
 6735TIP3   OH220143   4.069   2.107   5.640
 6735TIP3    H120144   4.163   2.107   5.654
 6735TIP3    H220145   4.039   2.024   5.675
 6736TIP3   OH220146   5.914   2.004   5.398
 6736TIP3    H120147   5.975   1.943   5.357
 6736TIP3    H220148   5.877   2.053   5.325
 6737TIP3   OH220149   5.337   1.833   4.158
 6737TIP3    H120150   5.383   1.820   4.240
 6737TIP3    H220151   5.275   1.761   4.153
 6738TIP3   OH220152   4.039   1.823   4.990
 6738TIP3    H120153   4.092   1.744   4.995
 6738TIP3    H220154   4.101   1.893   4.973
 6739TIP3   OH220155   3.829   2.096   5.039
 6739TIP3    H120156   3.882   2.089   4.960
 6739TIP3    H220157   3.877   2.157   5.095
 6740TIP3   OH220158   5.767   2.122   5.202
 6740TIP3    H120159   5.686   2.163   5.231
 6740TIP3    H220160   5.738   2.049   5.147
 6741TIP3   OH220161   5.394   1.758   3.797
 6741TIP3    H120162   5.439   1.694   3.742
 6741TIP3    H220163   5.454   1.833   3.799
 6742TIP3   OH220164   3.819   1.591   4.552
 6742TIP3    H120165   3.732   1.580   4.590
 6742TIP3    H220166   3.806   1.648   4.476
 6743TIP3   OH220167   4.969   3.301   4.049
 6743TIP3    H120168   5.029   3.295   3.975
 6743TIP3    H220169   5.009   3.365   4.108
 6744TIP3   OH220170   4.038   1.681   5.378
 6744TIP3    H120171   3.984   1.656   5.453
 6744TIP3    H220172   3.975   1.714   5.314
 6745TIP3   OH220173   4.069   3.111   5.439
 6745TIP3    H120174   3.976   3.086   5.433
 6745TIP3    H220175   4.092   3.092   5.530
 6746TIP3   OH220176   4.271   3.153   4.989
 6746TIP3    H120177   4.220   3.225   4.952
 6746TIP3    H220178   4.357   3.161   4.949
 6747TIP3   OH220179   4.688   3.385   5.130
 6747TIP3    H120180   4.726   3.378   5.217
 6747TIP3    H220181   4.751   3.437   5.080
 6748TIP3   OH220182   4.876   3.539   4.999
 6748TIP3    H120183   4.941   3.488   4.950
 6748TIP3    H220184   4.928   3.596   5.056
 6749TIP3   OH220185   5.676   1.876   5.091
 6749TIP3    H120186   5.588   1.866   5.057
 6749TIP3    H220187   5.714   1.788   5.085
 6750TIP3   OH220188   3.935   3.394   5.032
 6750TIP3    H120189   3.844   3.416   5.013
 6750TIP3    H220190   3.962   3.457   5.099
 6751TIP3   OH220191   4.163   3.382   4.871
 6751TIP3    H120192   4.080   3.390   4.918
 6751TIP3    H220193   4.146   3.421   4.785
 6752TIP3   OH220194   4.591   3.400   4.678
 6752TIP3    H120195   4.524   3.414   4.610
 6752TIP3    H220196   4.604   3.486   4.716
 6753TIP3   OH220197   4.856   3.335   4.730
 6753TIP3    H120198   4.764   3.355   4.711
 6753TIP3    H220199   4.906   3.402   4.685
 6754TIP3   OH220200   5.054   3.512   4.631
 6754TIP3    H120201   5.051   3.599   4.592
 6754TIP3    H220202   5.085   3.455   4.561
 6755TIP3   OH220203   3.845   3.181   4.756
 6755TIP3    H120204   3.870   3.156   4.845
 6755TIP3    H220205   3.917   3.150   4.701
 6756TIP3   OH220206   4.049   3.060   4.621
 6756TIP3    H120207   4.062   2.976   4.666
 6756TIP3    H220208   4.136   3.100   4.621
 6757TIP3   OH220209   4.317   3.144   4.638
 6757TIP3    H120210   4.339   3.051   4.626
 6757TIP3    H220211   4.371   3.171   4.713
 6758TIP3   OH220212   4.879   1.794   4.715
 6758TIP3    H120213   4.840   1.722   4.765
 6758TIP3    H220214   4.950   1.753   4.665
 6759TIP3   OH220215   5.390   1.701   4.613
 6759TIP3    H120216   5.426   1.753   4.540
 6759TIP3    H220217   5.296   1.721   4.612
 6760TIP3   OH220218   5.501   1.787   4.376
 6760TIP3    H120219   5.570   1.729   4.348
 6760TIP3    H220220   5.536   1.875   4.363
 6761TIP3   OH220221   4.124   1.497   4.727
 6761TIP3    H120222   4.034   1.463   4.734
 6761TIP3    H220223   4.179   1.418   4.723
 6762TIP3   OH220224   3.913   1.390   4.371
 6762TIP3    H120225   3.952   1.440   4.299
 6762TIP3    H220226   3.891   1.455   4.437
 6763TIP3   OH220227   4.588   1.549   4.613
 6763TIP3    H120228   4.642   1.592   4.547
 6763TIP3    H220229   4.630   1.570   4.696
 6764TIP3   OH220230   5.102   1.679   4.592
 6764TIP3    H120231   5.117   1.640   4.505
 6764TIP3    H220232   5.099   1.604   4.651
 6765TIP3   OH220233   5.152   1.622   4.164
 6765TIP3    H120234   5.071   1.668   4.184
 6765TIP3    H220235   5.142   1.536   4.206
 6766TIP3   OH220236   3.623   2.969   4.153
 6766TIP3    H120237   3.539   2.937   4.120
 6766TIP3    H220238   3.630   3.058   4.120
 6767TIP3   OH220239   4.046   1.536   4.144
 6767TIP3    H120240   4.090   1.472   4.087
 6767TIP3    H220241   4.117   1.590   4.179
 6768TIP3   OH220242   4.539   1.732   4.236
 6768TIP3    H120243   4.597   1.680   4.291
 6768TIP3    H220244   4.554   1.822   4.263
 6769TIP3   OH220245   4.416   3.116   3.743
 6769TIP3    H120246   4.498   3.146   3.702
 6769TIP3    H220247   4.384   3.049   3.683
 6770TIP3   OH220248   5.125   3.270   3.822
 6770TIP3    H120249   5.115   3.176   3.812
 6770TIP3    H220250   5.080   3.307   3.746
 6771TIP3   OH220251   4.345   1.781   5.616
 6771TIP3    H120252   4.310   1.712   5.673
 6771TIP3    H220253   4.437   1.786   5.639
 6772TIP3   OH220254   4.598   1.785   5.730
 6772TIP3    H120255   4.677   1.765   5.680
 6772TIP3    H220256   4.593   1.716   5.796
 6773TIP3   OH220257   3.708   2.970   3.795
 6773TIP3    H120258   3.717   2.999   3.885
 6773TIP3    H220259   3.792   2.928   3.774
 6774TIP3   OH220260   5.420   1.867   5.519
 6774TIP3    H120261   5.435   1.839   5.609
 6774TIP3    H220262   5.506   1.863   5.478
 6775TIP3   OH220263   5.340   3.407   5.020
 6775TIP3    H120264   5.266   3.376   4.969
 6775TIP3    H220265   5.328   3.501   5.027
 6776TIP3   OH220266   6.615   2.792   3.768
 6776TIP3    H120267   6.587   2.880   3.742
 6776TIP3    H220268   6.543   2.735   3.740
 6777TIP3   OH220269   6.615   2.781   4.182
 6777TIP3    H120270   6.662   2.765   4.263
 6777TIP3    H220271   6.571   2.698   4.162
 6778TIP3   OH220272   5.912   2.660   4.537
 6778TIP3    H120273   5.946   2.599   4.603
 6778TIP3    H220274   5.991   2.700   4.499
 6779TIP3   OH220275   6.876   3.089   3.858
 6779TIP3    H120276   6.864   3.025   3.929
 6779TIP3    H220277   6.900   3.170   3.903
 6780TIP3   OH220278   5.900   3.077   4.233
 6780TIP3    H120279   5.885   2.982   4.239
 6780TIP3    H220280   5.994   3.085   4.221
 6781TIP3   OH220281   5.591   2.282   4.012
 6781TIP3    H120282   5.552   2.366   4.037
 6781TIP3    H220283   5.519   2.232   3.973
 6782TIP3   OH220284   5.662   2.583   4.219
 6782TIP3    H120285   5.712   2.507   4.247
 6782TIP3    H220286   5.728   2.645   4.188
 6783TIP3   OH220287   6.522   3.531   3.860
 6783TIP3    H120288   6.560   3.460   3.808
 6783TIP3    H220289   6.504   3.491   3.945
 6784TIP3   OH220290   6.418   3.006   4.197
 6784TIP3    H120291   6.460   2.927   4.163
 6784TIP3    H220292   6.491   3.060   4.227
 6785TIP3   OH220293   7.439   2.327   4.208
 6785TIP3    H120294   7.455   2.416   4.239
 6785TIP3    H220295   7.469   2.328   4.117
 6786TIP3   OH220296   6.832   2.498   4.230
 6786TIP3    H120297   6.869   2.413   4.255
 6786TIP3    H220298   6.794   2.483   4.143
 6787TIP3   OH220299   6.181   2.160   4.192
 6787TIP3    H120300   6.161   2.233   4.134
 6787TIP3    H220301   6.127   2.087   4.160
 6788TIP3   OH220302   6.876   2.257   3.821
 6788TIP3    H120303   6.941   2.247   3.891
 6788TIP3    H220304   6.926   2.291   3.747
 6789TIP3   OH220305   5.805   2.368   4.316
 6789TIP3    H120306   5.888   2.352   4.361
 6789TIP3    H220307   5.811   2.316   4.235
 6790TIP3   OH220308   6.235   2.567   4.122
 6790TIP3    H120309   6.328   2.549   4.131
 6790TIP3    H220310   6.198   2.486   4.088
 6791TIP3   OH220311   7.502   2.550   4.379
 6791TIP3    H120312   7.415   2.586   4.364
 6791TIP3    H220313   7.528   2.585   4.464
 6792TIP3   OH220314   6.163   2.156   4.641
 6792TIP3    H120315   6.112   2.191   4.569
 6792TIP3    H220316   6.109   2.171   4.719
 6793TIP3   OH220317   6.515   3.011   3.625
 6793TIP3    H120318   6.475   2.985   3.542
 6793TIP3    H220319   6.464   3.086   3.654
 6794TIP3   OH220320   6.263   2.934   4.415
 6794TIP3    H120321   6.206   3.003   4.449
 6794TIP3    H220322   6.310   2.974   4.342
 6795TIP3   OH220323   7.047   2.273   4.035
 6795TIP3    H120324   7.008   2.251   4.120
 6795TIP3    H220325   7.104   2.348   4.054
 6796TIP3   OH220326   6.049   2.265   4.413
 6796TIP3    H120327   6.104   2.340   4.437
 6796TIP3    H220328   6.096   2.223   4.341
 6797TIP3   OH220329   6.100   3.135   4.516
 6797TIP3    H120330   6.083   3.223   4.482
 6797TIP3    H220331   6.024   3.115   4.569
 6798TIP3   OH220332   5.481   2.829   3.765
 6798TIP3    H120333   5.445   2.850   3.679
 6798TIP3    H220334   5.505   2.914   3.802
 6799TIP3   OH220335   6.925   3.335   3.999
 6799TIP3    H120336   6.840   3.326   4.041
 6799TIP3    H220337   6.922   3.419   3.954
 6800TIP3   OH220338   7.238   2.222   4.375
 6800TIP3    H120339   7.152   2.244   4.341
 6800TIP3    H220340   7.299   2.250   4.307
 6801TIP3   OH220341   6.507   1.852   4.363
 6801TIP3    H120342   6.498   1.760   4.387
 6801TIP3    H220343   6.432   1.895   4.404
 6802TIP3   OH220344   6.632   3.366   3.664
 6802TIP3    H120345   6.683   3.287   3.649
 6802TIP3    H220346   6.688   3.437   3.634
 6803TIP3   OH220347   6.769   3.136   3.606
 6803TIP3    H120348   6.694   3.077   3.605
 6803TIP3    H220349   6.817   3.113   3.686
 6804TIP3   OH220350   7.157   3.231   4.349
 6804TIP3    H120351   7.139   3.157   4.291
 6804TIP3    H220352   7.139   3.309   4.295
 6805TIP3   OH220353   6.443   2.633   3.614
 6805TIP3    H120354   6.362   2.680   3.595
 6805TIP3    H220355   6.491   2.633   3.531
 6806TIP3   OH220356   6.409   2.433   3.314
 6806TIP3    H120357   6.474   2.482   3.364
 6806TIP3    H220358   6.460   2.368   3.266
 6807TIP3   OH220359   7.339   2.888   4.206
 6807TIP3    H120360   7.255   2.934   4.210
 6807TIP3    H220361   7.370   2.901   4.117
 6808TIP3   OH220362   6.799   2.718   3.579
 6808TIP3    H120363   6.745   2.748   3.652
 6808TIP3    H220364   6.882   2.693   3.619
 6809TIP3   OH220365   7.028   2.753   4.512
 6809TIP3    H120366   7.026   2.835   4.561
 6809TIP3    H220367   6.945   2.750   4.464
 6810TIP3   OH220368   6.029   2.704   3.989
 6810TIP3    H120369   5.992   2.646   3.922
 6810TIP3    H220370   6.103   2.656   4.025
 6811TIP3   OH220371   6.161   3.120   4.129
 6811TIP3    H120372   6.141   3.105   4.036
 6811TIP3    H220373   6.249   3.084   4.140
 6812TIP3   OH220374   6.141   2.695   4.354
 6812TIP3    H120375   6.178   2.662   4.272
 6812TIP3    H220376   6.189   2.776   4.371
 6813TIP3   OH220377   6.693   3.327   4.136
 6813TIP3    H120378   6.673   3.409   4.183
 6813TIP3    H220379   6.673   3.258   4.200
 6814TIP3   OH220380   6.299   3.235   4.680
 6814TIP3    H120381   6.241   3.296   4.725
 6814TIP3    H220382   6.242   3.185   4.623
 6815TIP3   OH220383   6.632   2.581   3.409
 6815TIP3    H120384   6.691   2.637   3.458
 6815TIP3    H220385   6.658   2.591   3.317
 6816TIP3   OH220386   6.058   2.785   4.806
 6816TIP3    H120387   6.063   2.877   4.832
 6816TIP3    H220388   5.964   2.766   4.803
 6817TIP3   OH220389   6.382   3.251   3.671
 6817TIP3    H120390   6.464   3.299   3.677
 6817TIP3    H220391   6.320   3.313   3.632
 6818TIP3   OH220392   6.091   3.398   4.763
 6818TIP3    H120393   6.064   3.408   4.671
 6818TIP3    H220394   6.010   3.380   4.810
 6819TIP3   OH220395   7.144   1.811   3.465
 6819TIP3    H120396   7.066   1.830   3.516
 6819TIP3    H220397   7.157   1.889   3.410
 6820TIP3   OH220398   5.903   2.550   3.784
 6820TIP3    H120399   5.827   2.597   3.748
 6820TIP3    H220400   5.868   2.464   3.807
 6821TIP3   OH220401   6.955   3.182   3.014
 6821TIP3    H120402   6.956   3.276   2.999
 6821TIP3    H220403   7.046   3.154   2.997
 6822TIP3   OH220404   5.680   2.944   4.713
 6822TIP3    H120405   5.612   2.928   4.648
 6822TIP3    H220406   5.715   2.858   4.733
 6823TIP3   OH220407   5.531   3.138   4.355
 6823TIP3    H120408   5.626   3.151   4.356
 6823TIP3    H220409   5.496   3.218   4.394
 6824TIP3   OH220410   7.388   3.597   4.408
 6824TIP3    H120411   7.394   3.502   4.418
 6824TIP3    H220412   7.307   3.621   4.453
 6825TIP3   OH220413   6.491   3.371   4.537
 6825TIP3    H120414   6.486   3.463   4.564
 6825TIP3    H220415   6.422   3.328   4.587
 6826TIP3   OH220416   6.270   3.489   3.494
 6826TIP3    H120417   6.221   3.475   3.414
 6826TIP3    H220418   6.237   3.572   3.529
 6827TIP3   OH220419   5.703   3.327   3.871
 6827TIP3    H120420   5.747   3.324   3.956
 6827TIP3    H220421   5.655   3.245   3.866
 6828TIP3   OH220422   6.469   3.402   3.124
 6828TIP3    H120423   6.523   3.331   3.089
 6828TIP3    H220424   6.503   3.418   3.212
 6829TIP3   OH220425   6.523   3.453   3.392
 6829TIP3    H120426   6.437   3.460   3.435
 6829TIP3    H220427   6.582   3.425   3.461
 6830TIP3   OH220428   7.275   2.711   4.679
 6830TIP3    H120429   7.193   2.722   4.631
 6830TIP3    H220430   7.294   2.617   4.673
 6831TIP3   OH220431   5.885   3.127   4.686
 6831TIP3    H120432   5.933   3.115   4.769
 6831TIP3    H220433   5.811   3.066   4.693
 6832TIP3   OH220434   6.272   1.945   4.492
 6832TIP3    H120435   6.188   1.912   4.460
 6832TIP3    H220436   6.250   2.024   4.540
 6833TIP3   OH220437   6.813   2.059   4.689
 6833TIP3    H120438   6.882   2.035   4.751
 6833TIP3    H220439   6.731   2.042   4.736
 6834TIP3   OH220440   7.038   2.490   4.607
 6834TIP3    H120441   6.993   2.486   4.692
 6834TIP3    H220442   7.018   2.577   4.573
 6835TIP3   OH220443   6.709   2.582   3.146
 6835TIP3    H120444   6.671   2.575   3.059
 6835TIP3    H220445   6.791   2.630   3.133
 6836TIP3   OH220446   6.419   1.988   3.459
 6836TIP3    H120447   6.386   1.993   3.548
 6836TIP3    H220448   6.383   1.906   3.424
 6837TIP3   OH220449   6.208   2.473   4.503
 6837TIP3    H120450   6.160   2.482   4.586
 6837TIP3    H220451   6.187   2.553   4.455
 6838TIP3   OH220452   6.091   2.353   4.020
 6838TIP3    H120453   6.001   2.329   4.045
 6838TIP3    H220454   6.101   2.317   3.932
 6839TIP3   OH220455   6.574   2.430   3.749
 6839TIP3    H120456   6.525   2.502   3.708
 6839TIP3    H220457   6.632   2.398   3.680
 6840TIP3   OH220458   6.756   2.699   4.827
 6840TIP3    H120459   6.729   2.631   4.888
 6840TIP3    H220460   6.848   2.715   4.848
 6841TIP3   OH220461   6.738   2.447   3.977
 6841TIP3    H120462   6.671   2.473   3.914
 6841TIP3    H220463   6.782   2.372   3.936
 6842TIP3   OH220464   6.039   2.487   4.721
 6842TIP3    H120465   6.055   2.551   4.790
 6842TIP3    H220466   6.022   2.405   4.768
 6843TIP3   OH220467   6.082   1.967   3.432
 6843TIP3    H120468   6.074   1.968   3.527
 6843TIP3    H220469   6.005   2.015   3.401
 6844TIP3   OH220470   5.630   2.010   4.298
 6844TIP3    H120471   5.701   2.045   4.352
 6844TIP3    H220472   5.673   1.986   4.215
 6845TIP3   OH220473   5.558   1.988   3.810
 6845TIP3    H120474   5.604   2.023   3.734
 6845TIP3    H220475   5.496   2.057   3.835
 6846TIP3   OH220476   6.770   2.697   4.403
 6846TIP3    H120477   6.797   2.630   4.340
 6846TIP3    H220478   6.729   2.648   4.474
 6847TIP3   OH220479   6.447   2.150   4.076
 6847TIP3    H120480   6.369   2.151   4.131
 6847TIP3    H220481   6.520   2.142   4.137
 6848TIP3   OH220482   5.853   2.228   4.083
 6848TIP3    H120483   5.764   2.233   4.049
 6848TIP3    H220484   5.881   2.138   4.066
 6849TIP3   OH220485   6.108   2.225   3.777
 6849TIP3    H120486   6.202   2.239   3.764
 6849TIP3    H220487   6.068   2.246   3.692
 6850TIP3   OH220488   6.912   2.235   4.281
 6850TIP3    H120489   6.890   2.252   4.373
 6850TIP3    H220490   6.844   2.175   4.251
 6851TIP3   OH220491   5.981   2.254   3.536
 6851TIP3    H120492   5.915   2.208   3.484
 6851TIP3    H220493   6.035   2.298   3.471
 6852TIP3   OH220494   7.096   3.937   4.504
 6852TIP3    H120495   7.089   3.956   4.410
 6852TIP3    H220496   7.174   3.985   4.533
 6853TIP3   OH220497   6.043   3.043   4.919
 6853TIP3    H120498   6.123   3.068   4.966
 6853TIP3    H220499   5.974   3.050   4.985
 6854TIP3   OH220500   6.504   2.508   4.182
 6854TIP3    H120501   6.572   2.459   4.135
 6854TIP3    H220502   6.502   2.468   4.269
 6855TIP3   OH220503   6.002   1.981   4.069
 6855TIP3    H120504   5.971   1.906   4.120
 6855TIP3    H220505   6.037   1.943   3.988
 6856TIP3   OH220506   6.476   2.414   4.451
 6856TIP3    H120507   6.388   2.446   4.472
 6856TIP3    H220508   6.534   2.468   4.505
 6857TIP3   OH220509   6.210   2.776   3.558
 6857TIP3    H120510   6.136   2.719   3.538
 6857TIP3    H220511   6.188   2.815   3.643
 6858TIP3   OH220512   7.103   3.025   4.173
 6858TIP3    H120513   7.134   3.076   4.098
 6858TIP3    H220514   7.021   2.985   4.143
 6859TIP3   OH220515   6.672   2.090   3.451
 6859TIP3    H120516   6.579   2.070   3.451
 6859TIP3    H220517   6.677   2.184   3.467
 6860TIP3   OH220518   6.612   3.105   4.573
 6860TIP3    H120519   6.656   3.099   4.658
 6860TIP3    H220520   6.572   3.192   4.573
 6861TIP3   OH220521   6.736   2.350   3.532
 6861TIP3    H120522   6.831   2.354   3.542
 6861TIP3    H220523   6.714   2.428   3.481
 6862TIP3   OH220524   5.902   2.787   4.221
 6862TIP3    H120525   5.940   2.771   4.135
 6862TIP3    H220526   5.967   2.752   4.283
 6863TIP3   OH220527   6.361   2.936   3.395
 6863TIP3    H120528   6.314   3.020   3.395
 6863TIP3    H220529   6.307   2.878   3.449
 6864TIP3   OH220530   5.788   2.718   4.846
 6864TIP3    H120531   5.796   2.699   4.939
 6864TIP3    H220532   5.714   2.664   4.817
 6865TIP3   OH220533   6.518   2.848   4.866
 6865TIP3    H120534   6.451   2.789   4.834
 6865TIP3    H220535   6.601   2.809   4.836
 6866TIP3   OH220536   6.765   3.379   4.464
 6866TIP3    H120537   6.669   3.372   4.469
 6866TIP3    H220538   6.790   3.426   4.543
 6867TIP3   OH220539   7.159   2.439   3.357
 6867TIP3    H120540   7.103   2.392   3.295
 6867TIP3    H220541   7.163   2.529   3.323
 6868TIP3   OH220542   7.404   3.315   4.436
 6868TIP3    H120543   7.309   3.303   4.436
 6868TIP3    H220544   7.432   3.280   4.352
 6869TIP3   OH220545   6.889   3.257   3.284
 6869TIP3    H120546   6.859   3.192   3.348
 6869TIP3    H220547   6.901   3.207   3.203
 6870TIP3   OH220548   6.871   2.890   4.076
 6870TIP3    H120549   6.781   2.868   4.097
 6870TIP3    H220550   6.907   2.810   4.037
 6871TIP3   OH220551   6.020   3.124   3.874
 6871TIP3    H120552   6.020   3.201   3.817
 6871TIP3    H220553   5.929   3.114   3.902
 6872TIP3   OH220554   5.579   2.415   3.580
 6872TIP3    H120555   5.624   2.496   3.600
 6872TIP3    H220556   5.501   2.416   3.635
 6873TIP3   OH220557   6.123   2.880   3.793
 6873TIP3    H120558   6.099   2.970   3.816
 6873TIP3    H220559   6.094   2.827   3.867
 6874TIP3   OH220560   6.299   3.452   4.331
 6874TIP3    H120561   6.333   3.526   4.280
 6874TIP3    H220562   6.375   3.420   4.379
 6875TIP3   OH220563   5.935   3.351   3.722
 6875TIP3    H120564   5.849   3.356   3.764
 6875TIP3    H220565   5.969   3.441   3.726
 6876TIP3   OH220566   6.659   3.102   4.302
 6876TIP3    H120567   6.647   3.098   4.397
 6876TIP3    H220568   6.739   3.052   4.285
 6877TIP3   OH220569   6.646   2.988   3.177
 6877TIP3    H120570   6.703   2.960   3.248
 6877TIP3    H220571   6.559   2.957   3.202
 6878TIP3   OH220572   6.913   3.616   4.340
 6878TIP3    H120573   6.836   3.560   4.345
 6878TIP3    H220574   6.893   3.677   4.269
 6879TIP3   OH220575   6.968   3.456   2.986
 6879TIP3    H120576   6.999   3.521   2.922
 6879TIP3    H220577   6.895   3.499   3.030
 6880TIP3   OH220578   5.993   2.234   4.849
 6880TIP3    H120579   5.897   2.241   4.855
 6880TIP3    H220580   6.018   2.182   4.926
 6881TIP3   OH220581   6.820   2.897   3.365
 6881TIP3    H120582   6.806   2.847   3.446
 6881TIP3    H220583   6.915   2.908   3.361
 6882TIP3   OH220584   5.726   3.342   4.489
 6882TIP3    H120585   5.779   3.282   4.541
 6882TIP3    H220586   5.743   3.428   4.526
 6883TIP3   OH220587   6.004   2.957   3.181
 6883TIP3    H120588   6.015   2.865   3.156
 6883TIP3    H220589   5.984   2.955   3.274
 6884TIP3   OH220590   5.946   2.972   3.452
 6884TIP3    H120591   6.015   2.944   3.512
 6884TIP3    H220592   5.944   3.067   3.460
 6885TIP3   OH220593   5.679   2.663   3.661
 6885TIP3    H120594   5.614   2.708   3.715
 6885TIP3    H220595   5.698   2.724   3.590
 6886TIP3   OH220596   6.848   2.292   4.542
 6886TIP3    H120597   6.924   2.337   4.579
 6886TIP3    H220598   6.836   2.215   4.598
 6887TIP3   OH220599   6.728   2.041   3.723
 6887TIP3    H120600   6.710   2.059   3.631
 6887TIP3    H220601   6.771   2.120   3.756
 6888TIP3   OH220602   6.215   3.164   3.396
 6888TIP3    H120603   6.130   3.186   3.434
 6888TIP3    H220604   6.240   3.242   3.346
 6889TIP3   OH220605   6.389   2.236   3.817
 6889TIP3    H120606   6.451   2.305   3.793
 6889TIP3    H220607   6.407   2.219   3.910
 6890TIP3   OH220608   6.680   2.533   4.605
 6890TIP3    H120609   6.704   2.581   4.685
 6890TIP3    H220610   6.731   2.452   4.609
 6891TIP3   OH220611   6.547   1.941   3.910
 6891TIP3    H120612   6.525   2.018   3.962
 6891TIP3    H220613   6.614   1.971   3.849
 6892TIP3   OH220614   5.961   3.243   3.471
 6892TIP3    H120615   5.939   3.312   3.408
 6892TIP3    H220616   5.950   3.284   3.557
 6893TIP3   OH220617   6.061   1.955   3.710
 6893TIP3    H120618   6.051   2.044   3.742
 6893TIP3    H220619   6.155   1.938   3.716
 6894TIP3   OH220620   7.302   2.438   4.593
 6894TIP3    H120621   7.207   2.444   4.604
 6894TIP3    H220622   7.314   2.386   4.513
 6895TIP3   OH220623   6.963   2.635   3.980
 6895TIP3    H120624   6.886   2.580   3.991
 6895TIP3    H220625   7.031   2.592   4.032
 6896TIP3   OH220626   5.693   2.850   3.450
 6896TIP3    H120627   5.762   2.915   3.461
 6896TIP3    H220628   5.729   2.787   3.387
 6897TIP3   OH220629   5.614   2.138   3.586
 6897TIP3    H120630   5.626   2.232   3.592
 6897TIP3    H220631   5.539   2.127   3.527
 6898TIP3   OH220632   6.940   3.603   3.920
 6898TIP3    H120633   6.897   3.651   3.849
 6898TIP3    H220634   7.033   3.615   3.904
 6899TIP3   OH220635   6.010   1.858   4.453
 6899TIP3    H120636   5.980   1.825   4.369
 6899TIP3    H220637   6.001   1.784   4.513
 6900TIP3   OH220638   5.533   3.096   3.851
 6900TIP3    H120639   5.490   3.135   3.927
 6900TIP3    H220640   5.495   3.141   3.776
 6901TIP3   OH220641   5.723   3.642   4.914
 6901TIP3    H120642   5.806   3.646   4.961
 6901TIP3    H220643   5.705   3.548   4.904
 6902TIP3   OH220644   6.192   3.566   4.958
 6902TIP3    H120645   6.286   3.549   4.964
 6902TIP3    H220646   6.161   3.511   4.886
 6903TIP3   OH220647   6.164   3.156   3.076
 6903TIP3    H120648   6.113   3.088   3.121
 6903TIP3    H220649   6.241   3.110   3.043
 6904TIP3   OH220650   6.820   3.499   4.705
 6904TIP3    H120651   6.829   3.430   4.771
 6904TIP3    H220652   6.894   3.557   4.721
 6905TIP3   OH220653   6.604   3.196   3.000
 6905TIP3    H120654   6.635   3.132   3.064
 6905TIP3    H220655   6.668   3.193   2.929
 6906TIP3   OH220656   5.836   3.039   5.106
 6906TIP3    H120657   5.855   2.945   5.115
 6906TIP3    H220658   5.750   3.042   5.065
 6907TIP3   OH220659   5.826   2.658   3.307
 6907TIP3    H120660   5.878   2.636   3.384
 6907TIP3    H220661   5.891   2.670   3.238
 6908TIP3   OH220662   6.452   3.126   4.882
 6908TIP3    H120663   6.407   3.148   4.801
 6908TIP3    H220664   6.484   3.036   4.869
 6909TIP3   OH220665   6.359   2.881   3.124
 6909TIP3    H120666   6.349   2.895   3.218
 6909TIP3    H220667   6.352   2.786   3.113
 6910TIP3   OH220668   6.933   3.156   4.496
 6910TIP3    H120669   7.009   3.189   4.450
 6910TIP3    H220670   6.866   3.223   4.483
 6911TIP3   OH220671   5.953   2.780   5.107
 6911TIP3    H120672   6.032   2.758   5.058
 6911TIP3    H220673   5.985   2.805   5.194
 6912TIP3   OH220674   6.004   2.593   3.516
 6912TIP3    H120675   5.982   2.563   3.605
 6912TIP3    H220676   6.048   2.519   3.476
 6913TIP3   OH220677   6.309   2.667   4.764
 6913TIP3    H120678   6.225   2.713   4.771
 6913TIP3    H220679   6.345   2.697   4.680
 6914TIP3   OH220680   6.135   2.400   3.361
 6914TIP3    H120681   6.106   2.405   3.270
 6914TIP3    H220682   6.230   2.407   3.357
 6915TIP3   OH220683   6.812   3.049   4.869
 6915TIP3    H120684   6.879   3.008   4.814
 6915TIP3    H220685   6.806   2.992   4.946
 6916TIP3   OH220686   6.936   2.703   3.038
 6916TIP3    H120687   6.922   2.659   2.954
 6916TIP3    H220688   6.909   2.793   3.023
 6917TIP3   OH220689   6.417   2.442   4.875
 6917TIP3    H120690   6.419   2.369   4.813
 6917TIP3    H220691   6.380   2.515   4.825
 6918TIP3   OH220692   6.424   2.237   4.677
 6918TIP3    H120693   6.450   2.276   4.593
 6918TIP3    H220694   6.332   2.212   4.664
 6919TIP3   OH220695   6.437   2.768   4.547
 6919TIP3    H120696   6.526   2.799   4.528
 6919TIP3    H220697   6.380   2.831   4.503
 6920TIP3   OH220698   7.023   2.727   4.928
 6920TIP3    H120699   7.065   2.642   4.938
 6920TIP3    H220700   7.094   2.786   4.903
 6921TIP3   OH220701   7.057   2.988   4.669
 6921TIP3    H120702   7.002   3.047   4.617
 6921TIP3    H220703   7.146   3.005   4.637
 6922TIP3   OH220704   6.299   2.533   5.116
 6922TIP3    H120705   6.229   2.471   5.136
 6922TIP3    H220706   6.328   2.509   5.028
 6923TIP3   OH220707   6.547   2.001   4.768
 6923TIP3    H120708   6.505   2.082   4.738
 6923TIP3    H220709   6.480   1.934   4.756
 6924TIP3   OH220710   6.673   2.484   4.975
 6924TIP3    H120711   6.662   2.473   5.070
 6924TIP3    H220712   6.588   2.464   4.938
 6925TIP3   OH220713   6.916   2.438   4.842
 6925TIP3    H120714   6.838   2.439   4.897
 6925TIP3    H220715   6.987   2.411   4.900
 6926TIP3   OH220716   7.153   2.397   4.991
 6926TIP3    H120717   7.166   2.303   5.000
 6926TIP3    H220718   7.147   2.429   5.081
 6927TIP3   OH220719   6.133   2.312   5.179
 6927TIP3    H120720   6.138   2.223   5.145
 6927TIP3    H220721   6.171   2.306   5.267
 6928TIP3   OH220722   6.624   1.991   5.032
 6928TIP3    H120723   6.693   1.924   5.026
 6928TIP3    H220724   6.590   1.998   4.943
 6929TIP3   OH220725   6.708   2.208   5.179
 6929TIP3    H120726   6.680   2.136   5.122
 6929TIP3    H220727   6.634   2.269   5.178
 6930TIP3   OH220728   5.947   3.440   3.277
 6930TIP3    H120729   6.040   3.429   3.257
 6930TIP3    H220730   5.913   3.494   3.206
 6931TIP3   OH220731   5.420   2.831   3.476
 6931TIP3    H120732   5.514   2.848   3.469
 6931TIP3    H220733   5.409   2.744   3.436
 6932TIP3   OH220734   5.328   3.423   3.928
 6932TIP3    H120735   5.264   3.372   3.878
 6932TIP3    H220736   5.373   3.360   3.983
 6933TIP3   OH220737   5.473   3.254   4.094
 6933TIP3    H120738   5.464   3.190   4.164
 6933TIP3    H220739   5.523   3.326   4.133
 6934TIP3   OH220740   7.209   3.657   3.906
 6934TIP3    H120741   7.226   3.691   3.994
 6934TIP3    H220742   7.259   3.715   3.848
 6935TIP3   OH220743   7.226   3.695   4.186
 6935TIP3    H120744   7.177   3.613   4.180
 6935TIP3    H220745   7.295   3.678   4.249
 6936TIP3   OH220746   7.274   3.386   4.755
 6936TIP3    H120747   7.202   3.393   4.817
 6936TIP3    H220748   7.315   3.473   4.757
 6937TIP3   OH220749   7.099   2.903   3.367
 6937TIP3    H120750   7.158   2.973   3.339
 6937TIP3    H220751   7.141   2.865   3.444
 6938TIP3   OH220752   7.221   2.761   3.569
 6938TIP3    H120753   7.154   2.722   3.627
 6938TIP3    H220754   7.285   2.798   3.629
 6939TIP3   OH220755   7.272   3.167   4.003
 6939TIP3    H120756   7.320   3.097   3.958
 6939TIP3    H220757   7.271   3.240   3.940
 6940TIP3   OH220758   7.088   3.451   4.196
 6940TIP3    H120759   7.019   3.496   4.245
 6940TIP3    H220760   7.043   3.410   4.123
 6941TIP3   OH220761   7.144   2.678   3.216
 6941TIP3    H120762   7.072   2.677   3.153
 6941TIP3    H220763   7.127   2.755   3.270
 6942TIP3   OH220764   7.005   2.333   3.158
 6942TIP3    H120765   6.960   2.372   3.083
 6942TIP3    H220766   6.991   2.238   3.148
 6943TIP3   OH220767   7.025   2.621   3.711
 6943TIP3    H120768   7.032   2.526   3.700
 6943TIP3    H220769   7.008   2.633   3.804
 6944TIP3   OH220770   5.649   2.689   4.472
 6944TIP3    H120771   5.641   2.656   4.383
 6944TIP3    H220772   5.743   2.689   4.489
 6945TIP3   OH220773   7.310   3.044   4.568
 6945TIP3    H120774   7.379   2.980   4.551
 6945TIP3    H220775   7.316   3.106   4.496
 6946TIP3   OH220776   7.490   2.838   4.567
 6946TIP3    H120777   7.413   2.798   4.608
 6946TIP3    H220778   7.562   2.780   4.590
 6947TIP3   OH220779   6.958   2.063   3.133
 6947TIP3    H120780   7.024   2.035   3.197
 6947TIP3    H220781   6.878   2.019   3.161
 6948TIP3   OH220782   7.024   2.344   3.594
 6948TIP3    H120783   7.068   2.260   3.607
 6948TIP3    H220784   7.070   2.384   3.520
 6949TIP3   OH220785   7.179   2.508   4.111
 6949TIP3    H120786   7.261   2.528   4.064
 6949TIP3    H220787   7.191   2.548   4.197
 6950TIP3   OH220788   7.248   2.661   4.338
 6950TIP3    H120789   7.174   2.691   4.390
 6950TIP3    H220790   7.279   2.740   4.294
 6951TIP3   OH220791   5.868   2.368   5.124
 6951TIP3    H120792   5.963   2.367   5.140
 6951TIP3    H220793   5.836   2.287   5.164
 6952TIP3   OH220794   7.716   2.258   4.886
 6952TIP3    H120795   7.771   2.194   4.841
 6952TIP3    H220796   7.674   2.307   4.815
 6953TIP3   OH220797   7.135   2.092   3.644
 6953TIP3    H120798   7.180   2.077   3.727
 6953TIP3    H220799   7.072   2.020   3.638
 6954TIP3   OH220800   5.839   2.078   4.469
 6954TIP3    H120801   5.895   2.001   4.476
 6954TIP3    H220802   5.900   2.151   4.456
 6955TIP3   OH220803   5.626   2.344   4.533
 6955TIP3    H120804   5.678   2.338   4.453
 6955TIP3    H220805   5.651   2.428   4.572
 6956TIP3   OH220806   7.559   2.371   4.694
 6956TIP3    H120807   7.476   2.412   4.720
 6956TIP3    H220808   7.533   2.299   4.637
 6957TIP3   OH220809   7.192   2.014   3.282
 6957TIP3    H120810   7.237   1.951   3.225
 6957TIP3    H220811   7.250   2.090   3.285
 6958TIP3   OH220812   5.612   1.844   4.036
 6958TIP3    H120813   5.525   1.836   4.075
 6958TIP3    H220814   5.600   1.903   3.961
 6959TIP3   OH220815   6.776   3.560   3.548
 6959TIP3    H120816   6.832   3.556   3.471
 6959TIP3    H220817   6.810   3.634   3.599
 6960TIP3   OH220818   5.833   1.915   4.855
 6960TIP3    H120819   5.784   1.911   4.938
 6960TIP3    H220820   5.775   1.962   4.795
 6961TIP3   OH220821   5.869   3.359   4.929
 6961TIP3    H120822   5.776   3.342   4.919
 6961TIP3    H220823   5.885   3.351   5.023
 6962TIP3   OH220824   6.068   3.412   4.477
 6962TIP3    H120825   6.015   3.483   4.443
 6962TIP3    H220826   6.153   3.422   4.435
 6963TIP3   OH220827   6.480   3.638   4.615
 6963TIP3    H120828   6.516   3.634   4.704
 6963TIP3    H220829   6.543   3.691   4.566
 6964TIP3   OH220830   6.668   3.795   4.491
 6964TIP3    H120831   6.730   3.749   4.434
 6964TIP3    H220832   6.723   3.852   4.545
 6965TIP3   OH220833   7.469   2.132   4.578
 6965TIP3    H120834   7.380   2.124   4.541
 6965TIP3    H220835   7.505   2.043   4.570
 6966TIP3   OH220836   5.731   3.644   4.525
 6966TIP3    H120837   5.642   3.666   4.498
 6966TIP3    H220838   5.756   3.713   4.586
 6967TIP3   OH220839   5.960   3.641   4.362
 6967TIP3    H120840   5.876   3.650   4.408
 6967TIP3    H220841   5.943   3.676   4.275
 6968TIP3   OH220842   6.387   3.656   4.163
 6968TIP3    H120843   6.319   3.669   4.097
 6968TIP3    H220844   6.399   3.743   4.201
 6969TIP3   OH220845   6.652   3.594   4.215
 6969TIP3    H120846   6.560   3.612   4.198
 6969TIP3    H220847   6.699   3.662   4.166
 6970TIP3   OH220848   6.860   3.778   4.120
 6970TIP3    H120849   6.846   3.864   4.079
 6970TIP3    H220850   6.885   3.721   4.048
 6971TIP3   OH220851   5.643   3.437   4.239
 6971TIP3    H120852   5.667   3.413   4.328
 6971TIP3    H220853   5.716   3.406   4.185
 6972TIP3   OH220854   5.846   3.314   4.105
 6972TIP3    H120855   5.858   3.232   4.153
 6972TIP3    H220856   5.932   3.356   4.108
 6973TIP3   OH220857   6.113   3.399   4.125
 6973TIP3    H120858   6.135   3.306   4.116
 6973TIP3    H220859   6.164   3.428   4.200
 6974TIP3   OH220860   6.679   2.058   4.208
 6974TIP3    H120861   6.640   1.985   4.257
 6974TIP3    H220862   6.748   2.017   4.156
 6975TIP3   OH220863   7.185   1.959   4.101
 6975TIP3    H120864   7.223   2.008   4.028
 6975TIP3    H220865   7.093   1.983   4.101
 6976TIP3   OH220866   7.295   2.043   3.865
 6976TIP3    H120867   7.365   1.984   3.836
 6976TIP3    H220868   7.329   2.131   3.847
 6977TIP3   OH220869   5.922   1.756   4.211
 6977TIP3    H120870   5.832   1.724   4.219
 6977TIP3    H220871   5.975   1.677   4.205
 6978TIP3   OH220872   5.723   1.649   3.860
 6978TIP3    H120873   5.754   1.702   3.787
 6978TIP3    H220874   5.692   1.713   3.924
 6979TIP3   OH220875   6.389   1.798   4.101
 6979TIP3    H120876   6.439   1.845   4.034
 6979TIP3    H220877   6.428   1.826   4.184
 6980TIP3   OH220878   6.898   1.944   4.079
 6980TIP3    H120879   6.910   1.909   3.991
 6980TIP3    H220880   6.898   1.867   4.136
 6981TIP3   OH220881   6.948   1.883   3.646
 6981TIP3    H120882   6.867   1.930   3.668
 6981TIP3    H220883   6.937   1.796   3.686
 6982TIP3   OH220884   5.424   3.226   3.638
 6982TIP3    H120885   5.339   3.193   3.609
 6982TIP3    H220886   5.427   3.316   3.606
 6983TIP3   OH220887   5.843   1.792   3.628
 6983TIP3    H120888   5.889   1.731   3.570
 6983TIP3    H220889   5.913   1.848   3.663
 6984TIP3   OH220890   6.337   1.984   3.723
 6984TIP3    H120891   6.396   1.933   3.779
 6984TIP3    H220892   6.352   2.075   3.750
 6985TIP3   OH220893   6.211   3.386   3.221
 6985TIP3    H120894   6.295   3.414   3.186
 6985TIP3    H220895   6.185   3.312   3.164
 6986TIP3   OH220896   6.925   3.526   3.315
 6986TIP3    H120897   6.917   3.431   3.308
 6986TIP3    H220898   6.878   3.560   3.239
 6987TIP3   OH220899   6.140   2.038   5.096
 6987TIP3    H120900   6.104   1.971   5.154
 6987TIP3    H220901   6.232   2.044   5.121
 6988TIP3   OH220902   6.390   2.044   5.217
 6988TIP3    H120903   6.470   2.020   5.171
 6988TIP3    H220904   6.380   1.975   5.283
 6989TIP3   OH220905   5.509   3.229   3.278
 6989TIP3    H120906   5.513   3.251   3.371
 6989TIP3    H220907   5.592   3.186   3.259
 6990TIP3   OH220908   7.216   2.126   5.006
 6990TIP3    H120909   7.231   2.096   5.096
 6990TIP3    H220910   7.302   2.120   4.964
 6991TIP3   OH220911   7.137   3.663   4.504
 6991TIP3    H120912   7.062   3.632   4.454
 6991TIP3    H220913   7.123   3.757   4.514
 6992TIP3   OH220914   7.679   2.901   4.038
 6992TIP3    H120915   7.717   2.862   4.117
 6992TIP3    H220916   7.755   2.917   3.982
 6993TIP3   OH220917   7.680   3.341   3.740
 6993TIP3    H120918   7.666   3.246   3.741
 6993TIP3    H220919   7.772   3.351   3.716
 6994TIP3   OH220920   7.385   2.543   3.496
 6994TIP3    H120921   7.343   2.625   3.522
 6994TIP3    H220922   7.315   2.490   3.458
 6995TIP3   OH220923   7.451   2.841   3.701
 6995TIP3    H120924   7.502   2.764   3.728
 6995TIP3    H220925   7.517   2.902   3.668
 6996TIP3   OH220926   8.374   3.660   3.417
 6996TIP3    H120927   8.350   3.700   3.333
 6996TIP3    H220928   8.291   3.650   3.463
 6997TIP3   OH220929   8.301   3.124   3.612
 6997TIP3    H120930   8.292   3.169   3.528
 6997TIP3    H220931   8.365   3.177   3.661
 6998TIP3   OH220932   7.972   2.344   3.687
 6998TIP3    H120933   7.946   2.436   3.691
 6998TIP3    H220934   7.903   2.302   3.636
 6999TIP3   OH220935   7.592   2.623   3.793
 6999TIP3    H120936   7.672   2.609   3.843
 6999TIP3    H220937   7.604   2.570   3.714
 7000TIP3   OH220938   7.962   2.832   3.528
 7000TIP3    H120939   8.024   2.828   3.601
 7000TIP3    H220940   7.940   2.741   3.510
 7001TIP3   OH220941   7.935   2.392   4.156
 7001TIP3    H120942   7.886   2.429   4.082
 7001TIP3    H220943   7.873   2.395   4.229
 7002TIP3   OH220944   8.004   3.176   3.927
 7002TIP3    H120945   7.944   3.242   3.962
 7002TIP3    H220946   8.039   3.215   3.847
 7003TIP3   OH220947   7.801   2.506   3.951
 7003TIP3    H120948   7.848   2.585   3.978
 7003TIP3    H220949   7.837   2.485   3.865
 7004TIP3   OH220950   7.862   3.391   4.008
 7004TIP3    H120951   7.851   3.478   3.970
 7004TIP3    H220952   7.783   3.376   4.060
 7005TIP3   OH220953   7.277   3.088   3.253
 7005TIP3    H120954   7.236   3.107   3.168
 7005TIP3    H220955   7.300   3.174   3.288
 7006TIP3   OH220956   7.741   2.970   3.466
 7006TIP3    H120957   7.706   2.915   3.397
 7006TIP3    H220958   7.821   2.926   3.494
 7007TIP3   OH220959   7.916   3.432   3.609
 7007TIP3    H120960   7.884   3.402   3.524
 7007TIP3    H220961   7.998   3.384   3.621
 7008TIP3   OH220962   7.891   2.938   3.862
 7008TIP3    H120963   7.955   2.912   3.796
 7008TIP3    H220964   7.919   3.025   3.890
 7009TIP3   OH220965   8.059   3.460   4.179
 7009TIP3    H120966   8.012   3.532   4.220
 7009TIP3    H220967   7.997   3.422   4.117
 7010TIP3   OH220968   7.834   3.064   4.282
 7010TIP3    H120969   7.834   3.152   4.321
 7010TIP3    H220970   7.744   3.034   4.291
 7011TIP3   OH220971   8.106   3.501   3.193
 7011TIP3    H120972   8.200   3.514   3.189
 7011TIP3    H220973   8.068   3.584   3.166
 7012TIP3   OH220974   7.881   3.652   4.257
 7012TIP3    H120975   7.850   3.662   4.167
 7012TIP3    H220976   7.801   3.636   4.308
 7013TIP3   OH220977   7.670   2.788   3.266
 7013TIP3    H120978   7.598   2.835   3.225
 7013TIP3    H220979   7.630   2.707   3.297
 7014TIP3   OH220980   7.470   3.199   4.199
 7014TIP3    H120981   7.401   3.184   4.134
 7014TIP3    H220982   7.504   3.111   4.217
 7015TIP3   OH220983   7.319   3.398   3.842
 7015TIP3    H120984   7.414   3.413   3.848
 7015TIP3    H220985   7.279   3.477   3.878
 7016TIP3   OH220986   8.217   3.611   4.004
 7016TIP3    H120987   8.203   3.672   4.076
 7016TIP3    H220988   8.175   3.530   4.032
 7017TIP3   OH220989   8.043   3.755   3.097
 7017TIP3    H120990   7.982   3.703   3.044
 7017TIP3    H220991   8.012   3.845   3.087
 7018TIP3   OH220992   7.494   3.588   3.350
 7018TIP3    H120993   7.531   3.578   3.438
 7018TIP3    H220994   7.444   3.508   3.335
 7019TIP3   OH220995   8.436   3.676   2.929
 7019TIP3    H120996   8.374   3.744   2.902
 7019TIP3    H220997   8.420   3.665   3.023
 7020TIP3   OH220998   7.654   3.398   4.180
 7020TIP3    H120999   7.705   3.384   4.260
 7020TIP3    H221000   7.586   3.330   4.182
 7021TIP3   OH221001   8.027   2.186   4.004
 7021TIP3    H121002   7.944   2.158   3.967
 7021TIP3    H221003   8.006   2.266   4.052
 7022TIP3   OH221004   7.961   2.719   4.030
 7022TIP3    H121005   7.910   2.740   4.108
 7022TIP3    H221006   7.942   2.791   3.969
 7023TIP3   OH221007   7.879   2.580   3.475
 7023TIP3    H121008   7.792   2.546   3.497
 7023TIP3    H221009   7.902   2.537   3.393
 7024TIP3   OH221010   7.798   2.749   4.247
 7024TIP3    H121011   7.821   2.802   4.323
 7024TIP3    H221012   7.779   2.662   4.283
 7025TIP3   OH221013   7.880   2.202   2.917
 7025TIP3    H121014   7.807   2.238   2.968
 7025TIP3    H221015   7.853   2.214   2.826
 7026TIP3   OH221016   7.416   2.266   3.773
 7026TIP3    H121017   7.479   2.298   3.838
 7026TIP3    H221018   7.469   2.239   3.699
 7027TIP3   OH221019   7.353   2.244   3.299
 7027TIP3    H121020   7.399   2.280   3.223
 7027TIP3    H221021   7.290   2.312   3.323
 7028TIP3   OH221022   7.642   2.473   3.565
 7028TIP3    H121023   7.552   2.483   3.534
 7028TIP3    H221024   7.664   2.382   3.546
 7029TIP3   OH221025   7.933   2.469   3.232
 7029TIP3    H121026   8.018   2.493   3.194
 7029TIP3    H221027   7.870   2.488   3.163
 7030TIP3   OH221028   7.762   2.505   3.024
 7030TIP3    H121029   7.692   2.457   2.981
 7030TIP3    H221030   7.815   2.541   2.953
 7031TIP3   OH221031   7.813   3.318   4.402
 7031TIP3    H121032   7.888   3.353   4.449
 7031TIP3    H221033   7.745   3.308   4.469
 7032TIP3   OH221034   7.772   2.229   3.528
 7032TIP3    H121035   7.749   2.152   3.581
 7032TIP3    H221036   7.800   2.192   3.444
 7033TIP3   OH221037   8.231   2.682   4.076
 7033TIP3    H121038   8.139   2.706   4.060
 7033TIP3    H221039   8.266   2.661   3.989
 7034TIP3   OH221040   8.042   2.957   3.106
 7034TIP3    H121041   7.972   2.895   3.086
 7034TIP3    H221042   8.021   2.990   3.193
 7035TIP3   OH221043   8.479   3.355   3.986
 7035TIP3    H121044   8.426   3.362   4.066
 7035TIP3    H221045   8.503   3.445   3.964
 7036TIP3   OH221046   7.674   3.058   3.719
 7036TIP3    H121047   7.697   3.045   3.627
 7036TIP3    H221048   7.743   3.014   3.767
 7037TIP3   OH221049   8.090   3.060   2.852
 7037TIP3    H121050   8.053   3.149   2.847
 7037TIP3    H221051   8.070   3.031   2.941
 7038TIP3   OH221052   7.576   2.973   4.335
 7038TIP3    H121053   7.579   2.946   4.427
 7038TIP3    H221054   7.504   2.922   4.297
 7039TIP3   OH221055   8.267   3.059   4.355
 7039TIP3    H121056   8.184   3.016   4.332
 7039TIP3    H221057   8.333   2.991   4.342
 7040TIP3   OH221058   7.808   3.372   3.362
 7040TIP3    H121059   7.809   3.451   3.308
 7040TIP3    H221060   7.717   3.342   3.359
 7041TIP3   OH221061   7.376   2.671   3.068
 7041TIP3    H121062   7.415   2.757   3.085
 7041TIP3    H221063   7.296   2.670   3.121
 7042TIP3   OH221064   7.957   3.094   3.341
 7042TIP3    H121065   7.943   3.177   3.296
 7042TIP3    H221066   7.871   3.072   3.377
 7043TIP3   OH221067   8.055   3.747   3.833
 7043TIP3    H121068   8.088   3.746   3.743
 7043TIP3    H221069   8.120   3.699   3.883
 7044TIP3   OH221070   7.737   3.610   3.222
 7044TIP3    H121071   7.649   3.610   3.260
 7044TIP3    H221072   7.766   3.701   3.227
 7045TIP3   OH221073   7.766   2.465   4.371
 7045TIP3    H121074   7.674   2.488   4.365
 7045TIP3    H221075   7.769   2.388   4.427
 7046TIP3   OH221076   7.524   3.591   3.979
 7046TIP3    H121077   7.567   3.524   4.032
 7046TIP3    H221078   7.530   3.671   4.031
 7047TIP3   OH221079   7.799   3.206   2.638
 7047TIP3    H121080   7.797   3.110   2.635
 7047TIP3    H221081   7.756   3.228   2.721
 7048TIP3   OH221082   7.668   3.293   2.864
 7048TIP3    H121083   7.722   3.239   2.922
 7048TIP3    H221084   7.661   3.377   2.909
 7049TIP3   OH221085   7.469   2.923   3.141
 7049TIP3    H121086   7.406   2.968   3.197
 7049TIP3    H221087   7.485   2.985   3.070
 7050TIP3   OH221088   8.003   3.324   2.865
 7050TIP3    H121089   7.958   3.407   2.882
 7050TIP3    H221090   8.072   3.346   2.803
 7051TIP3   OH221091   7.639   3.541   2.968
 7051TIP3    H121092   7.665   3.609   2.906
 7051TIP3    H221093   7.681   3.566   3.050
 7052TIP3   OH221094   7.849   2.202   3.212
 7052TIP3    H121095   7.867   2.294   3.232
 7052TIP3    H221096   7.918   2.175   3.152
 7053TIP3   OH221097   7.478   3.100   2.924
 7053TIP3    H121098   7.527   3.181   2.914
 7053TIP3    H221099   7.524   3.037   2.868
 7054TIP3   OH221100   7.413   2.395   3.079
 7054TIP3    H121101   7.420   2.490   3.081
 7054TIP3    H221102   7.351   2.377   3.008
 7055TIP3   OH221103   7.770   2.109   3.943
 7055TIP3    H121104   7.755   2.079   3.853
 7055TIP3    H221105   7.774   2.028   3.995
 7056TIP3   OH221106   7.328   3.357   3.331
 7056TIP3    H121107   7.284   3.394   3.407
 7056TIP3    H221108   7.287   3.399   3.256
 7057TIP3   OH221109   7.517   3.899   4.403
 7057TIP3    H121110   7.598   3.901   4.453
 7057TIP3    H221111   7.495   3.806   4.397
 7058TIP3   OH221112   7.978   3.838   4.435
 7058TIP3    H121113   8.064   3.801   4.454
 7058TIP3    H221114   7.944   3.783   4.364
 7059TIP3   OH221115   7.978   3.391   2.561
 7059TIP3    H121116   7.911   3.328   2.589
 7059TIP3    H221117   8.060   3.351   2.590
 7060TIP3   OH221118   7.627   3.287   4.601
 7060TIP3    H121119   7.645   3.193   4.605
 7060TIP3    H221120   7.541   3.293   4.559
 7061TIP3   OH221121   7.627   2.912   2.790
 7061TIP3    H121122   7.674   2.880   2.867
 7061TIP3    H221123   7.694   2.922   2.723
 7062TIP3   OH221124   8.126   3.289   4.381
 7062TIP3    H121125   8.094   3.330   4.301
 7062TIP3    H221126   8.175   3.212   4.352
 7063TIP3   OH221127   8.080   3.036   2.568
 7063TIP3    H121128   8.111   3.048   2.658
 7063TIP3    H221129   7.987   3.018   2.577
 7064TIP3   OH221130   7.760   3.030   4.590
 7064TIP3    H121131   7.822   2.963   4.563
 7064TIP3    H221132   7.792   3.059   4.676
 7065TIP3   OH221133   7.811   2.824   3.021
 7065TIP3    H121134   7.768   2.786   3.098
 7065TIP3    H221135   7.840   2.748   2.970
 7066TIP3   OH221136   8.059   2.915   4.262
 7066TIP3    H121137   7.977   2.964   4.268
 7066TIP3    H221138   8.083   2.919   4.170
 7067TIP3   OH221139   7.920   2.635   2.843
 7067TIP3    H121140   7.892   2.644   2.752
 7067TIP3    H221141   8.012   2.613   2.838
 7068TIP3   OH221142   8.203   2.747   4.422
 7068TIP3    H121143   8.163   2.661   4.409
 7068TIP3    H221144   8.162   2.803   4.357
 7069TIP3   OH221145   8.211   2.431   4.185
 7069TIP3    H121146   8.219   2.513   4.135
 7069TIP3    H221147   8.131   2.391   4.153
 7070TIP3   OH221148   8.160   2.971   4.017
 7070TIP3    H121149   8.247   3.010   4.028
 7070TIP3    H221150   8.106   3.043   3.983
 7071TIP3   OH221151   7.938   2.800   4.535
 7071TIP3    H121152   7.927   2.721   4.587
 7071TIP3    H221153   7.997   2.774   4.464
 7072TIP3   OH221154   7.909   2.560   4.673
 7072TIP3    H121155   7.911   2.473   4.632
 7072TIP3    H221156   7.956   2.549   4.756
 7073TIP3   OH221157   7.749   3.713   2.763
 7073TIP3    H121158   7.825   3.707   2.706
 7073TIP3    H221159   7.682   3.756   2.711
 7074TIP3   OH221160   7.210   3.083   2.967
 7074TIP3    H121161   7.304   3.099   2.956
 7074TIP3    H221162   7.196   2.997   2.928
 7075TIP3   OH221163   7.130   3.683   3.406
 7075TIP3    H121164   7.063   3.630   3.361
 7075TIP3    H221165   7.172   3.621   3.466
 7076TIP3   OH221166   7.266   3.515   3.581
 7076TIP3    H121167   7.254   3.448   3.647
 7076TIP3    H221168   7.314   3.585   3.625
 7077TIP3   OH221169   7.428   2.944   3.954
 7077TIP3    H121170   7.423   2.914   3.863
 7077TIP3    H221171   7.521   2.941   3.975
 7078TIP3   OH221172   7.648   2.622   4.622
 7078TIP3    H121173   7.743   2.614   4.633
 7078TIP3    H221174   7.612   2.542   4.660
 7079TIP3   OH221175   7.598   2.320   3.975
 7079TIP3    H121176   7.655   2.243   3.971
 7079TIP3    H221177   7.658   2.395   3.973
 7080TIP3   OH221178   7.423   2.605   4.021
 7080TIP3    H121179   7.468   2.595   3.937
 7080TIP3    H221180   7.447   2.692   4.051
 7081TIP3   OH221181   7.409   2.090   3.517
 7081TIP3    H121182   7.324   2.087   3.559
 7081TIP3    H221183   7.399   2.152   3.445
 7082TIP3   OH221184   7.632   2.192   4.355
 7082TIP3    H121185   7.577   2.174   4.431
 7082TIP3    H221186   7.571   2.229   4.291
 7083TIP3   OH221187   7.665   3.617   4.427
 7083TIP3    H121188   7.573   3.600   4.407
 7083TIP3    H221189   7.670   3.611   4.523
 7084TIP3   OH221190   7.843   3.665   3.982
 7084TIP3    H121191   7.775   3.719   3.941
 7084TIP3    H221192   7.924   3.694   3.941
 7085TIP3   OH221193   8.234   3.864   4.132
 7085TIP3    H121194   8.305   3.812   4.170
 7085TIP3    H221195   8.269   3.896   4.049
 7086TIP3   OH221196   0.074   4.091   4.008
 7086TIP3    H121197   0.079   4.135   3.923
 7086TIP3    H221198   0.112   4.154   4.069
 7087TIP3   OH221199   7.523   3.909   4.018
 7087TIP3    H121200   7.432   3.929   3.994
 7087TIP3    H221201   7.546   3.976   4.082
 7088TIP3   OH221202   7.728   3.871   3.844
 7088TIP3    H121203   7.648   3.885   3.895
 7088TIP3    H221204   7.708   3.905   3.757
 7089TIP3   OH221205   8.135   3.987   3.654
 7089TIP3    H121206   8.058   3.976   3.598
 7089TIP3    H221207   8.100   3.991   3.743
 7090TIP3   OH221208   8.377   3.811   3.685
 7090TIP3    H121209   8.323   3.887   3.664
 7090TIP3    H221210   8.451   3.818   3.624
 7091TIP3   OH221211   7.435   3.696   3.735
 7091TIP3    H121212   7.460   3.668   3.823
 7091TIP3    H221213   7.501   3.656   3.677
 7092TIP3   OH221214   7.618   3.563   3.591
 7092TIP3    H121215   7.634   3.482   3.641
 7092TIP3    H221216   7.702   3.610   3.594
 7093TIP3   OH221217   7.859   3.695   3.620
 7093TIP3    H121218   7.894   3.607   3.606
 7093TIP3    H221219   7.893   3.721   3.706
 7094TIP3   OH221220   7.708   2.014   3.689
 7094TIP3    H121221   7.619   1.979   3.699
 7094TIP3    H221222   7.765   1.938   3.692
 7095TIP3   OH221223   7.535   1.904   3.338
 7095TIP3    H121224   7.555   1.964   3.266
 7095TIP3    H221225   7.496   1.960   3.406
 7096TIP3   OH221226   7.214   3.482   3.117
 7096TIP3    H121227   7.128   3.450   3.088
 7096TIP3    H221228   7.217   3.573   3.087
 7097TIP3   OH221229   7.627   2.057   3.119
 7097TIP3    H121230   7.671   1.995   3.060
 7097TIP3    H221231   7.699   2.108   3.156
 7098TIP3   OH221232   7.987   3.650   2.640
 7098TIP3    H121233   8.064   3.634   2.696
 7098TIP3    H221234   7.968   3.565   2.601
 7099TIP3   OH221235   7.912   2.285   4.583
 7099TIP3    H121236   7.878   2.214   4.639
 7099TIP3    H221237   8.004   2.291   4.606
 7100TIP3   OH221238   8.152   2.280   4.713
 7100TIP3    H121239   8.238   2.263   4.673
 7100TIP3    H221240   8.144   2.213   4.781
 7101TIP3   OH221241   7.295   3.487   2.774
 7101TIP3    H121242   7.306   3.508   2.867
 7101TIP3    H221243   7.379   3.449   2.747
 7102TIP3   OH221244   0.867   3.829   4.950
 7102TIP3    H121245   0.839   3.917   4.924
 7102TIP3    H221246   0.795   3.772   4.923
 7103TIP3   OH221247   0.886   3.805   5.352
 7103TIP3    H121248   0.929   3.788   5.435
 7103TIP3    H221249   0.840   3.724   5.331
 7104TIP3   OH221250   0.178   3.772   5.631
 7104TIP3    H121251   0.132   3.706   5.682
 7104TIP3    H221252   0.267   3.773   5.666
 7105TIP3   OH221253   1.126   4.133   5.036
 7105TIP3    H121254   1.114   4.066   5.104
 7105TIP3    H221255   1.149   4.212   5.084
 7106TIP3   OH221256   0.127   4.137   5.301
 7106TIP3    H121257   0.110   4.043   5.304
 7106TIP3    H221258   0.178   4.154   5.380
 7107TIP3   OH221259   8.439   3.604   5.419
 7107TIP3    H121260   8.484   3.524   5.447
 7107TIP3    H221261   8.436   3.598   5.324
 7108TIP3   OH221262   0.783   4.572   5.063
 7108TIP3    H121263   0.809   4.517   4.990
 7108TIP3    H221264   0.793   4.516   5.140
 7109TIP3   OH221265   0.738   4.028   5.396
 7109TIP3    H121266   0.780   3.947   5.367
 7109TIP3    H221267   0.811   4.085   5.421
 7110TIP3   OH221268   1.694   3.374   5.384
 7110TIP3    H121269   1.715   3.456   5.429
 7110TIP3    H221270   1.716   3.389   5.293
 7111TIP3   OH221271   1.085   3.543   5.407
 7111TIP3    H121272   1.119   3.458   5.434
 7111TIP3    H221273   1.047   3.529   5.320
 7112TIP3   OH221274   0.440   3.198   5.351
 7112TIP3    H121275   0.419   3.274   5.296
 7112TIP3    H221276   0.384   3.128   5.317
 7113TIP3   OH221277   1.128   3.302   4.999
 7113TIP3    H121278   1.192   3.292   5.068
 7113TIP3    H221279   1.177   3.338   4.925
 7114TIP3   OH221280   0.094   3.403   5.519
 7114TIP3    H121281   0.148   3.364   5.587
 7114TIP3    H221282   0.154   3.455   5.467
 7115TIP3   OH221283   0.529   3.616   5.243
 7115TIP3    H121284   0.616   3.589   5.272
 7115TIP3    H221285   0.483   3.534   5.224
 7116TIP3   OH221286   1.757   3.591   5.552
 7116TIP3    H121287   1.669   3.627   5.546
 7116TIP3    H221288   1.789   3.623   5.637
 7117TIP3   OH221289   0.464   3.190   5.810
 7117TIP3    H121290   0.411   3.232   5.743
 7117TIP3    H221291   0.415   3.204   5.892
 7118TIP3   OH221292   0.762   4.038   4.805
 7118TIP3    H121293   0.730   4.015   4.717
 7118TIP3    H221294   0.718   4.120   4.826
 7119TIP3   OH221295   0.545   3.964   5.575
 7119TIP3    H121296   0.510   4.034   5.631
 7119TIP3    H221297   0.610   4.007   5.520
 7120TIP3   OH221298   1.297   3.314   5.213
 7120TIP3    H121299   1.253   3.296   5.297
 7120TIP3    H221300   1.352   3.390   5.231
 7121TIP3   OH221301   0.347   3.292   5.589
 7121TIP3    H121302   0.391   3.376   5.602
 7121TIP3    H221303   0.385   3.257   5.509
 7122TIP3   OH221304   0.404   4.158   5.711
 7122TIP3    H121305   0.378   4.180   5.621
 7122TIP3    H221306   0.330   4.109   5.746
 7123TIP3   OH221307   1.165   4.380   5.179
 7123TIP3    H121308   1.076   4.372   5.214
 7123TIP3    H221309   1.165   4.464   5.133
 7124TIP3   OH221310   1.490   3.264   5.550
 7124TIP3    H121311   1.404   3.292   5.518
 7124TIP3    H221312   1.551   3.294   5.482
 7125TIP3   OH221313   0.771   2.894   5.539
 7125TIP3    H121314   0.763   2.802   5.562
 7125TIP3    H221315   0.692   2.935   5.575
 7126TIP3   OH221316   0.881   4.426   4.847
 7126TIP3    H121317   0.930   4.345   4.835
 7126TIP3    H221318   0.937   4.494   4.810
 7127TIP3   OH221319   1.020   4.200   4.789
 7127TIP3    H121320   0.979   4.121   4.754
 7127TIP3    H221321   1.063   4.170   4.869
 7128TIP3   OH221322   1.406   4.277   5.520
 7128TIP3    H121323   1.391   4.202   5.463
 7128TIP3    H221324   1.389   4.353   5.464
 7129TIP3   OH221325   0.693   3.678   4.792
 7129TIP3    H121326   0.603   3.704   4.774
 7129TIP3    H221327   0.736   3.679   4.707
 7130TIP3   OH221328   0.668   3.468   4.495
 7130TIP3    H121329   0.733   3.521   4.541
 7130TIP3    H221330   0.719   3.405   4.445
 7131TIP3   OH221331   1.597   3.931   5.373
 7131TIP3    H121332   1.513   3.976   5.376
 7131TIP3    H221333   1.631   3.949   5.286
 7132TIP3   OH221334   1.046   3.767   4.754
 7132TIP3    H121335   0.992   3.792   4.828
 7132TIP3    H221336   1.129   3.739   4.794
 7133TIP3   OH221337   1.280   3.797   5.690
 7133TIP3    H121338   1.278   3.878   5.740
 7133TIP3    H221339   1.195   3.794   5.645
 7134TIP3   OH221340   0.301   3.749   5.179
 7134TIP3    H121341   0.264   3.704   5.103
 7134TIP3    H221342   0.386   3.706   5.194
 7135TIP3   OH221343   0.507   4.101   5.284
 7135TIP3    H121344   0.464   4.018   5.305
 7135TIP3    H221345   0.600   4.086   5.304
 7136TIP3   OH221346   0.444   3.729   5.483
 7136TIP3    H121347   0.496   3.721   5.403
 7136TIP3    H221348   0.473   3.811   5.522
 7137TIP3   OH221349   0.923   4.373   5.309
 7137TIP3    H121350   0.927   4.452   5.362
 7137TIP3    H221351   0.930   4.301   5.372
 7138TIP3   OH221352   0.582   4.291   5.868
 7138TIP3    H121353   0.547   4.380   5.879
 7138TIP3    H221354   0.513   4.244   5.821
 7139TIP3   OH221355   0.882   3.624   4.586
 7139TIP3    H121356   0.940   3.682   4.635
 7139TIP3    H221357   0.909   3.634   4.494
 7140TIP3   OH221358   0.278   3.865   5.982
 7140TIP3    H121359   0.315   3.949   6.011
 7140TIP3    H221360   0.184   3.881   5.976
 7141TIP3   OH221361   0.646   4.286   4.826
 7141TIP3    H121362   0.724   4.339   4.843
 7141TIP3    H221363   0.576   4.331   4.873
 7142TIP3   OH221364   0.295   4.585   5.934
 7142TIP3    H121365   0.354   4.549   5.868
 7142TIP3    H221366   0.284   4.515   5.998
 7143TIP3   OH221367   1.394   2.854   4.641
 7143TIP3    H121368   1.315   2.874   4.692
 7143TIP3    H221369   1.408   2.931   4.587
 7144TIP3   OH221370   0.183   3.628   4.962
 7144TIP3    H121371   0.113   3.694   4.962
 7144TIP3    H221372   0.137   3.544   4.958
 7145TIP3   OH221373   1.214   4.224   4.194
 7145TIP3    H121374   1.212   4.317   4.172
 7145TIP3    H221375   1.303   4.196   4.175
 7146TIP3   OH221376   1.637   4.637   5.586
 7146TIP3    H121377   1.641   4.542   5.601
 7146TIP3    H221378   1.559   4.664   5.634
 7147TIP3   OH221379   0.776   4.410   5.720
 7147TIP3    H121380   0.778   4.495   5.765
 7147TIP3    H221381   0.708   4.361   5.765
 7148TIP3   OH221382   0.498   4.507   4.657
 7148TIP3    H121383   0.468   4.504   4.566
 7148TIP3    H221384   0.495   4.600   4.680
 7149TIP3   OH221385   0.737   4.454   4.299
 7149TIP3    H121386   0.784   4.379   4.263
 7149TIP3    H221387   0.766   4.459   4.390
 7150TIP3   OH221388   0.766   4.482   4.577
 7150TIP3    H121389   0.678   4.476   4.614
 7150TIP3    H221390   0.823   4.445   4.644
 7151TIP3   OH221391   1.527   3.755   5.858
 7151TIP3    H121392   1.444   3.764   5.813
 7151TIP3    H221393   1.546   3.661   5.855
 7152TIP3   OH221394   0.533   2.977   5.652
 7152TIP3    H121395   0.445   2.945   5.630
 7152TIP3    H221396   0.517   3.056   5.705
 7153TIP3   OH221397   1.069   3.102   5.867
 7153TIP3    H121398   1.140   3.079   5.928
 7153TIP3    H221399   0.989   3.084   5.915
 7154TIP3   OH221400   1.284   3.532   5.779
 7154TIP3    H121401   1.242   3.527   5.865
 7154TIP3    H221402   1.267   3.622   5.750
 7155TIP3   OH221403   0.966   3.627   4.327
 7155TIP3    H121404   0.918   3.626   4.244
 7155TIP3    H221405   1.048   3.673   4.307
 7156TIP3   OH221406   0.672   3.022   4.644
 7156TIP3    H121407   0.636   3.031   4.733
 7156TIP3    H221408   0.636   2.939   4.612
 7157TIP3   OH221409   0.488   3.515   5.651
 7157TIP3    H121410   0.450   3.530   5.737
 7157TIP3    H221411   0.473   3.597   5.604
 7158TIP3   OH221412   0.369   3.398   5.178
 7158TIP3    H121413   0.279   3.385   5.207
 7158TIP3    H221414   0.372   3.359   5.090
 7159TIP3   OH221415   0.827   3.478   4.925
 7159TIP3    H121416   0.777   3.549   4.885
 7159TIP3    H221417   0.884   3.446   4.855
 7160TIP3   OH221418   1.022   3.737   6.001
 7160TIP3    H121419   0.992   3.672   6.064
 7160TIP3    H221420   1.113   3.754   6.025
 7161TIP3   OH221421   0.989   3.491   5.155
 7161TIP3    H121422   0.923   3.519   5.091
 7161TIP3    H221423   1.032   3.417   5.113
 7162TIP3   OH221424   0.362   3.525   5.896
 7162TIP3    H121425   0.321   3.576   5.966
 7162TIP3    H221426   0.377   3.439   5.934
 7163TIP3   OH221427   0.349   3.012   4.618
 7163TIP3    H121428   0.330   3.022   4.712
 7163TIP3    H221429   0.277   3.057   4.574
 7164TIP3   OH221430   8.388   3.059   5.477
 7164TIP3    H121431   8.474   3.081   5.514
 7164TIP3    H221432   8.408   3.012   5.396
 7165TIP3   OH221433   8.404   3.180   5.089
 7165TIP3    H121434   8.440   3.163   5.002
 7165TIP3    H221435   8.320   3.223   5.072
 7166TIP3   OH221436   1.022   3.738   5.584
 7166TIP3    H121437   1.051   3.670   5.524
 7166TIP3    H221438   0.981   3.691   5.656
 7167TIP3   OH221439   0.700   3.190   5.248
 7167TIP3    H121440   0.619   3.195   5.299
 7167TIP3    H221441   0.769   3.184   5.314
 7168TIP3   OH221442   0.135   3.256   5.224
 7168TIP3    H121443   0.053   3.242   5.177
 7168TIP3    H221444   0.175   3.170   5.229
 7169TIP3   OH221445   0.369   3.267   4.937
 7169TIP3    H121446   0.460   3.293   4.922
 7169TIP3    H221447   0.323   3.293   4.857
 7170TIP3   OH221448   1.156   3.278   5.454
 7170TIP3    H121449   1.139   3.294   5.547
 7170TIP3    H221450   1.086   3.219   5.426
 7171TIP3   OH221451   0.231   3.303   4.704
 7171TIP3    H121452   0.181   3.245   4.646
 7171TIP3    H221453   0.290   3.350   4.645
 7172TIP3   OH221454   1.341   4.984   5.684
 7172TIP3    H121455   1.337   5.003   5.591
 7172TIP3    H221456   1.420   5.029   5.714
 7173TIP3   OH221457   0.319   4.129   6.059
 7173TIP3    H121458   0.403   4.106   6.098
 7173TIP3    H221459   0.255   4.114   6.129
 7174TIP3   OH221460   0.770   3.543   5.352
 7174TIP3    H121461   0.838   3.494   5.306
 7174TIP3    H221462   0.769   3.505   5.440
 7175TIP3   OH221463   0.271   3.011   5.233
 7175TIP3    H121464   0.235   2.940   5.286
 7175TIP3    H221465   0.277   2.974   5.145
 7176TIP3   OH221466   0.752   3.452   5.617
 7176TIP3    H121467   0.663   3.482   5.632
 7176TIP3    H221468   0.806   3.507   5.675
 7177TIP3   OH221469   0.433   3.887   4.727
 7177TIP3    H121470   0.406   3.796   4.720
 7177TIP3    H221471   0.440   3.903   4.821
 7178TIP3   OH221472   1.356   4.068   5.346
 7178TIP3    H121473   1.388   4.117   5.270
 7178TIP3    H221474   1.275   4.026   5.315
 7179TIP3   OH221475   0.922   3.132   4.629
 7179TIP3    H121476   0.829   3.111   4.629
 7179TIP3    H221477   0.925   3.227   4.642
 7180TIP3   OH221478   0.878   4.139   5.751
 7180TIP3    H121479   0.916   4.116   5.835
 7180TIP3    H221480   0.848   4.229   5.761
 7181TIP3   OH221481   0.986   3.394   4.707
 7181TIP3    H121482   1.081   3.399   4.717
 7181TIP3    H221483   0.962   3.471   4.655
 7182TIP3   OH221484   0.156   3.882   5.385
 7182TIP3    H121485   0.213   3.831   5.326
 7182TIP3    H221486   0.168   3.842   5.471
 7183TIP3   OH221487   0.632   3.976   4.561
 7183TIP3    H121488   0.600   4.065   4.549
 7183TIP3    H221489   0.565   3.933   4.615
 7184TIP3   OH221490   0.806   3.902   6.036
 7184TIP3    H121491   0.737   3.837   6.019
 7184TIP3    H221492   0.887   3.859   6.010
 7185TIP3   OH221493   1.035   4.430   5.631
 7185TIP3    H121494   0.942   4.413   5.639
 7185TIP3    H221495   1.059   4.475   5.712
 7186TIP3   OH221496   1.408   3.485   4.534
 7186TIP3    H121497   1.352   3.438   4.473
 7186TIP3    H221498   1.414   3.573   4.499
 7187TIP3   OH221499   1.651   4.351   5.616
 7187TIP3    H121500   1.556   4.342   5.612
 7187TIP3    H221501   1.681   4.322   5.530
 7188TIP3   OH221502   1.135   4.297   4.455
 7188TIP3    H121503   1.108   4.224   4.512
 7188TIP3    H221504   1.155   4.256   4.371
 7189TIP3   OH221505   1.125   3.933   5.249
 7189TIP3    H121506   1.037   3.908   5.275
 7189TIP3    H221507   1.162   3.854   5.210
 7190TIP3   OH221508   0.195   4.115   4.996
 7190TIP3    H121509   0.253   4.139   4.924
 7190TIP3    H221510   0.121   4.176   4.988
 7191TIP3   OH221511   8.309   3.488   4.733
 7191TIP3    H121512   8.299   3.571   4.780
 7191TIP3    H221513   8.232   3.437   4.758
 7192TIP3   OH221514   0.406   3.925   4.994
 7192TIP3    H121515   0.344   3.998   5.001
 7192TIP3    H221516   0.381   3.865   5.064
 7193TIP3   OH221517   0.584   4.480   5.511
 7193TIP3    H121518   0.614   4.558   5.465
 7193TIP3    H221519   0.664   4.439   5.544
 7194TIP3   OH221520   0.186   4.420   4.859
 7194TIP3    H121521   0.096   4.420   4.889
 7194TIP3    H221522   0.218   4.508   4.876
 7195TIP3   OH221523   0.957   4.156   5.487
 7195TIP3    H121524   0.934   4.147   5.579
 7195TIP3    H221525   1.043   4.115   5.479
 7196TIP3   OH221526   0.897   4.032   4.356
 7196TIP3    H121527   0.949   4.012   4.434
 7196TIP3    H221528   0.810   3.995   4.374
 7197TIP3   OH221529   1.175   4.660   5.519
 7197TIP3    H121530   1.102   4.599   5.528
 7197TIP3    H221531   1.146   4.723   5.452
 7198TIP3   OH221532   1.225   4.496   4.154
 7198TIP3    H121533   1.248   4.555   4.082
 7198TIP3    H221534   1.153   4.540   4.199
 7199TIP3   OH221535   0.330   3.279   6.033
 7199TIP3    H121536   0.244   3.253   6.001
 7199TIP3    H221537   0.346   3.224   6.109
 7200TIP3   OH221538   1.067   3.969   4.564
 7200TIP3    H121539   1.052   3.903   4.631
 7200TIP3    H221540   1.162   3.969   4.551
 7201TIP3   OH221541   0.308   3.985   4.339
 7201TIP3    H121542   0.343   3.906   4.298
 7201TIP3    H221543   0.235   3.954   4.393
 7202TIP3   OH221544   0.185   4.004   4.597
 7202TIP3    H121545   0.262   3.956   4.626
 7202TIP3    H221546   0.213   4.095   4.594
 7203TIP3   OH221547   8.358   3.711   4.880
 7203TIP3    H121548   8.378   3.772   4.951
 7203TIP3    H221549   8.418   3.735   4.810
 7204TIP3   OH221550   1.101   3.330   5.715
 7204TIP3    H121551   1.173   3.380   5.753
 7204TIP3    H221552   1.090   3.255   5.774
 7205TIP3   OH221553   0.985   3.088   4.896
 7205TIP3    H121554   0.963   3.107   4.805
 7205TIP3    H221555   1.026   3.168   4.929
 7206TIP3   OH221556   0.514   4.217   4.562
 7206TIP3    H121557   0.522   4.254   4.650
 7206TIP3    H221558   0.499   4.293   4.506
 7207TIP3   OH221559   0.645   3.283   4.990
 7207TIP3    H121560   0.707   3.353   4.968
 7207TIP3    H221561   0.661   3.266   5.083
 7208TIP3   OH221562   0.937   3.574   5.787
 7208TIP3    H121563   0.959   3.626   5.864
 7208TIP3    H221564   0.987   3.493   5.797
 7209TIP3   OH221565   0.811   2.993   5.085
 7209TIP3    H121566   0.789   3.068   5.141
 7209TIP3    H221567   0.879   3.026   5.026
 7210TIP3   OH221568   0.202   4.287   4.611
 7210TIP3    H121569   0.203   4.352   4.541
 7210TIP3    H221570   0.189   4.338   4.691
 7211TIP3   OH221571   0.319   2.996   4.902
 7211TIP3    H121572   0.301   3.087   4.924
 7211TIP3    H221573   0.415   2.989   4.905
 7212TIP3   OH221574   1.548   3.483   5.766
 7212TIP3    H121575   1.453   3.489   5.776
 7212TIP3    H221576   1.560   3.425   5.691
 7213TIP3   OH221577   1.214   3.679   5.154
 7213TIP3    H121578   1.135   3.626   5.167
 7213TIP3    H221579   1.280   3.636   5.208
 7214TIP3   OH221580   8.330   3.990   4.718
 7214TIP3    H121581   8.377   4.066   4.752
 7214TIP3    H221582   8.269   4.026   4.654
 7215TIP3   OH221583   8.497   3.154   4.836
 7215TIP3    H121584   8.534   3.243   4.842
 7215TIP3    H221585   8.449   3.154   4.753
 7216TIP3   OH221586   1.188   4.646   5.097
 7216TIP3    H121587   1.147   4.699   5.028
 7216TIP3    H221588   1.282   4.659   5.084
 7217TIP3   OH221589   0.278   2.885   5.613
 7217TIP3    H121590   0.243   2.847   5.533
 7217TIP3    H221591   0.273   2.814   5.677
 7218TIP3   OH221592   0.431   4.212   4.253
 7218TIP3    H121593   0.383   4.140   4.293
 7218TIP3    H221594   0.506   4.170   4.210
 7219TIP3   OH221595   1.064   4.554   5.874
 7219TIP3    H121596   1.063   4.483   5.938
 7219TIP3    H221597   1.140   4.608   5.899
 7220TIP3   OH221598   0.855   4.240   4.177
 7220TIP3    H121599   0.888   4.173   4.237
 7220TIP3    H221600   0.913   4.234   4.101
 7221TIP3   OH221601   0.132   3.758   4.420
 7221TIP3    H121602   0.141   3.692   4.488
 7221TIP3    H221603   0.206   3.743   4.362
 7222TIP3   OH221604   0.743   4.169   6.055
 7222TIP3    H121605   0.692   4.189   5.977
 7222TIP3    H221606   0.771   4.078   6.044
 7223TIP3   OH221607   0.620   3.917   4.293
 7223TIP3    H121608   0.607   3.930   4.387
 7223TIP3    H221609   0.616   3.822   4.280
 7224TIP3   OH221610   1.189   4.199   5.668
 7224TIP3    H121611   1.269   4.230   5.625
 7224TIP3    H221612   1.126   4.270   5.656
 7225TIP3   OH221613   0.321   3.794   6.306
 7225TIP3    H121614   0.240   3.794   6.255
 7225TIP3    H221615   0.311   3.868   6.367
 7226TIP3   OH221616   0.366   3.629   4.745
 7226TIP3    H121617   0.303   3.617   4.816
 7226TIP3    H221618   0.341   3.564   4.679
 7227TIP3   OH221619   0.605   3.717   5.972
 7227TIP3    H121620   0.552   3.789   6.007
 7227TIP3    H221621   0.629   3.746   5.884
 7228TIP3   OH221622   0.395   3.435   4.533
 7228TIP3    H121623   0.372   3.445   4.441
 7228TIP3    H221624   0.490   3.444   4.535
 7229TIP3   OH221625   1.067   4.090   6.041
 7229TIP3    H121626   1.146   4.056   5.997
 7229TIP3    H221627   1.060   4.036   6.120
 7230TIP3   OH221628   1.189   3.746   4.213
 7230TIP3    H121629   1.174   3.703   4.129
 7230TIP3    H221630   1.162   3.837   4.199
 7231TIP3   OH221631   0.690   3.471   6.053
 7231TIP3    H121632   0.698   3.403   5.986
 7231TIP3    H221633   0.660   3.548   6.004
 7232TIP3   OH221634   0.714   3.284   5.846
 7232TIP3    H121635   0.742   3.320   5.762
 7232TIP3    H221636   0.626   3.251   5.831
 7233TIP3   OH221637   0.706   3.805   5.734
 7233TIP3    H121638   0.786   3.848   5.703
 7233TIP3    H221639   0.635   3.847   5.686
 7234TIP3   OH221640   1.280   3.769   6.109
 7234TIP3    H121641   1.324   3.686   6.128
 7234TIP3    H221642   1.351   3.830   6.089
 7235TIP3   OH221643   1.311   4.032   5.843
 7235TIP3    H121644   1.255   4.091   5.792
 7235TIP3    H221645   1.400   4.049   5.810
 7236TIP3   OH221646   0.573   3.580   6.289
 7236TIP3    H121647   0.530   3.494   6.297
 7236TIP3    H221648   0.606   3.582   6.199
 7237TIP3   OH221649   0.809   3.040   5.946
 7237TIP3    H121650   0.771   3.122   5.914
 7237TIP3    H221651   0.741   2.975   5.930
 7238TIP3   OH221652   0.936   3.532   6.159
 7238TIP3    H121653   0.930   3.521   6.254
 7238TIP3    H221654   0.851   3.502   6.126
 7239TIP3   OH221655   1.166   3.472   6.014
 7239TIP3    H121656   1.091   3.478   6.073
 7239TIP3    H221657   1.240   3.451   6.071
 7240TIP3   OH221658   1.402   3.442   6.164
 7240TIP3    H121659   1.416   3.348   6.175
 7240TIP3    H221660   1.396   3.476   6.253
 7241TIP3   OH221661   0.448   3.338   6.336
 7241TIP3    H121662   0.441   3.254   6.292
 7241TIP3    H221663   0.476   3.318   6.425
 7242TIP3   OH221664   0.878   3.031   6.212
 7242TIP3    H121665   0.948   2.966   6.206
 7242TIP3    H221666   0.843   3.038   6.123
 7243TIP3   OH221667   0.965   3.253   6.349
 7243TIP3    H121668   0.934   3.181   6.295
 7243TIP3    H221669   0.890   3.313   6.354
 7244TIP3   OH221670   0.211   4.491   4.430
 7244TIP3    H121671   0.301   4.487   4.398
 7244TIP3    H221672   0.163   4.537   4.362
 7245TIP3   OH221673   1.456   4.702   5.083
 7245TIP3    H121674   1.477   4.738   5.169
 7245TIP3    H221675   1.511   4.753   5.022
 7246TIP3   OH221676   1.475   4.741   5.364
 7246TIP3    H121677   1.430   4.657   5.356
 7246TIP3    H221678   1.546   4.725   5.426
 7247TIP3   OH221679   1.515   4.432   5.929
 7247TIP3    H121680   1.445   4.441   5.994
 7247TIP3    H221681   1.562   4.516   5.934
 7248TIP3   OH221682   1.345   3.949   4.546
 7248TIP3    H121683   1.405   4.016   4.514
 7248TIP3    H221684   1.390   3.912   4.622
 7249TIP3   OH221685   1.468   3.811   4.754
 7249TIP3    H121686   1.398   3.768   4.803
 7249TIP3    H221687   1.523   3.850   4.822
 7250TIP3   OH221688   1.531   4.203   5.175
 7250TIP3    H121689   1.584   4.139   5.128
 7250TIP3    H221690   1.529   4.280   5.117
 7251TIP3   OH221691   1.340   4.496   5.366
 7251TIP3    H121692   1.275   4.542   5.420
 7251TIP3    H221693   1.288   4.454   5.297
 7252TIP3   OH221694   1.394   3.723   4.395
 7252TIP3    H121695   1.325   3.722   4.328
 7252TIP3    H221696   1.375   3.801   4.447
 7253TIP3   OH221697   1.253   3.378   4.338
 7253TIP3    H121698   1.208   3.419   4.264
 7253TIP3    H221699   1.239   3.284   4.325
 7254TIP3   OH221700   1.272   3.665   4.884
 7254TIP3    H121701   1.279   3.571   4.872
 7254TIP3    H221702   1.255   3.676   4.978
 7255TIP3   OH221703   1.564   4.089   5.745
 7255TIP3    H121704   1.631   4.022   5.731
 7255TIP3    H221705   1.587   4.159   5.684
 7256TIP3   OH221706   1.741   3.879   5.740
 7256TIP3    H121707   1.667   3.837   5.784
 7256TIP3    H221708   1.815   3.822   5.759
 7257TIP3   OH221709   1.209   3.108   4.311
 7257TIP3    H121710   1.274   3.080   4.375
 7257TIP3    H221711   1.128   3.064   4.337
 7258TIP3   OH221712   1.274   3.390   4.771
 7258TIP3    H121713   1.317   3.306   4.784
 7258TIP3    H221714   1.319   3.429   4.696
 7259TIP3   OH221715   1.426   3.551   5.288
 7259TIP3    H121716   1.507   3.570   5.240
 7259TIP3    H221717   1.439   3.591   5.374
 7260TIP3   OH221718   1.500   3.706   5.512
 7260TIP3    H121719   1.428   3.736   5.568
 7260TIP3    H221720   1.532   3.785   5.470
 7261TIP3   OH221721   0.040   3.425   6.347
 7261TIP3    H121722   0.129   3.457   6.332
 7261TIP3    H221723   0.032   3.421   6.443
 7262TIP3   OH221724   1.952   3.305   6.060
 7262TIP3    H121725   2.017   3.244   6.026
 7262TIP3    H221726   1.922   3.354   5.984
 7263TIP3   OH221727   1.382   3.137   4.821
 7263TIP3    H121728   1.429   3.123   4.903
 7263TIP3    H221729   1.322   3.063   4.815
 7264TIP3   OH221730   0.140   3.109   5.555
 7264TIP3    H121731   0.190   3.030   5.577
 7264TIP3    H221732   0.206   3.178   5.549
 7265TIP3   OH221733   1.813   3.428   5.861
 7265TIP3    H121734   1.734   3.467   5.899
 7265TIP3    H221735   1.781   3.354   5.809
 7266TIP3   OH221736   1.442   3.058   4.463
 7266TIP3    H121737   1.485   2.996   4.404
 7266TIP3    H221738   1.499   3.135   4.462
 7267TIP3   OH221739   8.392   2.887   5.266
 7267TIP3    H121740   8.328   2.817   5.277
 7267TIP3    H221741   8.396   2.902   5.172
 7268TIP3   OH221742   1.023   4.617   4.723
 7268TIP3    H121743   1.074   4.600   4.644
 7268TIP3    H221744   1.073   4.685   4.770
 7269TIP3   OH221745   8.481   2.999   6.130
 7269TIP3    H121746   8.394   2.978   6.165
 7269TIP3    H221747   8.468   3.001   6.035
 7270TIP3   OH221748   0.308   4.438   5.690
 7270TIP3    H121749   0.334   4.511   5.634
 7270TIP3    H221750   0.337   4.360   5.643
 7271TIP3   OH221751   0.927   4.845   5.667
 7271TIP3    H121752   0.980   4.767   5.651
 7271TIP3    H221753   0.980   4.898   5.726
 7272TIP3   OH221754   1.721   3.180   5.754
 7272TIP3    H121755   1.632   3.171   5.719
 7272TIP3    H221756   1.758   3.092   5.750
 7273TIP3   OH221757   0.327   4.658   5.495
 7273TIP3    H121758   0.235   4.645   5.522
 7273TIP3    H221759   0.337   4.603   5.418
 7274TIP3   OH221760   0.655   4.700   5.348
 7274TIP3    H121761   0.671   4.717   5.256
 7274TIP3    H221762   0.671   4.784   5.391
 7275TIP3   OH221763   0.917   4.632   5.403
 7275TIP3    H121764   0.824   4.655   5.392
 7275TIP3    H221765   0.964   4.703   5.361
 7276TIP3   OH221766   1.099   4.816   5.297
 7276TIP3    H121767   1.096   4.903   5.257
 7276TIP3    H221768   1.130   4.759   5.227
 7277TIP3   OH221769   0.097   4.397   5.210
 7277TIP3    H121770   0.060   4.311   5.229
 7277TIP3    H221771   0.190   4.380   5.192
 7278TIP3   OH221772   0.405   4.498   5.295
 7278TIP3    H121773   0.394   4.420   5.240
 7278TIP3    H221774   0.474   4.474   5.357
 7279TIP3   OH221775   0.928   3.100   5.386
 7279TIP3    H121776   0.889   3.029   5.437
 7279TIP3    H221777   0.997   3.058   5.335
 7280TIP3   OH221778   1.432   2.992   5.267
 7280TIP3    H121779   1.474   3.043   5.198
 7280TIP3    H221780   1.346   3.032   5.278
 7281TIP3   OH221781   1.546   3.087   5.038
 7281TIP3    H121782   1.616   3.028   5.009
 7281TIP3    H221783   1.582   3.175   5.027
 7282TIP3   OH221784   0.179   2.788   5.371
 7282TIP3    H121785   0.090   2.754   5.377
 7282TIP3    H221786   0.235   2.710   5.369
 7283TIP3   OH221787   0.054   2.657   5.036
 7283TIP3    H121788   0.075   2.708   4.958
 7283TIP3    H221789   0.034   2.722   5.103
 7284TIP3   OH221790   0.609   2.831   5.215
 7284TIP3    H121791   0.675   2.901   5.206
 7284TIP3    H221792   0.582   2.835   5.306
 7285TIP3   OH221793   1.141   2.985   5.253
 7285TIP3    H121794   1.167   2.952   5.168
 7285TIP3    H221795   1.139   2.907   5.309
 7286TIP3   OH221796   1.195   2.923   4.822
 7286TIP3    H121797   1.119   2.978   4.841
 7286TIP3    H221798   1.175   2.839   4.864
 7287TIP3   OH221799   0.117   2.822   4.815
 7287TIP3    H121800   0.163   2.766   4.753
 7287TIP3    H221801   0.184   2.886   4.842
 7288TIP3   OH221802   0.594   3.026   4.913
 7288TIP3    H121803   0.671   2.994   4.960
 7288TIP3    H221804   0.594   3.121   4.929
 7289TIP3   OH221805   0.476   4.443   4.384
 7289TIP3    H121806   0.563   4.468   4.351
 7289TIP3    H221807   0.451   4.367   4.331
 7290TIP3   OH221808   1.171   4.565   4.494
 7290TIP3    H121809   1.164   4.470   4.485
 7290TIP3    H221810   1.132   4.599   4.413
 7291TIP3   OH221811   0.442   3.070   6.247
 7291TIP3    H121812   0.388   3.023   6.310
 7291TIP3    H221813   0.530   3.072   6.287
 7292TIP3   OH221814   0.670   3.083   6.405
 7292TIP3    H121815   0.748   3.056   6.356
 7292TIP3    H221816   0.656   3.014   6.470
 7293TIP3   OH221817   1.465   3.171   6.185
 7293TIP3    H121818   1.480   3.142   6.275
 7293TIP3    H221819   1.551   3.166   6.144
 7294TIP3   OH221820   1.390   4.711   5.687
 7294TIP3    H121821   1.317   4.680   5.634
 7294TIP3    H221822   1.375   4.805   5.697
 7295TIP3   OH221823   1.981   3.983   5.190
 7295TIP3    H121824   2.001   3.902   5.237
 7295TIP3    H221825   2.021   4.052   5.243
 7296TIP3   OH221826   1.916   4.404   4.924
 7296TIP3    H121827   1.904   4.324   4.975
 7296TIP3    H221828   2.008   4.404   4.900
 7297TIP3   OH221829   1.626   3.583   4.688
 7297TIP3    H121830   1.584   3.667   4.706
 7297TIP3    H221831   1.560   3.533   4.640
 7298TIP3   OH221832   1.722   3.884   4.870
 7298TIP3    H121833   1.763   3.803   4.902
 7298TIP3    H221834   1.742   3.884   4.776
 7299TIP3   OH221835   2.585   4.835   4.533
 7299TIP3    H121836   2.600   4.768   4.466
 7299TIP3    H221837   2.569   4.786   4.613
 7300TIP3   OH221838   3.491   3.621   4.859
 7300TIP3    H121839   3.496   3.705   4.905
 7300TIP3    H221840   3.533   3.637   4.775
 7301TIP3   OH221841   2.834   3.814   4.929
 7301TIP3    H121842   2.885   3.734   4.944
 7301TIP3    H221843   2.758   3.785   4.879
 7302TIP3   OH221844   2.213   3.476   4.851
 7302TIP3    H121845   2.196   3.547   4.789
 7302TIP3    H221846   2.164   3.402   4.816
 7303TIP3   OH221847   2.930   3.541   4.479
 7303TIP3    H121848   2.982   3.549   4.558
 7303TIP3    H221849   2.980   3.588   4.412
 7304TIP3   OH221850   1.855   3.668   4.975
 7304TIP3    H121851   1.934   3.641   5.023
 7304TIP3    H221852   1.856   3.614   4.896
 7305TIP3   OH221853   3.522   3.821   5.056
 7305TIP3    H121854   3.427   3.824   5.048
 7305TIP3    H221855   3.543   3.887   5.122
 7306TIP3   OH221856   2.201   3.454   5.305
 7306TIP3    H121857   2.155   3.495   5.233
 7306TIP3    H221858   2.145   3.469   5.381
 7307TIP3   OH221859   2.328   4.249   5.084
 7307TIP3    H121860   2.253   4.300   5.114
 7307TIP3    H221861   2.402   4.310   5.088
 7308TIP3   OH221862   3.084   3.571   4.705
 7308TIP3    H121863   3.044   3.562   4.791
 7308TIP3    H221864   3.175   3.595   4.723
 7309TIP3   OH221865   2.096   3.575   5.079
 7309TIP3    H121866   2.150   3.653   5.095
 7309TIP3    H221867   2.139   3.531   5.006
 7310TIP3   OH221868   2.139   4.428   5.182
 7310TIP3    H121869   2.125   4.517   5.148
 7310TIP3    H221870   2.064   4.413   5.240
 7311TIP3   OH221871   1.523   4.132   4.428
 7311TIP3    H121872   1.489   4.147   4.339
 7311TIP3    H221873   1.548   4.218   4.459
 7312TIP3   OH221874   2.971   4.655   4.690
 7312TIP3    H121875   2.880   4.636   4.714
 7312TIP3    H221876   2.965   4.734   4.635
 7313TIP3   OH221877   3.305   3.530   5.052
 7313TIP3    H121878   3.253   3.609   5.065
 7313TIP3    H221879   3.360   3.549   4.976
 7314TIP3   OH221880   2.551   3.161   5.027
 7314TIP3    H121881   2.539   3.069   5.048
 7314TIP3    H221882   2.477   3.206   5.068
 7315TIP3   OH221883   2.654   4.662   4.321
 7315TIP3    H121884   2.698   4.578   4.309
 7315TIP3    H221885   2.719   4.727   4.294
 7316TIP3   OH221886   2.798   4.436   4.270
 7316TIP3    H121887   2.804   4.378   4.194
 7316TIP3    H221888   2.864   4.403   4.330
 7317TIP3   OH221889   3.194   4.524   5.008
 7317TIP3    H121890   3.180   4.456   4.942
 7317TIP3    H221891   3.182   4.606   4.961
 7318TIP3   OH221892   2.419   3.745   3.999
 7318TIP3    H121893   2.416   3.767   4.093
 7318TIP3    H221894   2.500   3.696   3.989
 7319TIP3   OH221895   2.846   4.066   4.278
 7319TIP3    H121896   2.850   4.086   4.372
 7319TIP3    H221897   2.904   3.991   4.266
 7320TIP3   OH221898   2.163   4.414   4.811
 7320TIP3    H121899   2.131   4.427   4.722
 7320TIP3    H221900   2.256   4.437   4.807
 7321TIP3   OH221901   2.725   4.628   4.822
 7321TIP3    H121902   2.731   4.698   4.887
 7321TIP3    H221903   2.739   4.548   4.872
 7322TIP3   OH221904   2.342   4.539   5.340
 7322TIP3    H121905   2.285   4.599   5.388
 7322TIP3    H221906   2.282   4.485   5.288
 7323TIP3   OH221907   2.735   3.859   4.084
 7323TIP3    H121908   2.719   3.944   4.125
 7323TIP3    H221909   2.731   3.877   3.990
 7324TIP3   OH221910   2.088   4.110   5.426
 7324TIP3    H121911   2.100   4.194   5.471
 7324TIP3    H221912   2.004   4.078   5.458
 7325TIP3   OH221913   2.380   4.634   4.383
 7325TIP3    H121914   2.473   4.627   4.359
 7325TIP3    H221915   2.339   4.674   4.306
 7326TIP3   OH221916   2.133   4.699   5.426
 7326TIP3    H121917   2.104   4.705   5.335
 7326TIP3    H221918   2.053   4.681   5.475
 7327TIP3   OH221919   3.187   3.111   4.125
 7327TIP3    H121920   3.111   3.135   4.177
 7327TIP3    H221921   3.204   3.189   4.071
 7328TIP3   OH221922   1.891   3.863   4.532
 7328TIP3    H121923   1.837   3.903   4.465
 7328TIP3    H221924   1.943   3.797   4.485
 7329TIP3   OH221925   3.008   4.486   3.675
 7329TIP3    H121926   3.009   4.579   3.654
 7329TIP3    H221927   3.098   4.457   3.660
 7330TIP3   OH221928   1.724   4.243   5.376
 7330TIP3    H121929   1.655   4.225   5.313
 7330TIP3    H221930   1.756   4.157   5.403
 7331TIP3   OH221931   1.572   4.444   5.026
 7331TIP3    H121932   1.664   4.470   5.032
 7331TIP3    H221933   1.524   4.520   5.060
 7332TIP3   OH221934   3.434   4.884   5.086
 7332TIP3    H121935   3.435   4.789   5.080
 7332TIP3    H221936   3.400   4.902   5.174
 7333TIP3   OH221937   2.535   4.680   5.202
 7333TIP3    H121938   2.532   4.771   5.232
 7333TIP3    H221939   2.467   4.636   5.252
 7334TIP3   OH221940   2.307   4.790   4.152
 7334TIP3    H121941   2.261   4.769   4.071
 7334TIP3    H221942   2.273   4.877   4.177
 7335TIP3   OH221943   1.745   4.637   4.531
 7335TIP3    H121944   1.790   4.631   4.615
 7335TIP3    H221945   1.699   4.554   4.521
 7336TIP3   OH221946   2.514   4.707   3.784
 7336TIP3    H121947   2.565   4.634   3.749
 7336TIP3    H221948   2.547   4.719   3.873
 7337TIP3   OH221949   2.562   4.753   4.055
 7337TIP3    H121950   2.475   4.759   4.094
 7337TIP3    H221951   2.617   4.717   4.124
 7338TIP3   OH221952   3.274   3.993   5.273
 7338TIP3    H121953   3.235   4.027   5.193
 7338TIP3    H221954   3.263   3.898   5.267
 7339TIP3   OH221955   1.924   4.430   5.352
 7339TIP3    H121956   1.972   4.423   5.434
 7339TIP3    H221957   1.852   4.369   5.360
 7340TIP3   OH221958   2.314   3.246   5.157
 7340TIP3    H121959   2.230   3.214   5.125
 7340TIP3    H221960   2.292   3.325   5.206
 7341TIP3   OH221961   2.858   3.347   5.350
 7341TIP3    H121962   2.929   3.330   5.412
 7341TIP3    H221963   2.778   3.333   5.400
 7342TIP3   OH221964   2.749   3.891   3.808
 7342TIP3    H121965   2.710   3.880   3.722
 7342TIP3    H221966   2.832   3.936   3.792
 7343TIP3   OH221967   2.459   3.286   4.131
 7343TIP3    H121968   2.424   3.301   4.219
 7343TIP3    H221969   2.420   3.204   4.102
 7344TIP3   OH221970   2.237   3.820   5.124
 7344TIP3    H121971   2.193   3.806   5.208
 7344TIP3    H221972   2.313   3.873   5.146
 7345TIP3   OH221973   2.113   3.681   4.688
 7345TIP3    H121974   2.029   3.634   4.691
 7345TIP3    H221975   2.150   3.658   4.602
 7346TIP3   OH221976   2.799   4.003   5.495
 7346TIP3    H121977   2.777   3.930   5.553
 7346TIP3    H221978   2.892   4.019   5.509
 7347TIP3   OH221979   2.088   3.777   5.359
 7347TIP3    H121980   2.135   3.830   5.424
 7347TIP3    H221981   2.063   3.698   5.407
 7348TIP3   OH221982   2.120   3.263   4.094
 7348TIP3    H121983   2.114   3.273   4.189
 7348TIP3    H221984   2.048   3.316   4.060
 7349TIP3   OH221985   1.676   3.311   4.965
 7349TIP3    H121986   1.747   3.347   5.017
 7349TIP3    H221987   1.715   3.290   4.880
 7350TIP3   OH221988   1.601   3.290   4.474
 7350TIP3    H121989   1.645   3.324   4.396
 7350TIP3    H221990   1.539   3.358   4.498
 7351TIP3   OH221991   2.716   4.024   5.083
 7351TIP3    H121992   2.765   3.995   5.006
 7351TIP3    H221993   2.742   3.964   5.152
 7352TIP3   OH221994   2.483   3.408   4.758
 7352TIP3    H121995   2.403   3.437   4.801
 7352TIP3    H221996   2.554   3.435   4.816
 7353TIP3   OH221997   1.892   3.525   4.744
 7353TIP3    H121998   1.802   3.529   4.710
 7353TIP3    H221999   1.920   3.435   4.724
 7354TIP3   OH222000   2.185   3.561   4.431
 7354TIP3    H122001   2.247   3.630   4.405
 7354TIP3    H222002   2.124   3.554   4.358
 7355TIP3   OH222003   2.941   3.558   4.951
 7355TIP3    H122004   2.944   3.568   5.046
 7355TIP3    H222005   2.872   3.493   4.935
 7356TIP3   OH222006   2.021   3.532   4.211
 7356TIP3    H122007   1.951   3.494   4.157
 7356TIP3    H222008   2.071   3.586   4.150
 7357TIP3   OH222009   2.089   4.348   5.579
 7357TIP3    H122010   2.170   4.368   5.627
 7357TIP3    H222011   2.021   4.349   5.646
 7358TIP3   OH222012   2.047   3.284   4.727
 7358TIP3    H122013   2.018   3.208   4.777
 7358TIP3    H222014   2.081   3.247   4.645
 7359TIP3   OH222015   2.517   3.699   5.180
 7359TIP3    H122016   2.495   3.748   5.101
 7359TIP3    H222017   2.596   3.742   5.214
 7360TIP3   OH222018   2.227   4.095   4.216
 7360TIP3    H122019   2.157   4.039   4.182
 7360TIP3    H222020   2.286   4.035   4.261
 7361TIP3   OH222021   2.696   3.396   4.049
 7361TIP3    H122022   2.612   3.371   4.086
 7361TIP3    H222023   2.723   3.472   4.100
 7362TIP3   OH222024   2.627   4.403   5.217
 7362TIP3    H122025   2.678   4.378   5.294
 7362TIP3    H222026   2.606   4.495   5.230
 7363TIP3   OH222027   2.795   3.610   4.180
 7363TIP3    H122028   2.887   3.620   4.205
 7363TIP3    H222029   2.768   3.697   4.152
 7364TIP3   OH222030   2.395   4.233   4.041
 7364TIP3    H122031   2.363   4.322   4.055
 7364TIP3    H222032   2.348   4.180   4.105
 7365TIP3   OH222033   1.836   4.021   5.509
 7365TIP3    H122034   1.851   4.006   5.602
 7365TIP3    H222035   1.765   3.962   5.486
 7366TIP3   OH222036   2.568   4.156   5.523
 7366TIP3    H122037   2.504   4.091   5.495
 7366TIP3    H222038   2.653   4.118   5.501
 7367TIP3   OH222039   2.804   4.721   5.107
 7367TIP3    H122040   2.715   4.703   5.136
 7367TIP3    H222041   2.857   4.654   5.149
 7368TIP3   OH222042   3.200   3.727   4.005
 7368TIP3    H122043   3.143   3.685   3.942
 7368TIP3    H222044   3.204   3.819   3.976
 7369TIP3   OH222045   3.442   4.608   5.102
 7369TIP3    H122046   3.349   4.584   5.096
 7369TIP3    H222047   3.481   4.571   5.023
 7370TIP3   OH222048   2.931   4.548   3.936
 7370TIP3    H122049   2.900   4.470   3.981
 7370TIP3    H222050   2.953   4.518   3.848
 7371TIP3   OH222051   2.063   4.452   4.560
 7371TIP3    H122052   2.068   4.522   4.496
 7371TIP3    H222053   1.989   4.398   4.531
 7372TIP3   OH222054   1.628   3.714   4.246
 7372TIP3    H122055   1.676   3.794   4.268
 7372TIP3    H222056   1.550   3.718   4.300
 7373TIP3   OH222057   2.344   4.740   4.983
 7373TIP3    H122058   2.376   4.816   4.934
 7373TIP3    H222059   2.419   4.713   5.036
 7374TIP3   OH222060   1.980   4.656   4.384
 7374TIP3    H122061   1.893   4.661   4.423
 7374TIP3    H222062   2.013   4.746   4.386
 7375TIP3   OH222063   2.773   4.395   4.983
 7375TIP3    H122064   2.714   4.384   5.058
 7375TIP3    H222065   2.777   4.307   4.944
 7376TIP3   OH222066   2.691   4.289   3.845
 7376TIP3    H122067   2.738   4.274   3.927
 7376TIP3    H222068   2.604   4.253   3.861
 7377TIP3   OH222069   2.971   4.920   5.002
 7377TIP3    H122070   2.901   4.860   5.026
 7377TIP3    H222071   2.935   4.971   4.929
 7378TIP3   OH222072   3.018   4.760   3.648
 7378TIP3    H122073   3.053   4.828   3.590
 7378TIP3    H222074   2.942   4.801   3.689
 7379TIP3   OH222075   2.034   3.536   5.510
 7379TIP3    H122076   1.939   3.545   5.521
 7379TIP3    H222077   2.063   3.490   5.588
 7380TIP3   OH222078   2.859   4.248   4.068
 7380TIP3    H122079   2.840   4.183   4.135
 7380TIP3    H222080   2.951   4.234   4.046
 7381TIP3   OH222081   1.773   4.640   5.157
 7381TIP3    H122082   1.823   4.578   5.210
 7381TIP3    H222083   1.788   4.725   5.199
 7382TIP3   OH222084   2.045   4.259   3.847
 7382TIP3    H122085   2.057   4.168   3.820
 7382TIP3    H222086   2.032   4.254   3.942
 7383TIP3   OH222087   2.004   4.266   4.122
 7383TIP3    H122088   2.082   4.234   4.166
 7383TIP3    H222089   2.007   4.361   4.131
 7384TIP3   OH222090   1.724   3.965   4.330
 7384TIP3    H122091   1.655   4.013   4.377
 7384TIP3    H222092   1.749   4.022   4.258
 7385TIP3   OH222093   2.912   3.593   5.230
 7385TIP3    H122094   2.949   3.636   5.307
 7385TIP3    H222095   2.886   3.506   5.261
 7386TIP3   OH222096   2.770   3.347   4.378
 7386TIP3    H122097   2.743   3.384   4.294
 7386TIP3    H222098   2.820   3.417   4.420
 7387TIP3   OH222099   2.273   4.475   4.069
 7387TIP3    H122100   2.186   4.493   4.105
 7387TIP3    H222101   2.289   4.547   4.007
 7388TIP3   OH222102   2.737   3.829   5.280
 7388TIP3    H122103   2.766   3.884   5.353
 7388TIP3    H222104   2.806   3.764   5.270
 7389TIP3   OH222105   2.584   3.244   4.561
 7389TIP3    H122106   2.565   3.313   4.625
 7389TIP3    H222107   2.653   3.282   4.506
 7390TIP3   OH222108   2.014   4.542   4.136
 7390TIP3    H122109   1.989   4.609   4.073
 7390TIP3    H222110   2.000   4.582   4.221
 7391TIP3   OH222111   2.099   3.263   4.376
 7391TIP3    H122112   2.085   3.356   4.392
 7391TIP3    H222113   2.194   3.252   4.382
 7392TIP3   OH222114   1.744   4.152   4.117
 7392TIP3    H122115   1.816   4.214   4.126
 7392TIP3    H222116   1.776   4.087   4.054
 7393TIP3   OH222117   1.655   3.437   4.249
 7393TIP3    H122118   1.671   3.531   4.256
 7393TIP3    H222119   1.592   3.428   4.177
 7394TIP3   OH222120   2.988   4.912   4.584
 7394TIP3    H122121   2.944   4.958   4.512
 7394TIP3    H222122   3.081   4.928   4.570
 7395TIP3   OH222123   2.051   3.161   5.117
 7395TIP3    H122124   2.024   3.128   5.031
 7395TIP3    H222125   2.041   3.087   5.176
 7396TIP3   OH222126   1.579   4.403   4.506
 7396TIP3    H122127   1.531   4.438   4.581
 7396TIP3    H222128   1.540   4.445   4.430
 7397TIP3   OH222129   1.767   4.944   5.577
 7397TIP3    H122130   1.849   4.949   5.626
 7397TIP3    H222131   1.748   4.851   5.571
 7398TIP3   OH222132   2.233   4.870   5.618
 7398TIP3    H122133   2.323   4.840   5.631
 7398TIP3    H222134   2.200   4.816   5.546
 7399TIP3   OH222135   2.207   4.458   3.743
 7399TIP3    H122136   2.157   4.388   3.786
 7399TIP3    H222137   2.281   4.414   3.702
 7400TIP3   OH222138   2.983   4.788   5.382
 7400TIP3    H122139   2.918   4.738   5.432
 7400TIP3    H222140   3.057   4.727   5.371
 7401TIP3   OH222141   2.646   4.497   3.665
 7401TIP3    H122142   2.679   4.431   3.727
 7401TIP3    H222143   2.705   4.491   3.590
 7402TIP3   OH222144   1.884   4.340   5.768
 7402TIP3    H122145   1.901   4.247   5.780
 7402TIP3    H222146   1.796   4.344   5.730
 7403TIP3   OH222147   1.868   3.955   3.975
 7403TIP3    H122148   1.918   3.927   4.051
 7403TIP3    H222149   1.933   3.968   3.906
 7404TIP3   OH222150   2.497   4.433   5.544
 7404TIP3    H122151   2.452   4.452   5.462
 7404TIP3    H222152   2.533   4.345   5.532
 7405TIP3   OH222153   2.405   4.174   3.777
 7405TIP3    H122154   2.391   4.191   3.870
 7405TIP3    H222155   2.397   4.079   3.769
 7406TIP3   OH222156   2.967   4.485   5.168
 7406TIP3    H122157   3.050   4.500   5.123
 7406TIP3    H222158   2.910   4.447   5.101
 7407TIP3   OH222159   2.008   4.077   5.764
 7407TIP3    H122160   2.087   4.032   5.734
 7407TIP3    H222161   2.029   4.106   5.853
 7408TIP3   OH222162   2.054   3.876   4.172
 7408TIP3    H122163   2.119   3.864   4.242
 7408TIP3    H222164   2.074   3.808   4.108
 7409TIP3   OH222165   2.330   3.961   5.410
 7409TIP3    H122166   2.256   4.022   5.413
 7409TIP3    H222167   2.376   3.983   5.329
 7410TIP3   OH222168   2.148   3.677   4.011
 7410TIP3    H122169   2.133   3.688   3.917
 7410TIP3    H222170   2.241   3.695   4.023
 7411TIP3   OH222171   2.861   4.368   5.527
 7411TIP3    H122172   2.936   4.338   5.476
 7411TIP3    H222173   2.858   4.308   5.602
 7412TIP3   OH222174   2.980   4.005   3.700
 7412TIP3    H122175   2.965   3.960   3.617
 7412TIP3    H222176   2.953   4.096   3.684
 7413TIP3   OH222177   2.459   3.750   5.543
 7413TIP3    H122178   2.462   3.668   5.493
 7413TIP3    H222179   2.420   3.814   5.483
 7414TIP3   OH222180   2.458   3.521   5.376
 7414TIP3    H122181   2.486   3.574   5.302
 7414TIP3    H222182   2.368   3.496   5.355
 7415TIP3   OH222183   2.450   4.016   5.169
 7415TIP3    H122184   2.543   4.020   5.146
 7415TIP3    H222185   2.414   4.099   5.138
 7416TIP3   OH222186   3.066   4.027   5.581
 7416TIP3    H122187   3.111   3.944   5.593
 7416TIP3    H222188   3.119   4.074   5.517
 7417TIP3   OH222189   3.090   4.316   5.362
 7417TIP3    H122190   3.038   4.364   5.298
 7417TIP3    H222191   3.172   4.297   5.317
 7418TIP3   OH222192   2.338   3.840   5.778
 7418TIP3    H122193   2.273   3.774   5.800
 7418TIP3    H222194   2.373   3.813   5.693
 7419TIP3   OH222195   2.594   3.288   5.435
 7419TIP3    H122196   2.550   3.370   5.414
 7419TIP3    H222197   2.527   3.221   5.422
 7420TIP3   OH222198   2.725   3.781   5.634
 7420TIP3    H122199   2.716   3.769   5.729
 7420TIP3    H222200   2.638   3.764   5.600
 7421TIP3   OH222201   2.958   3.710   5.479
 7421TIP3    H122202   2.886   3.723   5.540
 7421TIP3    H222203   3.036   3.707   5.534
 7422TIP3   OH222204   3.196   3.705   5.646
 7422TIP3    H122205   3.207   3.611   5.656
 7422TIP3    H222206   3.187   3.738   5.735
 7423TIP3   OH222207   2.181   3.613   5.841
 7423TIP3    H122208   2.186   3.524   5.807
 7423TIP3    H222209   2.218   3.608   5.929
 7424TIP3   OH222210   2.673   3.290   5.698
 7424TIP3    H122211   2.744   3.226   5.695
 7424TIP3    H222212   2.639   3.292   5.609
 7425TIP3   OH222213   2.752   3.512   5.841
 7425TIP3    H122214   2.726   3.439   5.785
 7425TIP3    H222215   2.677   3.572   5.839
 7426TIP3   OH222216   1.997   4.749   3.949
 7426TIP3    H122217   2.087   4.733   3.923
 7426TIP3    H222218   1.959   4.797   3.875
 7427TIP3   OH222219   1.470   4.129   4.143
 7427TIP3    H122220   1.564   4.146   4.134
 7427TIP3    H222221   1.458   4.043   4.102
 7428TIP3   OH222222   1.374   4.725   4.586
 7428TIP3    H122223   1.312   4.670   4.540
 7428TIP3    H222224   1.421   4.665   4.645
 7429TIP3   OH222225   1.515   4.562   4.760
 7429TIP3    H122226   1.504   4.494   4.827
 7429TIP3    H222227   1.566   4.630   4.803
 7430TIP3   OH222228   3.252   4.984   4.566
 7430TIP3    H122229   3.283   5.026   4.646
 7430TIP3    H222230   3.311   5.016   4.498
 7431TIP3   OH222231   3.277   5.005   4.866
 7431TIP3    H122232   3.237   4.920   4.847
 7431TIP3    H222233   3.351   4.983   4.923
 7432TIP3   OH222234   3.270   4.721   5.424
 7432TIP3    H122235   3.222   4.725   5.507
 7432TIP3    H222236   3.335   4.791   5.431
 7433TIP3   OH222237   3.131   4.198   4.039
 7433TIP3    H122238   3.197   4.263   4.014
 7433TIP3    H222239   3.169   4.154   4.116
 7434TIP3   OH222240   3.235   4.042   4.246
 7434TIP3    H122241   3.192   4.019   4.329
 7434TIP3    H222242   3.328   4.042   4.267
 7435TIP3   OH222243   3.148   4.755   4.871
 7435TIP3    H122244   3.086   4.809   4.919
 7435TIP3    H222245   3.097   4.719   4.798
 7436TIP3   OH222246   3.183   3.976   3.881
 7436TIP3    H122247   3.112   3.975   3.817
 7436TIP3    H222248   3.164   4.051   3.937
 7437TIP3   OH222249   3.054   3.627   3.798
 7437TIP3    H122250   2.995   3.658   3.729
 7437TIP3    H222251   3.044   3.531   3.796
 7438TIP3   OH222252   1.712   3.993   5.125
 7438TIP3    H122253   1.706   3.960   5.035
 7438TIP3    H222254   1.806   3.995   5.143
 7439TIP3   OH222255   3.352   4.342   5.245
 7439TIP3    H122256   3.409   4.265   5.252
 7439TIP3    H222257   3.364   4.374   5.156
 7440TIP3   OH222258   3.512   4.126   5.288
 7440TIP3    H122259   3.434   4.070   5.283
 7440TIP3    H222260   3.585   4.065   5.293
 7441TIP3   OH222261   3.009   3.354   3.784
 7441TIP3    H122262   3.068   3.332   3.857
 7441TIP3    H222263   2.926   3.315   3.809
 7442TIP3   OH222264   3.067   3.632   4.246
 7442TIP3    H122265   3.117   3.552   4.263
 7442TIP3    H222266   3.116   3.675   4.176
 7443TIP3   OH222267   1.916   3.672   5.787
 7443TIP3    H122268   2.011   3.670   5.803
 7443TIP3    H222269   1.884   3.591   5.826
 7444TIP3   OH222270   3.736   3.545   5.534
 7444TIP3    H122271   3.805   3.486   5.504
 7444TIP3    H222272   3.714   3.597   5.457
 7445TIP3   OH222273   3.190   3.389   4.305
 7445TIP3    H122274   3.232   3.376   4.390
 7445TIP3    H222275   3.121   3.322   4.302
 7446TIP3   OH222276   1.885   3.383   5.134
 7446TIP3    H122277   1.938   3.303   5.140
 7446TIP3    H222278   1.949   3.454   5.126
 7447TIP3   OH222279   1.670   3.642   5.193
 7447TIP3    H122280   1.722   3.639   5.113
 7447TIP3    H222281   1.698   3.723   5.236
 7448TIP3   OH222282   3.598   3.696   5.351
 7448TIP3    H122283   3.533   3.730   5.413
 7448TIP3    H222284   3.552   3.628   5.302
 7449TIP3   OH222285   3.236   3.314   3.944
 7449TIP3    H122286   3.281   3.250   3.889
 7449TIP3    H222287   3.296   3.387   3.950
 7450TIP3   OH222288   1.659   3.150   4.701
 7450TIP3    H122289   1.571   3.140   4.738
 7450TIP3    H222290   1.647   3.206   4.624
 7451TIP3   OH222291   2.818   4.851   4.219
 7451TIP3    H122292   2.873   4.846   4.141
 7451TIP3    H222293   2.856   4.922   4.270
 7452TIP3   OH222294   1.878   3.211   5.517
 7452TIP3    H122295   1.831   3.210   5.601
 7452TIP3    H222296   1.820   3.260   5.459
 7453TIP3   OH222297   1.914   4.660   5.594
 7453TIP3    H122298   1.820   4.644   5.585
 7453TIP3    H222299   1.931   4.649   5.687
 7454TIP3   OH222300   2.117   4.703   5.139
 7454TIP3    H122301   2.064   4.776   5.107
 7454TIP3    H222302   2.201   4.712   5.093
 7455TIP3   OH222303   2.544   4.945   5.288
 7455TIP3    H122304   2.586   4.930   5.373
 7455TIP3    H222305   2.610   4.993   5.238
 7456TIP3   OH222306   2.724   5.082   5.132
 7456TIP3    H122307   2.727   5.019   5.060
 7456TIP3    H222308   2.781   5.154   5.103
 7457TIP3   OH222309   3.503   3.451   5.243
 7457TIP3    H122310   3.426   3.463   5.186
 7457TIP3    H222311   3.531   3.361   5.227
 7458TIP3   OH222312   1.779   4.950   5.189
 7458TIP3    H122313   1.689   4.970   5.164
 7458TIP3    H222314   1.801   5.016   5.254
 7459TIP3   OH222315   2.007   4.933   5.034
 7459TIP3    H122316   1.924   4.942   5.080
 7459TIP3    H222317   1.988   4.962   4.944
 7460TIP3   OH222318   2.423   4.957   4.826
 7460TIP3    H122319   2.357   4.974   4.759
 7460TIP3    H222320   2.437   5.043   4.868
 7461TIP3   OH222321   2.693   4.933   4.899
 7461TIP3    H122322   2.605   4.927   4.861
 7461TIP3    H222323   2.744   4.979   4.833
 7462TIP3   OH222324   2.898   5.081   4.781
 7462TIP3    H122325   2.893   5.167   4.740
 7462TIP3    H222326   2.930   5.023   4.712
 7463TIP3   OH222327   1.683   4.740   4.912
 7463TIP3    H122328   1.711   4.714   5.000
 7463TIP3    H222329   1.754   4.710   4.855
 7464TIP3   OH222330   1.885   4.631   4.770
 7464TIP3    H122331   1.894   4.550   4.820
 7464TIP3    H222332   1.972   4.669   4.768
 7465TIP3   OH222333   2.151   4.729   4.770
 7465TIP3    H122334   2.190   4.663   4.714
 7465TIP3    H222335   2.203   4.728   4.850
 7466TIP3   OH222336   2.738   3.368   4.891
 7466TIP3    H122337   2.691   3.291   4.923
 7466TIP3    H222338   2.804   3.332   4.831
 7467TIP3   OH222339   3.228   3.241   4.758
 7467TIP3    H122340   3.272   3.293   4.690
 7467TIP3    H222341   3.141   3.280   4.765
 7468TIP3   OH222342   3.346   3.340   4.531
 7468TIP3    H122343   3.413   3.279   4.499
 7468TIP3    H222344   3.383   3.427   4.514
 7469TIP3   OH222345   1.966   3.060   4.873
 7469TIP3    H122346   1.876   3.028   4.879
 7469TIP3    H222347   2.019   2.980   4.864
 7470TIP3   OH222348   1.778   2.954   4.527
 7470TIP3    H122349   1.806   3.005   4.451
 7470TIP3    H222350   1.744   3.019   4.588
 7471TIP3   OH222351   2.433   3.097   4.763
 7471TIP3    H122352   2.469   3.149   4.691
 7471TIP3    H222353   2.467   3.138   4.842
 7472TIP3   OH222354   2.939   3.253   4.737
 7472TIP3    H122355   2.947   3.225   4.646
 7472TIP3    H222356   2.935   3.171   4.787
 7473TIP3   OH222357   2.991   3.190   4.304
 7473TIP3    H122358   2.912   3.240   4.324
 7473TIP3    H222359   2.975   3.104   4.342
 7474TIP3   OH222360   1.463   4.530   4.294
 7474TIP3    H122361   1.381   4.496   4.259
 7474TIP3    H222362   1.467   4.620   4.263
 7475TIP3   OH222363   1.888   3.092   4.293
 7475TIP3    H122364   1.934   3.035   4.232
 7475TIP3    H222365   1.956   3.151   4.327
 7476TIP3   OH222366   2.369   3.312   4.393
 7476TIP3    H122367   2.440   3.282   4.450
 7476TIP3    H222368   2.353   3.403   4.420
 7477TIP3   OH222369   2.257   4.688   3.883
 7477TIP3    H122370   2.340   4.715   3.846
 7477TIP3    H222371   2.229   4.614   3.828
 7478TIP3   OH222372   2.963   4.818   3.982
 7478TIP3    H122373   2.956   4.723   3.972
 7478TIP3    H222374   2.919   4.854   3.905
 7479TIP3   OH222375   2.186   3.338   5.757
 7479TIP3    H122376   2.150   3.273   5.817
 7479TIP3    H222377   2.278   3.344   5.783
 7480TIP3   OH222378   2.435   3.343   5.881
 7480TIP3    H122379   2.517   3.320   5.837
 7480TIP3    H222380   2.425   3.276   5.949
 7481TIP3   OH222381   1.560   4.525   3.942
 7481TIP3    H122382   1.565   4.545   4.035
 7481TIP3    H222383   1.643   4.481   3.922
 7482TIP3   OH222384   3.257   3.434   5.672
 7482TIP3    H122385   3.273   3.403   5.762
 7482TIP3    H222386   3.341   3.424   5.628
 7483TIP3   OH222387   3.105   5.030   5.212
 7483TIP3    H122388   3.067   4.991   5.133
 7483TIP3    H222389   3.176   5.086   5.179
 7484TIP3   OH222390   4.709   4.668   3.976
 7484TIP3    H122391   4.697   4.588   4.028
 7484TIP3    H222392   4.731   4.736   4.040
 7485TIP3   OH222393   3.734   4.638   4.407
 7485TIP3    H122394   3.734   4.547   4.435
 7485TIP3    H222395   3.827   4.659   4.395
 7486TIP3   OH222396   3.413   3.847   4.156
 7486TIP3    H122397   3.333   3.893   4.179
 7486TIP3    H222398   3.383   3.769   4.109
 7487TIP3   OH222399   4.370   5.091   4.014
 7487TIP3    H122400   4.404   5.018   3.962
 7487TIP3    H222401   4.359   5.056   4.102
 7488TIP3   OH222402   5.286   3.888   4.349
 7488TIP3    H122403   5.306   3.967   4.400
 7488TIP3    H222404   5.330   3.901   4.266
 7489TIP3   OH222405   4.676   4.081   4.388
 7489TIP3    H122406   4.687   3.986   4.377
 7489TIP3    H222407   4.624   4.108   4.313
 7490TIP3   OH222408   5.351   4.084   4.542
 7490TIP3    H122409   5.271   4.135   4.526
 7490TIP3    H222410   5.396   4.132   4.612
 7491TIP3   OH222411   3.978   3.723   4.808
 7491TIP3    H122412   3.926   3.649   4.777
 7491TIP3    H222413   3.926   3.762   4.878
 7492TIP3   OH222414   4.355   4.581   3.771
 7492TIP3    H122415   4.305   4.540   3.700
 7492TIP3    H222416   4.298   4.651   3.803
 7493TIP3   OH222417   4.876   3.816   4.156
 7493TIP3    H122418   4.830   3.801   4.239
 7493TIP3    H222419   4.968   3.802   4.177
 7494TIP3   OH222420   3.921   4.701   4.698
 7494TIP3    H122421   3.918   4.782   4.647
 7494TIP3    H222422   3.840   4.702   4.749
 7495TIP3   OH222423   3.314   4.383   3.926
 7495TIP3    H122424   3.281   4.400   3.838
 7495TIP3    H222425   3.341   4.469   3.958
 7496TIP3   OH222426   4.766   4.881   4.157
 7496TIP3    H122427   4.685   4.874   4.206
 7496TIP3    H222428   4.760   4.965   4.112
 7497TIP3   OH222429   5.084   3.764   4.516
 7497TIP3    H122430   5.001   3.808   4.497
 7497TIP3    H222431   5.146   3.802   4.454
 7498TIP3   OH222432   4.353   3.407   4.511
 7498TIP3    H122433   4.344   3.315   4.534
 7498TIP3    H222434   4.277   3.449   4.551
 7499TIP3   OH222435   4.473   4.919   3.811
 7499TIP3    H122436   4.527   4.840   3.799
 7499TIP3    H222437   4.529   4.991   3.781
 7500TIP3   OH222438   4.610   4.666   3.720
 7500TIP3    H122439   4.523   4.633   3.742
 7500TIP3    H222440   4.658   4.664   3.803
 7501TIP3   OH222441   4.998   4.805   4.501
 7501TIP3    H122442   5.001   4.732   4.439
 7501TIP3    H222443   4.981   4.882   4.447
 7502TIP3   OH222444   4.277   4.152   3.716
 7502TIP3    H122445   4.213   4.224   3.721
 7502TIP3    H222446   4.352   4.191   3.671
 7503TIP3   OH222447   4.236   3.993   3.475
 7503TIP3    H122448   4.269   4.023   3.560
 7503TIP3    H222449   4.306   3.938   3.441
 7504TIP3   OH222450   5.194   4.429   4.389
 7504TIP3    H122451   5.133   4.494   4.352
 7504TIP3    H222452   5.241   4.394   4.313
 7505TIP3   OH222453   4.893   4.310   4.684
 7505TIP3    H122454   4.891   4.393   4.730
 7505TIP3    H222455   4.810   4.307   4.635
 7506TIP3   OH222456   3.994   4.683   4.324
 7506TIP3    H122457   4.021   4.640   4.243
 7506TIP3    H222458   4.042   4.636   4.393
 7507TIP3   OH222459   4.543   4.869   4.307
 7507TIP3    H122460   4.522   4.952   4.350
 7507TIP3    H222461   4.524   4.802   4.374
 7508TIP3   OH222462   4.158   4.800   4.818
 7508TIP3    H122463   4.086   4.850   4.855
 7508TIP3    H222464   4.116   4.736   4.761
 7509TIP3   OH222465   4.523   4.146   3.563
 7509TIP3    H122466   4.570   4.228   3.577
 7509TIP3    H222467   4.521   4.135   3.468
 7510TIP3   OH222468   3.913   4.338   4.981
 7510TIP3    H122469   3.914   4.434   4.989
 7510TIP3    H222470   3.831   4.319   4.936
 7511TIP3   OH222471   4.216   4.818   3.821
 7511TIP3    H122472   4.300   4.862   3.827
 7511TIP3    H222473   4.159   4.881   3.776
 7512TIP3   OH222474   3.934   4.954   4.907
 7512TIP3    H122475   3.913   4.963   4.814
 7512TIP3    H222476   3.849   4.944   4.951
 7513TIP3   OH222477   4.979   3.364   3.601
 7513TIP3    H122478   4.898   3.386   3.647
 7513TIP3    H222479   5.004   3.445   3.556
 7514TIP3   OH222480   3.736   4.093   3.898
 7514TIP3    H122481   3.650   4.130   3.880
 7514TIP3    H222482   3.717   4.006   3.933
 7515TIP3   OH222483   4.804   4.740   3.171
 7515TIP3    H122484   4.805   4.833   3.150
 7515TIP3    H222485   4.894   4.711   3.154
 7516TIP3   OH222486   3.554   4.482   4.886
 7516TIP3    H122487   3.547   4.452   4.795
 7516TIP3    H222488   3.581   4.404   4.935
 7517TIP3   OH222489   3.397   4.710   4.476
 7517TIP3    H122490   3.492   4.702   4.482
 7517TIP3    H222491   3.374   4.774   4.543
 7518TIP3   OH222492   5.228   5.155   4.557
 7518TIP3    H122493   5.236   5.060   4.567
 7518TIP3    H222494   5.148   5.177   4.605
 7519TIP3   OH222495   4.330   4.951   4.658
 7519TIP3    H122496   4.317   5.031   4.708
 7519TIP3    H222497   4.288   4.883   4.711
 7520TIP3   OH222498   4.109   5.042   3.643
 7520TIP3    H122499   4.061   5.022   3.562
 7520TIP3    H222500   4.074   5.127   3.671
 7521TIP3   OH222501   3.544   4.892   4.026
 7521TIP3    H122502   3.591   4.883   4.108
 7521TIP3    H222503   3.497   4.809   4.016
 7522TIP3   OH222504   4.310   4.963   3.270
 7522TIP3    H122505   4.361   4.889   3.236
 7522TIP3    H222506   4.344   4.976   3.359
 7523TIP3   OH222507   4.362   5.009   3.541
 7523TIP3    H122508   4.276   5.014   3.583
 7523TIP3    H222509   4.420   4.974   3.608
 7524TIP3   OH222510   5.112   4.265   4.856
 7524TIP3    H122511   5.040   4.278   4.794
 7524TIP3    H222512   5.133   4.172   4.850
 7525TIP3   OH222513   3.705   4.713   4.867
 7525TIP3    H122514   3.772   4.699   4.933
 7525TIP3    H222515   3.649   4.635   4.873
 7526TIP3   OH222516   4.114   3.512   4.622
 7526TIP3    H122517   4.027   3.478   4.604
 7526TIP3    H222518   4.108   3.606   4.601
 7527TIP3   OH222519   4.655   3.617   4.839
 7527TIP3    H122520   4.725   3.594   4.900
 7527TIP3    H222521   4.574   3.598   4.888
 7528TIP3   OH222522   4.880   4.036   4.750
 7528TIP3    H122523   4.842   4.035   4.839
 7528TIP3    H222524   4.871   4.126   4.721
 7529TIP3   OH222525   4.545   4.121   3.286
 7529TIP3    H122526   4.511   4.117   3.197
 7529TIP3    H222527   4.624   4.175   3.279
 7530TIP3   OH222528   4.610   4.270   4.991
 7530TIP3    H122529   4.581   4.199   5.048
 7530TIP3    H222530   4.703   4.280   5.010
 7531TIP3   OH222531   3.885   4.022   4.878
 7531TIP3    H122532   3.921   4.095   4.930
 7531TIP3    H222533   3.867   3.954   4.943
 7532TIP3   OH222534   3.916   3.525   3.569
 7532TIP3    H122535   3.926   3.512   3.663
 7532TIP3    H222536   3.841   3.585   3.561
 7533TIP3   OH222537   3.474   3.563   4.453
 7533TIP3    H122538   3.534   3.607   4.514
 7533TIP3    H222539   3.517   3.570   4.368
 7534TIP3   OH222540   3.400   3.541   3.958
 7534TIP3    H122541   3.449   3.576   3.884
 7534TIP3    H222542   3.332   3.606   3.975
 7535TIP3   OH222543   4.651   4.282   4.568
 7535TIP3    H122544   4.659   4.219   4.496
 7535TIP3    H222545   4.589   4.242   4.628
 7536TIP3   OH222546   4.292   3.707   4.211
 7536TIP3    H122547   4.216   3.690   4.266
 7536TIP3    H222548   4.367   3.700   4.270
 7537TIP3   OH222549   3.956   3.735   3.917
 7537TIP3    H122550   4.041   3.776   3.932
 7537TIP3    H222551   3.913   3.790   3.852
 7538TIP3   OH222552   4.733   3.801   4.411
 7538TIP3    H122553   4.721   3.823   4.504
 7538TIP3    H222554   4.664   3.739   4.392
 7539TIP3   OH222555   3.801   3.820   3.687
 7539TIP3    H122556   3.739   3.774   3.631
 7539TIP3    H222557   3.862   3.863   3.626
 7540TIP3   OH222558   4.936   5.496   4.657
 7540TIP3    H122559   4.932   5.511   4.563
 7540TIP3    H222560   5.015   5.540   4.686
 7541TIP3   OH222561   3.877   4.605   5.073
 7541TIP3    H122562   3.961   4.629   5.113
 7541TIP3    H222563   3.814   4.613   5.145
 7542TIP3   OH222564   3.875   3.558   4.255
 7542TIP3    H122565   3.842   3.472   4.281
 7542TIP3    H222566   3.898   3.548   4.163
 7543TIP3   OH222567   4.336   3.965   4.683
 7543TIP3    H122568   4.355   3.973   4.590
 7543TIP3    H222569   4.405   4.016   4.727
 7544TIP3   OH222570   4.055   4.340   3.707
 7544TIP3    H122571   3.983   4.278   3.689
 7544TIP3    H222572   4.040   4.369   3.796
 7545TIP3   OH222573   4.966   4.598   4.314
 7545TIP3    H122574   4.919   4.652   4.250
 7545TIP3    H222575   4.898   4.545   4.355
 7546TIP3   OH222576   4.538   3.640   3.519
 7546TIP3    H122577   4.458   3.629   3.571
 7546TIP3    H222578   4.577   3.721   3.551
 7547TIP3   OH222579   4.607   3.878   3.638
 7547TIP3    H122580   4.680   3.889   3.699
 7547TIP3    H222581   4.578   3.968   3.620
 7548TIP3   OH222582   4.202   4.491   3.535
 7548TIP3    H122583   4.157   4.575   3.538
 7548TIP3    H222584   4.149   4.433   3.590
 7549TIP3   OH222585   3.621   4.268   5.034
 7549TIP3    H122586   3.666   4.276   5.118
 7549TIP3    H222587   3.591   4.177   5.032
 7550TIP3   OH222588   4.363   4.400   5.031
 7550TIP3    H122589   4.298   4.350   4.982
 7550TIP3    H222590   4.448   4.371   4.996
 7551TIP3   OH222591   4.604   4.968   4.600
 7551TIP3    H122592   4.512   4.942   4.603
 7551TIP3    H222593   4.626   4.991   4.690
 7552TIP3   OH222594   5.036   3.995   3.466
 7552TIP3    H122595   4.960   3.957   3.423
 7552TIP3    H222596   5.030   4.089   3.449
 7553TIP3   OH222597   5.251   4.877   4.578
 7553TIP3    H122598   5.157   4.860   4.586
 7553TIP3    H222599   5.275   4.838   4.494
 7554TIP3   OH222600   4.723   4.817   3.436
 7554TIP3    H122601   4.697   4.750   3.499
 7554TIP3    H222602   4.744   4.768   3.356
 7555TIP3   OH222603   3.847   4.660   3.994
 7555TIP3    H122604   3.854   4.744   3.949
 7555TIP3    H222605   3.759   4.661   4.032
 7556TIP3   OH222606   3.406   3.970   3.719
 7556TIP3    H122607   3.454   4.050   3.739
 7556TIP3    H222608   3.332   3.970   3.780
 7557TIP3   OH222609   3.992   4.426   3.957
 7557TIP3    H122610   3.948   4.509   3.974
 7557TIP3    H222611   3.973   4.372   4.034
 7558TIP3   OH222612   4.134   5.019   4.476
 7558TIP3    H122613   4.178   5.087   4.425
 7558TIP3    H222614   4.204   4.978   4.527
 7559TIP3   OH222615   3.772   4.913   3.869
 7559TIP3    H122616   3.688   4.918   3.914
 7559TIP3    H222617   3.807   5.002   3.875
 7560TIP3   OH222618   4.517   4.661   4.499
 7560TIP3    H122619   4.433   4.642   4.540
 7560TIP3    H222620   4.565   4.578   4.502
 7561TIP3   OH222621   4.489   4.540   3.336
 7561TIP3    H122622   4.544   4.508   3.407
 7561TIP3    H222623   4.399   4.518   3.363
 7562TIP3   OH222624   4.755   5.173   4.497
 7562TIP3    H122625   4.692   5.105   4.518
 7562TIP3    H222626   4.715   5.222   4.424
 7563TIP3   OH222627   4.816   5.017   3.137
 7563TIP3    H122628   4.861   5.088   3.091
 7563TIP3    H222629   4.737   5.057   3.173
 7564TIP3   OH222630   3.823   3.787   5.033
 7564TIP3    H122631   3.727   3.785   5.035
 7564TIP3    H222632   3.851   3.717   5.092
 7565TIP3   OH222633   4.653   4.451   3.541
 7565TIP3    H122634   4.639   4.515   3.610
 7565TIP3    H222635   4.749   4.443   3.535
 7566TIP3   OH222636   3.564   4.907   4.647
 7566TIP3    H122637   3.618   4.847   4.699
 7566TIP3    H222638   3.588   4.994   4.678
 7567TIP3   OH222639   3.842   4.517   3.332
 7567TIP3    H122640   3.856   4.426   3.307
 7567TIP3    H222641   3.826   4.514   3.426
 7568TIP3   OH222642   3.787   4.530   3.604
 7568TIP3    H122643   3.858   4.497   3.661
 7568TIP3    H222644   3.790   4.625   3.614
 7569TIP3   OH222645   3.504   4.215   3.806
 7569TIP3    H122646   3.444   4.264   3.863
 7569TIP3    H222647   3.531   4.279   3.740
 7570TIP3   OH222648   4.689   3.846   4.681
 7570TIP3    H122649   4.765   3.894   4.713
 7570TIP3    H222650   4.679   3.772   4.741
 7571TIP3   OH222651   4.650   3.634   3.864
 7571TIP3    H122652   4.558   3.614   3.846
 7571TIP3    H222653   4.652   3.729   3.873
 7572TIP3   OH222654   4.060   4.721   3.545
 7572TIP3    H122655   3.976   4.743   3.585
 7572TIP3    H222656   4.082   4.797   3.492
 7573TIP3   OH222657   4.214   3.822   3.969
 7573TIP3    H122658   4.278   3.888   3.945
 7573TIP3    H222659   4.241   3.791   4.056
 7574TIP3   OH222660   4.546   4.113   4.771
 7574TIP3    H122661   4.571   4.170   4.844
 7574TIP3    H222662   4.612   4.043   4.771
 7575TIP3   OH222663   4.369   3.484   4.054
 7575TIP3    H122664   4.349   3.572   4.087
 7575TIP3    H222665   4.368   3.493   3.959
 7576TIP3   OH222666   3.806   4.802   3.620
 7576TIP3    H122667   3.783   4.872   3.558
 7576TIP3    H222668   3.793   4.842   3.706
 7577TIP3   OH222669   3.930   3.478   3.840
 7577TIP3    H122670   3.934   3.567   3.874
 7577TIP3    H222671   4.017   3.441   3.856
 7578TIP3   OH222672   5.151   4.003   4.759
 7578TIP3    H122673   5.055   3.994   4.755
 7578TIP3    H222674   5.178   4.010   4.668
 7579TIP3   OH222675   3.535   4.408   3.601
 7579TIP3    H122676   3.606   4.472   3.613
 7579TIP3    H222677   3.570   4.344   3.538
 7580TIP3   OH222678   3.447   3.692   3.731
 7580TIP3    H122679   3.467   3.785   3.735
 7580TIP3    H222680   3.359   3.688   3.693
 7581TIP3   OH222681   4.779   5.156   4.072
 7581TIP3    H122682   4.734   5.202   4.002
 7581TIP3    H222683   4.871   5.181   4.062
 7582TIP3   OH222684   3.845   3.431   4.613
 7582TIP3    H122685   3.822   3.403   4.524
 7582TIP3    H222686   3.835   3.352   4.666
 7583TIP3   OH222687   3.372   4.657   3.998
 7583TIP3    H122688   3.330   4.699   4.073
 7583TIP3    H222689   3.335   4.701   3.922
 7584TIP3   OH222690   3.578   5.203   5.061
 7584TIP3    H122691   3.656   5.220   5.114
 7584TIP3    H222692   3.583   5.111   5.037
 7585TIP3   OH222693   4.032   5.122   5.105
 7585TIP3    H122694   4.125   5.103   5.114
 7585TIP3    H222695   4.004   5.067   5.031
 7586TIP3   OH222696   4.003   4.716   3.227
 7586TIP3    H122697   3.955   4.646   3.271
 7586TIP3    H222698   4.078   4.673   3.187
 7587TIP3   OH222699   4.659   5.058   4.855
 7587TIP3    H122700   4.667   4.986   4.918
 7587TIP3    H222701   4.736   5.113   4.872
 7588TIP3   OH222702   4.443   4.751   3.155
 7588TIP3    H122703   4.478   4.687   3.217
 7588TIP3    H222704   4.502   4.747   3.080
 7589TIP3   OH222705   3.671   4.596   5.264
 7589TIP3    H122706   3.691   4.503   5.269
 7589TIP3    H222707   3.586   4.600   5.221
 7590TIP3   OH222708   3.667   4.217   3.456
 7590TIP3    H122709   3.719   4.194   3.533
 7590TIP3    H222710   3.731   4.231   3.386
 7591TIP3   OH222711   4.286   4.685   5.033
 7591TIP3    H122712   4.257   4.713   4.946
 7591TIP3    H222713   4.332   4.603   5.017
 7592TIP3   OH222714   4.189   4.432   3.266
 7592TIP3    H122715   4.184   4.448   3.360
 7592TIP3    H222716   4.184   4.336   3.258
 7593TIP3   OH222717   4.776   4.698   4.638
 7593TIP3    H122718   4.842   4.755   4.599
 7593TIP3    H222719   4.692   4.733   4.607
 7594TIP3   OH222720   3.795   4.340   5.245
 7594TIP3    H122721   3.862   4.334   5.177
 7594TIP3    H222722   3.842   4.371   5.322
 7595TIP3   OH222723   3.849   4.159   3.659
 7595TIP3    H122724   3.820   4.133   3.746
 7595TIP3    H222725   3.891   4.081   3.623
 7596TIP3   OH222726   4.166   4.253   4.891
 7596TIP3    H122727   4.080   4.283   4.921
 7596TIP3    H222728   4.177   4.295   4.806
 7597TIP3   OH222729   3.964   3.953   3.510
 7597TIP3    H122730   3.941   3.964   3.418
 7597TIP3    H222731   4.059   3.961   3.512
 7598TIP3   OH222732   4.662   4.610   5.047
 7598TIP3    H122733   4.700   4.567   4.971
 7598TIP3    H222734   4.661   4.542   5.115
 7599TIP3   OH222735   4.766   4.262   3.190
 7599TIP3    H122736   4.760   4.219   3.105
 7599TIP3    H222737   4.740   4.353   3.173
 7600TIP3   OH222738   4.250   4.020   5.030
 7600TIP3    H122739   4.248   3.939   4.979
 7600TIP3    H222740   4.228   4.088   4.966
 7601TIP3   OH222741   4.243   3.783   4.867
 7601TIP3    H122742   4.275   3.838   4.795
 7601TIP3    H222743   4.153   3.762   4.842
 7602TIP3   OH222744   4.876   4.288   5.082
 7602TIP3    H122745   4.920   4.203   5.083
 7602TIP3    H222746   4.942   4.349   5.049
 7603TIP3   OH222747   4.909   4.551   4.822
 7603TIP3    H122748   4.851   4.604   4.768
 7603TIP3    H222749   4.997   4.570   4.789
 7604TIP3   OH222750   4.134   4.095   5.273
 7604TIP3    H122751   4.070   4.024   5.282
 7604TIP3    H222752   4.168   4.085   5.184
 7605TIP3   OH222753   4.388   3.552   4.922
 7605TIP3    H122754   4.342   3.634   4.901
 7605TIP3    H222755   4.325   3.483   4.903
 7606TIP3   OH222756   4.516   4.048   5.124
 7606TIP3    H122757   4.505   4.032   5.218
 7606TIP3    H222758   4.429   4.033   5.087
 7607TIP3   OH222759   4.761   4.003   4.990
 7607TIP3    H122760   4.683   4.003   5.045
 7607TIP3    H222761   4.832   3.976   5.049
 7608TIP3   OH222762   4.990   3.953   5.144
 7608TIP3    H122763   5.006   3.859   5.152
 7608TIP3    H222764   4.987   3.984   5.234
 7609TIP3   OH222765   3.977   3.870   5.337
 7609TIP3    H122766   3.980   3.788   5.288
 7609TIP3    H222767   4.025   3.852   5.418
 7610TIP3   OH222768   4.462   3.548   5.186
 7610TIP3    H122769   4.532   3.484   5.183
 7610TIP3    H222770   4.430   3.553   5.096
 7611TIP3   OH222771   4.547   3.765   5.332
 7611TIP3    H122772   4.522   3.693   5.273
 7611TIP3    H222773   4.475   3.827   5.326
 7612TIP3   OH222774   3.792   5.006   3.432
 7612TIP3    H122775   3.883   4.990   3.409
 7612TIP3    H222776   3.756   5.055   3.358
 7613TIP3   OH222777   3.264   4.386   3.637
 7613TIP3    H122778   3.357   4.406   3.626
 7613TIP3    H222779   3.253   4.301   3.594
 7614TIP3   OH222780   3.168   4.981   4.068
 7614TIP3    H122781   3.103   4.926   4.024
 7614TIP3    H222782   3.214   4.922   4.127
 7615TIP3   OH222783   3.316   4.823   4.237
 7615TIP3    H122784   3.316   4.758   4.307
 7615TIP3    H222785   3.367   4.896   4.271
 7616TIP3   OH222786   5.036   5.252   4.059
 7616TIP3    H122787   5.064   5.273   4.147
 7616TIP3    H222788   5.095   5.301   4.002
 7617TIP3   OH222789   5.075   5.255   4.337
 7617TIP3    H122790   5.025   5.174   4.331
 7617TIP3    H222791   5.145   5.236   4.400
 7618TIP3   OH222792   5.117   4.947   4.904
 7618TIP3    H122793   5.046   4.954   4.968
 7618TIP3    H222794   5.161   5.032   4.909
 7619TIP3   OH222795   4.936   4.455   3.540
 7619TIP3    H122796   4.997   4.520   3.506
 7619TIP3    H222797   4.965   4.439   3.630
 7620TIP3   OH222798   4.929   5.019   4.343
 7620TIP3    H122799   4.862   5.063   4.396
 7620TIP3    H222800   4.879   4.974   4.274
 7621TIP3   OH222801   4.982   4.247   3.363
 7621TIP3    H122802   4.906   4.248   3.304
 7621TIP3    H222803   4.964   4.317   3.426
 7622TIP3   OH222804   4.835   3.903   3.303
 7622TIP3    H122805   4.782   3.942   3.234
 7622TIP3    H222806   4.826   3.809   3.290
 7623TIP3   OH222807   5.162   4.600   4.718
 7623TIP3    H122808   5.224   4.528   4.715
 7623TIP3    H222809   5.183   4.654   4.642
 7624TIP3   OH222810   5.328   4.386   4.740
 7624TIP3    H122811   5.255   4.341   4.782
 7624TIP3    H222812   5.403   4.327   4.749
 7625TIP3   OH222813   5.109   4.211   4.528
 7625TIP3    H122814   5.026   4.237   4.568
 7625TIP3    H222815   5.139   4.288   4.481
 7626TIP3   OH222816   3.711   3.940   5.299
 7626TIP3    H122817   3.806   3.927   5.296
 7626TIP3    H222818   3.676   3.853   5.317
 7627TIP3   OH222819   5.552   3.815   5.038
 7627TIP3    H122820   5.613   3.756   4.994
 7627TIP3    H222821   5.513   3.866   4.967
 7628TIP3   OH222822   4.997   3.612   3.788
 7628TIP3    H122823   5.037   3.611   3.875
 7628TIP3    H222824   4.907   3.642   3.803
 7629TIP3   OH222825   3.669   3.649   4.636
 7629TIP3    H122826   3.731   3.577   4.626
 7629TIP3    H222827   3.716   3.726   4.606
 7630TIP3   OH222828   5.404   3.931   4.842
 7630TIP3    H122829   5.320   3.973   4.855
 7630TIP3    H222830   5.385   3.857   4.784
 7631TIP3   OH222831   5.042   3.575   3.433
 7631TIP3    H122832   5.078   3.511   3.371
 7631TIP3    H222833   5.106   3.646   3.434
 7632TIP3   OH222834   3.447   3.381   4.175
 7632TIP3    H122835   3.363   3.385   4.221
 7632TIP3    H222836   3.441   3.448   4.108
 7633TIP3   OH222837   4.613   5.119   3.699
 7633TIP3    H122838   4.669   5.113   3.621
 7633TIP3    H222839   4.654   5.187   3.752
 7634TIP3   OH222840   3.676   3.483   5.014
 7634TIP3    H122841   3.627   3.487   5.096
 7634TIP3    H222842   3.618   3.522   4.949
 7635TIP3   OH222843   3.707   4.942   5.075
 7635TIP3    H122844   3.621   4.902   5.069
 7635TIP3    H222845   3.733   4.929   5.167
 7636TIP3   OH222846   3.907   4.972   4.629
 7636TIP3    H122847   3.862   5.049   4.594
 7636TIP3    H222848   3.993   4.973   4.586
 7637TIP3   OH222849   4.318   5.210   4.774
 7637TIP3    H122850   4.360   5.197   4.859
 7637TIP3    H222851   4.384   5.255   4.722
 7638TIP3   OH222852   4.513   5.350   4.634
 7638TIP3    H122853   4.575   5.288   4.595
 7638TIP3    H222854   4.567   5.406   4.690
 7639TIP3   OH222855   5.313   3.695   4.724
 7639TIP3    H122856   5.227   3.696   4.682
 7639TIP3    H222857   5.343   3.605   4.715
 7640TIP3   OH222858   3.575   5.206   4.674
 7640TIP3    H122859   3.486   5.229   4.648
 7640TIP3    H222860   3.599   5.271   4.739
 7641TIP3   OH222861   3.805   5.204   4.520
 7641TIP3    H122862   3.721   5.207   4.566
 7641TIP3    H222863   3.785   5.228   4.430
 7642TIP3   OH222864   4.231   5.220   4.306
 7642TIP3    H122865   4.155   5.233   4.249
 7642TIP3    H222866   4.242   5.304   4.352
 7643TIP3   OH222867   4.497   5.151   4.349
 7643TIP3    H122868   4.404   5.169   4.336
 7643TIP3    H222869   4.542   5.225   4.308
 7644TIP3   OH222870   4.697   5.337   4.268
 7644TIP3    H122871   4.692   5.422   4.223
 7644TIP3    H222872   4.726   5.276   4.200
 7645TIP3   OH222873   3.489   4.998   4.393
 7645TIP3    H122874   3.510   4.973   4.483
 7645TIP3    H222875   3.560   4.961   4.340
 7646TIP3   OH222876   3.689   4.869   4.259
 7646TIP3    H122877   3.699   4.787   4.308
 7646TIP3    H222878   3.776   4.908   4.260
 7647TIP3   OH222879   3.955   4.955   4.276
 7647TIP3    H122880   3.973   4.861   4.273
 7647TIP3    H222881   4.008   4.987   4.349
 7648TIP3   OH222882   4.515   3.615   4.362
 7648TIP3    H122883   4.476   3.541   4.409
 7648TIP3    H222884   4.586   3.576   4.311
 7649TIP3   OH222885   5.027   3.499   4.239
 7649TIP3    H122886   5.068   3.553   4.171
 7649TIP3    H222887   4.936   3.527   4.241
 7650TIP3   OH222888   5.148   3.613   4.021
 7650TIP3    H122889   5.212   3.548   3.991
 7650TIP3    H222890   5.188   3.697   4.002
 7651TIP3   OH222891   3.767   3.318   4.371
 7651TIP3    H122892   3.676   3.289   4.371
 7651TIP3    H222893   3.818   3.238   4.361
 7652TIP3   OH222894   3.566   3.198   4.001
 7652TIP3    H122895   3.600   3.254   3.931
 7652TIP3    H222896   3.531   3.259   4.066
 7653TIP3   OH222897   4.234   3.346   4.254
 7653TIP3    H122898   4.275   3.391   4.180
 7653TIP3    H222899   4.279   3.379   4.331
 7654TIP3   OH222900   4.740   3.509   4.231
 7654TIP3    H122901   4.725   3.480   4.141
 7654TIP3    H222902   4.738   3.428   4.282
 7655TIP3   OH222903   4.730   3.421   3.722
 7655TIP3    H122904   4.716   3.495   3.782
 7655TIP3    H222905   4.734   3.344   3.779
 7656TIP3   OH222906   3.261   4.786   3.783
 7656TIP3    H122907   3.177   4.752   3.753
 7656TIP3    H222908   3.264   4.876   3.752
 7657TIP3   OH222909   3.691   3.347   3.773
 7657TIP3    H122910   3.733   3.285   3.713
 7657TIP3    H222911   3.762   3.399   3.808
 7658TIP3   OH222912   4.053   4.944   3.371
 7658TIP3    H122913   4.137   4.972   3.334
 7658TIP3    H222914   4.025   4.871   3.316
 7659TIP3   OH222915   4.760   5.086   3.465
 7659TIP3    H122916   4.754   4.990   3.458
 7659TIP3    H222917   4.717   5.118   3.386
 7660TIP3   OH222918   3.977   3.594   5.246
 7660TIP3    H122919   3.944   3.525   5.304
 7660TIP3    H222920   4.069   3.602   5.268
 7661TIP3   OH222921   4.226   3.606   5.371
 7661TIP3    H122922   4.306   3.589   5.321
 7661TIP3    H222923   4.222   3.535   5.436
 7662TIP3   OH222924   3.353   4.783   3.429
 7662TIP3    H122925   3.359   4.802   3.523
 7662TIP3    H222926   3.436   4.740   3.408
 7663TIP3   OH222927   5.057   3.682   5.158
 7663TIP3    H122928   5.075   3.652   5.247
 7663TIP3    H222929   5.143   3.678   5.114
 7664TIP3   OH222930   4.979   5.222   4.658
 7664TIP3    H122931   4.904   5.191   4.608
 7664TIP3    H222932   4.964   5.316   4.669
 7665TIP3   OH222933   5.518   4.511   4.220
 7665TIP3    H122934   5.556   4.441   4.273
 7665TIP3    H222935   5.539   4.486   4.129
 7666TIP3   OH222936   6.466   4.858   3.463
 7666TIP3    H122937   6.413   4.779   3.470
 7666TIP3    H222938   6.488   4.881   3.553
 7667TIP3   OH222939   5.538   4.939   3.898
 7667TIP3    H122940   5.529   4.849   3.930
 7667TIP3    H222941   5.626   4.941   3.859
 7668TIP3   OH222942   6.174   5.346   3.506
 7668TIP3    H122943   6.189   5.277   3.441
 7668TIP3    H222944   6.165   5.299   3.589
 7669TIP3   OH222945   7.086   4.141   3.843
 7669TIP3    H122946   7.100   4.227   3.882
 7669TIP3    H222947   7.087   4.158   3.748
 7670TIP3   OH222948   6.471   4.340   3.844
 7670TIP3    H122949   6.475   4.245   3.855
 7670TIP3    H222950   6.396   4.354   3.786
 7671TIP3   OH222951   5.752   4.002   3.799
 7671TIP3    H122952   5.660   4.028   3.794
 7671TIP3    H222953   5.756   3.916   3.758
 7672TIP3   OH222954   6.529   4.025   3.460
 7672TIP3    H122955   6.586   4.031   3.537
 7672TIP3    H222956   6.530   4.112   3.421
 7673TIP3   OH222957   7.141   4.361   4.013
 7673TIP3    H122958   7.058   4.401   3.989
 7673TIP3    H222959   7.144   4.367   4.108
 7674TIP3   OH222960   5.798   3.970   4.292
 7674TIP3    H122961   5.762   4.012   4.214
 7674TIP3    H222962   5.737   3.992   4.362
 7675TIP3   OH222963   5.924   4.765   4.140
 7675TIP3    H122964   5.839   4.808   4.153
 7675TIP3    H222965   5.972   4.823   4.082
 7676TIP3   OH222966   6.691   4.078   3.675
 7676TIP3    H122967   6.636   4.067   3.753
 7676TIP3    H222968   6.742   4.157   3.693
 7677TIP3   OH222969   5.700   4.084   4.063
 7677TIP3    H122970   5.759   4.158   4.076
 7677TIP3    H222971   5.729   4.046   3.980
 7678TIP3   OH222972   5.723   4.952   4.165
 7678TIP3    H122973   5.710   5.039   4.127
 7678TIP3    H222974   5.646   4.938   4.220
 7679TIP3   OH222975   5.115   4.638   3.414
 7679TIP3    H122976   5.083   4.652   3.325
 7679TIP3    H222977   5.142   4.724   3.444
 7680TIP3   OH222978   6.567   5.163   3.659
 7680TIP3    H122979   6.478   5.141   3.686
 7680TIP3    H222980   6.557   5.242   3.605
 7681TIP3   OH222981   6.876   4.042   4.011
 7681TIP3    H122982   6.788   4.065   3.981
 7681TIP3    H222983   6.933   4.068   3.939
 7682TIP3   OH222984   6.152   3.665   4.000
 7682TIP3    H122985   6.135   3.573   4.022
 7682TIP3    H222986   6.078   3.712   4.038
 7683TIP3   OH222987   6.247   5.178   3.290
 7683TIP3    H122988   6.294   5.096   3.274
 7683TIP3    H222989   6.310   5.246   3.267
 7684TIP3   OH222990   6.400   4.962   3.218
 7684TIP3    H122991   6.402   4.883   3.163
 7684TIP3    H222992   6.430   4.932   3.304
 7685TIP3   OH222993   6.802   5.044   3.993
 7685TIP3    H122994   6.778   4.971   3.936
 7685TIP3    H222995   6.783   5.122   3.942
 7686TIP3   OH222996   6.052   4.408   3.182
 7686TIP3    H122997   5.997   4.481   3.211
 7686TIP3    H222998   6.138   4.447   3.169
 7687TIP3   OH222999   6.025   4.254   2.955
 7687TIP3    H123000   6.046   4.299   3.037
 7687TIP3    H223001   6.105   4.206   2.933
 7688TIP3   OH223002   6.984   4.712   3.843
 7688TIP3    H123003   6.898   4.755   3.847
 7688TIP3    H223004   7.012   4.724   3.752
 7689TIP3   OH223005   6.418   4.566   3.245
 7689TIP3    H123006   6.370   4.593   3.323
 7689TIP3    H223007   6.499   4.527   3.279
 7690TIP3   OH223008   6.691   4.581   4.145
 7690TIP3    H123009   6.676   4.658   4.200
 7690TIP3    H223010   6.610   4.572   4.094
 7691TIP3   OH223011   5.757   4.969   3.733
 7691TIP3    H123012   5.713   4.952   3.649
 7691TIP3    H223013   5.842   4.926   3.724
 7692TIP3   OH223014   6.322   5.138   3.782
 7692TIP3    H123015   6.317   5.219   3.833
 7692TIP3    H223016   6.343   5.071   3.847
 7693TIP3   OH223017   5.933   5.053   4.317
 7693TIP3    H123018   5.876   5.114   4.364
 7693TIP3    H223019   5.874   4.999   4.265
 7694TIP3   OH223020   6.316   4.389   3.058
 7694TIP3    H123021   6.355   4.462   3.106
 7694TIP3    H223022   6.325   4.412   2.966
 7695TIP3   OH223023   5.705   4.626   4.452
 7695TIP3    H123024   5.692   4.718   4.476
 7695TIP3    H223025   5.629   4.604   4.398
 7696TIP3   OH223026   5.971   5.137   3.350
 7696TIP3    H123027   6.065   5.129   3.333
 7696TIP3    H223028   5.936   5.183   3.273
 7697TIP3   OH223029   5.727   5.217   4.400
 7697TIP3    H123030   5.701   5.224   4.308
 7697TIP3    H223031   5.645   5.199   4.447
 7698TIP3   OH223032   6.780   3.624   3.100
 7698TIP3    H123033   6.704   3.646   3.153
 7698TIP3    H223034   6.796   3.703   3.047
 7699TIP3   OH223035   6.595   4.994   2.653
 7699TIP3    H123036   6.595   5.088   2.635
 7699TIP3    H223037   6.685   4.966   2.635
 7700TIP3   OH223038   5.329   4.747   4.341
 7700TIP3    H123039   5.343   4.704   4.257
 7700TIP3    H223040   5.358   4.682   4.406
 7701TIP3   OH223041   5.137   5.002   3.991
 7701TIP3    H123042   5.222   5.018   4.033
 7701TIP3    H223043   5.082   5.074   4.021
 7702TIP3   OH223044   7.028   5.420   4.044
 7702TIP3    H123045   7.034   5.324   4.050
 7702TIP3    H223046   6.948   5.442   4.090
 7703TIP3   OH223047   6.124   5.187   4.172
 7703TIP3    H123048   6.122   5.279   4.201
 7703TIP3    H223049   6.058   5.144   4.226
 7704TIP3   OH223050   5.901   5.302   3.126
 7704TIP3    H123051   5.854   5.282   3.044
 7704TIP3    H223052   5.867   5.388   3.152
 7705TIP3   OH223053   5.337   5.151   3.506
 7705TIP3    H123054   5.385   5.147   3.589
 7705TIP3    H223055   5.293   5.066   3.500
 7706TIP3   OH223056   6.106   5.218   2.758
 7706TIP3    H123057   6.157   5.144   2.724
 7706TIP3    H223058   6.139   5.231   2.847
 7707TIP3   OH223059   6.155   5.265   3.027
 7707TIP3    H123060   6.068   5.271   3.068
 7707TIP3    H223061   6.210   5.227   3.095
 7708TIP3   OH223062   6.915   4.524   4.312
 7708TIP3    H123063   6.836   4.539   4.260
 7708TIP3    H223064   6.929   4.430   4.307
 7709TIP3   OH223065   5.509   4.955   4.332
 7709TIP3    H123066   5.559   4.946   4.413
 7709TIP3    H223067   5.441   4.888   4.339
 7710TIP3   OH223068   5.916   3.762   4.114
 7710TIP3    H123069   5.823   3.744   4.099
 7710TIP3    H223070   5.920   3.856   4.129
 7711TIP3   OH223071   6.448   3.873   4.328
 7711TIP3    H123072   6.512   3.849   4.395
 7711TIP3    H223073   6.363   3.861   4.370
 7712TIP3   OH223074   6.681   4.311   4.256
 7712TIP3    H123075   6.630   4.304   4.336
 7712TIP3    H223076   6.642   4.386   4.209
 7713TIP3   OH223077   6.348   4.406   2.782
 7713TIP3    H123078   6.308   4.393   2.695
 7713TIP3    H223079   6.431   4.450   2.763
 7714TIP3   OH223080   6.062   3.799   3.101
 7714TIP3    H123081   6.031   3.805   3.191
 7714TIP3    H223082   6.022   3.719   3.067
 7715TIP3   OH223083   6.195   4.205   3.371
 7715TIP3    H123084   6.163   4.295   3.372
 7715TIP3    H223085   6.260   4.203   3.300
 7716TIP3   OH223086   6.396   4.522   4.488
 7716TIP3    H123087   6.367   4.446   4.540
 7716TIP3    H223088   6.491   4.525   4.503
 7717TIP3   OH223089   5.637   4.309   4.369
 7717TIP3    H123090   5.729   4.336   4.368
 7717TIP3    H223091   5.639   4.222   4.410
 7718TIP3   OH223092   5.718   3.782   3.069
 7718TIP3    H123093   5.712   3.781   3.164
 7718TIP3    H223094   5.643   3.834   3.041
 7719TIP3   OH223095   5.285   3.836   3.949
 7719TIP3    H123096   5.351   3.873   4.008
 7719TIP3    H223097   5.321   3.848   3.862
 7720TIP3   OH223098   5.219   3.796   3.444
 7720TIP3    H123099   5.268   3.829   3.369
 7720TIP3    H223100   5.158   3.866   3.467
 7721TIP3   OH223101   6.449   4.540   4.032
 7721TIP3    H123102   6.451   4.483   3.956
 7721TIP3    H223103   6.401   4.490   4.099
 7722TIP3   OH223104   6.054   3.953   3.743
 7722TIP3    H123105   5.968   3.976   3.778
 7722TIP3    H223106   6.115   3.979   3.811
 7723TIP3   OH223107   5.474   3.963   3.742
 7723TIP3    H123108   5.422   3.988   3.666
 7723TIP3    H223109   5.532   3.893   3.710
 7724TIP3   OH223110   5.728   4.014   3.419
 7724TIP3    H123111   5.818   4.046   3.430
 7724TIP3    H223112   5.697   4.056   3.339
 7725TIP3   OH223113   6.535   4.064   3.902
 7725TIP3    H123114   6.527   4.081   3.996
 7725TIP3    H223115   6.465   4.002   3.883
 7726TIP3   OH223116   5.608   4.081   3.174
 7726TIP3    H123117   5.546   4.029   3.124
 7726TIP3    H223118   5.666   4.120   3.108
 7727TIP3   OH223119   6.734   5.754   4.142
 7727TIP3    H123120   6.728   5.771   4.049
 7727TIP3    H223121   6.811   5.802   4.171
 7728TIP3   OH223122   5.669   4.882   4.560
 7728TIP3    H123123   5.752   4.895   4.606
 7728TIP3    H223124   5.604   4.876   4.629
 7729TIP3   OH223125   5.658   3.765   3.683
 7729TIP3    H123126   5.627   3.695   3.740
 7729TIP3    H223127   5.696   3.720   3.608
 7730TIP3   OH223128   5.828   4.611   3.187
 7730TIP3    H123129   5.766   4.540   3.171
 7730TIP3    H223130   5.817   4.632   3.280
 7731TIP3   OH223131   6.744   4.842   3.819
 7731TIP3    H123132   6.764   4.893   3.740
 7731TIP3    H223133   6.661   4.800   3.800
 7732TIP3   OH223134   6.289   3.932   3.021
 7732TIP3    H123135   6.208   3.899   3.059
 7732TIP3    H223136   6.315   4.004   3.078
 7733TIP3   OH223137   6.233   4.919   4.177
 7733TIP3    H123138   6.264   4.895   4.264
 7733TIP3    H223139   6.204   5.010   4.186
 7734TIP3   OH223140   6.387   4.148   3.163
 7734TIP3    H123141   6.481   4.156   3.183
 7734TIP3    H223142   6.365   4.231   3.121
 7735TIP3   OH223143   5.993   4.746   3.004
 7735TIP3    H123144   5.960   4.834   3.020
 7735TIP3    H223145   5.949   4.691   3.070
 7736TIP3   OH223146   5.407   4.579   4.533
 7736TIP3    H123147   5.467   4.566   4.606
 7736TIP3    H223148   5.366   4.493   4.520
 7737TIP3   OH223149   6.169   4.675   4.497
 7737TIP3    H123150   6.119   4.640   4.423
 7737TIP3    H223151   6.254   4.633   4.490
 7738TIP3   OH223152   6.393   5.241   4.087
 7738TIP3    H123153   6.303   5.208   4.095
 7738TIP3    H223154   6.421   5.256   4.177
 7739TIP3   OH223155   6.805   4.253   2.989
 7739TIP3    H123156   6.748   4.205   2.928
 7739TIP3    H223157   6.806   4.342   2.956
 7740TIP3   OH223158   7.048   5.142   4.068
 7740TIP3    H123159   6.956   5.121   4.077
 7740TIP3    H223160   7.075   5.101   3.986
 7741TIP3   OH223161   6.530   5.072   2.918
 7741TIP3    H123162   6.495   5.006   2.978
 7741TIP3    H223163   6.542   5.025   2.836
 7742TIP3   OH223164   6.525   4.701   3.734
 7742TIP3    H123165   6.437   4.664   3.728
 7742TIP3    H223166   6.580   4.640   3.686
 7743TIP3   OH223167   5.641   4.928   3.491
 7743TIP3    H123168   5.660   5.006   3.438
 7743TIP3    H223169   5.554   4.901   3.464
 7744TIP3   OH223170   5.211   4.224   3.211
 7744TIP3    H123171   5.261   4.303   3.231
 7744TIP3    H223172   5.134   4.229   3.267
 7745TIP3   OH223173   5.766   4.668   3.447
 7745TIP3    H123174   5.737   4.753   3.478
 7745TIP3    H223175   5.786   4.618   3.527
 7746TIP3   OH223176   5.937   5.264   3.966
 7746TIP3    H123177   5.975   5.335   3.914
 7746TIP3    H223178   6.010   5.229   4.017
 7747TIP3   OH223179   5.566   5.172   3.352
 7747TIP3    H123180   5.483   5.176   3.398
 7747TIP3    H223181   5.602   5.261   3.358
 7748TIP3   OH223182   6.393   4.921   3.952
 7748TIP3    H123183   6.331   4.903   4.023
 7748TIP3    H223184   6.411   4.835   3.914
 7749TIP3   OH223185   6.281   4.802   2.829
 7749TIP3    H123186   6.338   4.783   2.904
 7749TIP3    H223187   6.193   4.777   2.859
 7750TIP3   OH223188   6.558   5.433   3.982
 7750TIP3    H123189   6.490   5.369   4.003
 7750TIP3    H223190   6.521   5.484   3.909
 7751TIP3   OH223191   6.607   5.270   2.622
 7751TIP3    H123192   6.631   5.332   2.553
 7751TIP3    H223193   6.534   5.312   2.667
 7752TIP3   OH223194   5.627   4.043   4.495
 7752TIP3    H123195   5.531   4.046   4.501
 7752TIP3    H223196   5.654   3.986   4.567
 7753TIP3   OH223197   6.453   4.744   3.039
 7753TIP3    H123198   6.434   4.683   3.111
 7753TIP3    H223199   6.547   4.734   3.023
 7754TIP3   OH223200   5.354   5.144   4.128
 7754TIP3    H123201   5.411   5.079   4.169
 7754TIP3    H223202   5.375   5.226   4.172
 7755TIP3   OH223203   5.633   4.774   2.819
 7755TIP3    H123204   5.651   4.684   2.792
 7755TIP3    H223205   5.621   4.768   2.914
 7756TIP3   OH223206   5.591   4.783   3.093
 7756TIP3    H123207   5.670   4.749   3.134
 7756TIP3    H223208   5.598   4.878   3.103
 7757TIP3   OH223209   5.307   4.471   3.289
 7757TIP3    H123210   5.248   4.518   3.348
 7757TIP3    H223211   5.337   4.536   3.226
 7758TIP3   OH223212   6.509   4.093   4.170
 7758TIP3    H123213   6.564   4.150   4.223
 7758TIP3    H223214   6.483   4.022   4.228
 7759TIP3   OH223215   6.358   3.845   3.356
 7759TIP3    H123216   6.322   3.890   3.279
 7759TIP3    H223217   6.414   3.910   3.398
 7760TIP3   OH223218   5.862   4.984   3.036
 7760TIP3    H123219   5.778   5.004   3.076
 7760TIP3    H223220   5.881   5.059   2.980
 7761TIP3   OH223221   6.007   4.037   3.471
 7761TIP3    H123222   6.071   4.100   3.437
 7761TIP3    H223223   6.027   4.031   3.565
 7762TIP3   OH223224   6.345   4.393   4.236
 7762TIP3    H123225   6.350   4.425   4.326
 7762TIP3    H223226   6.326   4.299   4.246
 7763TIP3   OH223227   6.180   3.759   3.557
 7763TIP3    H123228   6.159   3.833   3.614
 7763TIP3    H223229   6.245   3.793   3.495
 7764TIP3   OH223230   5.605   5.058   3.106
 7764TIP3    H123231   5.581   5.126   3.043
 7764TIP3    H223232   5.591   5.099   3.192
 7765TIP3   OH223233   5.702   3.753   3.346
 7765TIP3    H123234   5.690   3.841   3.381
 7765TIP3    H223235   5.796   3.738   3.351
 7766TIP3   OH223236   6.940   4.247   4.220
 7766TIP3    H123237   6.847   4.263   4.239
 7766TIP3    H223238   6.940   4.189   4.145
 7767TIP3   OH223239   6.580   4.455   3.603
 7767TIP3    H123240   6.487   4.477   3.609
 7767TIP3    H223241   6.597   4.402   3.681
 7768TIP3   OH223242   5.333   4.670   3.087
 7768TIP3    H123243   5.407   4.730   3.099
 7768TIP3    H223244   5.365   4.605   3.024
 7769TIP3   OH223245   5.261   3.948   3.214
 7769TIP3    H123246   5.281   4.041   3.220
 7769TIP3    H223247   5.166   3.944   3.204
 7770TIP3   OH223248   6.578   5.425   3.558
 7770TIP3    H123249   6.535   5.472   3.487
 7770TIP3    H223250   6.671   5.434   3.540
 7771TIP3   OH223251   5.642   3.685   4.093
 7771TIP3    H123252   5.616   3.654   4.006
 7771TIP3    H223253   5.634   3.609   4.149
 7772TIP3   OH223254   5.173   4.911   3.488
 7772TIP3    H123255   5.130   4.953   3.563
 7772TIP3    H223256   5.134   4.954   3.412
 7773TIP3   OH223257   5.361   5.459   4.550
 7773TIP3    H123258   5.444   5.463   4.598
 7773TIP3    H223259   5.343   5.365   4.541
 7774TIP3   OH223260   5.829   5.384   4.593
 7774TIP3    H123261   5.923   5.363   4.601
 7774TIP3    H223262   5.798   5.328   4.522
 7775TIP3   OH223263   5.798   4.971   2.716
 7775TIP3    H123264   5.748   4.902   2.760
 7775TIP3    H223265   5.873   4.926   2.678
 7776TIP3   OH223266   6.453   5.313   4.347
 7776TIP3    H123267   6.465   5.241   4.409
 7776TIP3    H223268   6.529   5.369   4.361
 7777TIP3   OH223269   6.238   5.006   2.642
 7777TIP3    H123270   6.271   4.942   2.705
 7777TIP3    H223271   6.299   5.001   2.568
 7778TIP3   OH223272   5.470   4.853   4.750
 7778TIP3    H123273   5.489   4.759   4.758
 7778TIP3    H223274   5.387   4.857   4.704
 7779TIP3   OH223275   5.459   4.476   2.941
 7779TIP3    H123276   5.510   4.450   3.018
 7779TIP3    H223277   5.524   4.488   2.872
 7780TIP3   OH223278   6.084   4.942   4.520
 7780TIP3    H123279   6.040   4.960   4.438
 7780TIP3    H223280   6.120   4.854   4.509
 7781TIP3   OH223281   5.972   4.686   2.740
 7781TIP3    H123282   5.972   4.704   2.834
 7781TIP3    H223283   5.974   4.590   2.734
 7782TIP3   OH223284   6.583   4.971   4.151
 7782TIP3    H123285   6.655   5.013   4.106
 7782TIP3    H223286   6.512   4.969   4.087
 7783TIP3   OH223287   5.598   4.597   4.737
 7783TIP3    H123288   5.673   4.581   4.680
 7783TIP3    H223289   5.636   4.618   4.823
 7784TIP3   OH223290   5.641   4.403   3.142
 7784TIP3    H123291   5.611   4.355   3.219
 7784TIP3    H223292   5.689   4.339   3.091
 7785TIP3   OH223293   5.892   4.432   4.403
 7785TIP3    H123294   5.832   4.504   4.424
 7785TIP3    H223295   5.951   4.467   4.337
 7786TIP3   OH223296   5.758   4.210   2.986
 7786TIP3    H123297   5.733   4.215   2.894
 7786TIP3    H223298   5.854   4.218   2.985
 7787TIP3   OH223299   6.458   4.863   4.518
 7787TIP3    H123300   6.511   4.817   4.453
 7787TIP3    H223301   6.450   4.800   4.590
 7788TIP3   OH223302   6.578   4.518   2.672
 7788TIP3    H123303   6.564   4.475   2.588
 7788TIP3    H223304   6.547   4.608   2.659
 7789TIP3   OH223305   6.070   4.241   4.485
 7789TIP3    H123306   6.071   4.171   4.420
 7789TIP3    H223307   6.008   4.305   4.449
 7790TIP3   OH223308   6.059   4.047   4.281
 7790TIP3    H123309   6.066   4.075   4.189
 7790TIP3    H223310   5.966   4.025   4.292
 7791TIP3   OH223311   6.079   4.573   4.258
 7791TIP3    H123312   6.137   4.533   4.192
 7791TIP3    H223313   6.027   4.635   4.208
 7792TIP3   OH223314   6.666   4.541   4.569
 7792TIP3    H123315   6.701   4.452   4.565
 7792TIP3    H223316   6.732   4.595   4.525
 7793TIP3   OH223317   6.700   4.802   4.324
 7793TIP3    H123318   6.646   4.863   4.274
 7793TIP3    H223319   6.788   4.814   4.290
 7794TIP3   OH223320   5.938   4.347   4.749
 7794TIP3    H123321   5.869   4.283   4.766
 7794TIP3    H223322   5.953   4.342   4.655
 7795TIP3   OH223323   6.178   3.826   4.401
 7795TIP3    H123324   6.143   3.904   4.358
 7795TIP3    H223325   6.112   3.759   4.386
 7796TIP3   OH223326   6.308   4.293   4.611
 7796TIP3    H123327   6.284   4.280   4.703
 7796TIP3    H223328   6.228   4.272   4.563
 7797TIP3   OH223329   6.557   4.261   4.489
 7797TIP3    H123330   6.476   4.255   4.539
 7797TIP3    H223331   6.624   4.227   4.548
 7798TIP3   OH223332   6.798   4.212   4.633
 7798TIP3    H123333   6.807   4.117   4.640
 7798TIP3    H223334   6.789   4.243   4.723
 7799TIP3   OH223335   5.770   4.129   4.817
 7799TIP3    H123336   5.776   4.041   4.778
 7799TIP3    H223337   5.808   4.119   4.904
 7800TIP3   OH223338   6.256   3.807   4.665
 7800TIP3    H123339   6.323   3.739   4.655
 7800TIP3    H223340   6.221   3.819   4.576
 7801TIP3   OH223341   6.343   4.019   4.817
 7801TIP3    H123342   6.316   3.950   4.758
 7801TIP3    H223343   6.271   4.083   4.814
 7802TIP3   OH223344   5.589   5.267   2.921
 7802TIP3    H123345   5.680   5.247   2.897
 7802TIP3    H223346   5.554   5.313   2.845
 7803TIP3   OH223347   5.062   4.641   3.127
 7803TIP3    H123348   5.154   4.662   3.115
 7803TIP3    H223349   5.050   4.557   3.084
 7804TIP3   OH223350   4.964   5.244   3.555
 7804TIP3    H123351   4.900   5.189   3.510
 7804TIP3    H223352   5.011   5.184   3.613
 7805TIP3   OH223353   5.111   5.084   3.725
 7805TIP3    H123354   5.099   5.023   3.798
 7805TIP3    H223355   5.165   5.155   3.761
 7806TIP3   OH223356   6.849   5.474   3.540
 7806TIP3    H123357   6.865   5.506   3.629
 7806TIP3    H223358   6.900   5.532   3.484
 7807TIP3   OH223359   6.867   5.512   3.820
 7807TIP3    H123360   6.818   5.430   3.818
 7807TIP3    H223361   6.937   5.496   3.883
 7808TIP3   OH223362   6.917   5.203   4.394
 7808TIP3    H123363   6.844   5.210   4.456
 7808TIP3    H223364   6.958   5.289   4.397
 7809TIP3   OH223365   6.730   4.715   3.007
 7809TIP3    H123366   6.790   4.784   2.978
 7809TIP3    H223367   6.772   4.677   3.084
 7810TIP3   OH223368   6.853   4.576   3.213
 7810TIP3    H123369   6.780   4.534   3.260
 7810TIP3    H223370   6.908   4.612   3.282
 7811TIP3   OH223371   6.920   4.981   3.641
 7811TIP3    H123372   6.964   4.912   3.592
 7811TIP3    H223373   6.910   5.053   3.578
 7812TIP3   OH223374   6.734   5.269   3.845
 7812TIP3    H123375   6.667   5.315   3.895
 7812TIP3    H223376   6.687   5.226   3.774
 7813TIP3   OH223377   6.784   4.494   2.852
 7813TIP3    H123378   6.714   4.491   2.787
 7813TIP3    H223379   6.763   4.569   2.907
 7814TIP3   OH223380   6.654   4.143   2.789
 7814TIP3    H123381   6.599   4.183   2.722
 7814TIP3    H223382   6.638   4.049   2.779
 7815TIP3   OH223383   6.652   4.438   3.339
 7815TIP3    H123384   6.653   4.344   3.321
 7815TIP3    H223385   6.631   4.444   3.433
 7816TIP3   OH223386   6.945   4.856   4.207
 7816TIP3    H123387   7.014   4.793   4.185
 7816TIP3    H223388   6.929   4.903   4.126
 7817TIP3   OH223389   7.132   4.650   4.202
 7817TIP3    H123390   7.054   4.609   4.241
 7817TIP3    H223391   7.205   4.593   4.228
 7818TIP3   OH223392   6.602   3.872   2.764
 7818TIP3    H123393   6.659   3.848   2.837
 7818TIP3    H223394   6.517   3.832   2.786
 7819TIP3   OH223395   6.663   4.171   3.227
 7819TIP3    H123396   6.700   4.087   3.253
 7819TIP3    H223397   6.716   4.199   3.153
 7820TIP3   OH223398   6.826   4.304   3.760
 7820TIP3    H123399   6.901   4.335   3.709
 7820TIP3    H223400   6.827   4.357   3.839
 7821TIP3   OH223401   6.894   4.481   3.971
 7821TIP3    H123402   6.820   4.507   4.027
 7821TIP3    H223403   6.921   4.562   3.928
 7822TIP3   OH223404   5.504   4.178   4.764
 7822TIP3    H123405   5.599   4.178   4.772
 7822TIP3    H223406   5.476   4.097   4.805
 7823TIP3   OH223407   7.346   4.077   4.520
 7823TIP3    H123408   7.406   4.016   4.478
 7823TIP3    H223409   7.308   4.127   4.448
 7824TIP3   OH223410   6.778   3.909   3.275
 7824TIP3    H123411   6.815   3.899   3.362
 7824TIP3    H223412   6.708   3.845   3.271
 7825TIP3   OH223413   5.483   3.916   4.128
 7825TIP3    H123414   5.537   3.837   4.125
 7825TIP3    H223415   5.543   3.988   4.108
 7826TIP3   OH223416   5.318   4.221   4.179
 7826TIP3    H123417   5.307   4.173   4.097
 7826TIP3    H223418   5.412   4.242   4.182
 7827TIP3   OH223419   7.202   4.198   4.321
 7827TIP3    H123420   7.120   4.237   4.352
 7827TIP3    H223421   7.174   4.124   4.267
 7828TIP3   OH223422   6.832   3.829   2.922
 7828TIP3    H123423   6.877   3.766   2.866
 7828TIP3    H223424   6.890   3.905   2.923
 7829TIP3   OH223425   5.252   3.636   3.665
 7829TIP3    H123426   5.165   3.629   3.704
 7829TIP3    H223427   5.243   3.705   3.599
 7830TIP3   OH223428   6.405   5.375   3.189
 7830TIP3    H123429   6.461   5.365   3.113
 7830TIP3    H223430   6.448   5.441   3.243
 7831TIP3   OH223431   5.470   3.725   4.488
 7831TIP3    H123432   5.422   3.728   4.571
 7831TIP3    H223433   5.415   3.773   4.427
 7832TIP3   OH223434   5.504   5.184   4.565
 7832TIP3    H123435   5.412   5.162   4.555
 7832TIP3    H223436   5.524   5.163   4.657
 7833TIP3   OH223437   5.707   5.226   4.116
 7833TIP3    H123438   5.657   5.301   4.083
 7833TIP3    H223439   5.792   5.232   4.073
 7834TIP3   OH223440   6.118   5.454   4.255
 7834TIP3    H123441   6.158   5.448   4.342
 7834TIP3    H223442   6.181   5.506   4.204
 7835TIP3   OH223443   6.304   5.608   4.120
 7835TIP3    H123444   6.362   5.552   4.070
 7835TIP3    H223445   6.362   5.662   4.174
 7836TIP3   OH223446   7.108   3.950   4.214
 7836TIP3    H123447   7.020   3.946   4.177
 7836TIP3    H223448   7.141   3.860   4.207
 7837TIP3   OH223449   5.370   5.470   4.158
 7837TIP3    H123450   5.279   5.492   4.137
 7837TIP3    H223451   5.394   5.532   4.227
 7838TIP3   OH223452   5.601   5.456   4.007
 7838TIP3    H123453   5.517   5.462   4.052
 7838TIP3    H223454   5.582   5.481   3.917
 7839TIP3   OH223455   6.020   5.472   3.799
 7839TIP3    H123456   5.953   5.488   3.733
 7839TIP3    H223457   6.033   5.557   3.841
 7840TIP3   OH223458   6.289   5.416   3.848
 7840TIP3    H123459   6.197   5.430   3.825
 7840TIP3    H223460   6.337   5.482   3.800
 7841TIP3   OH223461   6.491   5.593   3.757
 7841TIP3    H123462   6.485   5.678   3.714
 7841TIP3    H223463   6.520   5.533   3.688
 7842TIP3   OH223464   5.278   5.264   3.883
 7842TIP3    H123465   5.297   5.229   3.971
 7842TIP3    H223466   5.350   5.231   3.829
 7843TIP3   OH223467   5.480   5.154   3.741
 7843TIP3    H123468   5.491   5.076   3.795
 7843TIP3    H223469   5.566   5.196   3.741
 7844TIP3   OH223470   5.746   5.244   3.759
 7844TIP3    H123471   5.760   5.152   3.737
 7844TIP3    H223472   5.801   5.259   3.836
 7845TIP3   OH223473   6.337   3.874   3.859
 7845TIP3    H123474   6.281   3.805   3.895
 7845TIP3    H223475   6.401   3.828   3.805
 7846TIP3   OH223476   6.825   3.768   3.734
 7846TIP3    H123477   6.861   3.821   3.664
 7846TIP3    H223478   6.733   3.794   3.739
 7847TIP3   OH223479   6.935   3.857   3.500
 7847TIP3    H123480   7.005   3.801   3.468
 7847TIP3    H223481   6.967   3.946   3.487
 7848TIP3   OH223482   5.563   3.566   3.852
 7848TIP3    H123483   5.471   3.540   3.858
 7848TIP3    H223484   5.611   3.483   3.849
 7849TIP3   OH223485   5.357   3.453   3.486
 7849TIP3    H123486   5.390   3.509   3.416
 7849TIP3    H223487   5.325   3.513   3.552
 7850TIP3   OH223488   6.021   3.611   3.737
 7850TIP3    H123489   6.066   3.663   3.671
 7850TIP3    H223490   6.048   3.650   3.820
 7851TIP3   OH223491   6.542   3.758   3.713
 7851TIP3    H123492   6.539   3.729   3.622
 7851TIP3    H223493   6.538   3.677   3.764
 7852TIP3   OH223494   6.584   3.699   3.278
 7852TIP3    H123495   6.504   3.747   3.298
 7852TIP3    H223496   6.573   3.614   3.321
 7853TIP3   OH223497   5.058   5.038   3.275
 7853TIP3    H123498   4.975   5.002   3.245
 7853TIP3    H223499   5.058   5.128   3.242
 7854TIP3   OH223500   5.479   3.603   3.262
 7854TIP3    H123501   5.525   3.545   3.202
 7854TIP3    H223502   5.547   3.658   3.300
 7855TIP3   OH223503   5.977   3.789   3.364
 7855TIP3    H123504   6.039   3.746   3.423
 7855TIP3    H223505   5.975   3.880   3.392
 7856TIP3   OH223506   5.848   5.201   2.856
 7856TIP3    H123507   5.933   5.227   2.820
 7856TIP3    H223508   5.821   5.127   2.802
 7857TIP3   OH223509   6.558   5.340   2.957
 7857TIP3    H123510   6.553   5.245   2.948
 7857TIP3    H223511   6.513   5.373   2.880
 7858TIP3   OH223512   5.774   3.851   4.732
 7858TIP3    H123513   5.740   3.783   4.790
 7858TIP3    H223514   5.866   3.859   4.756
 7859TIP3   OH223515   6.025   3.859   4.853
 7859TIP3    H123516   6.104   3.838   4.802
 7859TIP3    H223517   6.019   3.789   4.917
 7860TIP3   OH223518   5.155   5.047   2.913
 7860TIP3    H123519   5.162   5.054   3.008
 7860TIP3    H223520   5.236   5.002   2.887
 7861TIP3   OH223521   6.854   3.939   4.644
 7861TIP3    H123522   6.870   3.910   4.734
 7861TIP3    H223523   6.939   3.934   4.601
 7862TIP3   OH223524   6.779   5.482   4.146
 7862TIP3    H123525   6.705   5.450   4.094
 7862TIP3    H223526   6.764   5.576   4.155
 7863TIP3   OH223527   8.001   4.858   2.928
 7863TIP3    H123528   8.007   4.948   2.895
 7863TIP3    H223529   7.908   4.839   2.929
 7864TIP3   OH223530   8.083   4.894   3.364
 7864TIP3    H123531   8.094   4.805   3.397
 7864TIP3    H223532   8.119   4.891   3.275
 7865TIP3   OH223533   7.353   4.738   3.644
 7865TIP3    H123534   7.375   4.670   3.708
 7865TIP3    H223535   7.415   4.808   3.662
 7866TIP3   OH223536   8.266   5.120   2.965
 7866TIP3    H123537   8.325   5.068   3.020
 7866TIP3    H223538   8.274   5.209   2.998
 7867TIP3   OH223539   7.333   5.164   3.367
 7867TIP3    H123540   7.323   5.069   3.376
 7867TIP3    H223541   7.427   5.177   3.353
 7868TIP3   OH223542   7.023   4.363   3.137
 7868TIP3    H123543   6.973   4.440   3.165
 7868TIP3    H223544   6.958   4.306   3.095
 7869TIP3   OH223545   7.092   4.648   3.343
 7869TIP3    H123546   7.140   4.571   3.373
 7869TIP3    H223547   7.129   4.667   3.256
 7870TIP3   OH223548   7.960   5.611   2.988
 7870TIP3    H123549   7.996   5.541   2.933
 7870TIP3    H223550   7.915   5.564   3.058
 7871TIP3   OH223551   7.883   5.090   3.362
 7871TIP3    H123552   7.886   5.018   3.298
 7871TIP3    H223553   7.894   5.169   3.309
 7872TIP3   OH223554   8.169   4.634   3.395
 7872TIP3    H123555   8.195   4.544   3.414
 7872TIP3    H223556   8.170   4.640   3.300
 7873TIP3   OH223557   7.600   4.234   3.320
 7873TIP3    H123558   7.580   4.305   3.260
 7873TIP3    H223559   7.552   4.159   3.286
 7874TIP3   OH223560   7.238   4.438   3.440
 7874TIP3    H123561   7.319   4.418   3.487
 7874TIP3    H223562   7.241   4.382   3.362
 7875TIP3   OH223563   7.654   4.642   3.231
 7875TIP3    H123564   7.744   4.615   3.254
 7875TIP3    H223565   7.612   4.562   3.201
 7876TIP3   OH223566   7.583   4.231   3.774
 7876TIP3    H123567   7.532   4.264   3.700
 7876TIP3    H223568   7.528   4.247   3.850
 7877TIP3   OH223569   7.936   5.074   2.763
 7877TIP3    H123570   7.896   5.043   2.682
 7877TIP3    H223571   7.885   5.151   2.787
 7878TIP3   OH223572   7.684   5.005   3.548
 7878TIP3    H123573   7.622   5.066   3.587
 7878TIP3    H223574   7.735   5.059   3.487
 7879TIP3   OH223575   7.480   4.339   3.542
 7879TIP3    H123576   7.540   4.409   3.566
 7879TIP3    H223577   7.522   4.296   3.468
 7880TIP3   OH223578   7.527   5.204   3.646
 7880TIP3    H123579   7.513   5.293   3.613
 7880TIP3    H223580   7.450   5.185   3.699
 7881TIP3   OH223581   6.912   4.899   2.890
 7881TIP3    H123582   6.875   4.914   2.804
 7881TIP3    H223583   6.936   4.986   2.923
 7882TIP3   OH223584   8.288   5.366   3.078
 7882TIP3    H123585   8.212   5.381   3.135
 7882TIP3    H223586   8.308   5.453   3.042
 7883TIP3   OH223587   7.911   3.932   3.494
 7883TIP3    H123588   7.897   3.841   3.520
 7883TIP3    H223589   7.834   3.978   3.529
 7884TIP3   OH223590   8.067   5.443   2.795
 7884TIP3    H123591   8.118   5.365   2.773
 7884TIP3    H223592   8.117   5.515   2.756
 7885TIP3   OH223593   8.176   5.193   2.722
 7885TIP3    H123594   8.091   5.150   2.726
 7885TIP3    H223595   8.218   5.172   2.805
 7886TIP3   OH223596   0.177   5.284   3.523
 7886TIP3    H123597   0.125   5.238   3.456
 7886TIP3    H223598   0.128   5.365   3.539
 7887TIP3   OH223599   7.869   4.718   2.721
 7887TIP3    H123600   7.785   4.762   2.713
 7887TIP3    H223601   7.901   4.711   2.631
 7888TIP3   OH223602   7.829   4.505   2.457
 7888TIP3    H123603   7.901   4.562   2.485
 7888TIP3    H223604   7.870   4.439   2.402
 7889TIP3   OH223605   8.201   4.820   2.707
 7889TIP3    H123606   8.209   4.907   2.747
 7889TIP3    H223607   8.289   4.801   2.673
 7890TIP3   OH223608   8.467   4.901   3.715
 7890TIP3    H123609   8.501   4.827   3.766
 7890TIP3    H223610   8.425   4.860   3.640
 7891TIP3   OH223611   7.444   4.777   3.119
 7891TIP3    H123612   7.405   4.720   3.053
 7891TIP3    H223613   7.520   4.728   3.151
 7892TIP3   OH223614   7.583   5.206   3.238
 7892TIP3    H123615   7.538   5.196   3.154
 7892TIP3    H223616   7.642   5.131   3.243
 7893TIP3   OH223617   7.627   4.744   3.490
 7893TIP3    H123618   7.632   4.724   3.397
 7893TIP3    H223619   7.635   4.839   3.495
 7894TIP3   OH223620   8.112   5.389   3.287
 7894TIP3    H123621   8.088   5.481   3.285
 7894TIP3    H223622   8.146   5.374   3.375
 7895TIP3   OH223623   7.730   5.302   3.807
 7895TIP3    H123624   7.675   5.365   3.852
 7895TIP3    H223625   7.669   5.252   3.752
 7896TIP3   OH223626   8.048   4.674   2.517
 7896TIP3    H123627   8.102   4.732   2.572
 7896TIP3    H223628   8.082   4.687   2.428
 7897TIP3   OH223629   7.486   4.861   3.924
 7897TIP3    H123630   7.492   4.951   3.958
 7897TIP3    H223631   7.394   4.837   3.936
 7898TIP3   OH223632   7.819   5.320   2.808
 7898TIP3    H123633   7.898   5.374   2.804
 7898TIP3    H223634   7.755   5.367   2.755
 7899TIP3   OH223635   7.526   5.469   3.889
 7899TIP3    H123636   7.498   5.477   3.798
 7899TIP3    H223637   7.446   5.449   3.937
 7900TIP3   OH223638   7.326   4.620   2.918
 7900TIP3    H123639   7.254   4.666   2.876
 7900TIP3    H223640   7.293   4.530   2.928
 7901TIP3   OH223641   8.496   5.268   2.069
 7901TIP3    H123642   8.415   5.305   2.031
 7901TIP3    H223643   8.504   5.182   2.029
 7902TIP3   OH223644   7.114   5.009   3.838
 7902TIP3    H123645   7.043   5.002   3.775
 7902TIP3    H223646   7.140   4.918   3.855
 7903TIP3   OH223647   6.957   5.215   3.478
 7903TIP3    H123648   7.050   5.234   3.492
 7903TIP3    H223649   6.911   5.291   3.513
 7904TIP3   OH223650   7.917   5.437   3.654
 7904TIP3    H123651   7.915   5.526   3.690
 7904TIP3    H223652   7.855   5.388   3.709
 7905TIP3   OH223653   7.698   5.549   2.625
 7905TIP3    H123654   7.655   5.526   2.543
 7905TIP3    H223655   7.663   5.635   2.647
 7906TIP3   OH223656   7.135   5.404   2.990
 7906TIP3    H123657   7.176   5.397   3.076
 7906TIP3    H223658   7.084   5.324   2.982
 7907TIP3   OH223659   7.886   5.483   2.239
 7907TIP3    H123660   7.927   5.405   2.200
 7907TIP3    H223661   7.926   5.490   2.325
 7908TIP3   OH223662   7.946   5.530   2.506
 7908TIP3    H123663   7.867   5.527   2.561
 7908TIP3    H223664   8.013   5.489   2.560
 7909TIP3   OH223665   7.313   5.197   3.813
 7909TIP3    H123666   7.360   5.188   3.897
 7909TIP3    H223667   7.241   5.134   3.820
 7910TIP3   OH223668   7.686   4.027   3.620
 7910TIP3    H123669   7.604   3.993   3.586
 7910TIP3    H223670   7.661   4.103   3.672
 7911TIP3   OH223671   8.147   4.209   3.873
 7911TIP3    H123672   8.202   4.150   3.924
 7911TIP3    H223673   8.057   4.179   3.890
 7912TIP3   OH223674   8.536   4.613   3.784
 7912TIP3    H123675   8.480   4.596   3.860
 7912TIP3    H223676   8.474   4.631   3.713
 7913TIP3   OH223677   8.186   4.735   2.298
 7913TIP3    H123678   8.189   4.681   2.219
 7913TIP3    H223679   8.276   4.763   2.313
 7914TIP3   OH223680   7.828   4.060   2.589
 7914TIP3    H123681   7.796   4.061   2.679
 7914TIP3    H223682   7.793   3.979   2.552
 7915TIP3   OH223683   7.647   4.534   3.652
 7915TIP3    H123684   7.582   4.544   3.722
 7915TIP3    H223685   7.631   4.608   3.594
 7916TIP3   OH223686   7.514   4.424   3.143
 7916TIP3    H123687   7.426   4.397   3.168
 7916TIP3    H223688   7.526   4.389   3.055
 7917TIP3   OH223689   7.984   4.528   2.876
 7917TIP3    H123690   7.908   4.555   2.824
 7917TIP3    H223691   8.032   4.469   2.819
 7918TIP3   OH223692   8.161   4.792   3.953
 7918TIP3    H123693   8.145   4.717   4.011
 7918TIP3    H223694   8.254   4.812   3.966
 7919TIP3   OH223695   8.096   4.490   3.141
 7919TIP3    H123696   8.045   4.528   3.069
 7919TIP3    H223697   8.139   4.414   3.102
 7920TIP3   OH223698   7.458   4.561   3.846
 7920TIP3    H123699   7.436   4.627   3.912
 7920TIP3    H223700   7.442   4.477   3.889
 7921TIP3   OH223701   7.507   4.035   2.556
 7921TIP3    H123702   7.497   4.039   2.651
 7921TIP3    H223703   7.432   4.083   2.522
 7922TIP3   OH223704   7.061   4.081   3.417
 7922TIP3    H123705   7.135   4.114   3.468
 7922TIP3    H223706   7.100   4.051   3.335
 7923TIP3   OH223707   6.996   4.058   2.934
 7923TIP3    H123708   7.039   4.093   2.856
 7923TIP3    H223709   6.932   4.125   2.958
 7924TIP3   OH223710   7.855   4.235   3.206
 7924TIP3    H123711   7.778   4.235   3.263
 7924TIP3    H223712   7.929   4.227   3.267
 7925TIP3   OH223713   7.281   4.297   3.208
 7925TIP3    H123714   7.192   4.304   3.175
 7925TIP3    H223715   7.307   4.207   3.189
 7926TIP3   OH223716   7.534   4.300   2.902
 7926TIP3    H123717   7.629   4.304   2.887
 7926TIP3    H223718   7.495   4.316   2.816
 7927TIP3   OH223719   8.250   4.375   3.427
 7927TIP3    H123720   8.179   4.349   3.487
 7927TIP3    H223721   8.242   4.315   3.353
 7928TIP3   OH223722   7.409   4.325   2.661
 7928TIP3    H123723   7.342   4.277   2.612
 7928TIP3    H223724   7.461   4.370   2.595
 7929TIP3   OH223725  -0.005   6.050   3.661
 7929TIP3    H123726  -0.024   6.023   3.571
 7929TIP3    H223727   0.054   6.125   3.651
 7930TIP3   OH223728   7.479   5.115   4.044
 7930TIP3    H123729   7.558   5.139   4.093
 7930TIP3    H223730   7.409   5.119   4.109
 7931TIP3   OH223731   7.893   4.550   3.312
 7931TIP3    H123732   7.969   4.523   3.262
 7931TIP3    H223733   7.906   4.513   3.399
 7932TIP3   OH223734   7.436   4.051   3.190
 7932TIP3    H123735   7.405   3.976   3.240
 7932TIP3    H223736   7.469   4.013   3.108
 7933TIP3   OH223737   7.900   4.466   3.577
 7933TIP3    H123738   7.810   4.490   3.596
 7933TIP3    H223739   7.953   4.534   3.618
 7934TIP3   OH223740   7.626   4.851   2.700
 7934TIP3    H123741   7.554   4.791   2.680
 7934TIP3    H223742   7.607   4.883   2.788
 7935TIP3   OH223743   0.073   5.060   3.375
 7935TIP3    H123744   0.140   5.025   3.316
 7935TIP3    H223745   0.013   5.108   3.318
 7936TIP3   OH223746   8.051   4.201   2.539
 7936TIP3    H123747   7.963   4.171   2.560
 7936TIP3    H223748   8.059   4.286   2.583
 7937TIP3   OH223749   8.049   5.152   3.637
 7937TIP3    H123750   8.076   5.133   3.727
 7937TIP3    H223751   8.038   5.247   3.635
 7938TIP3   OH223752   8.117   4.443   2.653
 7938TIP3    H123753   8.211   4.429   2.669
 7938TIP3    H223754   8.115   4.507   2.582
 7939TIP3   OH223755   7.370   4.889   3.366
 7939TIP3    H123756   7.386   4.851   3.280
 7939TIP3    H223757   7.364   4.814   3.425
 7940TIP3   OH223758   7.792   4.995   2.540
 7940TIP3    H123759   7.753   5.081   2.528
 7940TIP3    H223760   7.726   4.944   2.588
 7941TIP3   OH223761   7.229   4.765   3.965
 7941TIP3    H123762   7.221   4.746   4.059
 7941TIP3    H223763   7.150   4.727   3.926
 7942TIP3   OH223764   7.929   4.928   3.988
 7942TIP3    H123765   7.863   4.870   3.951
 7942TIP3    H223766   8.013   4.888   3.965
 7943TIP3   OH223767   8.171   5.419   3.552
 7943TIP3    H123768   8.080   5.439   3.577
 7943TIP3    H223769   8.223   5.449   3.626
 7944TIP3   OH223770   8.450   5.270   2.395
 7944TIP3    H123771   8.441   5.253   2.489
 7944TIP3    H223772   8.485   5.188   2.360
 7945TIP3   OH223773   7.444   5.191   3.000
 7945TIP3    H123774   7.445   5.268   2.943
 7945TIP3    H223775   7.351   5.171   3.010
 7946TIP3   OH223776   7.020   4.485   2.707
 7946TIP3    H123777   7.061   4.570   2.725
 7946TIP3    H223778   6.939   4.486   2.758
 7947TIP3   OH223779   7.577   4.952   2.949
 7947TIP3    H123780   7.539   5.039   2.958
 7947TIP3    H223781   7.527   4.898   3.011
 7948TIP3   OH223782   7.732   5.523   3.453
 7948TIP3    H123783   7.766   5.598   3.404
 7948TIP3    H223784   7.805   5.494   3.507
 7949TIP3   OH223785   7.372   5.419   2.850
 7949TIP3    H123786   7.284   5.425   2.886
 7949TIP3    H223787   7.405   5.509   2.851
 7950TIP3   OH223788   7.998   5.143   2.339
 7950TIP3    H123789   8.064   5.108   2.399
 7950TIP3    H223790   7.976   5.069   2.282
 7951TIP3   OH223791   8.297   5.725   3.469
 7951TIP3    H123792   8.222   5.674   3.438
 7951TIP3    H223793   8.307   5.794   3.404
 7952TIP3   OH223794   7.413   4.312   3.976
 7952TIP3    H123795   7.318   4.325   3.980
 7952TIP3    H223796   7.433   4.256   4.051
 7953TIP3   OH223797   8.189   5.012   2.479
 7953TIP3    H123798   8.158   4.937   2.531
 7953TIP3    H223799   8.262   4.977   2.428
 7954TIP3   OH223800   7.164   5.403   3.611
 7954TIP3    H123801   7.212   5.338   3.662
 7954TIP3    H223802   7.174   5.484   3.661
 7955TIP3   OH223803   7.424   5.036   2.307
 7955TIP3    H123804   7.449   4.949   2.277
 7955TIP3    H223805   7.406   5.025   2.401
 7956TIP3   OH223806   7.377   5.044   2.581
 7956TIP3    H123807   7.458   5.019   2.626
 7956TIP3    H223808   7.377   5.140   2.584
 7957TIP3   OH223809   7.114   4.737   2.786
 7957TIP3    H123810   7.046   4.781   2.838
 7957TIP3    H223811   7.130   4.797   2.713
 7958TIP3   OH223812   8.167   4.435   3.722
 7958TIP3    H123813   8.258   4.421   3.696
 7958TIP3    H223814   8.149   4.365   3.785
 7959TIP3   OH223815   8.048   4.094   2.825
 7959TIP3    H123816   8.084   4.065   2.741
 7959TIP3    H223817   8.109   4.162   2.854
 7960TIP3   OH223818   7.655   5.230   2.532
 7960TIP3    H123819   7.568   5.259   2.559
 7960TIP3    H223820   7.681   5.292   2.464
 7961TIP3   OH223821   7.815   4.301   2.945
 7961TIP3    H123822   7.889   4.359   2.926
 7961TIP3    H223823   7.820   4.287   3.039
 7962TIP3   OH223824   8.038   4.667   3.741
 7962TIP3    H123825   8.080   4.717   3.810
 7962TIP3    H223826   8.080   4.581   3.745
 7963TIP3   OH223827   7.969   4.021   3.070
 7963TIP3    H123828   7.938   4.102   3.111
 7963TIP3    H223829   8.001   4.049   2.984
 7964TIP3   OH223830   7.401   5.317   2.595
 7964TIP3    H123831   7.375   5.385   2.532
 7964TIP3    H223832   7.387   5.356   2.681
 7965TIP3   OH223833   7.479   4.028   2.836
 7965TIP3    H123834   7.464   4.117   2.866
 7965TIP3    H223835   7.574   4.015   2.845
 7966TIP3   OH223836   8.289   4.756   3.175
 7966TIP3    H123837   8.307   4.681   3.119
 7966TIP3    H223838   8.344   4.742   3.252
 7967TIP3   OH223839   7.124   4.922   2.575
 7967TIP3    H123840   7.195   4.987   2.584
 7967TIP3    H223841   7.157   4.860   2.510
 7968TIP3   OH223842   7.050   4.208   2.710
 7968TIP3    H123843   7.060   4.303   2.715
 7968TIP3    H223844   6.979   4.195   2.647
 7969TIP3   OH223845   8.344   5.637   3.030
 7969TIP3    H123846   8.299   5.687   2.962
 7969TIP3    H223847   8.434   5.671   3.028
 7970TIP3   OH223848   7.437   3.927   3.576
 7970TIP3    H123849   7.409   3.894   3.490
 7970TIP3    H223850   7.425   3.852   3.635
 7971TIP3   OH223851   6.968   5.173   2.967
 7971TIP3    H123852   6.919   5.206   3.042
 7971TIP3    H223853   6.928   5.214   2.891
 7972TIP3   OH223854   7.152   5.710   4.035
 7972TIP3    H123855   7.236   5.710   4.082
 7972TIP3    H223856   7.127   5.618   4.031
 7973TIP3   OH223857   7.625   5.637   4.084
 7973TIP3    H123858   7.717   5.611   4.091
 7973TIP3    H223859   7.590   5.584   4.013
 7974TIP3   OH223860   7.590   5.232   2.209
 7974TIP3    H123861   7.538   5.163   2.249
 7974TIP3    H223862   7.662   5.186   2.166
 7975TIP3   OH223863   8.271   5.514   3.785
 7975TIP3    H123864   8.243   5.467   3.863
 7975TIP3    H223865   8.285   5.604   3.815
 7976TIP3   OH223866   7.998   5.280   2.080
 7976TIP3    H123867   8.055   5.265   2.155
 7976TIP3    H223868   8.056   5.274   2.004
 7977TIP3   OH223869   7.271   5.112   4.230
 7977TIP3    H123870   7.286   5.018   4.238
 7977TIP3    H223871   7.186   5.119   4.187
 7978TIP3   OH223872   7.256   4.731   2.431
 7978TIP3    H123873   7.308   4.706   2.507
 7978TIP3    H223874   7.319   4.744   2.361
 7979TIP3   OH223875   7.888   5.203   4.007
 7979TIP3    H123876   7.838   5.225   3.929
 7979TIP3    H223877   7.910   5.110   3.996
 7980TIP3   OH223878   7.736   4.945   2.267
 7980TIP3    H123879   7.763   4.961   2.358
 7980TIP3    H223880   7.738   4.850   2.257
 7981TIP3   OH223881   7.393   4.858   4.234
 7981TIP3    H123882   7.469   4.814   4.195
 7981TIP3    H223883   7.422   4.881   4.322
 7982TIP3   OH223884   7.434   4.661   2.645
 7982TIP3    H123885   7.407   4.620   2.727
 7982TIP3    H223886   7.475   4.591   2.594
 7983TIP3   OH223887   7.737   4.757   3.865
 7983TIP3    H123888   7.654   4.794   3.895
 7983TIP3    H223889   7.717   4.721   3.778
 7984TIP3   OH223890   7.555   4.472   2.484
 7984TIP3    H123891   7.526   4.477   2.393
 7984TIP3    H223892   7.651   4.479   2.479
 7985TIP3   OH223893   8.241   5.128   3.994
 7985TIP3    H123894   8.324   5.159   4.030
 7985TIP3    H223895   8.210   5.063   4.056
 7986TIP3   OH223896   7.840   4.526   3.995
 7986TIP3    H123897   7.840   4.449   3.938
 7986TIP3    H223898   7.810   4.598   3.939
 7987TIP3   OH223899   7.842   4.311   3.809
 7987TIP3    H123900   7.876   4.342   3.725
 7987TIP3    H223901   7.750   4.292   3.793
 7988TIP3   OH223902   7.931   4.885   3.616
 7988TIP3    H123903   7.958   4.805   3.661
 7988TIP3    H223904   7.837   4.891   3.632
 7989TIP3   OH223905   8.425   4.781   4.063
 7989TIP3    H123906   8.398   4.690   4.047
 7989TIP3    H223907   8.520   4.780   4.051
 7990TIP3   OH223908   0.057   5.151   3.766
 7990TIP3    H123909  -0.020   5.206   3.749
 7990TIP3    H223910   0.027   5.062   3.747
 7991TIP3   OH223911   7.720   4.612   4.235
 7991TIP3    H123912   7.656   4.544   4.258
 7991TIP3    H223913   7.752   4.586   4.148
 7992TIP3   OH223914   7.919   4.060   3.910
 7992TIP3    H123915   7.870   4.137   3.880
 7992TIP3    H223916   7.862   3.986   3.891
 7993TIP3   OH223917   8.097   4.565   4.092
 7993TIP3    H123918   8.098   4.547   4.186
 7993TIP3    H223919   8.008   4.543   4.064
 7994TIP3   OH223920   8.339   4.541   3.960
 7994TIP3    H123921   8.247   4.534   3.987
 7994TIP3    H223922   8.386   4.481   4.017
 7995TIP3   OH223923   8.465   4.418   4.153
 7995TIP3    H123924   8.523   4.347   4.183
 7995TIP3    H223925   8.443   4.466   4.233
 7996TIP3   OH223926   7.574   4.381   4.301
 7996TIP3    H123927   7.575   4.293   4.265
 7996TIP3    H223928   7.610   4.371   4.390
 7997TIP3   OH223929   8.030   4.053   4.163
 7997TIP3    H123930   8.092   3.980   4.163
 7997TIP3    H223931   7.989   4.050   4.076
 7998TIP3   OH223932   8.113   4.272   4.312
 7998TIP3    H123933   8.098   4.205   4.245
 7998TIP3    H223934   8.042   4.335   4.299
 7999TIP3   OH223935   7.380   5.524   2.412
 7999TIP3    H123936   7.471   5.507   2.389
 7999TIP3    H223937   7.344   5.570   2.336
 8000TIP3   OH223938   6.852   4.899   2.606
 8000TIP3    H123939   6.946   4.917   2.596
 8000TIP3    H223940   6.840   4.814   2.564
 8001TIP3   OH223941   6.765   5.496   3.045
 8001TIP3    H123942   6.699   5.442   3.001
 8001TIP3    H223943   6.810   5.436   3.104
 8002TIP3   OH223944   6.906   5.332   3.218
 8002TIP3    H123945   6.894   5.265   3.285
 8002TIP3    H223946   6.954   5.401   3.263
 8003TIP3   OH223947   0.284   5.769   3.291
 8003TIP3    H123948   0.285   5.675   3.277
 8003TIP3    H223949   0.260   5.779   3.383
 8004TIP3   OH223950   0.125   5.549   3.851
 8004TIP3    H123951   0.074   5.536   3.932
 8004TIP3    H223952   0.187   5.477   3.851
 8005TIP3   OH223953   8.453   5.566   3.295
 8005TIP3    H123954   8.413   5.627   3.357
 8005TIP3    H223955   8.414   5.588   3.211
 8006TIP3   OH223956   0.015   4.633   2.852
 8006TIP3    H123957   0.105   4.607   2.867
 8006TIP3    H223958   0.020   4.725   2.825
 8007TIP3   OH223959   7.084   4.755   3.593
 8007TIP3    H123960   7.073   4.724   3.503
 8007TIP3    H223961   7.179   4.756   3.606
 8008TIP3   OH223962   7.310   4.454   4.277
 8008TIP3    H123963   7.405   4.442   4.281
 8008TIP3    H223964   7.274   4.369   4.304
 8009TIP3   OH223965   7.273   4.149   3.580
 8009TIP3    H123966   7.326   4.070   3.591
 8009TIP3    H223967   7.337   4.220   3.575
 8010TIP3   OH223968   7.064   4.414   3.664
 8010TIP3    H123969   7.112   4.404   3.582
 8010TIP3    H223970   7.068   4.508   3.682
 8011TIP3   OH223971   7.047   3.920   3.163
 8011TIP3    H123972   6.959   3.910   3.200
 8011TIP3    H223973   7.034   3.975   3.086
 8012TIP3   OH223974   8.203   5.645   2.673
 8012TIP3    H123975   8.245   5.625   2.589
 8012TIP3    H223976   8.260   5.710   2.713
 8013TIP3   OH223977   7.265   3.987   3.981
 8013TIP3    H123978   7.213   3.982   4.061
 8013TIP3    H223979   7.210   4.033   3.919
 8014TIP3   OH223980   7.307   5.427   4.055
 8014TIP3    H123981   7.213   5.415   4.041
 8014TIP3    H223982   7.319   5.416   4.149
 8015TIP3   OH223983   7.505   5.477   3.604
 8015TIP3    H123984   7.450   5.548   3.572
 8015TIP3    H223985   7.589   5.489   3.559
 8016TIP3   OH223986   7.919   5.698   3.743
 8016TIP3    H123987   7.964   5.693   3.827
 8016TIP3    H223988   7.973   5.757   3.691
 8017TIP3   OH223989   8.088   5.865   3.607
 8017TIP3    H123990   8.160   5.822   3.561
 8017TIP3    H223991   8.132   5.923   3.669
 8018TIP3   OH223992   7.168   5.727   3.647
 8018TIP3    H123993   7.077   5.744   3.623
 8018TIP3    H223994   7.188   5.792   3.714
 8019TIP3   OH223995   7.396   5.705   3.495
 8019TIP3    H123996   7.314   5.714   3.543
 8019TIP3    H223997   7.375   5.734   3.406
 8020TIP3   OH223998   7.809   5.732   3.285
 8020TIP3    H123999   7.736   5.746   3.225
 8020TIP3    H224000   7.825   5.817   3.325
 8021TIP3   OH224001   8.072   5.657   3.314
 8021TIP3    H124002   7.980   5.682   3.302
 8021TIP3    H224003   8.122   5.724   3.268
 8022TIP3   OH224004   8.255   5.834   3.215
 8022TIP3    H124005   8.265   5.926   3.192
 8022TIP3    H224006   8.286   5.786   3.137
 8023TIP3   OH224007   7.078   5.510   3.367
 8023TIP3    H124008   7.101   5.481   3.455
 8023TIP3    H224009   7.148   5.476   3.311
 8024TIP3   OH224010   7.277   5.392   3.226
 8024TIP3    H124011   7.287   5.311   3.277
 8024TIP3    H224012   7.363   5.433   3.229
 8025TIP3   OH224013   7.546   5.482   3.246
 8025TIP3    H124014   7.565   5.389   3.233
 8025TIP3    H224015   7.596   5.506   3.324
 8026TIP3   OH224016   8.086   4.157   3.331
 8026TIP3    H124017   8.079   4.067   3.362
 8026TIP3    H224018   8.166   4.158   3.279
 8027TIP3   OH224019   7.355   3.828   3.331
 8027TIP3    H124020   7.265   3.797   3.338
 8027TIP3    H224021   7.407   3.748   3.322
 8028TIP3   OH224022   7.165   3.724   2.990
 8028TIP3    H124023   7.189   3.775   2.913
 8028TIP3    H224024   7.129   3.788   3.052
 8029TIP3   OH224025   7.800   3.877   3.239
 8029TIP3    H124026   7.846   3.931   3.174
 8029TIP3    H224027   7.841   3.901   3.323
 8030TIP3   OH224028   6.852   5.299   2.754
 8030TIP3    H124029   6.768   5.265   2.723
 8030TIP3    H224030   6.854   5.389   2.722
 8031TIP3   OH224031   7.270   3.860   2.752
 8031TIP3    H124032   7.316   3.801   2.693
 8031TIP3    H224033   7.338   3.918   2.786
 8032TIP3   OH224034   7.750   4.047   2.856
 8032TIP3    H124035   7.822   3.990   2.885
 8032TIP3    H224036   7.778   4.135   2.882
 8033TIP3   OH224037   7.639   5.457   2.354
 8033TIP3    H124038   7.720   5.489   2.313
 8033TIP3    H224039   7.611   5.385   2.297
 8034TIP3   OH224040   8.374   5.613   2.442
 8034TIP3    H124041   8.406   5.523   2.428
 8034TIP3    H224042   8.311   5.627   2.371
 8035TIP3   OH224043   7.574   4.106   4.223
 8035TIP3    H124044   7.537   4.039   4.281
 8035TIP3    H224045   7.665   4.113   4.250
 8036TIP3   OH224046   7.821   4.115   4.346
 8036TIP3    H124047   7.899   4.094   4.294
 8036TIP3    H224048   7.815   4.044   4.411
 8037TIP3   OH224049   6.948   5.301   2.399
 8037TIP3    H124050   6.951   5.316   2.493
 8037TIP3    H224051   7.031   5.255   2.380
 8038TIP3   OH224052   8.478   5.777   3.672
 8038TIP3    H124053   8.413   5.767   3.602
 8038TIP3    H224054   8.489   5.872   3.679
 8039TIP3   OH224055   0.545   5.653   4.597
 8039TIP3    H124056   0.520   5.746   4.598
 8039TIP3    H224057   0.464   5.607   4.576
 8040TIP3   OH224058   0.534   5.655   4.914
 8040TIP3    H124059   0.552   5.678   5.005
 8040TIP3    H224060   0.514   5.561   4.917
 8041TIP3   OH224061   0.746   5.960   4.675
 8041TIP3    H124062   0.761   5.885   4.734
 8041TIP3    H224063   0.776   6.035   4.725
 8042TIP3   OH224064   0.445   6.427   4.712
 8042TIP3    H124065   0.506   6.378   4.656
 8042TIP3    H224066   0.360   6.387   4.696
 8043TIP3   OH224067   0.312   5.744   5.114
 8043TIP3    H124068   0.283   5.771   5.027
 8043TIP3    H224069   0.406   5.764   5.115
 8044TIP3   OH224070   1.334   5.185   5.020
 8044TIP3    H124071   1.354   5.268   5.062
 8044TIP3    H224072   1.358   5.197   4.929
 8045TIP3   OH224073   0.773   5.357   5.055
 8045TIP3    H124074   0.801   5.266   5.058
 8045TIP3    H224075   0.696   5.357   4.998
 8046TIP3   OH224076   0.778   5.092   4.625
 8046TIP3    H124077   0.843   5.087   4.695
 8046TIP3    H224078   0.825   5.134   4.552
 8047TIP3   OH224079   1.398   5.398   5.195
 8047TIP3    H124080   1.314   5.442   5.180
 8047TIP3    H224081   1.434   5.440   5.273
 8048TIP3   OH224082   0.400   5.869   4.474
 8048TIP3    H124083   0.338   5.833   4.411
 8048TIP3    H224084   0.352   5.939   4.517
 8049TIP3   OH224085   0.936   5.129   4.844
 8049TIP3    H124086   0.904   5.101   4.930
 8049TIP3    H224087   0.994   5.203   4.862
 8050TIP3   OH224088   0.795   6.193   4.829
 8050TIP3    H124089   0.715   6.195   4.882
 8050TIP3    H224090   0.799   6.280   4.788
 8051TIP3   OH224091   1.128   5.073   5.185
 8051TIP3    H124092   1.043   5.101   5.153
 8051TIP3    H224093   1.190   5.104   5.119
 8052TIP3   OH224094   0.429   4.734   5.160
 8052TIP3    H124095   0.438   4.639   5.170
 8052TIP3    H224096   0.452   4.770   5.246
 8053TIP3   OH224097   0.516   6.237   4.502
 8053TIP3    H124098   0.551   6.150   4.485
 8053TIP3    H224099   0.577   6.296   4.457
 8054TIP3   OH224100   0.648   6.009   4.423
 8054TIP3    H124101   0.592   5.933   4.409
 8054TIP3    H224102   0.698   5.988   4.502
 8055TIP3   OH224103   1.048   6.089   5.168
 8055TIP3    H124104   1.027   6.012   5.116
 8055TIP3    H224105   1.037   6.163   5.107
 8056TIP3   OH224106   0.357   5.515   4.442
 8056TIP3    H124107   0.264   5.536   4.438
 8056TIP3    H224108   0.385   5.510   4.350
 8057TIP3   OH224109   0.340   5.252   4.120
 8057TIP3    H124110   0.389   5.314   4.175
 8057TIP3    H224111   0.408   5.196   4.082
 8058TIP3   OH224112   1.236   5.741   5.019
 8058TIP3    H124113   1.152   5.788   5.023
 8058TIP3    H224114   1.269   5.760   4.931
 8059TIP3   OH224115   0.695   5.567   4.390
 8059TIP3    H124116   0.645   5.599   4.466
 8059TIP3    H224117   0.779   5.540   4.426
 8060TIP3   OH224118   0.957   5.615   5.341
 8060TIP3    H124119   0.948   5.697   5.390
 8060TIP3    H224120   0.872   5.602   5.299
 8061TIP3   OH224121   0.566   6.248   4.993
 8061TIP3    H124122   0.609   6.244   5.079
 8061TIP3    H224123   0.505   6.174   4.994
 8062TIP3   OH224124   0.527   5.427   4.229
 8062TIP3    H124125   0.585   5.484   4.279
 8062TIP3    H224126   0.553   5.440   4.138
 8063TIP3   OH224127   1.044   4.663   4.269
 8063TIP3    H124128   0.966   4.679   4.323
 8063TIP3    H224129   1.052   4.742   4.215
 8064TIP3   OH224130   0.848   6.040   3.826
 8064TIP3    H124131   0.848   6.134   3.807
 8064TIP3    H224132   0.939   6.013   3.814
 8065TIP3   OH224133   1.277   6.451   5.225
 8065TIP3    H124134   1.283   6.356   5.238
 8065TIP3    H224135   1.197   6.477   5.271
 8066TIP3   OH224136   0.358   6.259   3.925
 8066TIP3    H124137   0.421   6.198   3.885
 8066TIP3    H224138   0.399   6.286   4.006
 8067TIP3   OH224139   0.463   6.302   4.172
 8067TIP3    H124140   0.418   6.225   4.206
 8067TIP3    H224141   0.544   6.306   4.223
 8068TIP3   OH224142   1.172   5.569   5.511
 8068TIP3    H124143   1.097   5.583   5.453
 8068TIP3    H224144   1.190   5.475   5.506
 8069TIP3   OH224145   0.732   4.921   5.489
 8069TIP3    H124146   0.800   4.895   5.552
 8069TIP3    H224147   0.666   4.966   5.542
 8070TIP3   OH224148   0.925   5.338   5.394
 8070TIP3    H124149   0.895   5.332   5.485
 8070TIP3    H224150   0.923   5.431   5.374
 8071TIP3   OH224151   0.616   5.446   3.977
 8071TIP3    H124152   0.584   5.417   3.891
 8071TIP3    H224153   0.701   5.485   3.959
 8072TIP3   OH224154   0.300   4.891   4.209
 8072TIP3    H124155   0.309   4.891   4.305
 8072TIP3    H224156   0.279   4.800   4.188
 8073TIP3   OH224157   0.513   5.322   4.549
 8073TIP3    H124158   0.454   5.393   4.523
 8073TIP3    H224159   0.551   5.292   4.467
 8074TIP3   OH224160   0.696   5.570   5.616
 8074TIP3    H124161   0.657   5.522   5.689
 8074TIP3    H224162   0.786   5.588   5.644
 8075TIP3   OH224163   0.679   5.317   4.761
 8075TIP3    H124164   0.623   5.340   4.687
 8075TIP3    H224165   0.721   5.235   4.734
 8076TIP3   OH224166   0.717   5.533   5.249
 8076TIP3    H124167   0.742   5.471   5.180
 8076TIP3    H224168   0.653   5.486   5.302
 8077TIP3   OH224169   0.347   4.948   4.898
 8077TIP3    H124170   0.285   4.956   4.970
 8077TIP3    H224171   0.431   4.976   4.935
 8078TIP3   OH224172   0.807   5.086   5.094
 8078TIP3    H124173   0.779   5.110   5.182
 8078TIP3    H224174   0.737   5.030   5.061
 8079TIP3   OH224175   0.984   6.792   5.323
 8079TIP3    H124176   0.982   6.813   5.230
 8079TIP3    H224177   1.059   6.842   5.357
 8080TIP3   OH224178   0.506   5.373   4.955
 8080TIP3    H124179   0.555   5.350   4.876
 8080TIP3    H224180   0.430   5.315   4.953
 8081TIP3   OH224181   0.414   5.213   5.222
 8081TIP3    H124182   0.371   5.299   5.216
 8081TIP3    H224183   0.500   5.233   5.260
 8082TIP3   OH224184   1.002   5.884   4.989
 8082TIP3    H124185   1.039   5.937   4.918
 8082TIP3    H224186   0.924   5.844   4.950
 8083TIP3   OH224187   0.567   4.949   4.262
 8083TIP3    H124188   0.476   4.951   4.230
 8083TIP3    H224189   0.591   5.042   4.270
 8084TIP3   OH224190   0.504   6.062   5.357
 8084TIP3    H124191   0.509   5.968   5.375
 8084TIP3    H224192   0.466   6.100   5.436
 8085TIP3   OH224193   0.646   5.203   4.335
 8085TIP3    H124194   0.741   5.211   4.345
 8085TIP3    H224195   0.622   5.275   4.277
 8086TIP3   OH224196   0.182   5.809   4.291
 8086TIP3    H124197   0.108   5.869   4.281
 8086TIP3    H224198   0.157   5.751   4.363
 8087TIP3   OH224199   0.457   5.728   5.761
 8087TIP3    H124200   0.429   5.656   5.704
 8087TIP3    H224201   0.529   5.769   5.713
 8088TIP3   OH224202   0.641   6.278   5.256
 8088TIP3    H124203   0.598   6.195   5.275
 8088TIP3    H224204   0.670   6.311   5.341
 8089TIP3   OH224205   1.048   5.304   4.175
 8089TIP3    H124206   0.990   5.259   4.114
 8089TIP3    H224207   1.055   5.393   4.140
 8090TIP3   OH224208   1.294   6.168   5.254
 8090TIP3    H124209   1.199   6.156   5.252
 8090TIP3    H224210   1.324   6.138   5.168
 8091TIP3   OH224211   0.768   6.115   4.091
 8091TIP3    H124212   0.749   6.044   4.152
 8091TIP3    H224213   0.788   6.071   4.008
 8092TIP3   OH224214   0.786   5.756   4.865
 8092TIP3    H124215   0.694   5.734   4.872
 8092TIP3    H224216   0.828   5.675   4.836
 8093TIP3   OH224217   0.699   6.010   5.100
 8093TIP3    H124218   0.603   6.014   5.096
 8093TIP3    H224219   0.720   5.920   5.076
 8094TIP3   OH224220   0.553   5.876   4.008
 8094TIP3    H124221   0.603   5.843   4.082
 8094TIP3    H224222   0.498   5.802   3.981
 8095TIP3   OH224223   0.803   6.459   5.136
 8095TIP3    H124224   0.749   6.390   5.175
 8095TIP3    H224225   0.773   6.465   5.045
 8096TIP3   OH224226   0.860   6.313   3.791
 8096TIP3    H124227   0.890   6.376   3.725
 8096TIP3    H224228   0.788   6.357   3.835
 8097TIP3   OH224229   0.707   5.766   4.200
 8097TIP3    H124230   0.695   5.700   4.268
 8097TIP3    H224231   0.802   5.772   4.188
 8098TIP3   OH224232   0.724   5.158   5.348
 8098TIP3    H124233   0.805   5.206   5.366
 8098TIP3    H224234   0.734   5.077   5.398
 8099TIP3   OH224235   0.648   4.874   4.512
 8099TIP3    H124236   0.615   4.893   4.424
 8099TIP3    H224237   0.699   4.951   4.535
 8100TIP3   OH224238   0.227   5.082   4.684
 8100TIP3    H124239   0.322   5.087   4.671
 8100TIP3    H224240   0.217   5.044   4.772
 8101TIP3   OH224241   0.589   5.383   5.446
 8101TIP3    H124242   0.646   5.433   5.504
 8101TIP3    H224243   0.637   5.301   5.430
 8102TIP3   OH224244   0.495   4.774   4.722
 8102TIP3    H124245   0.462   4.852   4.767
 8102TIP3    H224246   0.554   4.808   4.655
 8103TIP3   OH224247   1.194   5.304   5.411
 8103TIP3    H124248   1.098   5.299   5.407
 8103TIP3    H224249   1.223   5.270   5.326
 8104TIP3   OH224250   0.879   5.503   4.794
 8104TIP3    H124251   0.801   5.447   4.796
 8104TIP3    H224252   0.943   5.457   4.848
 8105TIP3   OH224253   0.826   6.459   4.766
 8105TIP3    H124254   0.785   6.508   4.695
 8105TIP3    H224255   0.919   6.472   4.753
 8106TIP3   OH224256   0.722   6.363   5.499
 8106TIP3    H124257   0.713   6.299   5.569
 8106TIP3    H224258   0.788   6.425   5.530
 8107TIP3   OH224259   0.525   6.079   3.819
 8107TIP3    H124260   0.559   6.020   3.886
 8107TIP3    H224261   0.579   6.062   3.742
 8108TIP3   OH224262   0.164   5.812   3.944
 8108TIP3    H124263   0.158   5.778   4.033
 8108TIP3    H224264   0.142   5.738   3.888
 8109TIP3   OH224265   0.841   6.015   5.336
 8109TIP3    H124266   0.918   6.057   5.297
 8109TIP3    H224267   0.774   6.020   5.268
 8110TIP3   OH224268   8.416   5.298   4.159
 8110TIP3    H124269   8.487   5.252   4.115
 8110TIP3    H224270   8.461   5.352   4.225
 8111TIP3   OH224271   0.704   5.907   5.705
 8111TIP3    H124272   0.767   5.872   5.642
 8111TIP3    H224273   0.715   5.852   5.783
 8112TIP3   OH224274   0.830   5.566   3.852
 8112TIP3    H124275   0.826   5.520   3.768
 8112TIP3    H224276   0.797   5.654   3.833
 8113TIP3   OH224277   0.306   5.013   5.378
 8113TIP3    H124278   0.343   5.053   5.299
 8113TIP3    H224279   0.297   5.086   5.439
 8114TIP3   OH224280   0.446   5.796   5.385
 8114TIP3    H124281   0.448   5.704   5.410
 8114TIP3    H224282   0.353   5.815   5.371
 8115TIP3   OH224283   0.946   5.583   5.739
 8115TIP3    H124284   0.989   5.501   5.762
 8115TIP3    H224285   1.015   5.636   5.700
 8116TIP3   OH224286   0.962   5.843   5.501
 8116TIP3    H124287   0.906   5.904   5.454
 8116TIP3    H224288   1.050   5.860   5.467
 8117TIP3   OH224289   0.491   4.795   5.659
 8117TIP3    H124290   0.507   4.883   5.625
 8117TIP3    H224291   0.439   4.752   5.591
 8118TIP3   OH224292   0.620   5.378   5.794
 8118TIP3    H124293   0.653   5.362   5.882
 8118TIP3    H224294   0.531   5.342   5.795
 8119TIP3   OH224295   0.830   5.289   5.639
 8119TIP3    H124296   0.756   5.312   5.696
 8119TIP3    H224297   0.901   5.268   5.699
 8120TIP3   OH224298   1.045   5.252   5.811
 8120TIP3    H124299   1.060   5.159   5.824
 8120TIP3    H224300   1.035   5.288   5.899
 8121TIP3   OH224301   1.093   6.521   4.723
 8121TIP3    H124302   1.115   6.566   4.805
 8121TIP3    H224303   1.136   6.572   4.655
 8122TIP3   OH224304   1.110   6.559   5.006
 8122TIP3    H124305   1.074   6.472   4.990
 8122TIP3    H224306   1.184   6.544   5.065
 8123TIP3   OH224307   1.166   6.250   5.563
 8123TIP3    H124308   1.095   6.258   5.627
 8123TIP3    H224309   1.210   6.335   5.566
 8124TIP3   OH224310   0.983   5.765   4.182
 8124TIP3    H124311   1.044   5.832   4.151
 8124TIP3    H224312   1.028   5.725   4.257
 8125TIP3   OH224313   1.110   5.624   4.383
 8125TIP3    H124314   1.044   5.581   4.438
 8125TIP3    H224315   1.175   5.658   4.444
 8126TIP3   OH224316   1.164   6.023   4.814
 8126TIP3    H124317   1.217   5.955   4.772
 8126TIP3    H224318   1.166   6.096   4.752
 8127TIP3   OH224319   0.994   6.301   5.001
 8127TIP3    H124320   0.927   6.343   5.056
 8127TIP3    H224321   0.944   6.257   4.932
 8128TIP3   OH224322   1.036   5.539   4.031
 8128TIP3    H124323   0.966   5.537   3.965
 8128TIP3    H224324   1.017   5.617   4.083
 8129TIP3   OH224325   0.893   5.209   3.977
 8129TIP3    H124326   0.909   5.240   3.888
 8129TIP3    H224327   0.870   5.117   3.966
 8130TIP3   OH224328   0.920   5.477   4.521
 8130TIP3    H124329   0.929   5.382   4.513
 8130TIP3    H224330   0.909   5.491   4.615
 8131TIP3   OH224331   1.206   5.901   5.386
 8131TIP3    H124332   1.272   5.834   5.367
 8131TIP3    H224333   1.219   5.968   5.319
 8132TIP3   OH224334   1.378   5.689   5.376
 8132TIP3    H124335   1.307   5.649   5.426
 8132TIP3    H224336   1.454   5.635   5.396
 8133TIP3   OH224337   0.842   4.941   3.961
 8133TIP3    H124338   0.913   4.906   4.015
 8133TIP3    H224339   0.767   4.885   3.980
 8134TIP3   OH224340   0.921   5.201   4.407
 8134TIP3    H124341   0.965   5.117   4.416
 8134TIP3    H224342   0.966   5.243   4.333
 8135TIP3   OH224343   1.075   5.357   4.928
 8135TIP3    H124344   1.157   5.380   4.882
 8135TIP3    H224345   1.083   5.398   5.014
 8136TIP3   OH224346   1.148   5.516   5.152
 8136TIP3    H124347   1.081   5.549   5.211
 8136TIP3    H224348   1.179   5.593   5.104
 8137TIP3   OH224349   1.593   5.118   5.700
 8137TIP3    H124350   1.655   5.057   5.659
 8137TIP3    H224351   1.557   5.168   5.627
 8138TIP3   OH224352   1.023   4.947   4.460
 8138TIP3    H124353   1.069   4.935   4.543
 8138TIP3    H224354   0.970   4.868   4.451
 8139TIP3   OH224355   1.450   5.236   5.501
 8139TIP3    H124356   1.367   5.277   5.524
 8139TIP3    H224357   1.425   5.160   5.448
 8140TIP3   OH224358   1.081   4.874   4.096
 8140TIP3    H124359   1.125   4.812   4.038
 8140TIP3    H224360   1.138   4.951   4.096
 8141TIP3   OH224361   0.666   6.407   4.356
 8141TIP3    H124362   0.727   6.406   4.282
 8141TIP3    H224363   0.699   6.475   4.414
 8142TIP3   OH224364   0.620   6.652   5.253
 8142TIP3    H124365   0.687   6.583   5.259
 8142TIP3    H224366   0.637   6.709   5.328
 8143TIP3   OH224367   1.357   4.995   5.390
 8143TIP3    H124368   1.271   4.991   5.350
 8143TIP3    H224369   1.391   4.906   5.384
 8144TIP3   OH224370   0.515   6.513   4.965
 8144TIP3    H124371   0.528   6.421   4.987
 8144TIP3    H224372   0.501   6.514   4.871
 8145TIP3   OH224373   0.596   4.919   5.019
 8145TIP3    H124374   0.543   4.850   5.058
 8145TIP3    H224375   0.659   4.872   4.964
 8146TIP3   OH224376   1.075   4.821   4.920
 8146TIP3    H124377   1.113   4.869   4.846
 8146TIP3    H224378   0.981   4.837   4.913
 8147TIP3   OH224379   1.183   4.900   4.681
 8147TIP3    H124380   1.252   4.841   4.649
 8147TIP3    H224381   1.218   4.988   4.668
 8148TIP3   OH224382   0.307   4.658   4.914
 8148TIP3    H124383   0.389   4.664   4.866
 8148TIP3    H224384   0.328   4.689   5.002
 8149TIP3   OH224385   0.794   4.786   4.887
 8149TIP3    H124386   0.809   4.745   4.801
 8149TIP3    H224387   0.794   4.712   4.948
 8150TIP3   OH224388   0.859   4.717   4.460
 8150TIP3    H124389   0.777   4.765   4.472
 8150TIP3    H224390   0.844   4.633   4.504
 8151TIP3   OH224391   0.339   4.879   4.482
 8151TIP3    H124392   0.334   4.807   4.544
 8151TIP3    H224393   0.401   4.940   4.521
 8152TIP3   OH224394   0.811   6.382   4.126
 8152TIP3    H124395   0.802   6.287   4.115
 8152TIP3    H224396   0.772   6.419   4.047
 8153TIP3   OH224397   1.105   4.981   5.834
 8153TIP3    H124398   1.124   4.951   5.923
 8153TIP3    H224399   1.189   4.976   5.788
 8154TIP3   OH224400   1.026   6.521   5.319
 8154TIP3    H124401   0.953   6.494   5.262
 8154TIP3    H224402   1.014   6.615   5.330
 8155TIP3   OH224403   2.298   5.904   4.070
 8155TIP3    H124404   2.269   5.991   4.045
 8155TIP3    H224405   2.227   5.846   4.042
 8156TIP3   OH224406   2.295   5.899   4.482
 8156TIP3    H124407   2.343   5.882   4.562
 8156TIP3    H224408   2.253   5.816   4.461
 8157TIP3   OH224409   1.597   5.775   4.834
 8157TIP3    H124410   1.630   5.718   4.903
 8157TIP3    H224411   1.675   5.802   4.785
 8158TIP3   OH224412   2.556   6.208   4.159
 8158TIP3    H124413   2.546   6.141   4.226
 8158TIP3    H224414   2.582   6.287   4.207
 8159TIP3   OH224415   1.581   6.196   4.534
 8159TIP3    H124416   1.566   6.101   4.539
 8159TIP3    H224417   1.676   6.205   4.524
 8160TIP3   OH224418   1.272   5.399   4.319
 8160TIP3    H124419   1.232   5.483   4.338
 8160TIP3    H224420   1.204   5.349   4.275
 8161TIP3   OH224421   1.340   5.695   4.521
 8161TIP3    H124422   1.390   5.619   4.549
 8161TIP3    H224423   1.405   5.752   4.480
 8162TIP3   OH224424   2.210   6.646   4.175
 8162TIP3    H124425   2.244   6.578   4.117
 8162TIP3    H224426   2.206   6.605   4.261
 8163TIP3   OH224427   2.100   6.123   4.499
 8163TIP3    H124428   2.141   6.044   4.464
 8163TIP3    H224429   2.173   6.178   4.528
 8164TIP3   OH224430   3.124   5.444   4.507
 8164TIP3    H124431   3.146   5.526   4.551
 8164TIP3    H224432   3.150   5.459   4.416
 8165TIP3   OH224433   2.511   5.613   4.531
 8165TIP3    H124434   2.551   5.530   4.555
 8165TIP3    H224435   2.475   5.598   4.444
 8166TIP3   OH224436   1.863   5.274   4.492
 8166TIP3    H124437   1.843   5.347   4.434
 8166TIP3    H224438   1.810   5.201   4.458
 8167TIP3   OH224439   2.558   5.373   4.122
 8167TIP3    H124440   2.624   5.364   4.191
 8167TIP3    H224441   2.607   5.407   4.046
 8168TIP3   OH224442   1.487   5.481   4.616
 8168TIP3    H124443   1.570   5.465   4.660
 8168TIP3    H224444   1.492   5.430   4.535
 8169TIP3   OH224445   1.914   5.683   4.428
 8169TIP3    H124446   2.008   5.665   4.434
 8169TIP3    H224447   1.878   5.602   4.392
 8170TIP3   OH224448   3.190   5.655   4.681
 8170TIP3    H124449   3.106   5.700   4.671
 8170TIP3    H224450   3.229   5.694   4.759
 8171TIP3   OH224451   1.843   5.273   4.943
 8171TIP3    H124452   1.792   5.307   4.869
 8171TIP3    H224453   1.788   5.290   5.020
 8172TIP3   OH224454   2.190   6.118   3.931
 8172TIP3    H124455   2.150   6.096   3.848
 8172TIP3    H224456   2.142   6.196   3.961
 8173TIP3   OH224457   1.945   6.047   4.716
 8173TIP3    H124458   1.889   6.117   4.750
 8173TIP3    H224459   1.993   6.088   4.643
 8174TIP3   OH224460   2.729   5.390   4.334
 8174TIP3    H124461   2.692   5.367   4.420
 8174TIP3    H224462   2.787   5.464   4.352
 8175TIP3   OH224463   1.731   5.379   4.713
 8175TIP3    H124464   1.786   5.454   4.736
 8175TIP3    H224465   1.777   5.337   4.640
 8176TIP3   OH224466   1.783   6.248   4.818
 8176TIP3    H124467   1.767   6.336   4.785
 8176TIP3    H224468   1.706   6.227   4.871
 8177TIP3   OH224469   1.164   5.945   4.068
 8177TIP3    H124470   1.131   5.960   3.980
 8177TIP3    H224471   1.189   6.032   4.100
 8178TIP3   OH224472   2.604   6.452   4.302
 8178TIP3    H124473   2.516   6.444   4.341
 8178TIP3    H224474   2.602   6.537   4.258
 8179TIP3   OH224475   2.916   5.335   4.669
 8179TIP3    H124476   2.832   5.363   4.634
 8179TIP3    H224477   2.980   5.365   4.605
 8180TIP3   OH224478   2.187   4.985   4.659
 8180TIP3    H124479   2.174   4.894   4.685
 8180TIP3    H224480   2.113   5.032   4.699
 8181TIP3   OH224481   2.310   6.491   3.962
 8181TIP3    H124482   2.360   6.410   3.950
 8181TIP3    H224483   2.370   6.561   3.934
 8182TIP3   OH224484   2.457   6.269   3.907
 8182TIP3    H124485   2.409   6.191   3.880
 8182TIP3    H224486   2.500   6.243   3.989
 8183TIP3   OH224487   2.834   6.349   4.648
 8183TIP3    H124488   2.821   6.274   4.590
 8183TIP3    H224489   2.819   6.425   4.592
 8184TIP3   OH224490   2.125   5.748   3.915
 8184TIP3    H124491   2.044   5.796   3.895
 8184TIP3    H224492   2.172   5.746   3.831
 8185TIP3   OH224493   2.094   5.547   3.613
 8185TIP3    H124494   2.160   5.596   3.663
 8185TIP3    H224495   2.144   5.481   3.565
 8186TIP3   OH224496   3.025   6.000   4.507
 8186TIP3    H124497   2.942   6.047   4.509
 8186TIP3    H224498   3.061   6.017   4.420
 8187TIP3   OH224499   2.481   5.839   3.877
 8187TIP3    H124500   2.427   5.865   3.951
 8187TIP3    H224501   2.564   5.812   3.916
 8188TIP3   OH224502   2.710   5.865   4.816
 8188TIP3    H124503   2.710   5.948   4.863
 8188TIP3    H224504   2.628   5.864   4.767
 8189TIP3   OH224505   1.709   5.819   4.289
 8189TIP3    H124506   1.671   5.761   4.224
 8189TIP3    H224507   1.783   5.770   4.325
 8190TIP3   OH224508   1.843   6.241   4.429
 8190TIP3    H124509   1.822   6.221   4.338
 8190TIP3    H224510   1.930   6.204   4.442
 8191TIP3   OH224511   1.818   5.811   4.657
 8191TIP3    H124512   1.856   5.776   4.576
 8191TIP3    H224513   1.867   5.891   4.674
 8192TIP3   OH224514   2.365   6.444   4.431
 8192TIP3    H124515   2.353   6.524   4.482
 8192TIP3    H224516   2.351   6.373   4.494
 8193TIP3   OH224517   1.984   6.351   4.980
 8193TIP3    H124518   1.926   6.411   5.026
 8193TIP3    H224519   1.926   6.299   4.924
 8194TIP3   OH224520   2.314   5.697   3.710
 8194TIP3    H124521   2.373   5.753   3.759
 8194TIP3    H224522   2.340   5.708   3.619
 8195TIP3   OH224523   1.741   5.900   5.113
 8195TIP3    H124524   1.746   5.993   5.136
 8195TIP3    H224525   1.647   5.882   5.107
 8196TIP3   OH224526   2.064   6.363   3.977
 8196TIP3    H124527   2.146   6.413   3.981
 8196TIP3    H224528   2.001   6.424   3.940
 8197TIP3   OH224529   1.776   6.512   5.064
 8197TIP3    H124530   1.749   6.521   4.972
 8197TIP3    H224531   1.695   6.495   5.111
 8198TIP3   OH224532   2.827   4.925   3.765
 8198TIP3    H124533   2.749   4.946   3.816
 8198TIP3    H224534   2.841   5.002   3.710
 8199TIP3   OH224535   1.581   5.664   4.088
 8199TIP3    H124536   1.506   5.709   4.050
 8199TIP3    H224537   1.551   5.574   4.101
 8200TIP3   OH224538   2.650   6.302   3.317
 8200TIP3    H124539   2.651   6.395   3.297
 8200TIP3    H224540   2.738   6.271   3.298
 8201TIP3   OH224541   1.362   6.061   5.014
 8201TIP3    H124542   1.294   6.044   4.948
 8201TIP3    H224543   1.398   5.974   5.034
 8202TIP3   OH224544   1.215   6.252   4.655
 8202TIP3    H124545   1.310   6.261   4.653
 8202TIP3    H224546   1.184   6.332   4.698
 8203TIP3   OH224547   3.070   6.707   4.710
 8203TIP3    H124548   3.074   6.612   4.723
 8203TIP3    H224549   2.989   6.733   4.755
 8204TIP3   OH224550   2.173   6.489   4.836
 8204TIP3    H124551   2.169   6.580   4.865
 8204TIP3    H224552   2.106   6.445   4.888
 8205TIP3   OH224553   1.940   6.611   3.797
 8205TIP3    H124554   1.877   6.586   3.730
 8205TIP3    H224555   1.911   6.697   3.827
 8206TIP3   OH224556   1.384   6.449   4.172
 8206TIP3    H124557   1.428   6.442   4.257
 8206TIP3    H224558   1.336   6.367   4.163
 8207TIP3   OH224559   2.168   6.517   3.452
 8207TIP3    H124560   2.207   6.440   3.411
 8207TIP3    H224561   2.190   6.508   3.545
 8208TIP3   OH224562   2.196   6.578   3.713
 8208TIP3    H124563   2.108   6.581   3.752
 8208TIP3    H224564   2.253   6.549   3.783
 8209TIP3   OH224565   2.956   5.829   4.987
 8209TIP3    H124566   2.875   5.840   4.937
 8209TIP3    H224567   2.975   5.736   4.982
 8210TIP3   OH224568   1.566   6.243   4.986
 8210TIP3    H124569   1.614   6.233   5.068
 8210TIP3    H224570   1.493   6.182   4.994
 8211TIP3   OH224571   1.952   5.064   4.795
 8211TIP3    H124572   1.869   5.030   4.760
 8211TIP3    H224573   1.927   5.142   4.844
 8212TIP3   OH224574   2.482   5.176   4.994
 8212TIP3    H124575   2.542   5.144   5.062
 8212TIP3    H224576   2.395   5.161   5.031
 8213TIP3   OH224577   2.717   5.598   4.903
 8213TIP3    H124578   2.678   5.597   4.991
 8213TIP3    H224579   2.703   5.687   4.872
 8214TIP3   OH224580   2.393   5.709   3.450
 8214TIP3    H124581   2.351   5.697   3.365
 8214TIP3    H224582   2.476   5.752   3.431
 8215TIP3   OH224583   2.104   5.100   3.761
 8215TIP3    H124584   2.067   5.107   3.849
 8215TIP3    H224585   2.067   5.020   3.725
 8216TIP3   OH224586   1.889   5.587   4.804
 8216TIP3    H124587   1.843   5.597   4.887
 8216TIP3    H224588   1.870   5.667   4.756
 8217TIP3   OH224589   1.772   5.469   4.322
 8217TIP3    H124590   1.683   5.444   4.346
 8217TIP3    H224591   1.784   5.434   4.233
 8218TIP3   OH224592   2.256   5.546   4.049
 8218TIP3    H124593   2.207   5.617   4.008
 8218TIP3    H224594   2.314   5.514   3.980
 8219TIP3   OH224595   2.442   5.813   5.125
 8219TIP3    H124596   2.417   5.746   5.188
 8219TIP3    H224597   2.533   5.832   5.145
 8220TIP3   OH224598   2.418   5.562   4.278
 8220TIP3    H124599   2.353   5.588   4.214
 8220TIP3    H224600   2.463   5.488   4.238
 8221TIP3   OH224601   1.720   5.604   5.022
 8221TIP3    H124602   1.743   5.668   5.090
 8221TIP3    H224603   1.704   5.523   5.070
 8222TIP3   OH224604   1.769   5.083   3.733
 8222TIP3    H124605   1.756   5.085   3.828
 8222TIP3    H224606   1.691   5.124   3.697
 8223TIP3   OH224607   1.308   5.125   4.604
 8223TIP3    H124608   1.381   5.160   4.654
 8223TIP3    H224609   1.345   5.104   4.519
 8224TIP3   OH224610   1.239   5.106   4.114
 8224TIP3    H124611   1.284   5.138   4.036
 8224TIP3    H224612   1.176   5.175   4.136
 8225TIP3   OH224613   2.449   5.813   4.703
 8225TIP3    H124614   2.477   5.747   4.640
 8225TIP3    H224615   2.409   5.764   4.774
 8226TIP3   OH224616   2.129   5.265   4.376
 8226TIP3    H124617   2.051   5.266   4.431
 8226TIP3    H224618   2.202   5.260   4.437
 8227TIP3   OH224619   1.534   5.343   4.384
 8227TIP3    H124620   1.445   5.348   4.350
 8227TIP3    H224621   1.563   5.253   4.364
 8228TIP3   OH224622   1.790   5.344   4.079
 8228TIP3    H124623   1.884   5.355   4.064
 8228TIP3    H224624   1.750   5.363   3.994
 8229TIP3   OH224625   2.594   5.351   4.583
 8229TIP3    H124626   2.569   5.368   4.674
 8229TIP3    H224627   2.526   5.292   4.550
 8230TIP3   OH224628   1.664   5.372   3.838
 8230TIP3    H124629   1.599   5.322   3.788
 8230TIP3    H224630   1.718   5.415   3.771
 8231TIP3   OH224631   2.779   7.052   4.806
 8231TIP3    H124632   2.775   7.074   4.713
 8231TIP3    H224633   2.856   7.098   4.838
 8232TIP3   OH224634   1.724   6.160   5.221
 8232TIP3    H124635   1.805   6.185   5.266
 8232TIP3    H224636   1.656   6.168   5.287
 8233TIP3   OH224637   2.186   5.623   4.480
 8233TIP3    H124638   2.254   5.578   4.430
 8233TIP3    H224639   2.187   5.581   4.566
 8234TIP3   OH224640   1.684   5.097   4.366
 8234TIP3    H124641   1.653   5.021   4.415
 8234TIP3    H224642   1.712   5.060   4.282
 8235TIP3   OH224643   2.157   5.526   4.753
 8235TIP3    H124644   2.069   5.559   4.773
 8235TIP3    H224645   2.215   5.582   4.805
 8236TIP3   OH224646   1.890   5.893   3.859
 8236TIP3    H124647   1.818   5.833   3.839
 8236TIP3    H224648   1.869   5.929   3.945
 8237TIP3   OH224649   2.788   6.140   4.472
 8237TIP3    H124650   2.822   6.188   4.398
 8237TIP3    H224651   2.706   6.100   4.441
 8238TIP3   OH224652   2.356   5.204   3.755
 8238TIP3    H124653   2.263   5.183   3.754
 8238TIP3    H224654   2.360   5.298   3.769
 8239TIP3   OH224655   2.293   6.221   4.872
 8239TIP3    H124656   2.343   6.215   4.954
 8239TIP3    H224657   2.254   6.308   4.875
 8240TIP3   OH224658   2.418   5.466   3.832
 8240TIP3    H124659   2.514   5.469   3.842
 8240TIP3    H224660   2.396   5.543   3.780
 8241TIP3   OH224661   1.586   5.911   4.520
 8241TIP3    H124662   1.622   5.891   4.433
 8241TIP3    H224663   1.650   5.875   4.581
 8242TIP3   OH224664   2.042   6.053   3.698
 8242TIP3    H124665   1.994   6.136   3.699
 8242TIP3    H224666   1.988   5.994   3.751
 8243TIP3   OH224667   1.470   5.836   5.147
 8243TIP3    H124668   1.480   5.816   5.240
 8243TIP3    H224669   1.398   5.781   5.118
 8244TIP3   OH224670   2.204   5.963   5.166
 8244TIP3    H124671   2.138   5.905   5.129
 8244TIP3    H224672   2.288   5.926   5.136
 8245TIP3   OH224673   2.446   6.498   4.760
 8245TIP3    H124674   2.350   6.490   4.767
 8245TIP3    H224675   2.472   6.542   4.841
 8246TIP3   OH224676   2.841   5.556   3.658
 8246TIP3    H124677   2.784   5.510   3.596
 8246TIP3    H224678   2.846   5.645   3.623
 8247TIP3   OH224679   3.082   6.421   4.740
 8247TIP3    H124680   2.987   6.411   4.734
 8247TIP3    H224681   3.114   6.393   4.654
 8248TIP3   OH224682   2.558   6.371   3.578
 8248TIP3    H124683   2.541   6.300   3.641
 8248TIP3    H224684   2.584   6.326   3.498
 8249TIP3   OH224685   2.553   6.007   4.373
 8249TIP3    H124686   2.463   5.985   4.395
 8249TIP3    H224687   2.589   5.927   4.336
 8250TIP3   OH224688   1.700   6.239   4.175
 8250TIP3    H124689   1.697   6.317   4.119
 8250TIP3    H224690   1.608   6.223   4.197
 8251TIP3   OH224691   1.264   5.520   3.873
 8251TIP3    H124692   1.309   5.602   3.891
 8251TIP3    H224693   1.185   5.523   3.927
 8252TIP3   OH224694   1.804   5.995   4.094
 8252TIP3    H124695   1.781   6.085   4.119
 8252TIP3    H224696   1.775   5.941   4.167
 8253TIP3   OH224697   1.983   6.566   4.632
 8253TIP3    H124698   2.019   6.639   4.581
 8253TIP3    H224699   2.057   6.532   4.682
 8254TIP3   OH224700   1.617   6.469   4.024
 8254TIP3    H124701   1.531   6.474   4.065
 8254TIP3    H224702   1.650   6.559   4.028
 8255TIP3   OH224703   2.342   6.220   4.600
 8255TIP3    H124704   2.329   6.216   4.695
 8255TIP3    H224705   2.421   6.169   4.584
 8256TIP3   OH224706   2.326   6.111   3.479
 8256TIP3    H124707   2.379   6.087   3.555
 8256TIP3    H224708   2.242   6.066   3.494
 8257TIP3   OH224709   2.594   6.730   4.643
 8257TIP3    H124710   2.520   6.670   4.650
 8257TIP3    H224711   2.571   6.789   4.571
 8258TIP3   OH224712   2.656   6.583   3.290
 8258TIP3    H124713   2.704   6.655   3.249
 8258TIP3    H224714   2.568   6.618   3.306
 8259TIP3   OH224715   1.675   5.350   5.151
 8259TIP3    H124716   1.580   5.356   5.157
 8259TIP3    H224717   1.701   5.298   5.227
 8260TIP3   OH224718   2.500   6.037   3.680
 8260TIP3    H124719   2.484   5.973   3.750
 8260TIP3    H224720   2.595   6.039   3.670
 8261TIP3   OH224721   1.410   6.453   4.791
 8261TIP3    H124722   1.461   6.390   4.842
 8261TIP3    H224723   1.429   6.538   4.831
 8262TIP3   OH224724   1.683   6.072   3.482
 8262TIP3    H124725   1.692   5.981   3.455
 8262TIP3    H224726   1.665   6.067   3.576
 8263TIP3   OH224727   1.627   6.089   3.754
 8263TIP3    H124728   1.695   6.059   3.814
 8263TIP3    H224729   1.628   6.184   3.763
 8264TIP3   OH224730   1.360   5.775   3.961
 8264TIP3    H124731   1.295   5.819   4.015
 8264TIP3    H224732   1.378   5.836   3.889
 8265TIP3   OH224733   2.521   5.408   4.844
 8265TIP3    H124734   2.599   5.454   4.876
 8265TIP3    H224735   2.512   5.333   4.902
 8266TIP3   OH224736   2.411   5.156   4.026
 8266TIP3    H124737   2.392   5.174   3.934
 8266TIP3    H224738   2.454   5.235   4.057
 8267TIP3   OH224739   1.897   6.282   3.700
 8267TIP3    H124740   1.812   6.300   3.739
 8267TIP3    H224741   1.912   6.355   3.639
 8268TIP3   OH224742   2.072   5.352   4.117
 8268TIP3    H124743   2.134   5.420   4.092
 8268TIP3    H224744   2.090   5.335   4.210
 8269TIP3   OH224745   2.360   5.649   4.905
 8269TIP3    H124746   2.387   5.696   4.984
 8269TIP3    H224747   2.412   5.569   4.905
 8270TIP3   OH224748   2.227   5.057   4.209
 8270TIP3    H124749   2.204   5.134   4.261
 8270TIP3    H224750   2.294   5.088   4.149
 8271TIP3   OH224751   1.645   6.362   3.773
 8271TIP3    H124752   1.622   6.432   3.712
 8271TIP3    H224753   1.631   6.401   3.860
 8272TIP3   OH224754   1.741   5.072   4.013
 8272TIP3    H124755   1.730   5.162   4.042
 8272TIP3    H224756   1.835   5.056   4.017
 8273TIP3   OH224757   2.987   5.561   4.904
 8273TIP3    H124758   2.891   5.558   4.903
 8273TIP3    H224759   3.013   5.523   4.820
 8274TIP3   OH224760   2.645   5.751   4.280
 8274TIP3    H124761   2.568   5.694   4.292
 8274TIP3    H224762   2.714   5.709   4.332
 8275TIP3   OH224763   1.376   5.965   3.751
 8275TIP3    H124764   1.447   6.029   3.760
 8275TIP3    H224765   1.409   5.901   3.688
 8276TIP3   OH224766   1.301   5.244   3.888
 8276TIP3    H124767   1.303   5.340   3.883
 8276TIP3    H224768   1.246   5.217   3.815
 8277TIP3   OH224769   2.623   6.719   4.219
 8277TIP3    H124770   2.581   6.768   4.148
 8277TIP3    H224771   2.717   6.734   4.207
 8278TIP3   OH224772   1.690   4.975   4.753
 8278TIP3    H124773   1.662   4.943   4.667
 8278TIP3    H224774   1.678   4.901   4.812
 8279TIP3   OH224775   1.217   6.218   4.145
 8279TIP3    H124776   1.169   6.253   4.220
 8279TIP3    H224777   1.176   6.261   4.069
 8280TIP3   OH224778   1.406   6.757   5.209
 8280TIP3    H124779   1.487   6.764   5.259
 8280TIP3    H224780   1.389   6.663   5.203
 8281TIP3   OH224781   1.871   6.685   5.259
 8281TIP3    H124782   1.965   6.672   5.267
 8281TIP3    H224783   1.844   6.627   5.187
 8282TIP3   OH224784   1.847   6.265   3.375
 8282TIP3    H124785   1.795   6.198   3.419
 8282TIP3    H224786   1.920   6.217   3.336
 8283TIP3   OH224787   2.502   6.616   5.002
 8283TIP3    H124788   2.507   6.546   5.067
 8283TIP3    H224789   2.577   6.672   5.020
 8284TIP3   OH224790   2.281   6.319   3.305
 8284TIP3    H124791   2.313   6.251   3.364
 8284TIP3    H224792   2.338   6.313   3.228
 8285TIP3   OH224793   1.520   6.154   5.411
 8285TIP3    H124794   1.537   6.060   5.419
 8285TIP3    H224795   1.435   6.159   5.368
 8286TIP3   OH224796   1.508   5.776   3.608
 8286TIP3    H124797   1.560   5.749   3.683
 8286TIP3    H224798   1.571   5.784   3.537
 8287TIP3   OH224799   2.135   6.241   5.184
 8287TIP3    H124800   2.091   6.263   5.102
 8287TIP3    H224801   2.170   6.153   5.170
 8288TIP3   OH224802   2.052   5.994   3.429
 8288TIP3    H124803   2.037   6.006   3.523
 8288TIP3    H224804   2.043   5.900   3.416
 8289TIP3   OH224805   2.612   6.273   4.796
 8289TIP3    H124806   2.690   6.304   4.750
 8289TIP3    H224807   2.547   6.341   4.781
 8290TIP3   OH224808   1.634   5.893   5.408
 8290TIP3    H124809   1.711   5.881   5.353
 8290TIP3    H224810   1.669   5.919   5.493
 8291TIP3   OH224811   1.688   5.708   3.816
 8291TIP3    H124812   1.664   5.673   3.903
 8291TIP3    H224813   1.732   5.635   3.773
 8292TIP3   OH224814   1.987   5.778   5.064
 8292TIP3    H124815   1.906   5.828   5.073
 8292TIP3    H224816   2.025   5.810   4.982
 8293TIP3   OH224817   1.819   5.516   3.662
 8293TIP3    H124818   1.788   5.519   3.571
 8293TIP3    H224819   1.914   5.521   3.655
 8294TIP3   OH224820   2.491   6.164   5.170
 8294TIP3    H124821   2.564   6.128   5.118
 8294TIP3    H224822   2.488   6.108   5.248
 8295TIP3   OH224823   2.619   5.823   3.337
 8295TIP3    H124824   2.606   5.779   3.253
 8295TIP3    H224825   2.592   5.913   3.321
 8296TIP3   OH224826   2.102   5.557   5.176
 8296TIP3    H124827   2.103   5.484   5.115
 8296TIP3    H224828   2.064   5.629   5.127
 8297TIP3   OH224829   2.104   5.352   4.979
 8297TIP3    H124830   2.132   5.392   4.896
 8297TIP3    H224831   2.012   5.329   4.964
 8298TIP3   OH224832   2.119   5.885   4.853
 8298TIP3    H124833   2.208   5.912   4.831
 8298TIP3    H224834   2.063   5.947   4.807
 8299TIP3   OH224835   2.708   5.858   5.225
 8299TIP3    H124836   2.763   5.781   5.240
 8299TIP3    H224837   2.770   5.927   5.201
 8300TIP3   OH224838   2.742   6.104   4.964
 8300TIP3    H124839   2.686   6.163   4.913
 8300TIP3    H224840   2.831   6.121   4.933
 8301TIP3   OH224841   1.983   5.647   5.417
 8301TIP3    H124842   1.913   5.585   5.436
 8301TIP3    H224843   2.012   5.626   5.329
 8302TIP3   OH224844   2.222   5.116   5.070
 8302TIP3    H124845   2.180   5.197   5.041
 8302TIP3    H224846   2.155   5.048   5.056
 8303TIP3   OH224847   2.359   5.599   5.276
 8303TIP3    H124848   2.344   5.589   5.370
 8303TIP3    H224849   2.274   5.580   5.237
 8304TIP3   OH224850   2.604   5.550   5.145
 8304TIP3    H124851   2.526   5.554   5.199
 8304TIP3    H224852   2.674   5.522   5.205
 8305TIP3   OH224853   2.828   5.485   5.308
 8305TIP3    H124854   2.816   5.403   5.355
 8305TIP3    H224855   2.827   5.552   5.377
 8306TIP3   OH224856   1.816   5.428   5.480
 8306TIP3    H124857   1.822   5.339   5.446
 8306TIP3    H224858   1.854   5.422   5.568
 8307TIP3   OH224859   2.314   5.108   5.329
 8307TIP3    H124860   2.384   5.043   5.323
 8307TIP3    H224861   2.275   5.111   5.242
 8308TIP3   OH224862   2.391   5.323   5.480
 8308TIP3    H124863   2.364   5.253   5.422
 8308TIP3    H224864   2.318   5.385   5.479
 8309TIP3   OH224865   1.639   6.570   3.587
 8309TIP3    H124866   1.727   6.549   3.556
 8309TIP3    H224867   1.598   6.617   3.514
 8310TIP3   OH224868   1.105   5.947   3.790
 8310TIP3    H124869   1.198   5.965   3.776
 8310TIP3    H224870   1.090   5.864   3.746
 8311TIP3   OH224871   1.014   6.537   4.223
 8311TIP3    H124872   0.951   6.483   4.175
 8311TIP3    H224873   1.058   6.476   4.282
 8312TIP3   OH224874   1.152   6.372   4.396
 8312TIP3    H124875   1.142   6.306   4.465
 8312TIP3    H224876   1.204   6.441   4.437
 8313TIP3   OH224877   2.887   6.790   4.203
 8313TIP3    H124878   2.910   6.819   4.291
 8313TIP3    H224879   2.949   6.835   4.145
 8314TIP3   OH224880   2.908   6.813   4.486
 8314TIP3    H124881   2.862   6.730   4.480
 8314TIP3    H224882   2.980   6.797   4.547
 8315TIP3   OH224883   2.955   6.503   5.058
 8315TIP3    H124884   2.885   6.512   5.122
 8315TIP3    H224885   3.001   6.587   5.060
 8316TIP3   OH224886   2.779   6.022   3.668
 8316TIP3    H124887   2.841   6.088   3.637
 8316TIP3    H224888   2.822   5.982   3.744
 8317TIP3   OH224889   2.904   5.878   3.870
 8317TIP3    H124890   2.838   5.839   3.927
 8317TIP3    H224891   2.970   5.913   3.930
 8318TIP3   OH224892   2.958   6.276   4.300
 8318TIP3    H124893   3.012   6.208   4.261
 8318TIP3    H224894   2.959   6.348   4.237
 8319TIP3   OH224895   2.771   6.569   4.495
 8319TIP3    H124896   2.703   6.613   4.547
 8319TIP3    H224897   2.723   6.526   4.424
 8320TIP3   OH224898   2.826   5.795   3.517
 8320TIP3    H124899   2.755   5.795   3.452
 8320TIP3    H224900   2.808   5.872   3.571
 8321TIP3   OH224901   2.684   5.450   3.461
 8321TIP3    H124902   2.641   5.488   3.385
 8321TIP3    H224903   2.672   5.356   3.451
 8322TIP3   OH224904   2.706   5.739   4.009
 8322TIP3    H124905   2.714   5.644   3.997
 8322TIP3    H224906   2.689   5.750   4.103
 8323TIP3   OH224907   1.334   5.807   4.772
 8323TIP3    H124908   1.324   5.773   4.683
 8323TIP3    H224909   1.428   5.807   4.788
 8324TIP3   OH224910   2.998   6.158   4.871
 8324TIP3    H124911   3.064   6.091   4.854
 8324TIP3    H224912   3.018   6.228   4.808
 8325TIP3   OH224913   3.172   5.945   4.865
 8325TIP3    H124914   3.098   5.906   4.911
 8325TIP3    H224915   3.246   5.888   4.885
 8326TIP3   OH224916   2.641   5.180   3.436
 8326TIP3    H124917   2.707   5.152   3.499
 8326TIP3    H224918   2.561   5.135   3.463
 8327TIP3   OH224919   2.706   5.461   3.894
 8327TIP3    H124920   2.749   5.377   3.908
 8327TIP3    H224921   2.752   5.500   3.820
 8328TIP3   OH224922   2.860   5.625   4.413
 8328TIP3    H124923   2.941   5.644   4.365
 8328TIP3    H224924   2.874   5.663   4.500
 8329TIP3   OH224925   2.934   5.775   4.643
 8329TIP3    H124926   2.860   5.806   4.694
 8329TIP3    H224927   2.967   5.853   4.597
 8330TIP3   OH224928   1.552   5.483   5.425
 8330TIP3    H124929   1.646   5.481   5.440
 8330TIP3    H224930   1.520   5.402   5.465
 8331TIP3   OH224931   3.408   5.377   5.189
 8331TIP3    H124932   3.464   5.316   5.141
 8331TIP3    H224933   3.353   5.417   5.121
 8332TIP3   OH224934   2.817   5.210   3.945
 8332TIP3    H124935   2.863   5.195   4.027
 8332TIP3    H224936   2.755   5.137   3.938
 8333TIP3   OH224937   1.520   5.194   4.774
 8333TIP3    H124938   1.576   5.117   4.777
 8333TIP3    H224939   1.580   5.267   4.758
 8334TIP3   OH224940   1.313   5.461   4.837
 8334TIP3    H124941   1.363   5.453   4.756
 8334TIP3    H224942   1.335   5.548   4.870
 8335TIP3   OH224943   3.240   5.485   4.998
 8335TIP3    H124944   3.155   5.527   5.008
 8335TIP3    H224945   3.222   5.406   4.947
 8336TIP3   OH224946   2.874   5.129   3.585
 8336TIP3    H124947   2.918   5.067   3.527
 8336TIP3    H224948   2.932   5.205   3.587
 8337TIP3   OH224949   1.298   4.970   4.342
 8337TIP3    H124950   1.209   4.954   4.375
 8337TIP3    H224951   1.286   5.024   4.264
 8338TIP3   OH224952   2.443   6.694   3.839
 8338TIP3    H124953   2.505   6.677   3.768
 8338TIP3    H224954   2.491   6.753   3.898
 8339TIP3   OH224955   1.518   5.026   5.156
 8339TIP3    H124956   1.469   5.025   5.238
 8339TIP3    H224957   1.461   5.074   5.095
 8340TIP3   OH224958   1.554   6.475   5.228
 8340TIP3    H124959   1.460   6.457   5.220
 8340TIP3    H224960   1.571   6.472   5.322
 8341TIP3   OH224961   1.754   6.522   4.779
 8341TIP3    H124962   1.702   6.595   4.746
 8341TIP3    H224963   1.839   6.532   4.737
 8342TIP3   OH224964   2.166   6.756   4.915
 8342TIP3    H124965   2.203   6.751   5.003
 8342TIP3    H224966   2.229   6.809   4.866
 8343TIP3   OH224967   2.356   6.911   4.787
 8343TIP3    H124968   2.422   6.859   4.742
 8343TIP3    H224969   2.406   6.969   4.844
 8344TIP3   OH224970   3.160   5.256   4.862
 8344TIP3    H124971   3.071   5.245   4.831
 8344TIP3    H224972   3.196   5.167   4.868
 8345TIP3   OH224973   1.422   6.761   4.825
 8345TIP3    H124974   1.331   6.777   4.801
 8345TIP3    H224975   1.443   6.829   4.889
 8346TIP3   OH224976   1.649   6.752   4.669
 8346TIP3    H124977   1.567   6.758   4.717
 8346TIP3    H224978   1.627   6.781   4.580
 8347TIP3   OH224979   2.068   6.772   4.464
 8347TIP3    H124980   1.997   6.787   4.402
 8347TIP3    H224981   2.080   6.856   4.508
 8348TIP3   OH224982   2.333   6.707   4.515
 8348TIP3    H124983   2.242   6.728   4.498
 8348TIP3    H224984   2.383   6.777   4.472
 8349TIP3   OH224985   2.533   6.887   4.420
 8349TIP3    H124986   2.530   6.974   4.380
 8349TIP3    H224987   2.564   6.829   4.350
 8350TIP3   OH224988   1.323   6.548   4.542
 8350TIP3    H124989   1.345   6.524   4.632
 8350TIP3    H224990   1.397   6.516   4.490
 8351TIP3   OH224991   1.529   6.433   4.406
 8351TIP3    H124992   1.541   6.350   4.453
 8351TIP3    H224993   1.616   6.473   4.408
 8352TIP3   OH224994   1.798   6.520   4.424
 8352TIP3    H124995   1.817   6.427   4.412
 8352TIP3    H224996   1.849   6.545   4.501
 8353TIP3   OH224997   2.363   5.178   4.510
 8353TIP3    H124998   2.320   5.106   4.556
 8353TIP3    H224999   2.431   5.135   4.457
 8354TIP3   OH225000   2.865   5.068   4.395
 8354TIP3    H125001   2.905   5.118   4.323
 8354TIP3    H225002   2.774   5.098   4.398
 8355TIP3   OH225003   2.978   5.158   4.163
 8355TIP3    H125004   3.046   5.099   4.132
 8355TIP3    H225005   3.015   5.246   4.152
 8356TIP3   OH225006   1.602   4.874   4.511
 8356TIP3    H125007   1.512   4.843   4.516
 8356TIP3    H225008   1.654   4.794   4.502
 8357TIP3   OH225009   1.423   4.773   4.169
 8357TIP3    H125010   1.446   4.821   4.090
 8357TIP3    H225011   1.386   4.839   4.228
 8358TIP3   OH225012   2.071   4.915   4.402
 8358TIP3    H125013   2.120   4.959   4.332
 8358TIP3    H225014   2.110   4.948   4.483
 8359TIP3   OH225015   2.577   5.060   4.380
 8359TIP3    H125016   2.587   5.025   4.292
 8359TIP3    H225017   2.584   4.984   4.437
 8360TIP3   OH225018   2.631   4.999   3.947
 8360TIP3    H125019   2.551   5.046   3.968
 8360TIP3    H225020   2.619   4.912   3.986
 8361TIP3   OH225021   1.101   6.343   3.930
 8361TIP3    H125022   1.019   6.309   3.897
 8361TIP3    H225023   1.103   6.434   3.900
 8362TIP3   OH225024   1.526   4.904   3.932
 8362TIP3    H125025   1.570   4.845   3.872
 8362TIP3    H225026   1.595   4.962   3.964
 8363TIP3   OH225027   2.016   5.100   4.024
 8363TIP3    H125028   2.075   5.049   4.078
 8363TIP3    H225029   2.032   5.191   4.050
 8364TIP3   OH225030   1.893   6.492   3.515
 8364TIP3    H125031   1.984   6.510   3.490
 8364TIP3    H225032   1.866   6.420   3.458
 8365TIP3   OH225033   2.595   6.639   3.611
 8365TIP3    H125034   2.590   6.543   3.611
 8365TIP3    H225035   2.564   6.664   3.524
 8366TIP3   OH225036   1.822   5.152   5.397
 8366TIP3    H125037   1.786   5.086   5.455
 8366TIP3    H225038   1.914   5.159   5.422
 8367TIP3   OH225039   2.071   5.159   5.520
 8367TIP3    H125040   2.152   5.136   5.476
 8367TIP3    H225041   2.060   5.091   5.587
 8368TIP3   OH225042   1.198   6.347   3.578
 8368TIP3    H125043   1.198   6.358   3.673
 8368TIP3    H225044   1.280   6.300   3.559
 8369TIP3   OH225045   2.819   6.778   4.806
 8369TIP3    H125046   2.744   6.749   4.756
 8369TIP3    H225047   2.806   6.873   4.815
 8370TIP3   OH225048   4.095   6.162   3.556
 8370TIP3    H125049   4.068   6.252   3.535
 8370TIP3    H225050   4.024   6.107   3.523
 8371TIP3   OH225051   4.094   6.156   3.970
 8371TIP3    H125052   4.141   6.136   4.051
 8371TIP3    H225053   4.051   6.073   3.947
 8372TIP3   OH225054   3.392   6.030   4.322
 8372TIP3    H125055   3.426   5.973   4.392
 8372TIP3    H225056   3.470   6.057   4.274
 8373TIP3   OH225057   4.356   6.463   3.647
 8373TIP3    H125058   4.343   6.398   3.715
 8373TIP3    H225059   4.380   6.543   3.693
 8374TIP3   OH225060   3.375   6.452   4.022
 8374TIP3    H125061   3.361   6.357   4.026
 8374TIP3    H225062   3.469   6.462   4.009
 8375TIP3   OH225063   3.067   5.653   3.803
 8375TIP3    H125064   3.028   5.738   3.824
 8375TIP3    H225065   2.997   5.604   3.761
 8376TIP3   OH225066   3.137   5.953   4.007
 8376TIP3    H125067   3.186   5.876   4.036
 8376TIP3    H225068   3.202   6.011   3.969
 8377TIP3   OH225069   4.008   6.903   3.655
 8377TIP3    H125070   4.039   6.837   3.594
 8377TIP3    H225071   4.000   6.857   3.739
 8378TIP3   OH225072   3.894   6.380   3.985
 8378TIP3    H125073   3.935   6.302   3.948
 8378TIP3    H225074   3.968   6.435   4.013
 8379TIP3   OH225075   4.923   5.702   3.990
 8379TIP3    H125076   4.944   5.785   4.033
 8379TIP3    H225077   4.951   5.714   3.900
 8380TIP3   OH225078   4.309   5.871   4.017
 8380TIP3    H125079   4.347   5.787   4.042
 8380TIP3    H225080   4.271   5.855   3.931
 8381TIP3   OH225081   3.658   5.532   3.980
 8381TIP3    H125082   3.639   5.605   3.921
 8381TIP3    H225083   3.605   5.459   3.947
 8382TIP3   OH225084   4.352   5.628   3.610
 8382TIP3    H125085   4.417   5.619   3.680
 8382TIP3    H225086   4.401   5.663   3.536
 8383TIP3   OH225087   3.282   5.738   4.103
 8383TIP3    H125088   3.365   5.722   4.148
 8383TIP3    H225089   3.289   5.687   4.022
 8384TIP3   OH225090   3.710   5.940   3.916
 8384TIP3    H125091   3.804   5.923   3.922
 8384TIP3    H225092   3.674   5.859   3.879
 8385TIP3   OH225093   4.987   5.916   4.164
 8385TIP3    H125094   4.899   5.953   4.155
 8385TIP3    H225095   5.020   5.951   4.247
 8386TIP3   OH225096   3.641   5.527   4.428
 8386TIP3    H125097   3.589   5.562   4.356
 8386TIP3    H225098   3.588   5.543   4.506
 8387TIP3   OH225099   3.999   6.391   3.431
 8387TIP3    H125100   3.962   6.361   3.348
 8387TIP3    H225101   3.941   6.462   3.459
 8388TIP3   OH225102   3.742   6.303   4.203
 8388TIP3    H125103   3.686   6.373   4.237
 8388TIP3    H225104   3.789   6.344   4.129
 8389TIP3   OH225105   4.524   5.646   3.822
 8389TIP3    H125106   4.487   5.623   3.907
 8389TIP3    H225107   4.582   5.720   3.840
 8390TIP3   OH225108   3.526   5.637   4.201
 8390TIP3    H125109   3.582   5.711   4.225
 8390TIP3    H225110   3.572   5.595   4.129
 8391TIP3   OH225111   3.579   6.504   4.305
 8391TIP3    H125112   3.563   6.592   4.271
 8391TIP3    H225113   3.502   6.483   4.357
 8392TIP3   OH225114   2.961   6.201   3.551
 8392TIP3    H125115   2.929   6.220   3.463
 8392TIP3    H225116   2.988   6.286   3.585
 8393TIP3   OH225117   4.402   6.708   3.790
 8393TIP3    H125118   4.315   6.701   3.828
 8393TIP3    H225119   4.400   6.792   3.743
 8394TIP3   OH225120   4.718   5.598   4.159
 8394TIP3    H125121   4.632   5.622   4.124
 8394TIP3    H225122   4.779   5.625   4.090
 8395TIP3   OH225123   3.985   5.221   4.150
 8395TIP3    H125124   3.978   5.129   4.175
 8395TIP3    H225125   3.909   5.263   4.191
 8396TIP3   OH225126   4.104   6.744   3.448
 8396TIP3    H125127   4.156   6.664   3.436
 8396TIP3    H225128   4.162   6.814   3.417
 8397TIP3   OH225129   4.246   6.515   3.396
 8397TIP3    H125130   4.170   6.457   3.398
 8397TIP3    H225131   4.296   6.492   3.475
 8398TIP3   OH225132   4.632   6.606   4.137
 8398TIP3    H125133   4.619   6.530   4.080
 8398TIP3    H225134   4.616   6.682   4.081
 8399TIP3   OH225135   3.923   6.010   3.399
 8399TIP3    H125136   3.841   6.056   3.380
 8399TIP3    H225137   3.967   6.005   3.314
 8400TIP3   OH225138   3.891   5.766   3.146
 8400TIP3    H125139   3.952   5.835   3.173
 8400TIP3    H225140   3.936   5.721   3.075
 8401TIP3   OH225141   4.820   6.257   3.992
 8401TIP3    H125142   4.737   6.304   3.994
 8401TIP3    H225143   4.855   6.273   3.905
 8402TIP3   OH225144   4.278   6.092   3.364
 8402TIP3    H125145   4.222   6.121   3.437
 8402TIP3    H225146   4.361   6.068   3.406
 8403TIP3   OH225147   4.507   6.127   4.302
 8403TIP3    H125148   4.505   6.210   4.350
 8403TIP3    H225149   4.424   6.125   4.254
 8404TIP3   OH225150   3.505   6.077   3.778
 8404TIP3    H125151   3.468   6.019   3.711
 8404TIP3    H225152   3.579   6.028   3.814
 8405TIP3   OH225153   3.636   6.498   3.916
 8405TIP3    H125154   3.613   6.480   3.824
 8405TIP3    H225155   3.723   6.460   3.927
 8406TIP3   OH225156   3.613   6.068   4.145
 8406TIP3    H125157   3.650   6.033   4.064
 8406TIP3    H225158   3.663   6.147   4.162
 8407TIP3   OH225159   4.164   6.701   3.920
 8407TIP3    H125160   4.150   6.780   3.972
 8407TIP3    H225161   4.149   6.629   3.982
 8408TIP3   OH225162   3.779   6.608   4.467
 8408TIP3    H125163   3.720   6.667   4.513
 8408TIP3    H225164   3.721   6.556   4.411
 8409TIP3   OH225165   4.114   5.946   3.195
 8409TIP3    H125166   4.170   6.009   3.241
 8409TIP3    H225167   4.138   5.957   3.103
 8410TIP3   OH225168   3.537   6.161   4.597
 8410TIP3    H125169   3.540   6.253   4.622
 8410TIP3    H225170   3.443   6.141   4.591
 8411TIP3   OH225171   3.854   6.628   3.469
 8411TIP3    H125172   3.937   6.675   3.468
 8411TIP3    H225173   3.796   6.679   3.413
 8412TIP3   OH225174   3.571   6.770   4.551
 8412TIP3    H125175   3.544   6.777   4.460
 8412TIP3    H225176   3.489   6.752   4.599
 8413TIP3   OH225177   4.621   5.184   3.245
 8413TIP3    H125178   4.544   5.204   3.298
 8413TIP3    H225179   4.635   5.262   3.192
 8414TIP3   OH225180   3.380   5.922   3.576
 8414TIP3    H125181   3.305   5.967   3.537
 8414TIP3    H225182   3.351   5.832   3.587
 8415TIP3   OH225183   4.435   6.553   2.801
 8415TIP3    H125184   4.431   6.647   2.785
 8415TIP3    H225185   4.527   6.530   2.787
 8416TIP3   OH225186   3.157   6.318   4.499
 8416TIP3    H125187   3.090   6.299   4.434
 8416TIP3    H225188   3.193   6.232   4.522
 8417TIP3   OH225189   3.018   6.503   4.136
 8417TIP3    H125190   3.113   6.503   4.127
 8417TIP3    H225191   2.999   6.581   4.189
 8418TIP3   OH225192   4.866   6.962   4.201
 8418TIP3    H125193   4.868   6.867   4.211
 8418TIP3    H225194   4.784   6.988   4.244
 8419TIP3   OH225195   3.970   6.745   4.324
 8419TIP3    H125196   3.965   6.836   4.351
 8419TIP3    H225197   3.902   6.701   4.375
 8420TIP3   OH225198   3.746   6.853   3.281
 8420TIP3    H125199   3.701   6.832   3.198
 8420TIP3    H225200   3.710   6.939   3.305
 8421TIP3   OH225201   3.180   6.706   3.660
 8421TIP3    H125202   3.227   6.700   3.743
 8421TIP3    H225203   3.136   6.622   3.650
 8422TIP3   OH225204   3.948   6.780   2.910
 8422TIP3    H125205   3.997   6.706   2.876
 8422TIP3    H225206   3.981   6.792   2.999
 8423TIP3   OH225207   3.999   6.825   3.180
 8423TIP3    H125208   3.913   6.828   3.221
 8423TIP3    H225209   4.057   6.788   3.246
 8424TIP3   OH225210   4.750   6.084   4.466
 8424TIP3    H125211   4.670   6.093   4.414
 8424TIP3    H225212   4.770   5.990   4.463
 8425TIP3   OH225213   3.361   6.501   4.473
 8425TIP3    H125214   3.410   6.490   4.555
 8425TIP3    H225215   3.289   6.439   4.480
 8426TIP3   OH225216   3.749   5.318   4.275
 8426TIP3    H125217   3.664   5.286   4.243
 8426TIP3    H225218   3.728   5.397   4.323
 8427TIP3   OH225219   4.292   5.432   4.477
 8427TIP3    H125220   4.363   5.405   4.535
 8427TIP3    H225221   4.212   5.412   4.525
 8428TIP3   OH225222   4.515   5.862   4.393
 8428TIP3    H125223   4.473   5.858   4.478
 8428TIP3    H225224   4.497   5.950   4.360
 8429TIP3   OH225225   4.204   5.930   2.929
 8429TIP3    H125226   4.151   5.932   2.849
 8429TIP3    H225227   4.271   5.998   2.915
 8430TIP3   OH225228   3.900   5.353   3.248
 8430TIP3    H125229   3.865   5.361   3.336
 8430TIP3    H225230   3.861   5.273   3.213
 8431TIP3   OH225231   3.686   5.844   4.291
 8431TIP3    H125232   3.640   5.853   4.374
 8431TIP3    H225233   3.666   5.924   4.243
 8432TIP3   OH225234   3.569   5.725   3.808
 8432TIP3    H125235   3.479   5.701   3.832
 8432TIP3    H225236   3.581   5.690   3.720
 8433TIP3   OH225237   4.048   5.805   3.537
 8433TIP3    H125238   4.000   5.877   3.495
 8433TIP3    H225239   4.105   5.771   3.468
 8434TIP3   OH225240   4.236   6.073   4.615
 8434TIP3    H125241   4.208   6.004   4.675
 8434TIP3    H225242   4.329   6.085   4.634
 8435TIP3   OH225243   4.214   5.821   3.764
 8435TIP3    H125244   4.148   5.847   3.701
 8435TIP3    H225245   4.257   5.745   3.724
 8436TIP3   OH225246   3.517   5.858   4.510
 8436TIP3    H125247   3.547   5.919   4.577
 8436TIP3    H225248   3.501   5.776   4.556
 8437TIP3   OH225249   3.561   5.339   3.218
 8437TIP3    H125250   3.553   5.343   3.313
 8437TIP3    H225251   3.485   5.388   3.185
 8438TIP3   OH225252   3.108   5.382   4.090
 8438TIP3    H125253   3.179   5.418   4.144
 8438TIP3    H225254   3.149   5.363   4.006
 8439TIP3   OH225255   3.033   5.361   3.598
 8439TIP3    H125256   3.078   5.395   3.521
 8439TIP3    H225257   2.971   5.430   3.623
 8440TIP3   OH225258   4.247   6.069   4.191
 8440TIP3    H125259   4.275   6.003   4.128
 8440TIP3    H225260   4.207   6.019   4.263
 8441TIP3   OH225261   3.926   5.523   3.864
 8441TIP3    H125262   3.848   5.523   3.920
 8441TIP3    H225263   3.999   5.512   3.924
 8442TIP3   OH225264   3.331   5.600   3.871
 8442TIP3    H125265   3.242   5.603   3.836
 8442TIP3    H225266   3.360   5.510   3.852
 8443TIP3   OH225267   3.586   5.599   3.565
 8443TIP3    H125268   3.679   5.612   3.550
 8443TIP3    H225269   3.545   5.618   3.481
 8444TIP3   OH225270   4.389   5.609   4.070
 8444TIP3    H125271   4.367   5.625   4.162
 8444TIP3    H225272   4.323   5.547   4.040
 8445TIP3   OH225273   3.451   5.623   3.328
 8445TIP3    H125274   3.389   5.577   3.272
 8445TIP3    H225275   3.508   5.670   3.267
 8446TIP3   OH225276   4.574   7.307   4.291
 8446TIP3    H125277   4.569   7.328   4.198
 8446TIP3    H225278   4.652   7.354   4.321
 8447TIP3   OH225279   3.519   6.420   4.707
 8447TIP3    H125280   3.600   6.443   4.753
 8447TIP3    H225281   3.451   6.425   4.773
 8448TIP3   OH225282   3.981   5.881   3.968
 8448TIP3    H125283   4.047   5.833   3.919
 8448TIP3    H225284   3.980   5.839   4.055
 8449TIP3   OH225285   3.479   5.353   3.855
 8449TIP3    H125286   3.449   5.277   3.905
 8449TIP3    H225287   3.514   5.317   3.774
 8450TIP3   OH225288   3.954   5.785   4.237
 8450TIP3    H125289   3.866   5.816   4.260
 8450TIP3    H225290   4.013   5.837   4.292
 8451TIP3   OH225291   3.689   6.150   3.340
 8451TIP3    H125292   3.614   6.095   3.316
 8451TIP3    H225293   3.666   6.187   3.425
 8452TIP3   OH225294   4.583   6.397   3.961
 8452TIP3    H125295   4.616   6.447   3.886
 8452TIP3    H225296   4.502   6.358   3.930
 8453TIP3   OH225297   4.148   5.465   3.233
 8453TIP3    H125298   4.055   5.441   3.235
 8453TIP3    H225299   4.150   5.558   3.255
 8454TIP3   OH225300   4.091   6.478   4.357
 8454TIP3    H125301   4.135   6.469   4.441
 8454TIP3    H225302   4.051   6.565   4.359
 8455TIP3   OH225303   4.213   5.721   3.324
 8455TIP3    H125304   4.308   5.730   3.336
 8455TIP3    H225305   4.188   5.799   3.274
 8456TIP3   OH225306   3.381   6.168   4.008
 8456TIP3    H125307   3.417   6.148   3.921
 8456TIP3    H225308   3.445   6.132   4.069
 8457TIP3   OH225309   3.874   6.319   3.199
 8457TIP3    H125310   3.818   6.395   3.180
 8457TIP3    H225311   3.812   6.248   3.218
 8458TIP3   OH225312   3.265   6.096   4.636
 8458TIP3    H125313   3.279   6.077   4.729
 8458TIP3    H225314   3.194   6.037   4.610
 8459TIP3   OH225315   4.000   6.222   4.651
 8459TIP3    H125316   3.934   6.164   4.613
 8459TIP3    H225317   4.084   6.183   4.624
 8460TIP3   OH225318   4.243   6.752   4.249
 8460TIP3    H125319   4.148   6.744   4.254
 8460TIP3    H225320   4.267   6.798   4.330
 8461TIP3   OH225321   4.641   5.806   3.148
 8461TIP3    H125322   4.609   5.749   3.077
 8461TIP3    H225323   4.633   5.895   3.113
 8462TIP3   OH225324   4.880   6.672   4.230
 8462TIP3    H125325   4.785   6.663   4.222
 8462TIP3    H225326   4.915   6.645   4.145
 8463TIP3   OH225327   4.368   6.627   3.071
 8463TIP3    H125328   4.336   6.561   3.133
 8463TIP3    H225329   4.379   6.580   2.989
 8464TIP3   OH225330   4.349   6.263   3.863
 8464TIP3    H125331   4.259   6.240   3.884
 8464TIP3    H225332   4.386   6.184   3.825
 8465TIP3   OH225333   3.502   6.496   3.662
 8465TIP3    H125334   3.505   6.573   3.605
 8465TIP3    H225335   3.409   6.473   3.668
 8466TIP3   OH225336   3.059   5.785   3.367
 8466TIP3    H125337   3.105   5.866   3.388
 8466TIP3    H225338   2.980   5.787   3.422
 8467TIP3   OH225339   3.604   6.249   3.579
 8467TIP3    H125340   3.585   6.339   3.604
 8467TIP3    H225341   3.573   6.197   3.654
 8468TIP3   OH225342   3.778   6.822   4.119
 8468TIP3    H125343   3.814   6.895   4.068
 8468TIP3    H225344   3.853   6.787   4.167
 8469TIP3   OH225345   3.413   6.725   3.508
 8469TIP3    H125346   3.327   6.730   3.551
 8469TIP3    H225347   3.447   6.815   3.511
 8470TIP3   OH225348   4.137   6.476   4.085
 8470TIP3    H125349   4.127   6.471   4.180
 8470TIP3    H225350   4.212   6.419   4.066
 8471TIP3   OH225351   4.113   6.354   2.971
 8471TIP3    H125352   4.173   6.329   3.041
 8471TIP3    H225353   4.026   6.331   3.005
 8472TIP3   OH225354   4.391   6.988   4.129
 8472TIP3    H125355   4.316   6.930   4.135
 8472TIP3    H225356   4.370   7.047   4.057
 8473TIP3   OH225357   4.449   6.830   2.773
 8473TIP3    H125358   4.487   6.899   2.720
 8473TIP3    H225359   4.372   6.870   2.814
 8474TIP3   OH225360   3.474   5.605   4.639
 8474TIP3    H125361   3.378   5.607   4.646
 8474TIP3    H225362   3.502   5.552   4.713
 8475TIP3   OH225363   4.304   6.270   3.150
 8475TIP3    H125364   4.286   6.223   3.231
 8475TIP3    H225365   4.399   6.281   3.149
 8476TIP3   OH225366   3.201   6.708   4.281
 8476TIP3    H125367   3.254   6.643   4.328
 8476TIP3    H225368   3.222   6.791   4.324
 8477TIP3   OH225369   3.455   6.356   2.971
 8477TIP3    H125370   3.524   6.304   2.928
 8477TIP3    H225371   3.459   6.329   3.063
 8478TIP3   OH225372   3.428   6.342   3.252
 8478TIP3    H125373   3.512   6.316   3.289
 8478TIP3    H225374   3.430   6.438   3.253
 8479TIP3   OH225375   3.159   6.032   3.448
 8479TIP3    H125376   3.095   6.081   3.500
 8479TIP3    H225377   3.181   6.091   3.376
 8480TIP3   OH225378   4.321   5.667   4.333
 8480TIP3    H125379   4.400   5.710   4.366
 8480TIP3    H225380   4.312   5.589   4.387
 8481TIP3   OH225381   4.206   5.412   3.507
 8481TIP3    H125382   4.186   5.433   3.416
 8481TIP3    H225383   4.247   5.492   3.541
 8482TIP3   OH225384   3.698   6.533   3.182
 8482TIP3    H125385   3.612   6.558   3.216
 8482TIP3    H225386   3.718   6.599   3.116
 8483TIP3   OH225387   3.867   5.608   3.605
 8483TIP3    H125388   3.927   5.677   3.580
 8483TIP3    H225389   3.886   5.591   3.697
 8484TIP3   OH225390   4.158   5.903   4.392
 8484TIP3    H125391   4.185   5.946   4.473
 8484TIP3    H225392   4.209   5.822   4.391
 8485TIP3   OH225393   4.025   5.313   3.696
 8485TIP3    H125394   4.003   5.390   3.748
 8485TIP3    H225395   4.091   5.344   3.634
 8486TIP3   OH225396   3.444   6.617   3.256
 8486TIP3    H125397   3.421   6.686   3.194
 8486TIP3    H225398   3.433   6.657   3.342
 8487TIP3   OH225399   3.538   5.328   3.497
 8487TIP3    H125400   3.527   5.418   3.527
 8487TIP3    H225401   3.632   5.312   3.503
 8488TIP3   OH225402   4.781   5.809   4.382
 8488TIP3    H125403   4.686   5.816   4.392
 8488TIP3    H225404   4.793   5.754   4.305
 8489TIP3   OH225405   4.441   6.009   3.768
 8489TIP3    H125406   4.364   5.953   3.779
 8489TIP3    H225407   4.509   5.966   3.820
 8490TIP3   OH225408   3.180   6.215   3.235
 8490TIP3    H125409   3.251   6.277   3.252
 8490TIP3    H225410   3.213   6.158   3.165
 8491TIP3   OH225411   3.090   5.507   3.374
 8491TIP3    H125412   3.103   5.602   3.379
 8491TIP3    H225413   3.029   5.496   3.301
 8492TIP3   OH225414   4.419   6.976   3.707
 8492TIP3    H125415   4.376   7.025   3.636
 8492TIP3    H225416   4.513   6.990   3.692
 8493TIP3   OH225417   3.485   5.234   4.239
 8493TIP3    H125418   3.456   5.200   4.155
 8493TIP3    H225419   3.479   5.159   4.298
 8494TIP3   OH225420   3.017   6.471   3.636
 8494TIP3    H125421   2.971   6.507   3.712
 8494TIP3    H225422   2.977   6.515   3.561
 8495TIP3   OH225423   3.201   7.015   4.699
 8495TIP3    H125424   3.284   7.020   4.747
 8495TIP3    H225425   3.184   6.921   4.691
 8496TIP3   OH225426   3.667   6.942   4.745
 8496TIP3    H125427   3.762   6.927   4.753
 8496TIP3    H225428   3.640   6.884   4.674
 8497TIP3   OH225429   3.636   6.539   2.870
 8497TIP3    H125430   3.565   6.492   2.914
 8497TIP3    H225431   3.699   6.471   2.847
 8498TIP3   OH225432   4.294   6.872   4.492
 8498TIP3    H125433   4.305   6.802   4.557
 8498TIP3    H225434   4.368   6.931   4.507
 8499TIP3   OH225435   4.083   6.570   2.800
 8499TIP3    H125436   4.107   6.499   2.860
 8499TIP3    H225437   4.141   6.558   2.725
 8500TIP3   OH225438   3.313   6.411   4.895
 8500TIP3    H125439   3.332   6.317   4.903
 8500TIP3    H225440   3.227   6.414   4.853
 8501TIP3   OH225441   3.315   6.042   3.068
 8501TIP3    H125442   3.367   6.014   3.142
 8501TIP3    H225443   3.379   6.066   3.000
 8502TIP3   OH225444   3.931   6.497   4.670
 8502TIP3    H125445   3.886   6.519   4.588
 8502TIP3    H225446   3.964   6.408   4.657
 8503TIP3   OH225447   4.415   6.529   4.292
 8503TIP3    H125448   4.490   6.560   4.241
 8503TIP3    H225449   4.346   6.593   4.273
 8504TIP3   OH225450   3.431   6.152   4.892
 8504TIP3    H125451   3.510   6.134   4.841
 8504TIP3    H225452   3.464   6.176   4.979
 8505TIP3   OH225453   3.478   5.969   3.292
 8505TIP3    H125454   3.460   5.938   3.381
 8505TIP3    H225455   3.527   5.897   3.252
 8506TIP3   OH225456   3.778   6.032   4.548
 8506TIP3    H125457   3.699   6.085   4.558
 8506TIP3    H225458   3.819   6.065   4.468
 8507TIP3   OH225459   3.613   5.766   3.162
 8507TIP3    H125460   3.588   5.759   3.070
 8507TIP3    H225461   3.709   5.766   3.161
 8508TIP3   OH225462   4.297   6.423   4.656
 8508TIP3    H125463   4.363   6.383   4.600
 8508TIP3    H225464   4.289   6.363   4.731
 8509TIP3   OH225465   4.428   6.068   2.807
 8509TIP3    H125466   4.408   6.030   2.722
 8509TIP3    H225467   4.393   6.157   2.802
 8510TIP3   OH225468   3.893   5.813   4.665
 8510TIP3    H125469   3.897   5.740   4.604
 8510TIP3    H225470   3.855   5.885   4.614
 8511TIP3   OH225471   3.901   5.611   4.466
 8511TIP3    H125472   3.929   5.647   4.382
 8511TIP3    H225473   3.810   5.584   4.451
 8512TIP3   OH225474   3.915   6.141   4.342
 8512TIP3    H125475   4.004   6.164   4.317
 8512TIP3    H225476   3.860   6.204   4.295
 8513TIP3   OH225477   4.505   6.094   4.715
 8513TIP3    H125478   4.537   6.005   4.732
 8513TIP3    H225479   4.579   6.138   4.674
 8514TIP3   OH225480   4.543   6.365   4.466
 8514TIP3    H125481   4.491   6.423   4.412
 8514TIP3    H225482   4.634   6.382   4.440
 8515TIP3   OH225483   3.774   5.907   4.904
 8515TIP3    H125484   3.706   5.842   4.924
 8515TIP3    H225485   3.806   5.882   4.817
 8516TIP3   OH225486   4.027   5.377   4.557
 8516TIP3    H125487   3.984   5.457   4.527
 8516TIP3    H225488   3.961   5.308   4.544
 8517TIP3   OH225489   4.151   5.859   4.762
 8517TIP3    H125490   4.142   5.846   4.857
 8517TIP3    H225491   4.064   5.836   4.727
 8518TIP3   OH225492   4.396   5.815   4.630
 8518TIP3    H125493   4.318   5.811   4.685
 8518TIP3    H225494   4.467   5.783   4.685
 8519TIP3   OH225495   4.629   5.766   4.777
 8519TIP3    H125496   4.644   5.672   4.785
 8519TIP3    H225497   4.625   5.798   4.867
 8520TIP3   OH225498   3.609   5.686   4.968
 8520TIP3    H125499   3.617   5.598   4.931
 8520TIP3    H225500   3.649   5.679   5.055
 8521TIP3   OH225501   4.092   5.366   4.823
 8521TIP3    H125502   4.163   5.303   4.822
 8521TIP3    H225503   4.063   5.372   4.732
 8522TIP3   OH225504   4.185   5.583   4.966
 8522TIP3    H125505   4.157   5.510   4.910
 8522TIP3    H225506   4.111   5.644   4.965
 8523TIP3   OH225507   3.429   6.827   3.072
 8523TIP3    H125508   3.521   6.810   3.049
 8523TIP3    H225509   3.394   6.873   2.996
 8524TIP3   OH225510   2.905   6.202   3.266
 8524TIP3    H125511   2.999   6.217   3.255
 8524TIP3    H225512   2.890   6.116   3.226
 8525TIP3   OH225513   2.806   6.792   3.710
 8525TIP3    H125514   2.744   6.736   3.665
 8525TIP3    H225515   2.852   6.734   3.770
 8526TIP3   OH225516   2.947   6.632   3.886
 8526TIP3    H125517   2.938   6.565   3.954
 8526TIP3    H225518   2.999   6.701   3.927
 8527TIP3   OH225519   4.686   7.041   3.689
 8527TIP3    H125520   4.707   7.076   3.775
 8527TIP3    H225521   4.744   7.088   3.629
 8528TIP3   OH225522   4.702   7.071   3.973
 8528TIP3    H125523   4.657   6.987   3.966
 8528TIP3    H225524   4.777   7.053   4.029
 8529TIP3   OH225525   4.759   6.761   4.545
 8529TIP3    H125526   4.684   6.768   4.603
 8529TIP3    H225527   4.797   6.849   4.545
 8530TIP3   OH225528   4.584   6.271   3.155
 8530TIP3    H125529   4.641   6.342   3.126
 8530TIP3    H225530   4.627   6.235   3.232
 8531TIP3   OH225531   4.708   6.129   3.359
 8531TIP3    H125532   4.640   6.094   3.416
 8531TIP3    H225533   4.772   6.168   3.418
 8532TIP3   OH225534   4.755   6.535   3.790
 8532TIP3    H125535   4.808   6.466   3.749
 8532TIP3    H225536   4.755   6.607   3.727
 8533TIP3   OH225537   4.568   6.825   3.983
 8533TIP3    H125538   4.498   6.869   4.033
 8533TIP3    H225539   4.522   6.783   3.911
 8534TIP3   OH225540   4.607   6.040   3.010
 8534TIP3    H125541   4.542   6.051   2.942
 8534TIP3    H225542   4.599   6.118   3.064
 8535TIP3   OH225543   4.527   5.721   2.886
 8535TIP3    H125544   4.456   5.776   2.918
 8535TIP3    H225545   4.499   5.632   2.908
 8536TIP3   OH225546   4.505   5.995   3.498
 8536TIP3    H125547   4.510   5.900   3.489
 8536TIP3    H225548   4.487   6.009   3.591
 8537TIP3   OH225549   3.129   6.062   4.260
 8537TIP3    H125550   3.120   6.027   4.171
 8537TIP3    H225551   3.223   6.061   4.277
 8538TIP3   OH225552   4.808   6.430   4.399
 8538TIP3    H125553   4.868   6.361   4.373
 8538TIP3    H225554   4.823   6.501   4.337
 8539TIP3   OH225555   4.969   6.211   4.360
 8539TIP3    H125556   4.893   6.166   4.396
 8539TIP3    H225557   5.043   6.153   4.379
 8540TIP3   OH225558   4.434   5.473   2.941
 8540TIP3    H125559   4.504   5.429   2.990
 8540TIP3    H225560   4.357   5.417   2.953
 8541TIP3   OH225561   4.501   5.716   3.384
 8541TIP3    H125562   4.544   5.631   3.399
 8541TIP3    H225563   4.551   5.755   3.312
 8542TIP3   OH225564   4.657   5.881   3.898
 8542TIP3    H125565   4.738   5.900   3.851
 8542TIP3    H225566   4.670   5.919   3.985
 8543TIP3   OH225567   4.730   6.032   4.127
 8543TIP3    H125568   4.655   6.063   4.178
 8543TIP3    H225569   4.762   6.110   4.081
 8544TIP3   OH225570   3.342   5.732   4.912
 8544TIP3    H125571   3.437   5.733   4.927
 8544TIP3    H225572   3.312   5.652   4.955
 8545TIP3   OH225573   5.185   5.633   4.669
 8545TIP3    H125574   5.247   5.572   4.630
 8545TIP3    H225575   5.149   5.681   4.594
 8546TIP3   OH225576   4.613   5.465   3.432
 8546TIP3    H125577   4.658   5.451   3.515
 8546TIP3    H225578   4.551   5.392   3.426
 8547TIP3   OH225579   3.315   5.452   4.264
 8547TIP3    H125580   3.370   5.374   4.267
 8547TIP3    H225581   3.376   5.524   4.247
 8548TIP3   OH225582   3.103   5.718   4.320
 8548TIP3    H125583   3.155   5.709   4.240
 8548TIP3    H225584   3.131   5.801   4.357
 8549TIP3   OH225585   5.038   5.747   4.467
 8549TIP3    H125586   4.951   5.787   4.476
 8549TIP3    H225587   5.023   5.667   4.418
 8550TIP3   OH225588   4.672   5.391   3.064
 8550TIP3    H125589   4.710   5.322   3.009
 8550TIP3    H225590   4.737   5.460   3.065
 8551TIP3   OH225591   3.091   5.219   3.824
 8551TIP3    H125592   3.004   5.211   3.862
 8551TIP3    H225593   3.079   5.277   3.748
 8552TIP3   OH225594   4.250   6.938   3.335
 8552TIP3    H125595   4.306   6.928   3.258
 8552TIP3    H225596   4.293   7.007   3.386
 8553TIP3   OH225597   3.317   5.289   4.635
 8553TIP3    H125598   3.269   5.288   4.718
 8553TIP3    H225599   3.258   5.333   4.574
 8554TIP3   OH225600   3.347   6.734   4.716
 8554TIP3    H125601   3.253   6.715   4.706
 8554TIP3    H225602   3.364   6.724   4.809
 8555TIP3   OH225603   3.549   6.779   4.267
 8555TIP3    H125604   3.497   6.852   4.234
 8555TIP3    H225605   3.634   6.788   4.224
 8556TIP3   OH225606   3.961   7.012   4.402
 8556TIP3    H125607   3.998   7.007   4.490
 8556TIP3    H225608   4.024   7.065   4.352
 8557TIP3   OH225609   4.149   7.168   4.273
 8557TIP3    H125610   4.212   7.119   4.222
 8557TIP3    H225611   4.202   7.225   4.329
 8558TIP3   OH225612   4.951   5.501   4.366
 8558TIP3    H125613   4.861   5.486   4.336
 8558TIP3    H225614   4.992   5.414   4.362
 8559TIP3   OH225615   3.212   7.025   4.311
 8559TIP3    H125616   3.121   7.045   4.288
 8559TIP3    H225617   3.235   7.090   4.377
 8560TIP3   OH225618   3.442   7.009   4.159
 8560TIP3    H125619   3.359   7.017   4.205
 8560TIP3    H225620   3.422   7.036   4.069
 8561TIP3   OH225621   3.864   7.028   3.952
 8561TIP3    H125622   3.796   7.041   3.886
 8561TIP3    H225623   3.876   7.113   3.992
 8562TIP3   OH225624   4.130   6.966   4.007
 8562TIP3    H125625   4.038   6.984   3.986
 8562TIP3    H225626   4.179   7.032   3.957
 8563TIP3   OH225627   4.331   7.144   3.907
 8563TIP3    H125628   4.325   7.231   3.866
 8563TIP3    H225629   4.361   7.087   3.836
 8564TIP3   OH225630   3.123   6.807   4.032
 8564TIP3    H125631   3.146   6.781   4.121
 8564TIP3    H225632   3.195   6.774   3.978
 8565TIP3   OH225633   3.325   6.690   3.894
 8565TIP3    H125634   3.337   6.606   3.938
 8565TIP3    H225635   3.412   6.730   3.895
 8566TIP3   OH225636   3.593   6.777   3.911
 8566TIP3    H125637   3.613   6.684   3.897
 8566TIP3    H225638   3.645   6.801   3.988
 8567TIP3   OH225639   4.156   5.428   3.995
 8567TIP3    H125640   4.119   5.355   4.045
 8567TIP3    H225641   4.227   5.389   3.944
 8568TIP3   OH225642   4.663   5.324   3.887
 8568TIP3    H125643   4.702   5.376   3.816
 8568TIP3    H225644   4.572   5.351   3.889
 8569TIP3   OH225645   4.773   5.418   3.653
 8569TIP3    H125646   4.842   5.359   3.623
 8569TIP3    H225647   4.809   5.506   3.640
 8570TIP3   OH225648   3.399   5.128   3.998
 8570TIP3    H125649   3.308   5.096   4.002
 8570TIP3    H225650   3.452   5.048   3.993
 8571TIP3   OH225651   3.206   5.024   3.649
 8571TIP3    H125652   3.236   5.076   3.574
 8571TIP3    H225653   3.174   5.088   3.712
 8572TIP3   OH225654   3.867   5.171   3.890
 8572TIP3    H125655   3.917   5.218   3.823
 8572TIP3    H225656   3.909   5.196   3.972
 8573TIP3   OH225657   4.376   5.318   3.867
 8573TIP3    H125658   4.387   5.284   3.778
 8573TIP3    H225659   4.377   5.240   3.922
 8574TIP3   OH225660   4.427   5.256   3.432
 8574TIP3    H125661   4.346   5.302   3.453
 8574TIP3    H225662   4.416   5.169   3.471
 8575TIP3   OH225663   2.899   6.599   3.427
 8575TIP3    H125664   2.816   6.562   3.394
 8575TIP3    H225665   2.902   6.687   3.391
 8576TIP3   OH225666   3.322   5.163   3.416
 8576TIP3    H125667   3.367   5.103   3.356
 8576TIP3    H225668   3.390   5.220   3.449
 8577TIP3   OH225669   3.813   5.356   3.511
 8577TIP3    H125670   3.873   5.306   3.567
 8577TIP3    H225671   3.828   5.447   3.536
 8578TIP3   OH225672   3.690   6.765   3.008
 8578TIP3    H125673   3.775   6.792   2.975
 8578TIP3    H225674   3.663   6.693   2.951
 8579TIP3   OH225675   4.401   6.897   3.104
 8579TIP3    H125676   4.394   6.801   3.097
 8579TIP3    H225677   4.355   6.930   3.027
 8580TIP3   OH225678   3.619   5.413   4.878
 8580TIP3    H125679   3.584   5.347   4.938
 8580TIP3    H225680   3.712   5.419   4.901
 8581TIP3   OH225681   3.869   5.417   4.997
 8581TIP3    H125682   3.948   5.398   4.946
 8581TIP3    H225683   3.867   5.348   5.064
 8582TIP3   OH225684   2.996   6.604   3.069
 8582TIP3    H125685   3.007   6.613   3.163
 8582TIP3    H225686   3.075   6.558   3.040
 8583TIP3   OH225687   4.693   5.496   4.794
 8583TIP3    H125688   4.709   5.466   4.884
 8583TIP3    H225689   4.779   5.491   4.752
 8584TIP3   OH225690   4.613   7.034   4.297
 8584TIP3    H125691   4.540   7.004   4.243
 8584TIP3    H225692   4.603   7.129   4.301
 8585TIP3   OH225693   5.887   6.411   3.044
 8585TIP3    H125694   5.856   6.500   3.029
 8585TIP3    H225695   5.816   6.355   3.013
 8586TIP3   OH225696   5.880   6.410   3.457
 8586TIP3    H125697   5.930   6.395   3.537
 8586TIP3    H225698   5.841   6.325   3.438
 8587TIP3   OH225699   5.189   6.288   3.809
 8587TIP3    H125700   5.223   6.230   3.877
 8587TIP3    H225701   5.266   6.311   3.757
 8588TIP3   OH225702   6.125   6.699   3.126
 8588TIP3    H125703   6.125   6.632   3.195
 8588TIP3    H225704   6.134   6.782   3.173
 8589TIP3   OH225705   5.172   6.705   3.508
 8589TIP3    H125706   5.158   6.611   3.511
 8589TIP3    H225707   5.266   6.715   3.494
 8590TIP3   OH225708   4.867   5.904   3.281
 8590TIP3    H125709   4.836   5.990   3.309
 8590TIP3    H225710   4.788   5.858   3.253
 8591TIP3   OH225711   4.940   6.215   3.493
 8591TIP3    H125712   4.990   6.138   3.522
 8591TIP3    H225713   5.006   6.278   3.466
 8592TIP3   OH225714   5.808   7.147   3.152
 8592TIP3    H125715   5.837   7.085   3.085
 8592TIP3    H225716   5.817   7.100   3.234
 8593TIP3   OH225717   5.692   6.635   3.476
 8593TIP3    H125718   5.736   6.556   3.444
 8593TIP3    H225719   5.763   6.695   3.497
 8594TIP3   OH225720   6.722   5.958   3.480
 8594TIP3    H125721   6.740   6.042   3.521
 8594TIP3    H225722   6.744   5.971   3.388
 8595TIP3   OH225723   6.103   6.126   3.504
 8595TIP3    H125724   6.144   6.043   3.529
 8595TIP3    H225725   6.066   6.110   3.418
 8596TIP3   OH225726   5.453   5.789   3.469
 8596TIP3    H125727   5.436   5.861   3.409
 8596TIP3    H225728   5.401   5.716   3.435
 8597TIP3   OH225729   6.150   5.888   3.095
 8597TIP3    H125730   6.215   5.879   3.164
 8597TIP3    H225731   6.199   5.921   3.020
 8598TIP3   OH225732   5.081   5.997   3.589
 8598TIP3    H125733   5.163   5.981   3.636
 8598TIP3    H225734   5.088   5.945   3.509
 8599TIP3   OH225735   5.506   6.195   3.404
 8599TIP3    H125736   5.600   6.179   3.410
 8599TIP3    H225737   5.471   6.114   3.367
 8600TIP3   OH225738   6.784   6.174   3.651
 8600TIP3    H125739   6.699   6.217   3.638
 8600TIP3    H225740   6.817   6.213   3.732
 8601TIP3   OH225741   5.437   5.786   3.917
 8601TIP3    H125742   5.385   5.821   3.844
 8601TIP3    H225743   5.383   5.802   3.994
 8602TIP3   OH225744   5.747   6.621   2.928
 8602TIP3    H125745   5.739   6.616   2.833
 8602TIP3    H225746   5.710   6.706   2.951
 8603TIP3   OH225747   5.538   6.558   3.692
 8603TIP3    H125748   5.484   6.630   3.725
 8603TIP3    H225749   5.588   6.597   3.620
 8604TIP3   OH225750   6.322   5.906   3.308
 8604TIP3    H125751   6.286   5.882   3.393
 8604TIP3    H225752   6.380   5.980   3.326
 8605TIP3   OH225753   5.322   5.894   3.689
 8605TIP3    H125754   5.378   5.968   3.713
 8605TIP3    H225755   5.368   5.851   3.618
 8606TIP3   OH225756   5.377   6.762   3.792
 8606TIP3    H125757   5.362   6.850   3.756
 8606TIP3    H225758   5.298   6.743   3.843
 8607TIP3   OH225759   4.759   6.458   3.040
 8607TIP3    H125760   4.723   6.480   2.953
 8607TIP3    H225761   4.785   6.542   3.077
 8608TIP3   OH225762   6.514   5.850   3.645
 8608TIP3    H125763   6.428   5.874   3.612
 8608TIP3    H225764   6.575   5.879   3.577
 8609TIP3   OH225765   5.780   5.492   3.630
 8609TIP3    H125766   5.774   5.401   3.658
 8609TIP3    H225767   5.706   5.535   3.672
 8610TIP3   OH225768   5.896   6.997   2.930
 8610TIP3    H125769   5.945   6.916   2.917
 8610TIP3    H225770   5.957   7.066   2.904
 8611TIP3   OH225771   6.040   6.773   2.873
 8611TIP3    H125772   6.054   6.701   2.811
 8611TIP3    H225773   6.071   6.739   2.957
 8612TIP3   OH225774   5.718   6.258   2.882
 8612TIP3    H125775   5.640   6.311   2.865
 8612TIP3    H225776   5.768   6.262   2.800
 8613TIP3   OH225777   5.686   6.059   2.588
 8613TIP3    H125778   5.751   6.110   2.637
 8613TIP3    H225779   5.739   5.994   2.540
 8614TIP3   OH225780   6.631   6.529   3.502
 8614TIP3    H125781   6.547   6.574   3.500
 8614TIP3    H225782   6.657   6.521   3.410
 8615TIP3   OH225783   6.071   6.347   2.852
 8615TIP3    H125784   6.016   6.373   2.926
 8615TIP3    H225785   6.154   6.321   2.892
 8616TIP3   OH225786   6.302   6.382   3.788
 8616TIP3    H125787   6.301   6.467   3.831
 8616TIP3    H225788   6.220   6.380   3.738
 8617TIP3   OH225789   5.303   6.333   3.263
 8617TIP3    H125790   5.269   6.275   3.195
 8617TIP3    H225791   5.378   6.285   3.300
 8618TIP3   OH225792   5.433   6.750   3.404
 8618TIP3    H125793   5.415   6.735   3.311
 8618TIP3    H225794   5.521   6.716   3.418
 8619TIP3   OH225795   5.407   6.326   3.630
 8619TIP3    H125796   5.445   6.291   3.550
 8619TIP3    H225797   5.457   6.405   3.648
 8620TIP3   OH225798   5.884   6.962   3.392
 8620TIP3    H125799   5.922   7.039   3.435
 8620TIP3    H225800   5.909   6.889   3.448
 8621TIP3   OH225801   5.576   6.865   3.955
 8621TIP3    H125802   5.517   6.926   3.999
 8621TIP3    H225803   5.519   6.814   3.898
 8622TIP3   OH225804   5.910   6.211   2.675
 8622TIP3    H125805   5.968   6.266   2.728
 8622TIP3    H225806   5.939   6.226   2.585
 8623TIP3   OH225807   5.330   6.416   4.092
 8623TIP3    H125808   5.331   6.510   4.109
 8623TIP3    H225809   5.237   6.395   4.081
 8624TIP3   OH225810   5.645   6.883   2.945
 8624TIP3    H125811   5.731   6.924   2.952
 8624TIP3    H225812   5.592   6.946   2.897
 8625TIP3   OH225813   5.367   7.028   4.035
 8625TIP3    H125814   5.344   7.036   3.942
 8625TIP3    H225815   5.284   7.010   4.079
 8626TIP3   OH225816   6.420   5.439   2.738
 8626TIP3    H125817   6.341   5.459   2.789
 8626TIP3    H225818   6.434   5.516   2.684
 8627TIP3   OH225819   5.176   6.180   3.056
 8627TIP3    H125820   5.100   6.223   3.017
 8627TIP3    H225821   5.144   6.094   3.083
 8628TIP3   OH225822   6.228   6.800   2.291
 8628TIP3    H125823   6.244   6.888   2.257
 8628TIP3    H225824   6.285   6.744   2.240
 8629TIP3   OH225825   4.955   6.575   3.988
 8629TIP3    H125826   4.887   6.558   3.923
 8629TIP3    H225827   4.989   6.488   4.009
 8630TIP3   OH225828   4.811   6.761   3.626
 8630TIP3    H125829   4.906   6.765   3.618
 8630TIP3    H225830   4.787   6.841   3.673
 8631TIP3   OH225831   6.652   7.212   3.659
 8631TIP3    H125832   6.618   7.133   3.618
 8631TIP3    H225833   6.583   7.239   3.721
 8632TIP3   OH225834   5.766   7.001   3.809
 8632TIP3    H125835   5.761   7.093   3.835
 8632TIP3    H225836   5.700   6.957   3.862
 8633TIP3   OH225837   5.539   7.107   2.768
 8633TIP3    H125838   5.496   7.089   2.684
 8633TIP3    H225839   5.506   7.193   2.794
 8634TIP3   OH225840   4.977   6.963   3.148
 8634TIP3    H125841   5.023   6.955   3.231
 8634TIP3    H225842   4.930   6.880   3.139
 8635TIP3   OH225843   5.743   7.031   2.397
 8635TIP3    H125844   5.795   6.959   2.360
 8635TIP3    H225845   5.780   7.044   2.485
 8636TIP3   OH225846   5.794   7.080   2.667
 8636TIP3    H125847   5.708   7.083   2.710
 8636TIP3    H225848   5.853   7.045   2.733
 8637TIP3   OH225849   6.547   6.341   3.958
 8637TIP3    H125850   6.468   6.354   3.905
 8637TIP3    H225851   6.566   6.247   3.950
 8638TIP3   OH225852   5.157   6.760   3.958
 8638TIP3    H125853   5.206   6.749   4.039
 8638TIP3    H225854   5.085   6.697   3.965
 8639TIP3   OH225855   5.545   5.578   3.764
 8639TIP3    H125856   5.461   5.546   3.731
 8639TIP3    H225857   5.523   5.656   3.815
 8640TIP3   OH225858   6.086   5.690   3.962
 8640TIP3    H125859   6.156   5.663   4.021
 8640TIP3    H225860   6.005   5.671   4.010
 8641TIP3   OH225861   6.311   6.116   3.877
 8641TIP3    H125862   6.270   6.114   3.963
 8641TIP3    H225863   6.295   6.205   3.845
 8642TIP3   OH225864   5.999   6.238   2.416
 8642TIP3    H125865   5.955   6.227   2.332
 8642TIP3    H225866   6.077   6.290   2.395
 8643TIP3   OH225867   5.688   5.620   2.730
 8643TIP3    H125868   5.659   5.623   2.822
 8643TIP3    H225869   5.656   5.535   2.698
 8644TIP3   OH225870   5.482   6.101   3.775
 8644TIP3    H125871   5.439   6.112   3.860
 8644TIP3    H225872   5.462   6.182   3.727
 8645TIP3   OH225873   5.366   5.981   3.293
 8645TIP3    H125874   5.277   5.955   3.318
 8645TIP3    H225875   5.377   5.946   3.204
 8646TIP3   OH225876   5.846   6.056   3.019
 8646TIP3    H125877   5.799   6.128   2.977
 8646TIP3    H225878   5.907   6.025   2.951
 8647TIP3   OH225879   6.034   6.329   4.101
 8647TIP3    H125880   6.008   6.260   4.162
 8647TIP3    H225881   6.127   6.343   4.120
 8648TIP3   OH225882   6.008   6.076   3.252
 8648TIP3    H125883   5.944   6.104   3.187
 8648TIP3    H225884   6.053   6.002   3.210
 8649TIP3   OH225885   5.310   6.114   3.994
 8649TIP3    H125886   5.354   6.171   4.058
 8649TIP3    H225887   5.294   6.033   4.042
 8650TIP3   OH225888   5.353   5.591   2.706
 8650TIP3    H125889   5.350   5.592   2.802
 8650TIP3    H225890   5.278   5.643   2.679
 8651TIP3   OH225891   4.904   5.639   3.571
 8651TIP3    H125892   4.975   5.674   3.626
 8651TIP3    H225893   4.948   5.611   3.491
 8652TIP3   OH225894   4.846   5.613   3.075
 8652TIP3    H125895   4.930   5.628   3.030
 8652TIP3    H225896   4.814   5.701   3.095
 8653TIP3   OH225897   6.038   6.325   3.677
 8653TIP3    H125898   6.066   6.259   3.614
 8653TIP3    H225899   6.000   6.274   3.749
 8654TIP3   OH225900   5.721   5.781   3.350
 8654TIP3    H125901   5.645   5.780   3.408
 8654TIP3    H225902   5.796   5.770   3.408
 8655TIP3   OH225903   5.129   5.855   3.358
 8655TIP3    H125904   5.039   5.856   3.324
 8655TIP3    H225905   5.159   5.766   3.343
 8656TIP3   OH225906   5.380   5.856   3.047
 8656TIP3    H125907   5.474   5.869   3.038
 8656TIP3    H225908   5.344   5.875   2.960
 8657TIP3   OH225909   6.189   5.865   3.557
 8657TIP3    H125910   6.164   5.881   3.647
 8657TIP3    H225911   6.123   5.802   3.525
 8658TIP3   OH225912   5.254   5.878   2.801
 8658TIP3    H125913   5.189   5.835   2.745
 8658TIP3    H225914   5.310   5.926   2.741
 8659TIP3   OH225915   6.369   7.570   3.780
 8659TIP3    H125916   6.366   7.575   3.685
 8659TIP3    H225917   6.449   7.615   3.805
 8660TIP3   OH225918   5.312   6.678   4.193
 8660TIP3    H125919   5.395   6.701   4.236
 8660TIP3    H225920   5.247   6.684   4.263
 8661TIP3   OH225921   5.777   6.135   3.454
 8661TIP3    H125922   5.845   6.091   3.402
 8661TIP3    H225923   5.780   6.092   3.539
 8662TIP3   OH225924   5.274   5.611   3.342
 8662TIP3    H125925   5.244   5.535   3.392
 8662TIP3    H225926   5.319   5.572   3.266
 8663TIP3   OH225927   5.750   6.038   3.726
 8663TIP3    H125928   5.663   6.071   3.747
 8663TIP3    H225929   5.809   6.091   3.780
 8664TIP3   OH225930   5.486   6.409   2.826
 8664TIP3    H125931   5.412   6.352   2.807
 8664TIP3    H225932   5.466   6.447   2.912
 8665TIP3   OH225933   6.395   6.657   3.468
 8665TIP3    H125934   6.399   6.752   3.468
 8665TIP3    H225935   6.308   6.637   3.431
 8666TIP3   OH225936   5.945   5.718   2.728
 8666TIP3    H125937   5.851   5.701   2.725
 8666TIP3    H225938   5.952   5.813   2.741
 8667TIP3   OH225939   5.885   6.732   3.839
 8667TIP3    H125940   5.940   6.731   3.917
 8667TIP3    H225941   5.853   6.822   3.834
 8668TIP3   OH225942   6.011   5.980   2.802
 8668TIP3    H125943   6.106   5.983   2.813
 8668TIP3    H225944   5.991   6.057   2.749
 8669TIP3   OH225945   5.171   6.415   3.492
 8669TIP3    H125946   5.210   6.400   3.405
 8669TIP3    H225947   5.238   6.386   3.554
 8670TIP3   OH225948   5.643   6.564   2.659
 8670TIP3    H125949   5.595   6.647   2.661
 8670TIP3    H225950   5.593   6.506   2.717
 8671TIP3   OH225951   5.055   6.348   4.121
 8671TIP3    H125952   5.062   6.321   4.213
 8671TIP3    H225953   4.982   6.295   4.087
 8672TIP3   OH225954   5.802   6.479   4.137
 8672TIP3    H125955   5.741   6.435   4.077
 8672TIP3    H225956   5.888   6.443   4.115
 8673TIP3   OH225957   6.045   6.998   3.749
 8673TIP3    H125958   5.949   7.002   3.741
 8673TIP3    H225959   6.065   7.052   3.825
 8674TIP3   OH225960   6.434   6.070   2.632
 8674TIP3    H125961   6.376   6.023   2.573
 8674TIP3    H225962   6.438   6.159   2.596
 8675TIP3   OH225963   6.686   6.881   3.723
 8675TIP3    H125964   6.604   6.923   3.698
 8675TIP3    H225965   6.728   6.858   3.640
 8676TIP3   OH225966   6.162   6.884   2.545
 8676TIP3    H125967   6.137   6.809   2.598
 8676TIP3    H225968   6.181   6.847   2.459
 8677TIP3   OH225969   6.135   6.523   3.350
 8677TIP3    H125970   6.046   6.495   3.371
 8677TIP3    H225971   6.177   6.444   3.317
 8678TIP3   OH225972   5.298   6.754   3.148
 8678TIP3    H125973   5.301   6.832   3.091
 8678TIP3    H225974   5.205   6.738   3.161
 8679TIP3   OH225975   4.804   6.056   2.816
 8679TIP3    H125976   4.869   6.123   2.836
 8679TIP3    H225977   4.749   6.051   2.894
 8680TIP3   OH225978   5.392   6.507   3.062
 8680TIP3    H125979   5.377   6.598   3.088
 8680TIP3    H225980   5.366   6.455   3.138
 8681TIP3   OH225981   5.576   7.079   3.603
 8681TIP3    H125982   5.614   7.149   3.550
 8681TIP3    H225983   5.651   7.038   3.647
 8682TIP3   OH225984   5.207   6.983   2.994
 8682TIP3    H125985   5.122   6.988   3.038
 8682TIP3    H225986   5.240   7.073   2.998
 8683TIP3   OH225987   5.938   6.736   3.563
 8683TIP3    H125988   5.927   6.730   3.658
 8683TIP3    H225989   6.022   6.693   3.546
 8684TIP3   OH225990   5.918   6.622   2.479
 8684TIP3    H125991   5.981   6.605   2.549
 8684TIP3    H225992   5.833   6.598   2.516
 8685TIP3   OH225993   6.178   7.277   3.645
 8685TIP3    H125994   6.143   7.190   3.625
 8685TIP3    H225995   6.171   7.325   3.563
 8686TIP3   OH225996   6.254   7.085   2.255
 8686TIP3    H125997   6.296   7.164   2.220
 8686TIP3    H225998   6.172   7.116   2.294
 8687TIP3   OH225999   5.266   5.863   4.125
 8687TIP3    H126000   5.171   5.870   4.130
 8687TIP3    H226001   5.290   5.805   4.197
 8688TIP3   OH226002   6.098   6.567   2.684
 8688TIP3    H126003   6.082   6.491   2.740
 8688TIP3    H226004   6.190   6.560   2.660
 8689TIP3   OH226005   5.000   6.966   3.767
 8689TIP3    H126006   5.053   6.901   3.815
 8689TIP3    H226007   5.024   7.050   3.807
 8690TIP3   OH226008   5.271   6.590   2.456
 8690TIP3    H126009   5.289   6.499   2.429
 8690TIP3    H226010   5.258   6.585   2.551
 8691TIP3   OH226011   5.223   6.602   2.730
 8691TIP3    H126012   5.299   6.574   2.782
 8691TIP3    H226013   5.223   6.697   2.736
 8692TIP3   OH226014   4.947   6.282   2.927
 8692TIP3    H126015   4.886   6.330   2.984
 8692TIP3    H226016   4.972   6.345   2.860
 8693TIP3   OH226017   6.116   5.925   3.817
 8693TIP3    H126018   6.194   5.968   3.850
 8693TIP3    H226019   6.107   5.847   3.872
 8694TIP3   OH226020   6.004   5.669   2.998
 8694TIP3    H126021   5.985   5.688   2.906
 8694TIP3    H226022   6.047   5.749   3.030
 8695TIP3   OH226023   5.490   6.788   2.668
 8695TIP3    H126024   5.406   6.814   2.706
 8695TIP3    H226025   5.516   6.863   2.614
 8696TIP3   OH226026   5.659   5.867   3.093
 8696TIP3    H126027   5.723   5.934   3.066
 8696TIP3    H226028   5.680   5.849   3.184
 8697TIP3   OH226029   5.952   6.160   3.880
 8697TIP3    H126030   5.981   6.205   3.959
 8697TIP3    H226031   6.005   6.080   3.878
 8698TIP3   OH226032   5.822   5.570   3.183
 8698TIP3    H126033   5.802   5.646   3.238
 8698TIP3    H226034   5.890   5.600   3.124
 8699TIP3   OH226035   5.237   6.875   2.743
 8699TIP3    H126036   5.216   6.945   2.682
 8699TIP3    H226037   5.226   6.914   2.830
 8700TIP3   OH226038   5.341   5.585   2.985
 8700TIP3    H126039   5.334   5.675   3.016
 8700TIP3    H226040   5.434   5.565   2.990
 8701TIP3   OH226041   6.578   6.072   3.871
 8701TIP3    H126042   6.483   6.072   3.877
 8701TIP3    H226043   6.596   6.030   3.787
 8702TIP3   OH226044   6.237   6.265   3.256
 8702TIP3    H126045   6.161   6.210   3.269
 8702TIP3    H226046   6.306   6.225   3.308
 8703TIP3   OH226047   4.972   6.481   2.727
 8703TIP3    H126048   5.044   6.543   2.739
 8703TIP3    H226049   5.005   6.418   2.662
 8704TIP3   OH226050   6.212   7.275   3.208
 8704TIP3    H126051   6.166   7.310   3.132
 8704TIP3    H226052   6.305   7.282   3.187
 8705TIP3   OH226053   5.281   5.494   3.725
 8705TIP3    H126054   5.254   5.458   3.641
 8705TIP3    H226055   5.273   5.421   3.786
 8706TIP3   OH226056   4.810   6.730   3.121
 8706TIP3    H126057   4.762   6.765   3.195
 8706TIP3    H226058   4.771   6.772   3.044
 8707TIP3   OH226059   4.996   7.273   4.185
 8707TIP3    H126060   5.078   7.278   4.234
 8707TIP3    H226061   4.980   7.180   4.172
 8708TIP3   OH226062   5.463   7.198   4.231
 8708TIP3    H126063   5.557   7.184   4.240
 8708TIP3    H226064   5.437   7.141   4.159
 8709TIP3   OH226065   5.436   6.788   2.352
 8709TIP3    H126066   5.390   6.717   2.395
 8709TIP3    H226067   5.512   6.746   2.311
 8710TIP3   OH226068   6.087   7.134   3.985
 8710TIP3    H126069   6.098   7.062   4.048
 8710TIP3    H226070   6.165   7.188   3.996
 8711TIP3   OH226071   5.876   6.823   2.279
 8711TIP3    H126072   5.909   6.760   2.343
 8711TIP3    H226073   5.932   6.812   2.203
 8712TIP3   OH226074   5.109   6.653   4.388
 8712TIP3    H126075   5.133   6.561   4.378
 8712TIP3    H226076   5.025   6.662   4.343
 8713TIP3   OH226077   5.097   6.286   2.581
 8713TIP3    H126078   5.151   6.264   2.657
 8713TIP3    H226079   5.159   6.299   2.510
 8714TIP3   OH226080   5.724   6.754   4.160
 8714TIP3    H126081   5.685   6.778   4.076
 8714TIP3    H226082   5.764   6.669   4.145
 8715TIP3   OH226083   5.605   6.500   2.391
 8715TIP3    H126084   5.614   6.517   2.485
 8715TIP3    H226085   5.613   6.406   2.383
 8716TIP3   OH226086   6.228   6.790   3.734
 8716TIP3    H126087   6.295   6.826   3.676
 8716TIP3    H226088   6.160   6.858   3.737
 8717TIP3   OH226089   5.234   6.404   4.368
 8717TIP3    H126090   5.300   6.389   4.300
 8717TIP3    H226091   5.284   6.424   4.447
 8718TIP3   OH226092   5.278   6.223   2.787
 8718TIP3    H126093   5.261   6.194   2.877
 8718TIP3    H226094   5.325   6.150   2.747
 8719TIP3   OH226095   5.561   6.276   4.028
 8719TIP3    H126096   5.489   6.338   4.045
 8719TIP3    H226097   5.610   6.316   3.956
 8720TIP3   OH226098   5.409   6.028   2.631
 8720TIP3    H126099   5.382   6.034   2.539
 8720TIP3    H226100   5.504   6.035   2.628
 8721TIP3   OH226101   6.088   6.675   4.141
 8721TIP3    H126102   6.156   6.640   4.084
 8721TIP3    H226103   6.088   6.616   4.217
 8722TIP3   OH226104   6.234   6.359   2.292
 8722TIP3    H126105   6.194   6.318   2.216
 8722TIP3    H226106   6.278   6.436   2.258
 8723TIP3   OH226107   5.690   6.071   4.154
 8723TIP3    H126108   5.696   5.996   4.095
 8723TIP3    H226109   5.649   6.140   4.101
 8724TIP3   OH226110   5.698   5.867   3.956
 8724TIP3    H126111   5.727   5.903   3.872
 8724TIP3    H226112   5.607   5.841   3.941
 8725TIP3   OH226113   5.712   6.407   3.844
 8725TIP3    H126114   5.801   6.424   3.813
 8725TIP3    H226115   5.657   6.464   3.792
 8726TIP3   OH226116   6.301   6.359   4.200
 8726TIP3    H126117   6.343   6.273   4.204
 8726TIP3    H226118   6.371   6.418   4.175
 8727TIP3   OH226119   6.324   6.628   3.934
 8727TIP3    H126120   6.277   6.685   3.873
 8727TIP3    H226121   6.416   6.637   3.908
 8728TIP3   OH226122   5.570   6.162   4.392
 8728TIP3    H126123   5.504   6.094   4.409
 8728TIP3    H226124   5.603   6.142   4.305
 8729TIP3   OH226125   5.822   5.632   4.045
 8729TIP3    H126126   5.780   5.713   4.015
 8729TIP3    H226127   5.755   5.564   4.031
 8730TIP3   OH226128   5.949   6.114   4.249
 8730TIP3    H126129   5.940   6.101   4.343
 8730TIP3    H226130   5.863   6.094   4.213
 8731TIP3   OH226131   6.195   6.072   4.117
 8731TIP3    H126132   6.117   6.070   4.172
 8731TIP3    H226133   6.266   6.043   4.174
 8732TIP3   OH226134   6.428   6.024   4.266
 8732TIP3    H126135   6.441   5.930   4.274
 8732TIP3    H226136   6.423   6.055   4.357
 8733TIP3   OH226137   5.406   5.942   4.458
 8733TIP3    H126138   5.410   5.856   4.418
 8733TIP3    H226139   5.448   5.931   4.544
 8734TIP3   OH226140   5.895   5.619   4.309
 8734TIP3    H126141   5.964   5.554   4.305
 8734TIP3    H226142   5.863   5.627   4.219
 8735TIP3   OH226143   5.981   5.836   4.455
 8735TIP3    H126144   5.955   5.764   4.398
 8735TIP3    H226145   5.908   5.897   4.452
 8736TIP3   OH226146   5.226   7.080   2.556
 8736TIP3    H126147   5.317   7.062   2.534
 8736TIP3    H226148   5.192   7.128   2.481
 8737TIP3   OH226149   4.699   6.475   2.758
 8737TIP3    H126150   4.793   6.491   2.750
 8737TIP3    H226151   4.686   6.391   2.713
 8738TIP3   OH226152   4.606   7.053   3.197
 8738TIP3    H126153   4.541   6.999   3.152
 8738TIP3    H226154   4.650   6.993   3.257
 8739TIP3   OH226155   4.744   6.888   3.371
 8739TIP3    H126156   4.732   6.822   3.439
 8739TIP3    H226157   4.797   6.956   3.413
 8740TIP3   OH226158   6.475   7.338   3.165
 8740TIP3    H126159   6.506   7.332   3.255
 8740TIP3    H226160   6.554   7.340   3.112
 8741TIP3   OH226161   6.491   7.306   3.448
 8741TIP3    H126162   6.446   7.222   3.441
 8741TIP3    H226163   6.564   7.290   3.509
 8742TIP3   OH226164   6.550   7.010   4.040
 8742TIP3    H126165   6.477   7.021   4.101
 8742TIP3    H226166   6.590   7.096   4.034
 8743TIP3   OH226167   6.370   6.533   2.643
 8743TIP3    H126168   6.429   6.600   2.609
 8743TIP3    H226169   6.417   6.495   2.717
 8744TIP3   OH226170   6.495   6.390   2.846
 8744TIP3    H126171   6.425   6.351   2.899
 8744TIP3    H226172   6.554   6.428   2.911
 8745TIP3   OH226173   6.416   6.307   2.490
 8745TIP3    H126174   6.352   6.312   2.420
 8745TIP3    H226175   6.400   6.385   2.543
 8746TIP3   OH226176   6.272   5.960   2.443
 8746TIP3    H126177   6.233   6.004   2.368
 8746TIP3    H226178   6.260   5.867   2.425
 8747TIP3   OH226179   6.297   6.252   2.985
 8747TIP3    H126180   6.306   6.157   2.975
 8747TIP3    H226181   6.281   6.265   3.079
 8748TIP3   OH226182   4.925   6.319   3.747
 8748TIP3    H126183   4.917   6.286   3.658
 8748TIP3    H226184   5.020   6.319   3.765
 8749TIP3   OH226185   6.583   6.664   3.852
 8749TIP3    H126186   6.651   6.599   3.833
 8749TIP3    H226187   6.607   6.741   3.801
 8750TIP3   OH226188   6.767   6.462   3.850
 8750TIP3    H126189   6.690   6.421   3.890
 8750TIP3    H226190   6.839   6.401   3.868
 8751TIP3   OH226191   6.235   5.689   2.407
 8751TIP3    H126192   6.301   5.664   2.473
 8751TIP3    H226193   6.155   5.646   2.436
 8752TIP3   OH226194   6.298   5.973   2.868
 8752TIP3    H126195   6.342   5.889   2.881
 8752TIP3    H226196   6.344   6.014   2.795
 8753TIP3   OH226197   6.456   6.140   3.387
 8753TIP3    H126198   6.535   6.162   3.338
 8753TIP3    H226199   6.469   6.181   3.473
 8754TIP3   OH226200   6.528   6.294   3.615
 8754TIP3    H126201   6.451   6.323   3.665
 8754TIP3    H226202   6.563   6.375   3.577
 8755TIP3   OH226203   5.140   5.998   4.405
 8755TIP3    H126204   5.235   5.995   4.417
 8755TIP3    H226205   5.108   5.917   4.443
 8756TIP3   OH226206   6.987   5.889   4.159
 8756TIP3    H126207   7.046   5.828   4.115
 8756TIP3    H226208   6.947   5.939   4.088
 8757TIP3   OH226209   6.410   5.722   2.917
 8757TIP3    H126210   6.455   5.707   3.000
 8757TIP3    H226211   6.347   5.650   2.911
 8758TIP3   OH226212   5.109   5.710   3.747
 8758TIP3    H126213   5.165   5.632   3.751
 8758TIP3    H226214   5.170   5.782   3.734
 8759TIP3   OH226215   4.900   5.975   3.806
 8759TIP3    H126216   4.951   5.967   3.726
 8759TIP3    H226217   4.930   6.056   3.846
 8760TIP3   OH226218   6.836   6.004   3.964
 8760TIP3    H126219   6.753   6.047   3.986
 8760TIP3    H226220   6.811   5.930   3.908
 8761TIP3   OH226221   6.469   5.643   2.559
 8761TIP3    H126222   6.514   5.580   2.502
 8761TIP3    H226223   6.525   5.721   2.557
 8762TIP3   OH226224   4.880   5.474   3.310
 8762TIP3    H126225   4.794   5.467   3.351
 8762TIP3    H226226   4.865   5.529   3.233
 8763TIP3   OH226227   6.042   7.197   2.822
 8763TIP3    H126228   6.098   7.184   2.745
 8763TIP3    H226229   6.091   7.257   2.878
 8764TIP3   OH226230   5.108   5.552   4.134
 8764TIP3    H126231   5.056   5.541   4.214
 8764TIP3    H226232   5.050   5.595   4.072
 8765TIP3   OH226233   5.142   6.993   4.195
 8765TIP3    H126234   5.048   6.972   4.193
 8765TIP3    H226235   5.162   7.001   4.288
 8766TIP3   OH226236   5.348   7.038   3.753
 8766TIP3    H126237   5.297   7.111   3.719
 8766TIP3    H226238   5.433   7.046   3.709
 8767TIP3   OH226239   5.757   7.271   3.888
 8767TIP3    H126240   5.796   7.265   3.975
 8767TIP3    H226241   5.822   7.319   3.836
 8768TIP3   OH226242   5.950   7.418   3.756
 8768TIP3    H126243   6.016   7.363   3.713
 8768TIP3    H226244   6.002   7.477   3.812
 8769TIP3   OH226245   6.745   5.763   3.850
 8769TIP3    H126246   6.656   5.757   3.815
 8769TIP3    H226247   6.779   5.674   3.844
 8770TIP3   OH226248   5.008   7.281   3.798
 8770TIP3    H126249   4.917   7.301   3.775
 8770TIP3    H226250   5.031   7.347   3.863
 8771TIP3   OH226251   5.239   7.267   3.646
 8771TIP3    H126252   5.155   7.274   3.692
 8771TIP3    H226253   5.219   7.293   3.556
 8772TIP3   OH226254   5.663   7.286   3.440
 8772TIP3    H126255   5.599   7.301   3.371
 8772TIP3    H226256   5.675   7.372   3.480
 8773TIP3   OH226257   5.934   7.220   3.483
 8773TIP3    H126258   5.842   7.240   3.462
 8773TIP3    H226259   5.983   7.291   3.442
 8774TIP3   OH226260   6.138   7.431   3.413
 8774TIP3    H126261   6.123   7.514   3.366
 8774TIP3    H226262   6.165   7.370   3.345
 8775TIP3   OH226263   4.920   7.063   3.518
 8775TIP3    H126264   4.943   7.037   3.608
 8775TIP3    H226265   4.992   7.030   3.464
 8776TIP3   OH226266   5.123   6.945   3.382
 8776TIP3    H126267   5.135   6.861   3.426
 8776TIP3    H226268   5.210   6.985   3.382
 8777TIP3   OH226269   5.390   7.033   3.398
 8777TIP3    H126270   5.412   6.941   3.381
 8777TIP3    H226271   5.445   7.058   3.472
 8778TIP3   OH226272   5.951   5.685   3.478
 8778TIP3    H126273   5.910   5.614   3.527
 8778TIP3    H226274   6.022   5.643   3.429
 8779TIP3   OH226275   6.460   5.586   3.372
 8779TIP3    H126276   6.496   5.635   3.298
 8779TIP3    H226277   6.367   5.610   3.374
 8780TIP3   OH226278   6.570   5.671   3.137
 8780TIP3    H126279   6.639   5.612   3.107
 8780TIP3    H226280   6.607   5.759   3.125
 8781TIP3   OH226281   5.194   5.386   3.484
 8781TIP3    H126282   5.104   5.354   3.492
 8781TIP3    H226283   5.248   5.308   3.478
 8782TIP3   OH226284   4.991   5.272   3.140
 8782TIP3    H126285   5.032   5.323   3.070
 8782TIP3    H226286   4.962   5.338   3.204
 8783TIP3   OH226287   5.657   5.433   3.375
 8783TIP3    H126288   5.711   5.473   3.307
 8783TIP3    H226289   5.701   5.455   3.457
 8784TIP3   OH226290   6.173   5.571   3.355
 8784TIP3    H126291   6.185   5.535   3.267
 8784TIP3    H226292   6.177   5.495   3.413
 8785TIP3   OH226293   6.223   5.511   2.920
 8785TIP3    H126294   6.143   5.558   2.943
 8785TIP3    H226295   6.213   5.425   2.960
 8786TIP3   OH226296   4.695   6.854   2.905
 8786TIP3    H126297   4.611   6.819   2.878
 8786TIP3    H226298   4.695   6.945   2.874
 8787TIP3   OH226299   5.119   5.420   2.936
 8787TIP3    H126300   5.144   5.369   2.859
 8787TIP3    H226301   5.196   5.472   2.957
 8788TIP3   OH226302   5.615   5.615   2.997
 8788TIP3    H126303   5.675   5.564   3.052
 8788TIP3    H226304   5.629   5.705   3.024
 8789TIP3   OH226305   5.487   7.015   2.496
 8789TIP3    H126306   5.572   7.041   2.461
 8789TIP3    H226307   5.459   6.942   2.440
 8790TIP3   OH226308   6.191   7.152   2.591
 8790TIP3    H126309   6.188   7.056   2.582
 8790TIP3    H226310   6.149   7.185   2.511
 8791TIP3   OH226311   5.414   5.668   4.371
 8791TIP3    H126312   5.379   5.600   4.429
 8791TIP3    H226313   5.506   5.675   4.395
 8792TIP3   OH226314   5.665   5.673   4.490
 8792TIP3    H126315   5.745   5.652   4.441
 8792TIP3    H226316   5.658   5.604   4.555
 8793TIP3   OH226317   4.788   6.854   2.552
 8793TIP3    H126318   4.792   6.868   2.646
 8793TIP3    H226319   4.870   6.811   2.530
 8794TIP3   OH226320   6.489   5.752   4.278
 8794TIP3    H126321   6.505   5.723   4.368
 8794TIP3    H226322   6.575   5.748   4.236
 8795TIP3   OH226323   6.419   7.297   3.790
 8795TIP3    H126324   6.344   7.265   3.740
 8795TIP3    H226325   6.405   7.391   3.797
 8796TIP3   OH226326   7.665   6.682   2.552
 8796TIP3    H126327   7.642   6.769   2.518
 8796TIP3    H226328   7.604   6.623   2.509
 8797TIP3   OH226329   7.648   6.634   2.999
 8797TIP3    H126330   7.713   6.573   3.034
 8797TIP3    H226331   7.625   6.598   2.914
 8798TIP3   OH226332   7.008   6.556   3.279
 8798TIP3    H126333   7.028   6.487   3.342
 8798TIP3    H226334   7.039   6.636   3.321
 8799TIP3   OH226335   7.923   6.950   2.640
 8799TIP3    H126336   7.925   6.877   2.701
 8799TIP3    H226337   7.875   7.019   2.686
 8800TIP3   OH226338   6.977   6.975   3.010
 8800TIP3    H126339   6.965   6.880   3.015
 8800TIP3    H226340   7.071   6.987   3.004
 8801TIP3   OH226341   6.658   6.169   2.778
 8801TIP3    H126342   6.615   6.251   2.800
 8801TIP3    H226343   6.591   6.118   2.733
 8802TIP3   OH226344   6.728   6.466   2.982
 8802TIP3    H126345   6.779   6.389   3.008
 8802TIP3    H226346   6.774   6.500   2.905
 8803TIP3   OH226347   7.627   7.351   2.679
 8803TIP3    H126348   7.610   7.315   2.592
 8803TIP3    H226349   7.541   7.375   2.713
 8804TIP3   OH226350   7.571   6.915   2.933
 8804TIP3    H126351   7.517   6.937   2.857
 8804TIP3    H226352   7.627   6.991   2.946
 8805TIP3   OH226353   8.484   6.261   3.035
 8805TIP3    H126354   8.493   6.356   3.042
 8805TIP3    H226355   8.503   6.242   2.943
 8806TIP3   OH226356   7.853   6.423   2.997
 8806TIP3    H126357   7.897   6.351   3.042
 8806TIP3    H226358   7.841   6.391   2.907
 8807TIP3   OH226359   7.250   6.045   2.951
 8807TIP3    H126360   7.229   6.117   2.892
 8807TIP3    H226361   7.198   5.971   2.918
 8808TIP3   OH226362   7.945   6.140   2.592
 8808TIP3    H126363   8.015   6.126   2.656
 8808TIP3    H226364   7.989   6.175   2.515
 8809TIP3   OH226365   6.880   6.254   3.072
 8809TIP3    H126366   6.962   6.235   3.118
 8809TIP3    H226367   6.885   6.201   2.993
 8810TIP3   OH226368   7.307   6.441   2.873
 8810TIP3    H126369   7.397   6.412   2.885
 8810TIP3    H226370   7.261   6.365   2.839
 8811TIP3   OH226371   7.233   6.041   3.403
 8811TIP3    H126372   7.182   6.075   3.330
 8811TIP3    H226373   7.177   6.056   3.480
 8812TIP3   OH226374   7.581   6.907   2.403
 8812TIP3    H126375   7.545   6.876   2.320
 8812TIP3    H226376   7.531   6.986   2.424
 8813TIP3   OH226377   7.365   6.863   3.129
 8813TIP3    H126378   7.315   6.889   3.206
 8813TIP3    H226379   7.325   6.910   3.057
 8814TIP3   OH226380   8.127   6.148   2.800
 8814TIP3    H126381   8.075   6.134   2.880
 8814TIP3    H226382   8.175   6.229   2.817
 8815TIP3   OH226383   7.124   6.152   3.174
 8815TIP3    H126384   7.181   6.225   3.199
 8815TIP3    H226385   7.168   6.111   3.101
 8816TIP3   OH226386   7.180   7.006   3.286
 8816TIP3    H126387   7.161   7.091   3.246
 8816TIP3    H226388   7.104   6.987   3.341
 8817TIP3   OH226389   6.551   6.714   2.529
 8817TIP3    H126390   6.524   6.734   2.440
 8817TIP3    H226391   6.580   6.798   2.565
 8818TIP3   OH226392   8.282   6.091   3.124
 8818TIP3    H126393   8.196   6.121   3.094
 8818TIP3    H226394   8.344   6.154   3.086
 8819TIP3   OH226395   7.575   5.743   3.125
 8819TIP3    H126396   7.563   5.650   3.146
 8819TIP3    H226397   7.500   5.787   3.165
 8820TIP3   OH226398   7.846   7.006   2.373
 8820TIP3    H126399   7.755   6.976   2.375
 8820TIP3    H226400   7.880   6.984   2.460
 8821TIP3   OH226401   7.518   6.524   2.375
 8821TIP3    H126402   7.435   6.567   2.358
 8821TIP3    H226403   7.560   6.518   2.289
 8822TIP3   OH226404   7.484   6.296   2.085
 8822TIP3    H126405   7.546   6.358   2.122
 8822TIP3    H226406   7.537   6.237   2.032
 8823TIP3   OH226407   8.434   6.754   3.001
 8823TIP3    H126408   8.346   6.788   2.986
 8823TIP3    H226409   8.483   6.780   2.923
 8824TIP3   OH226410   7.843   6.601   2.351
 8824TIP3    H126411   7.795   6.631   2.429
 8824TIP3    H226412   7.927   6.572   2.386
 8825TIP3   OH226413   8.108   6.628   3.289
 8825TIP3    H126414   8.098   6.700   3.350
 8825TIP3    H226415   8.048   6.647   3.217
 8826TIP3   OH226416   7.082   6.574   2.768
 8826TIP3    H126417   7.045   6.524   2.695
 8826TIP3    H226418   7.163   6.528   2.790
 8827TIP3   OH226419   7.246   6.993   2.914
 8827TIP3    H126420   7.200   6.961   2.837
 8827TIP3    H226421   7.259   7.087   2.898
 8828TIP3   OH226422   7.291   6.576   3.112
 8828TIP3    H126423   7.293   6.532   3.027
 8828TIP3    H226424   7.229   6.648   3.100
 8829TIP3   OH226425   7.718   7.144   2.954
 8829TIP3    H126426   7.698   7.220   2.899
 8829TIP3    H226427   7.759   7.182   3.033
 8830TIP3   OH226428   7.371   7.123   3.446
 8830TIP3    H126429   7.311   7.183   3.490
 8830TIP3    H226430   7.316   7.071   3.388
 8831TIP3   OH226431   7.701   6.459   2.160
 8831TIP3    H126432   7.754   6.519   2.212
 8831TIP3    H226433   7.727   6.475   2.070
 8832TIP3   OH226434   7.128   6.685   3.547
 8832TIP3    H126435   7.129   6.773   3.585
 8832TIP3    H226436   7.043   6.649   3.571
 8833TIP3   OH226437   7.437   7.147   2.450
 8833TIP3    H126438   7.376   7.174   2.519
 8833TIP3    H226439   7.407   7.194   2.372
 8834TIP3   OH226440   7.154   7.279   3.522
 8834TIP3    H126441   7.130   7.282   3.429
 8834TIP3    H226442   7.072   7.259   3.567
 8835TIP3   OH226443   8.211   5.676   2.233
 8835TIP3    H126444   8.132   5.717   2.269
 8835TIP3    H226445   8.259   5.747   2.191
 8836TIP3   OH226446   6.964   6.433   2.554
 8836TIP3    H126447   6.894   6.484   2.511
 8836TIP3    H226448   6.929   6.344   2.558
 8837TIP3   OH226449   6.750   6.825   3.461
 8837TIP3    H126450   6.666   6.871   3.454
 8837TIP3    H226451   6.730   6.735   3.436
 8838TIP3   OH226452   6.606   7.021   3.080
 8838TIP3    H126453   6.700   7.025   3.100
 8838TIP3    H226454   6.564   7.031   3.166
 8839TIP3   OH226455   7.562   7.272   3.312
 8839TIP3    H126456   7.529   7.359   3.333
 8839TIP3    H226457   7.503   7.212   3.358
 8840TIP3   OH226458   7.342   7.333   2.253
 8840TIP3    H126459   7.313   7.326   2.162
 8840TIP3    H226460   7.324   7.424   2.277
 8841TIP3   OH226461   6.770   7.220   2.633
 8841TIP3    H126462   6.814   7.213   2.718
 8841TIP3    H226463   6.724   7.137   2.623
 8842TIP3   OH226464   8.390   6.624   3.391
 8842TIP3    H126465   8.295   6.616   3.402
 8842TIP3    H226466   8.421   6.534   3.388
 8843TIP3   OH226467   6.961   7.003   3.451
 8843TIP3    H126468   7.003   6.995   3.537
 8843TIP3    H226469   6.887   6.943   3.454
 8844TIP3   OH226470   7.342   5.831   3.254
 8844TIP3    H126471   7.258   5.799   3.220
 8844TIP3    H226472   7.319   5.910   3.303
 8845TIP3   OH226473   7.877   5.951   3.441
 8845TIP3    H126474   7.946   5.929   3.503
 8845TIP3    H226475   7.796   5.936   3.489
 8846TIP3   OH226476   8.113   6.361   3.375
 8846TIP3    H126477   8.079   6.355   3.464
 8846TIP3    H226478   8.100   6.453   3.351
 8847TIP3   OH226479   7.769   6.474   1.892
 8847TIP3    H126480   7.689   6.512   1.854
 8847TIP3    H226481   7.839   6.504   1.835
 8848TIP3   OH226482   7.495   5.864   2.225
 8848TIP3    H126483   7.456   5.870   2.312
 8848TIP3    H226484   7.454   5.787   2.186
 8849TIP3   OH226485   7.283   6.360   3.280
 8849TIP3    H126486   7.221   6.372   3.352
 8849TIP3    H226487   7.273   6.438   3.226
 8850TIP3   OH226488   7.156   6.235   2.779
 8850TIP3    H126489   7.067   6.210   2.802
 8850TIP3    H226490   7.169   6.201   2.690
 8851TIP3   OH226491   7.644   6.319   2.511
 8851TIP3    H126492   7.596   6.391   2.471
 8851TIP3    H226493   7.699   6.285   2.441
 8852TIP3   OH226494   7.827   6.584   3.589
 8852TIP3    H126495   7.800   6.512   3.647
 8852TIP3    H226496   7.916   6.606   3.617
 8853TIP3   OH226497   7.808   6.332   2.738
 8853TIP3    H126498   7.740   6.355   2.674
 8853TIP3    H226499   7.851   6.255   2.701
 8854TIP3   OH226500   7.091   6.376   3.481
 8854TIP3    H126501   7.041   6.433   3.539
 8854TIP3    H226502   7.087   6.290   3.523
 8855TIP3   OH226503   7.152   5.853   2.197
 8855TIP3    H126504   7.141   5.856   2.292
 8855TIP3    H226505   7.075   5.899   2.163
 8856TIP3   OH226506   6.699   5.895   3.064
 8856TIP3    H126507   6.773   5.931   3.113
 8856TIP3    H226508   6.735   5.876   2.977
 8857TIP3   OH226509   6.626   5.877   2.567
 8857TIP3    H126510   6.668   5.913   2.488
 8857TIP3    H226511   6.562   5.944   2.592
 8858TIP3   OH226512   7.516   6.030   2.836
 8858TIP3    H126513   7.437   6.036   2.889
 8858TIP3    H226514   7.587   6.030   2.899
 8859TIP3   OH226515   6.920   6.111   2.843
 8859TIP3    H126516   6.831   6.117   2.810
 8859TIP3    H226517   6.947   6.021   2.823
 8860TIP3   OH226518   7.181   6.112   2.537
 8860TIP3    H126519   7.275   6.125   2.521
 8860TIP3    H226520   7.140   6.132   2.453
 8861TIP3   OH226521   7.972   6.136   3.036
 8861TIP3    H126522   7.952   6.153   3.128
 8861TIP3    H226523   7.903   6.077   3.007
 8862TIP3   OH226524   7.051   6.140   2.299
 8862TIP3    H126525   6.984   6.093   2.248
 8862TIP3    H226526   7.105   6.184   2.234
 8863TIP3   OH226527   7.112   6.928   3.687
 8863TIP3    H126528   7.192   6.951   3.734
 8863TIP3    H226529   7.043   6.933   3.753
 8864TIP3   OH226530   7.557   6.351   2.938
 8864TIP3    H126531   7.637   6.317   2.898
 8864TIP3    H226532   7.561   6.321   3.029
 8865TIP3   OH226533   7.073   5.866   2.825
 8865TIP3    H126534   7.043   5.790   2.875
 8865TIP3    H226535   7.098   5.830   2.740
 8866TIP3   OH226536   7.542   6.283   3.213
 8866TIP3    H126537   7.455   6.316   3.236
 8866TIP3    H226538   7.602   6.337   3.264
 8867TIP3   OH226539   7.277   6.660   2.334
 8867TIP3    H126540   7.203   6.603   2.309
 8867TIP3    H226541   7.255   6.692   2.421
 8868TIP3   OH226542   8.185   6.849   2.939
 8868TIP3    H126543   8.179   6.929   2.887
 8868TIP3    H226544   8.103   6.802   2.923
 8869TIP3   OH226545   7.744   5.972   2.216
 8869TIP3    H126546   7.651   5.949   2.214
 8869TIP3    H226547   7.745   6.067   2.226
 8870TIP3   OH226548   7.799   6.235   2.294
 8870TIP3    H126549   7.894   6.244   2.304
 8870TIP3    H226550   7.773   6.308   2.238
 8871TIP3   OH226551   7.030   6.696   3.015
 8871TIP3    H126552   7.035   6.658   2.927
 8871TIP3    H226553   7.001   6.624   3.071
 8872TIP3   OH226554   7.430   6.819   2.175
 8872TIP3    H126555   7.382   6.901   2.172
 8872TIP3    H226556   7.375   6.761   2.228
 8873TIP3   OH226557   6.894   6.548   3.610
 8873TIP3    H126558   6.878   6.548   3.704
 8873TIP3    H226559   6.807   6.539   3.571
 8874TIP3   OH226560   7.587   6.730   3.623
 8874TIP3    H126561   7.520   6.673   3.586
 8874TIP3    H226562   7.670   6.690   3.598
 8875TIP3   OH226563   7.814   7.222   3.220
 8875TIP3    H126564   7.722   7.227   3.246
 8875TIP3    H226565   7.860   7.277   3.283
 8876TIP3   OH226566   7.940   6.753   2.850
 8876TIP3    H126567   7.853   6.734   2.884
 8876TIP3    H226568   7.966   6.673   2.804
 8877TIP3   OH226569   7.096   6.985   2.665
 8877TIP3    H126570   7.135   7.072   2.673
 8877TIP3    H226571   7.009   7.001   2.630
 8878TIP3   OH226572   6.645   6.302   2.328
 8878TIP3    H126573   6.687   6.386   2.342
 8878TIP3    H226574   6.565   6.305   2.381
 8879TIP3   OH226575   7.201   6.749   2.578
 8879TIP3    H126576   7.175   6.839   2.599
 8879TIP3    H226577   7.159   6.696   2.646
 8880TIP3   OH226578   7.368   7.291   3.108
 8880TIP3    H126579   7.385   7.351   3.036
 8880TIP3    H226580   7.454   7.276   3.149
 8881TIP3   OH226581   7.002   7.248   2.483
 8881TIP3    H126582   6.918   7.251   2.528
 8881TIP3    H226583   7.067   7.270   2.550
 8882TIP3   OH226584   7.669   6.873   1.930
 8882TIP3    H126585   7.730   6.838   1.995
 8882TIP3    H226586   7.585   6.832   1.950
 8883TIP3   OH226587   7.059   6.119   3.606
 8883TIP3    H126588   6.964   6.128   3.612
 8883TIP3    H226589   7.083   6.068   3.684
 8884TIP3   OH226590   7.843   6.760   2.124
 8884TIP3    H126591   7.834   6.714   2.208
 8884TIP3    H226592   7.923   6.812   2.133
 8885TIP3   OH226593   6.798   7.220   3.254
 8885TIP3    H126594   6.850   7.153   3.296
 8885TIP3    H226595   6.822   7.301   3.299
 8886TIP3   OH226596   7.071   6.847   1.943
 8886TIP3    H126597   7.085   6.755   1.918
 8886TIP3    H226598   7.053   6.843   2.037
 8887TIP3   OH226599   7.025   6.863   2.215
 8887TIP3    H126600   7.098   6.835   2.270
 8887TIP3    H226601   7.022   6.958   2.226
 8888TIP3   OH226602   6.749   6.548   2.424
 8888TIP3    H126603   6.681   6.589   2.477
 8888TIP3    H226604   6.766   6.612   2.354
 8889TIP3   OH226605   7.909   6.191   3.298
 8889TIP3    H126606   7.987   6.233   3.334
 8889TIP3    H226607   7.897   6.112   3.351
 8890TIP3   OH226608   7.790   5.930   2.488
 8890TIP3    H126609   7.771   5.949   2.396
 8890TIP3    H226610   7.834   6.009   2.520
 8891TIP3   OH226611   7.285   7.046   2.171
 8891TIP3    H126612   7.201   7.077   2.205
 8891TIP3    H226613   7.323   7.123   2.129
 8892TIP3   OH226614   7.463   6.120   2.576
 8892TIP3    H126615   7.524   6.190   2.552
 8892TIP3    H226616   7.481   6.104   2.669
 8893TIP3   OH226617   7.726   6.416   3.371
 8893TIP3    H126618   7.764   6.474   3.437
 8893TIP3    H226619   7.792   6.348   3.358
 8894TIP3   OH226620   7.613   5.823   2.672
 8894TIP3    H126621   7.588   5.900   2.722
 8894TIP3    H226622   7.678   5.856   2.610
 8895TIP3   OH226623   7.032   7.137   2.236
 8895TIP3    H126624   7.007   7.209   2.178
 8895TIP3    H226625   7.021   7.173   2.324
 8896TIP3   OH226626   7.127   5.841   2.476
 8896TIP3    H126627   7.118   5.933   2.503
 8896TIP3    H226628   7.222   5.825   2.479
 8897TIP3   OH226629   8.383   6.348   3.329
 8897TIP3    H126630   8.290   6.336   3.350
 8897TIP3    H226631   8.388   6.331   3.235
 8898TIP3   OH226632   8.024   6.513   2.741
 8898TIP3    H126633   7.951   6.451   2.739
 8898TIP3    H226634   8.093   6.466   2.788
 8899TIP3   OH226635   6.776   6.745   2.234
 8899TIP3    H126636   6.855   6.798   2.232
 8899TIP3    H226637   6.785   6.687   2.158
 8900TIP3   OH226638   6.684   6.027   2.343
 8900TIP3    H126639   6.690   6.122   2.351
 8900TIP3    H226640   6.642   6.013   2.258
 8901TIP3   OH226641   7.081   5.746   3.212
 8901TIP3    H126642   7.051   5.714   3.127
 8901TIP3    H226643   7.069   5.672   3.271
 8902TIP3   OH226644   6.608   6.984   2.610
 8902TIP3    H126645   6.561   7.022   2.684
 8902TIP3    H226646   6.569   7.026   2.533
 8903TIP3   OH226647   6.792   7.528   3.670
 8903TIP3    H126648   6.875   7.529   3.718
 8903TIP3    H226649   6.774   7.435   3.657
 8904TIP3   OH226650   7.262   7.446   3.708
 8904TIP3    H126651   7.346   7.403   3.723
 8904TIP3    H226652   7.221   7.396   3.637
 8905TIP3   OH226653   7.240   7.042   1.850
 8905TIP3    H126654   7.186   6.974   1.892
 8905TIP3    H226655   7.321   6.997   1.828
 8906TIP3   OH226656   7.924   7.351   3.448
 8906TIP3    H126657   7.879   7.292   3.508
 8906TIP3    H226658   8.017   7.335   3.464
 8907TIP3   OH226659   6.908   6.917   3.876
 8907TIP3    H126660   6.933   6.825   3.884
 8907TIP3    H226661   6.822   6.915   3.834
 8908TIP3   OH226662   6.880   6.545   2.071
 8908TIP3    H126663   6.932   6.524   2.149
 8908TIP3    H226664   6.944   6.555   2.001
 8909TIP3   OH226665   7.520   7.008   3.647
 8909TIP3    H126666   7.479   7.031   3.564
 8909TIP3    H226667   7.555   6.920   3.633
 8910TIP3   OH226668   7.399   6.763   1.905
 8910TIP3    H126669   7.395   6.772   2.000
 8910TIP3    H226670   7.410   6.669   1.891
 8911TIP3   OH226671   7.993   7.011   3.250
 8911TIP3    H126672   8.058   7.043   3.187
 8911TIP3    H226673   7.919   7.071   3.241
 8912TIP3   OH226674   7.035   6.666   3.874
 8912TIP3    H126675   7.114   6.637   3.829
 8912TIP3    H226676   7.065   6.691   3.961
 8913TIP3   OH226677   7.075   6.478   2.277
 8913TIP3    H126678   7.050   6.438   2.361
 8913TIP3    H226679   7.119   6.407   2.229
 8914TIP3   OH226680   7.380   6.566   3.506
 8914TIP3    H126681   7.297   6.606   3.530
 8914TIP3    H226682   7.373   6.548   3.412
 8915TIP3   OH226683   7.207   6.282   2.124
 8915TIP3    H126684   7.180   6.288   2.033
 8915TIP3    H226685   7.302   6.282   2.121
 8916TIP3   OH226686   7.899   6.933   3.643
 8916TIP3    H126687   7.961   6.893   3.582
 8916TIP3    H226688   7.892   6.871   3.715
 8917TIP3   OH226689   7.481   6.337   3.634
 8917TIP3    H126690   7.485   6.262   3.574
 8917TIP3    H226691   7.450   6.409   3.580
 8918TIP3   OH226692   7.492   6.121   3.445
 8918TIP3    H126693   7.521   6.157   3.361
 8918TIP3    H226694   7.401   6.097   3.431
 8919TIP3   OH226695   8.106   6.864   3.448
 8919TIP3    H126696   8.052   6.917   3.389
 8919TIP3    H226697   8.196   6.879   3.418
 8920TIP3   OH226698   7.364   6.420   3.876
 8920TIP3    H126699   7.295   6.356   3.896
 8920TIP3    H226700   7.393   6.397   3.787
 8921TIP3   OH226701   7.616   5.884   3.526
 8921TIP3    H126702   7.574   5.966   3.501
 8921TIP3    H226703   7.548   5.818   3.514
 8922TIP3   OH226704   7.740   6.366   3.733
 8922TIP3    H126705   7.727   6.352   3.827
 8922TIP3    H226706   7.654   6.350   3.694
 8923TIP3   OH226707   7.996   6.332   3.618
 8923TIP3    H126708   7.911   6.323   3.660
 8923TIP3    H226709   8.044   6.394   3.674
 8924TIP3   OH226710   8.275   6.282   3.853
 8924TIP3    H126711   8.212   6.216   3.824
 8924TIP3    H226712   8.230   6.365   3.843
 8925TIP3   OH226713   7.202   6.197   3.941
 8925TIP3    H126714   7.207   6.108   3.905
 8925TIP3    H226715   7.240   6.190   4.028
 8926TIP3   OH226716   7.693   5.866   3.789
 8926TIP3    H126717   7.761   5.800   3.783
 8926TIP3    H226718   7.660   5.875   3.700
 8927TIP3   OH226719   7.755   6.076   3.955
 8927TIP3    H126720   7.733   6.010   3.889
 8927TIP3    H226721   7.689   6.144   3.944
 8928TIP3   OH226722   7.031   7.363   2.070
 8928TIP3    H126723   7.115   7.325   2.047
 8928TIP3    H226724   6.997   7.399   1.988
 8929TIP3   OH226725   6.394   7.315   2.680
 8929TIP3    H126726   6.330   7.257   2.637
 8929TIP3    H226727   6.442   7.257   2.739
 8930TIP3   OH226728   6.544   7.159   2.850
 8930TIP3    H126729   6.542   7.090   2.916
 8930TIP3    H226730   6.593   7.230   2.890
 8931TIP3   OH226731   8.064   6.230   1.941
 8931TIP3    H126732   8.013   6.251   1.863
 8931TIP3    H226733   8.059   6.135   1.948
 8932TIP3   OH226734   8.071   6.502   2.465
 8932TIP3    H126735   8.100   6.412   2.453
 8932TIP3    H226736   8.071   6.515   2.560
 8933TIP3   OH226737   6.735   6.519   3.253
 8933TIP3    H126738   6.710   6.521   3.161
 8933TIP3    H226739   6.829   6.538   3.253
 8934TIP3   OH226740   8.356   6.891   3.337
 8934TIP3    H126741   8.386   6.803   3.356
 8934TIP3    H226742   8.390   6.910   3.249
 8935TIP3   OH226743   8.021   5.958   1.945
 8935TIP3    H126744   8.076   5.884   1.971
 8935TIP3    H226745   7.933   5.922   1.937
 8936TIP3   OH226746   8.084   6.228   2.362
 8936TIP3    H126747   8.124   6.142   2.377
 8936TIP3    H226748   8.117   6.255   2.276
 8937TIP3   OH226749   8.248   6.391   2.854
 8937TIP3    H126750   8.320   6.421   2.798
 8937TIP3    H226751   8.266   6.430   2.940
 8938TIP3   OH226752   8.315   6.520   3.089
 8938TIP3    H126753   8.258   6.543   3.162
 8938TIP3    H226754   8.365   6.600   3.071
 8939TIP3   OH226755   6.937   6.251   3.887
 8939TIP3    H126756   7.032   6.249   3.902
 8939TIP3    H226757   6.905   6.170   3.927
 8940TIP3   OH226758   8.181   5.982   2.430
 8940TIP3    H126759   8.224   5.957   2.511
 8940TIP3    H226760   8.121   5.910   2.411
 8941TIP3   OH226761   6.911   5.966   3.231
 8941TIP3    H126762   6.966   5.888   3.235
 8941TIP3    H226763   6.973   6.038   3.217
 8942TIP3   OH226764   6.694   6.240   3.286
 8942TIP3    H126765   6.749   6.218   3.211
 8942TIP3    H226766   6.699   6.335   3.293
 8943TIP3   OH226767   6.685   5.741   2.797
 8943TIP3    H126768   6.597   5.728   2.832
 8943TIP3    H226769   6.671   5.795   2.719
 8944TIP3   OH226770   6.904   5.798   3.616
 8944TIP3    H126771   6.854   5.793   3.697
 8944TIP3    H226772   6.848   5.846   3.556
 8945TIP3   OH226773   6.928   7.241   3.687
 8945TIP3    H126774   6.836   7.219   3.673
 8945TIP3    H226775   6.942   7.225   3.781
 8946TIP3   OH226776   7.134   7.281   3.243
 8946TIP3    H126777   7.087   7.358   3.209
 8946TIP3    H226778   7.216   7.281   3.194
 8947TIP3   OH226779   7.581   7.559   3.360
 8947TIP3    H126780   7.606   7.530   3.448
 8947TIP3    H226781   7.656   7.534   3.305
 8948TIP3   OH226782   8.446   5.983   3.402
 8948TIP3    H126783   8.407   6.069   3.389
 8948TIP3    H226784   8.511   5.976   3.333
 8949TIP3   OH226785   6.803   7.545   3.284
 8949TIP3    H126786   6.713   7.568   3.261
 8949TIP3    H226787   6.827   7.608   3.352
 8950TIP3   OH226788   7.037   7.519   3.141
 8950TIP3    H126789   6.952   7.528   3.185
 8950TIP3    H226790   7.020   7.547   3.051
 8951TIP3   OH226791   7.443   7.487   2.930
 8951TIP3    H126792   7.366   7.493   2.873
 8951TIP3    H226793   7.465   7.578   2.950
 8952TIP3   OH226794   6.720   7.325   3.009
 8952TIP3    H126795   6.742   7.293   3.097
 8952TIP3    H226796   6.789   7.292   2.953
 8953TIP3   OH226797   6.918   7.205   2.864
 8953TIP3    H126798   6.934   7.126   2.915
 8953TIP3    H226799   7.005   7.234   2.837
 8954TIP3   OH226800   7.754   5.952   2.972
 8954TIP3    H126801   7.713   5.880   3.019
 8954TIP3    H226802   7.821   5.911   2.917
 8955TIP3   OH226803   8.246   5.856   2.879
 8955TIP3    H126804   8.269   5.907   2.802
 8955TIP3    H226805   8.151   5.864   2.886
 8956TIP3   OH226806   8.358   5.936   2.638
 8956TIP3    H126807   8.424   5.872   2.665
 8956TIP3    H226808   8.400   5.986   2.568
 8957TIP3   OH226809   6.992   5.642   2.971
 8957TIP3    H126810   6.902   5.612   2.977
 8957TIP3    H226811   7.044   5.562   2.962
 8958TIP3   OH226812   6.807   5.542   2.628
 8958TIP3    H126813   6.832   5.592   2.550
 8958TIP3    H226814   6.771   5.607   2.687
 8959TIP3   OH226815   7.461   5.679   2.863
 8959TIP3    H126816   7.506   5.726   2.793
 8959TIP3    H226817   7.495   5.717   2.943
 8960TIP3   OH226818   7.967   5.835   2.837
 8960TIP3    H126819   7.977   5.804   2.747
 8960TIP3    H226820   7.964   5.755   2.890
 8961TIP3   OH226821   8.007   5.774   2.402
 8961TIP3    H126822   7.925   5.820   2.421
 8961TIP3    H226823   7.993   5.685   2.434
 8962TIP3   OH226824   6.493   7.109   2.396
 8962TIP3    H126825   6.412   7.069   2.366
 8962TIP3    H226826   6.488   7.200   2.364
 8963TIP3   OH226827   6.913   5.677   2.389
 8963TIP3    H126828   6.958   5.618   2.329
 8963TIP3    H226829   6.982   5.733   2.424
 8964TIP3   OH226830   7.403   5.868   2.486
 8964TIP3    H126831   7.463   5.816   2.540
 8964TIP3    H226832   7.421   5.959   2.510
 8965TIP3   OH226833   7.280   7.279   1.984
 8965TIP3    H126834   7.312   7.338   1.917
 8965TIP3    H226835   7.263   7.196   1.939
 8966TIP3   OH226836   7.208   5.922   3.858
 8966TIP3    H126837   7.172   5.854   3.915
 8966TIP3    H226838   7.300   5.929   3.884
 8967TIP3   OH226839   7.457   5.928   3.980
 8967TIP3    H126840   7.537   5.903   3.934
 8967TIP3    H226841   7.444   5.859   4.046
 8968TIP3   OH226842   6.587   7.115   2.046
 8968TIP3    H126843   6.581   7.105   2.141
 8968TIP3    H226844   6.670   7.074   2.023
 8969TIP3   OH226845   8.252   6.002   3.778
 8969TIP3    H126846   8.272   6.005   3.872
 8969TIP3    H226847   8.331   6.033   3.735
 8970TIP3   OH226848   1.001   7.004   4.658
 8970TIP3    H126849   0.992   7.087   4.705
 8970TIP3    H226850   1.018   7.029   4.568
 8971TIP3   OH226851   0.398   6.876   4.289
 8971TIP3    H126852   0.457   6.912   4.356
 8971TIP3    H226853   0.422   6.922   4.209
 8972TIP3   OH226854   1.012   7.215   4.853
 8972TIP3    H126855   0.938   7.273   4.835
 8972TIP3    H226856   1.066   7.265   4.915
 8973TIP3   OH226857   0.576   6.958   4.484
 8973TIP3    H126858   0.644   6.891   4.484
 8973TIP3    H226859   0.621   7.039   4.507
 8974TIP3   OH226860   0.704   7.932   4.696
 8974TIP3    H126861   0.653   7.869   4.746
 8974TIP3    H226862   0.714   8.007   4.755
 8975TIP3   OH226863   0.889   7.535   4.650
 8975TIP3    H126864   0.803   7.577   4.657
 8975TIP3    H226865   0.920   7.557   4.562
 8976TIP3   OH226866   0.681   6.486   3.906
 8976TIP3    H126867   0.604   6.511   3.958
 8976TIP3    H226868   0.700   6.562   3.852
 8977TIP3   OH226869   0.831   7.367   5.137
 8977TIP3    H126870   0.753   7.422   5.132
 8977TIP3    H226871   0.798   7.280   5.161
 8978TIP3   OH226872   0.640   7.649   4.632
 8978TIP3    H126873   0.684   7.708   4.572
 8978TIP3    H226874   0.547   7.657   4.610
 8979TIP3   OH226875   0.693   7.100   3.811
 8979TIP3    H126876   0.637   7.056   3.747
 8979TIP3    H226877   0.693   7.192   3.783
 8980TIP3   OH226878   0.913   7.884   4.916
 8980TIP3    H126879   0.843   7.949   4.913
 8980TIP3    H226880   0.937   7.869   4.825
 8981TIP3   OH226881   0.804   7.087   5.000
 8981TIP3    H126882   0.737   7.134   4.950
 8981TIP3    H226883   0.887   7.120   4.965
 8982TIP3   OH226884   0.478   7.264   4.433
 8982TIP3    H126885   0.428   7.186   4.456
 8982TIP3    H226886   0.562   7.253   4.478
 8983TIP3   OH226887   0.506   7.365   3.469
 8983TIP3    H126888   0.453   7.312   3.410
 8983TIP3    H226889   0.572   7.405   3.412
 8984TIP3   OH226890   0.726   7.057   5.466
 8984TIP3    H126891   0.725   6.961   5.466
 8984TIP3    H226892   0.655   7.082   5.525
 8985TIP3   OH226893   0.567   7.558   3.840
 8985TIP3    H126894   0.624   7.626   3.803
 8985TIP3    H226895   0.620   7.517   3.909
 8986TIP3   OH226896   0.739   7.424   4.014
 8986TIP3    H126897   0.680   7.379   4.075
 8986TIP3    H226898   0.805   7.466   4.070
 8987TIP3   OH226899   0.804   7.785   4.458
 8987TIP3    H126900   0.863   7.724   4.414
 8987TIP3    H226901   0.787   7.854   4.394
 8988TIP3   OH226902   0.678   7.342   3.681
 8988TIP3    H126903   0.607   7.346   3.617
 8988TIP3    H226904   0.661   7.416   3.740
 8989TIP3   OH226905   0.552   7.000   3.599
 8989TIP3    H126906   0.491   7.047   3.543
 8989TIP3    H226907   0.530   6.907   3.585
 8990TIP3   OH226908   0.580   7.275   4.176
 8990TIP3    H126909   0.560   7.184   4.154
 8990TIP3    H226910   0.536   7.290   4.260
 8991TIP3   OH226911   0.798   7.647   5.020
 8991TIP3    H126912   0.889   7.617   5.016
 8991TIP3    H226913   0.803   7.738   4.990
 8992TIP3   OH226914   1.035   7.508   5.030
 8992TIP3    H126915   0.965   7.460   5.073
 8992TIP3    H226916   1.113   7.455   5.044
 8993TIP3   OH226917   0.509   6.725   3.583
 8993TIP3    H126918   0.579   6.715   3.647
 8993TIP3    H226919   0.430   6.693   3.628
 8994TIP3   OH226920   0.554   7.011   4.073
 8994TIP3    H126921   0.603   6.929   4.080
 8994TIP3    H226922   0.584   7.050   3.991
 8995TIP3   OH226923   0.711   7.187   4.564
 8995TIP3    H126924   0.793   7.204   4.519
 8995TIP3    H226925   0.721   7.229   4.650
 8996TIP3   OH226926   0.764   7.341   4.796
 8996TIP3    H126927   0.698   7.394   4.840
 8996TIP3    H226928   0.812   7.404   4.742
 8997TIP3   OH226929   1.235   6.932   5.331
 8997TIP3    H126930   1.295   6.870   5.291
 8997TIP3    H226931   1.201   6.984   5.258
 8998TIP3   OH226932   0.676   6.760   4.095
 8998TIP3    H126933   0.713   6.744   4.182
 8998TIP3    H226934   0.603   6.698   4.089
 8999TIP3   OH226935   1.086   7.066   5.144
 8999TIP3    H126936   1.026   7.104   5.207
 8999TIP3    H226937   1.035   6.997   5.102
 9000TIP3   OH226938   0.737   6.690   3.732
 9000TIP3    H126939   0.782   6.628   3.674
 9000TIP3    H226940   0.795   6.765   3.736
 9001TIP3   OH226941   0.999   6.815   5.040
 9001TIP3    H126942   0.926   6.822   4.978
 9001TIP3    H226943   1.034   6.727   5.026
 9002TIP3   OH226944   0.728   6.604   4.553
 9002TIP3    H126945   0.775   6.652   4.485
 9002TIP3    H226946   0.636   6.625   4.538
 9003TIP3   OH226947   0.828   6.713   4.325
 9003TIP3    H126948   0.894   6.654   4.289
 9003TIP3    H226949   0.862   6.801   4.308
 9004TIP3   OH226950   0.461   6.640   4.504
 9004TIP3    H126951   0.413   6.717   4.472
 9004TIP3    H226952   0.412   6.612   4.581
 9005TIP3   OH226953   0.478   6.562   4.072
 9005TIP3    H126954   0.391   6.586   4.040
 9005TIP3    H226955   0.464   6.479   4.118
 9006TIP3   OH226956   0.740   6.781   5.461
 9006TIP3    H126957   0.748   6.755   5.552
 9006TIP3    H226958   0.830   6.782   5.428
 9007TIP3   OH226959   1.966   7.663   3.747
 9007TIP3    H126960   1.926   7.714   3.817
 9007TIP3    H226961   1.892   7.632   3.694
 9008TIP3   OH226962   1.929   7.696   4.113
 9008TIP3    H126963   1.966   7.689   4.201
 9008TIP3    H226964   1.881   7.614   4.100
 9009TIP3   OH226965   1.248   7.597   4.484
 9009TIP3    H126966   1.281   7.530   4.545
 9009TIP3    H226967   1.288   7.678   4.515
 9010TIP3   OH226968   2.225   7.986   3.856
 9010TIP3    H126969   2.198   7.919   3.919
 9010TIP3    H226970   2.236   8.065   3.909
 9011TIP3   OH226971   1.315   7.883   4.263
 9011TIP3    H126972   1.287   7.792   4.255
 9011TIP3    H226973   1.359   7.902   4.180
 9012TIP3   OH226974   0.912   7.207   3.954
 9012TIP3    H126975   0.872   7.291   3.976
 9012TIP3    H226976   0.841   7.155   3.917
 9013TIP3   OH226977   0.967   7.500   4.149
 9013TIP3    H126978   1.028   7.431   4.174
 9013TIP3    H226979   1.020   7.564   4.101
 9014TIP3   OH226980   1.763   7.936   4.195
 9014TIP3    H126981   1.772   7.874   4.123
 9014TIP3    H226982   1.852   7.954   4.223
 9015TIP3   OH226983   2.765   7.259   4.144
 9015TIP3    H126984   2.786   7.342   4.189
 9015TIP3    H226985   2.794   7.273   4.054
 9016TIP3   OH226986   2.153   7.431   4.173
 9016TIP3    H126987   2.187   7.346   4.200
 9016TIP3    H226988   2.115   7.415   4.086
 9017TIP3   OH226989   1.501   7.086   4.129
 9017TIP3    H126990   1.480   7.160   4.072
 9017TIP3    H226991   1.446   7.014   4.098
 9018TIP3   OH226992   2.202   7.188   3.770
 9018TIP3    H126993   2.266   7.181   3.841
 9018TIP3    H226994   2.252   7.224   3.697
 9019TIP3   OH226995   1.127   7.298   4.254
 9019TIP3    H126996   1.210   7.282   4.298
 9019TIP3    H226997   1.132   7.247   4.173
 9020TIP3   OH226998   1.571   7.491   4.035
 9020TIP3    H126999   1.661   7.467   4.055
 9020TIP3    H227000   1.529   7.408   4.011
 9021TIP3   OH227001   2.830   7.473   4.315
 9021TIP3    H127002   2.741   7.509   4.312
 9021TIP3    H227003   2.867   7.507   4.396
 9022TIP3   OH227004   1.483   7.084   4.579
 9022TIP3    H127005   1.431   7.122   4.508
 9022TIP3    H227006   1.430   7.099   4.658
 9023TIP3   OH227007   1.922   7.839   3.484
 9023TIP3    H127008   1.882   7.812   3.402
 9023TIP3    H227009   1.852   7.886   3.531
 9024TIP3   OH227010   1.594   7.824   4.371
 9024TIP3    H127011   1.526   7.888   4.392
 9024TIP3    H227012   1.650   7.869   4.308
 9025TIP3   OH227013   2.373   7.198   3.980
 9025TIP3    H127014   2.326   7.181   4.062
 9025TIP3    H227015   2.429   7.273   3.999
 9026TIP3   OH227016   1.371   7.194   4.350
 9026TIP3    H127017   1.426   7.268   4.377
 9026TIP3    H227018   1.419   7.153   4.278
 9027TIP3   OH227019   4.293   0.049   4.421
 9027TIP3    H127020   4.217   0.003   4.385
 9027TIP3    H227021   4.261   0.090   4.501
 9028TIP3   OH227022   0.839   7.619   3.741
 9028TIP3    H127023   0.783   7.657   3.673
 9028TIP3    H227024   0.871   7.695   3.790
 9029TIP3   OH227025   2.564   7.145   4.309
 9029TIP3    H127026   2.478   7.176   4.280
 9029TIP3    H227027   2.625   7.176   4.242
 9030TIP3   OH227028   1.825   6.783   4.300
 9030TIP3    H127029   1.817   6.691   4.326
 9030TIP3    H227030   1.751   6.827   4.342
 9031TIP3   OH227031   4.907   0.022   3.633
 9031TIP3    H127032   4.821   0.053   3.661
 9031TIP3    H227033   4.959   0.019   3.713
 9032TIP3   OH227034   5.381   0.165   4.177
 9032TIP3    H127035   5.326   0.088   4.169
 9032TIP3    H227036   5.334   0.222   4.237
 9033TIP3   OH227037   1.787   7.556   3.564
 9033TIP3    H127038   1.701   7.596   3.557
 9033TIP3    H227039   1.815   7.542   3.473
 9034TIP3   OH227040   1.721   7.338   3.271
 9034TIP3    H127041   1.788   7.383   3.323
 9034TIP3    H227042   1.770   7.279   3.214
 9035TIP3   OH227043   2.672   7.798   4.146
 9035TIP3    H127044   2.588   7.843   4.154
 9035TIP3    H227045   2.695   7.809   4.054
 9036TIP3   OH227046   2.160   7.706   3.558
 9036TIP3    H127047   2.094   7.685   3.624
 9036TIP3    H227048   2.237   7.654   3.584
 9037TIP3   OH227049   2.343   7.661   4.428
 9037TIP3    H127050   2.352   7.736   4.487
 9037TIP3    H227051   2.255   7.671   4.391
 9038TIP3   OH227052   1.346   7.616   3.935
 9038TIP3    H127053   1.308   7.560   3.867
 9038TIP3    H227054   1.425   7.569   3.963
 9039TIP3   OH227055   1.442   7.945   4.035
 9039TIP3    H127056   1.394   7.978   3.959
 9039TIP3    H227057   1.496   8.019   4.063
 9040TIP3   OH227058   1.481   7.595   4.274
 9040TIP3    H127059   1.521   7.579   4.188
 9040TIP3    H227060   1.520   7.678   4.303
 9041TIP3   OH227061   4.498   0.022   4.627
 9041TIP3    H127062   4.534   0.106   4.599
 9041TIP3    H227063   4.426   0.005   4.566
 9042TIP3   OH227064   1.962   7.467   3.359
 9042TIP3    H127065   2.019   7.536   3.393
 9042TIP3    H227066   1.980   7.466   3.265
 9043TIP3   OH227067   1.381   7.703   4.731
 9043TIP3    H127068   1.391   7.788   4.773
 9043TIP3    H227069   1.291   7.677   4.749
 9044TIP3   OH227070   2.421   6.744   3.385
 9044TIP3    H127071   2.403   6.791   3.467
 9044TIP3    H227072   2.465   6.810   3.330
 9045TIP3   OH227073   1.236   7.449   3.742
 9045TIP3    H127074   1.168   7.498   3.695
 9045TIP3    H227075   1.189   7.374   3.778
 9046TIP3   OH227076   0.995   7.819   4.665
 9046TIP3    H127077   0.922   7.809   4.604
 9046TIP3    H227078   1.028   7.729   4.677
 9047TIP3   OH227079   2.607   7.633   4.632
 9047TIP3    H127080   2.518   7.654   4.606
 9047TIP3    H227081   2.615   7.538   4.617
 9048TIP3   OH227082   1.212   7.937   4.553
 9048TIP3    H127083   1.249   7.995   4.620
 9048TIP3    H227084   1.131   7.904   4.592
 9049TIP3   OH227085   1.591   6.875   4.428
 9049TIP3    H127086   1.507   6.842   4.397
 9049TIP3    H227087   1.569   6.955   4.477
 9050TIP3   OH227088   2.133   6.986   4.628
 9050TIP3    H127089   2.203   6.965   4.690
 9050TIP3    H227090   2.053   6.972   4.677
 9051TIP3   OH227091   2.356   7.409   4.540
 9051TIP3    H127092   2.312   7.409   4.624
 9051TIP3    H227093   2.338   7.496   4.503
 9052TIP3   OH227094   2.015   7.462   3.093
 9052TIP3    H127095   1.995   7.448   3.000
 9052TIP3    H227096   2.048   7.552   3.097
 9053TIP3   OH227097   1.797   6.857   3.394
 9053TIP3    H127098   1.762   6.891   3.476
 9053TIP3    H227099   1.732   6.793   3.365
 9054TIP3   OH227100   1.531   7.394   4.448
 9054TIP3    H127101   1.483   7.408   4.529
 9054TIP3    H227102   1.509   7.470   4.394
 9055TIP3   OH227103   1.413   7.278   3.959
 9055TIP3    H127104   1.323   7.259   3.986
 9055TIP3    H227105   1.420   7.243   3.870
 9056TIP3   OH227106   1.902   7.341   3.688
 9056TIP3    H127107   1.861   7.416   3.647
 9056TIP3    H227108   1.960   7.305   3.621
 9057TIP3   OH227109   2.091   7.616   4.754
 9057TIP3    H127110   2.066   7.551   4.820
 9057TIP3    H227111   2.179   7.645   4.781
 9058TIP3   OH227112   2.062   7.382   3.920
 9058TIP3    H127113   1.997   7.416   3.859
 9058TIP3    H227114   2.097   7.304   3.876
 9059TIP3   OH227115   1.361   7.408   4.664
 9059TIP3    H127116   1.360   7.477   4.731
 9059TIP3    H227117   1.345   7.327   4.712
 9060TIP3   OH227118   1.406   6.903   3.366
 9060TIP3    H127119   1.399   6.902   3.462
 9060TIP3    H227120   1.327   6.947   3.337
 9061TIP3   OH227121   0.949   6.938   4.246
 9061TIP3    H127122   1.020   6.977   4.297
 9061TIP3    H227123   0.983   6.935   4.156
 9062TIP3   OH227124   0.892   6.918   3.749
 9062TIP3    H127125   0.934   6.955   3.671
 9062TIP3    H227126   0.827   6.984   3.775
 9063TIP3   OH227127   2.077   7.630   4.340
 9063TIP3    H127128   2.109   7.562   4.281
 9063TIP3    H227129   2.038   7.583   4.413
 9064TIP3   OH227130   1.763   7.078   4.014
 9064TIP3    H127131   1.684   7.079   4.068
 9064TIP3    H227132   1.835   7.073   4.077
 9065TIP3   OH227133   1.173   7.159   4.020
 9065TIP3    H127134   1.083   7.165   3.988
 9065TIP3    H227135   1.199   7.069   4.003
 9066TIP3   OH227136   1.427   7.149   3.718
 9066TIP3    H127137   1.520   7.166   3.702
 9066TIP3    H227138   1.384   7.171   3.635
 9067TIP3   OH227139   2.224   7.163   4.212
 9067TIP3    H127140   2.209   7.177   4.306
 9067TIP3    H227141   2.152   7.105   4.185
 9068TIP3   OH227142   1.294   7.177   3.481
 9068TIP3    H127143   1.224   7.132   3.432
 9068TIP3    H227144   1.347   7.219   3.413
 9069TIP3   OH227145   1.385   7.938   4.882
 9069TIP3    H127146   1.451   7.944   4.951
 9069TIP3    H227147   1.302   7.934   4.929
 9070TIP3   OH227148   1.827   7.430   4.120
 9070TIP3    H127149   1.898   7.380   4.080
 9070TIP3    H227150   1.821   7.396   4.210
 9071TIP3   OH227151   1.320   6.910   4.006
 9071TIP3    H127152   1.289   6.836   4.057
 9071TIP3    H227153   1.349   6.872   3.922
 9072TIP3   OH227154   1.798   7.346   4.388
 9072TIP3    H127155   1.710   7.375   4.413
 9072TIP3    H227156   1.857   7.398   4.442
 9073TIP3   OH227157   1.546   7.679   3.548
 9073TIP3    H127158   1.471   7.622   3.530
 9073TIP3    H227159   1.534   7.707   3.639
 9074TIP3   OH227160   2.421   7.922   4.135
 9074TIP3    H127161   2.453   7.952   4.050
 9074TIP3    H227162   2.340   7.876   4.116
 9075TIP3   OH227163   1.942   7.953   4.512
 9075TIP3    H127164   1.989   7.951   4.595
 9075TIP3    H227165   1.861   8.001   4.532
 9076TIP3   OH227166   2.066   7.241   3.485
 9076TIP3    H127167   2.161   7.252   3.489
 9076TIP3    H227168   2.036   7.310   3.426
 9077TIP3   OH227169   1.222   7.633   4.179
 9077TIP3    H127170   1.256   7.636   4.090
 9077TIP3    H227171   1.294   7.597   4.231
 9078TIP3   OH227172   1.596   7.873   3.361
 9078TIP3    H127173   1.556   7.947   3.406
 9078TIP3    H227174   1.586   7.800   3.423
 9079TIP3   OH227175   1.131   7.599   4.786
 9079TIP3    H127176   1.125   7.596   4.882
 9079TIP3    H227177   1.051   7.555   4.756
 9080TIP3   OH227178   1.847   7.729   4.817
 9080TIP3    H127179   1.782   7.676   4.772
 9080TIP3    H227180   1.931   7.702   4.778
 9081TIP3   OH227181   2.480   7.352   3.305
 9081TIP3    H127182   2.424   7.307   3.242
 9081TIP3    H227183   2.489   7.441   3.270
 9082TIP3   OH227184   5.582   0.133   4.366
 9082TIP3    H127185   5.501   0.175   4.335
 9082TIP3    H227186   5.628   0.109   4.285
 9083TIP3   OH227187   2.188   7.789   4.050
 9083TIP3    H127188   2.097   7.765   4.067
 9083TIP3    H227189   2.226   7.711   4.009
 9084TIP3   OH227190   0.899   7.329   3.514
 9084TIP3    H127191   0.955   7.405   3.530
 9084TIP3    H227192   0.826   7.340   3.575
 9085TIP3   OH227193   1.515   7.782   3.796
 9085TIP3    H127194   1.464   7.856   3.763
 9085TIP3    H227195   1.458   7.739   3.860
 9086TIP3   OH227196   2.028   7.974   4.249
 9086TIP3    H127197   2.008   7.977   4.343
 9086TIP3    H227198   2.106   7.918   4.243
 9087TIP3   OH227199   1.904   7.821   3.205
 9087TIP3    H127200   1.975   7.771   3.165
 9087TIP3    H227201   1.825   7.791   3.161
 9088TIP3   OH227202   1.321   7.153   4.795
 9088TIP3    H127203   1.226   7.156   4.810
 9088TIP3    H227204   1.356   7.110   4.873
 9089TIP3   OH227205   2.158   7.668   3.283
 9089TIP3    H127206   2.150   7.679   3.378
 9089TIP3    H227207   2.239   7.714   3.261
 9090TIP3   OH227208   1.320   7.787   3.312
 9090TIP3    H127209   1.252   7.759   3.250
 9090TIP3    H227210   1.378   7.842   3.260
 9091TIP3   OH227211   1.043   7.554   3.585
 9091TIP3    H127212   0.974   7.569   3.650
 9091TIP3    H227213   1.038   7.630   3.527
 9092TIP3   OH227214   2.172   7.212   4.474
 9092TIP3    H127215   2.244   7.262   4.512
 9092TIP3    H227216   2.160   7.139   4.534
 9093TIP3   OH227217   2.044   7.000   3.650
 9093TIP3    H127218   2.012   7.052   3.577
 9093TIP3    H227219   2.093   7.062   3.704
 9094TIP3   OH227220   1.707   7.160   3.753
 9094TIP3    H127221   1.773   7.226   3.731
 9094TIP3    H227222   1.720   7.144   3.847
 9095TIP3   OH227223   2.006   7.456   4.542
 9095TIP3    H127224   2.031   7.507   4.618
 9095TIP3    H227225   2.056   7.375   4.549
 9096TIP3   OH227226   1.865   6.880   3.844
 9096TIP3    H127227   1.839   6.953   3.900
 9096TIP3    H227228   1.929   6.918   3.783
 9097TIP3   OH227229   1.387   6.882   3.644
 9097TIP3    H127230   1.376   6.970   3.679
 9097TIP3    H227231   1.482   6.867   3.646
 9098TIP3   OH227232   2.622   7.367   4.532
 9098TIP3    H127233   2.527   7.369   4.540
 9098TIP3    H227234   2.638   7.322   4.449
 9099TIP3   OH227235   2.285   7.558   3.926
 9099TIP3    H127236   2.209   7.501   3.935
 9099TIP3    H227237   2.353   7.515   3.979
 9100TIP3   OH227238   0.978   7.741   3.388
 9100TIP3    H127239   0.937   7.789   3.316
 9100TIP3    H227240   1.033   7.676   3.346
 9101TIP3   OH227241   0.937   7.058   3.518
 9101TIP3    H127242   0.945   7.153   3.529
 9101TIP3    H227243   0.850   7.045   3.480
 9102TIP3   OH227244   1.330   6.787   4.390
 9102TIP3    H127245   1.299   6.756   4.305
 9102TIP3    H227246   1.318   6.712   4.448
 9103TIP3   OH227247   1.158   7.900   5.038
 9103TIP3    H127248   1.191   7.813   5.059
 9103TIP3    H227249   1.071   7.884   5.001
 9104TIP3   OH227250   1.134   7.539   3.291
 9104TIP3    H127251   1.184   7.522   3.371
 9104TIP3    H227252   1.199   7.537   3.221
 9105TIP3   OH227253   1.763   7.980   4.870
 9105TIP3    H127254   1.734   8.009   4.784
 9105TIP3    H227255   1.796   7.891   4.855
 9106TIP3   OH227256   1.659   7.769   3.112
 9106TIP3    H127257   1.632   7.826   3.184
 9106TIP3    H227258   1.612   7.687   3.129
 9107TIP3   OH227259   5.097  -0.002   4.449
 9107TIP3    H127260   5.176   0.045   4.474
 9107TIP3    H227261   5.027   0.041   4.498
 9108TIP3   OH227262   1.313   7.663   5.046
 9108TIP3    H127263   1.399   7.641   5.011
 9108TIP3    H227264   1.331   7.700   5.133
 9109TIP3   OH227265   1.340   7.504   3.487
 9109TIP3    H127266   1.309   7.471   3.572
 9109TIP3    H227267   1.375   7.426   3.443
 9110TIP3   OH227268   1.632   7.585   4.698
 9110TIP3    H127269   1.548   7.630   4.701
 9110TIP3    H227270   1.673   7.616   4.617
 9111TIP3   OH227271   1.449   7.315   3.306
 9111TIP3    H127272   1.426   7.295   3.215
 9111TIP3    H227273   1.544   7.323   3.305
 9112TIP3   OH227274   2.131   7.944   4.787
 9112TIP3    H127275   2.222   7.920   4.803
 9112TIP3    H227276   2.089   7.936   4.873
 9113TIP3   OH227277   2.321   7.626   2.960
 9113TIP3    H127278   2.270   7.584   2.892
 9113TIP3    H227279   2.395   7.666   2.913
 9114TIP3   OH227280   1.739   7.365   4.818
 9114TIP3    H127281   1.742   7.292   4.756
 9114TIP3    H227282   1.701   7.437   4.767
 9115TIP3   OH227283   1.744   7.165   4.614
 9115TIP3    H127284   1.770   7.207   4.532
 9115TIP3    H227285   1.652   7.143   4.601
 9116TIP3   OH227286   1.788   7.686   4.498
 9116TIP3    H127287   1.866   7.741   4.491
 9116TIP3    H227288   1.720   7.736   4.454
 9117TIP3   OH227289   2.349   7.654   4.871
 9117TIP3    H127290   2.404   7.576   4.882
 9117TIP3    H227291   2.412   7.725   4.856
 9118TIP3   OH227292   2.403   7.852   4.617
 9118TIP3    H127293   2.332   7.905   4.580
 9118TIP3    H227294   2.483   7.889   4.579
 9119TIP3   OH227295   1.612   7.467   5.050
 9119TIP3    H127296   1.546   7.401   5.072
 9119TIP3    H227297   1.645   7.440   4.965
 9120TIP3   OH227298   1.867   6.931   4.706
 9120TIP3    H127299   1.826   7.012   4.676
 9120TIP3    H227300   1.800   6.864   4.693
 9121TIP3   OH227301   1.998   7.413   4.913
 9121TIP3    H127302   1.990   7.408   5.008
 9121TIP3    H227303   1.910   7.392   4.880
 9122TIP3   OH227304   2.235   7.352   4.774
 9122TIP3    H127305   2.159   7.360   4.831
 9122TIP3    H227306   2.308   7.337   4.833
 9123TIP3   OH227307   2.473   7.327   4.925
 9123TIP3    H127308   2.486   7.233   4.934
 9123TIP3    H227309   2.465   7.359   5.015
 9124TIP3   OH227310   1.460   7.240   5.118
 9124TIP3    H127311   1.467   7.150   5.087
 9124TIP3    H227312   1.494   7.238   5.207
 9125TIP3   OH227313   1.940   6.920   4.971
 9125TIP3    H127314   2.010   6.855   4.965
 9125TIP3    H227315   1.907   6.928   4.882
 9126TIP3   OH227316   2.023   7.138   5.118
 9126TIP3    H127317   1.996   7.067   5.060
 9126TIP3    H227318   1.951   7.200   5.116
 9127TIP3   OH227319   0.728   7.651   3.472
 9127TIP3    H127320   0.809   7.695   3.445
 9127TIP3    H227321   0.700   7.604   3.394
 9128TIP3   OH227322   5.420   0.384   4.622
 9128TIP3    H127323   5.347   0.401   4.681
 9128TIP3    H227324   5.493   0.435   4.658
 9129TIP3   OH227325   2.396   7.801   3.320
 9129TIP3    H127326   2.457   7.866   3.286
 9129TIP3    H227327   2.439   7.766   3.398
 9130TIP3   OH227328   2.539   7.673   3.512
 9130TIP3    H127329   2.482   7.635   3.579
 9130TIP3    H227330   2.609   7.715   3.561
 9131TIP3   OH227331   5.404   0.000   3.933
 9131TIP3    H127332   5.474  -0.054   3.897
 9131TIP3    H227333   5.403   0.078   3.878
 9132TIP3   OH227334   2.488   7.589   3.172
 9132TIP3    H127335   2.421   7.600   3.104
 9132TIP3    H227336   2.476   7.665   3.229
 9133TIP3   OH227337   2.318   7.271   3.098
 9133TIP3    H127338   2.284   7.354   3.064
 9133TIP3    H227339   2.286   7.205   3.036
 9134TIP3   OH227340   2.351   7.538   3.661
 9134TIP3    H127341   2.360   7.444   3.649
 9134TIP3    H227342   2.335   7.549   3.755
 9135TIP3   OH227343   0.990   7.592   4.404
 9135TIP3    H127344   0.978   7.555   4.317
 9135TIP3    H227345   1.085   7.590   4.417
 9136TIP3   OH227346   2.634   7.937   4.501
 9136TIP3    H127347   2.705   7.872   4.495
 9136TIP3    H227348   2.665   8.010   4.447
 9137TIP3   OH227349   2.825   7.751   4.524
 9137TIP3    H127350   2.751   7.709   4.568
 9137TIP3    H227351   2.898   7.690   4.537
 9138TIP3   OH227352   2.348   7.267   3.539
 9138TIP3    H127353   2.392   7.183   3.550
 9138TIP3    H227354   2.393   7.307   3.465
 9139TIP3   OH227355   2.499   7.434   4.053
 9139TIP3    H127356   2.580   7.455   4.006
 9139TIP3    H227357   2.512   7.471   4.140
 9140TIP3   OH227358   2.570   7.578   4.281
 9140TIP3    H127359   2.494   7.606   4.332
 9140TIP3    H227360   2.602   7.658   4.240
 9141TIP3   OH227361   1.202   7.294   5.047
 9141TIP3    H127362   1.295   7.292   5.069
 9141TIP3    H227363   1.166   7.217   5.090
 9142TIP3   OH227364   3.031   7.188   4.825
 9142TIP3    H127365   3.092   7.127   4.783
 9142TIP3    H227366   2.992   7.237   4.753
 9143TIP3   OH227367   2.449   7.010   3.590
 9143TIP3    H127368   2.507   7.005   3.666
 9143TIP3    H227369   2.372   6.959   3.615
 9144TIP3   OH227370   1.163   7.011   4.405
 9144TIP3    H127371   1.218   6.933   4.412
 9144TIP3    H227372   1.225   7.083   4.391
 9145TIP3   OH227373   0.959   7.273   4.481
 9145TIP3    H127374   1.005   7.267   4.397
 9145TIP3    H227375   0.969   7.364   4.508
 9146TIP3   OH227376   2.883   7.306   4.631
 9146TIP3    H127377   2.805   7.349   4.666
 9146TIP3    H227378   2.849   7.236   4.575
 9147TIP3   OH227379   2.529   6.938   3.231
 9147TIP3    H127380   2.560   6.883   3.159
 9147TIP3    H227381   2.583   7.017   3.226
 9148TIP3   OH227382   0.937   6.775   3.976
 9148TIP3    H127383   0.849   6.768   4.014
 9148TIP3    H227384   0.926   6.834   3.902
 9149TIP3   OH227385   1.159   6.828   4.795
 9149TIP3    H127386   1.124   6.852   4.881
 9149TIP3    H227387   1.108   6.881   4.733
 9150TIP3   OH227388   2.789   7.067   4.514
 9150TIP3    H127389   2.702   7.062   4.474
 9150TIP3    H227390   2.824   6.978   4.508
 9151TIP3   OH227391   2.000   6.988   4.143
 9151TIP3    H127392   1.960   6.918   4.195
 9151TIP3    H227393   2.067   6.944   4.091
 9152TIP3   OH227394   2.507   6.885   4.033
 9152TIP3    H127395   2.548   6.938   3.965
 9152TIP3    H227396   2.419   6.922   4.043
 9153TIP3   OH227397   2.621   6.976   3.800
 9153TIP3    H127398   2.690   6.915   3.773
 9153TIP3    H227399   2.659   7.062   3.788
 9154TIP3   OH227400   1.241   6.686   4.148
 9154TIP3    H127401   1.150   6.656   4.154
 9154TIP3    H227402   1.292   6.605   4.142
 9155TIP3   OH227403   1.054   6.584   3.802
 9155TIP3    H127404   1.080   6.638   3.727
 9155TIP3    H227405   1.018   6.647   3.865
 9156TIP3   OH227406   1.711   6.728   4.038
 9156TIP3    H127407   1.757   6.781   3.974
 9156TIP3    H227408   1.747   6.756   4.123
 9157TIP3   OH227409   2.214   6.864   4.014
 9157TIP3    H127410   2.246   6.823   3.934
 9157TIP3    H227411   2.213   6.794   4.078
 9158TIP3   OH227412   2.198   6.797   3.545
 9158TIP3    H127413   2.141   6.865   3.580
 9158TIP3    H227414   2.205   6.733   3.616
 9159TIP3   OH227415   1.165   6.723   3.567
 9159TIP3    H127416   1.209   6.661   3.508
 9159TIP3    H227417   1.235   6.778   3.601
 9160TIP3   OH227418   1.667   6.913   3.642
 9160TIP3    H127419   1.718   6.863   3.706
 9160TIP3    H227420   1.676   7.004   3.670
 9161TIP3   OH227421   1.460   6.966   5.029
 9161TIP3    H127422   1.424   6.900   5.088
 9161TIP3    H227423   1.552   6.973   5.054
 9162TIP3   OH227424   1.709   6.972   5.150
 9162TIP3    H127425   1.790   6.952   5.103
 9162TIP3    H227426   1.702   6.904   5.216
 9163TIP3   OH227427   2.535   7.056   4.944
 9163TIP3    H127428   2.551   7.027   5.034
 9163TIP3    H227429   2.621   7.051   4.903
 9164TIP3   OH227430   3.743   7.860   3.277
 9164TIP3    H127431   3.736   7.955   3.289
 9164TIP3    H227432   3.682   7.841   3.205
 9165TIP3   OH227433   3.698   7.966   3.611
 9165TIP3    H127434   3.759   7.951   3.684
 9165TIP3    H227435   3.669   7.879   3.586
 9166TIP3   OH227436   3.028   7.843   3.971
 9166TIP3    H127437   3.067   7.782   4.033
 9166TIP3    H227438   3.096   7.909   3.956
 9167TIP3   OH227439   5.943   0.155   3.731
 9167TIP3    H127440   5.867   0.104   3.705
 9167TIP3    H227441   5.995   0.164   3.651
 9168TIP3   OH227442   2.710   7.461   3.436
 9168TIP3    H127443   2.673   7.545   3.460
 9168TIP3    H227444   2.636   7.410   3.404
 9169TIP3   OH227445   2.771   7.744   3.634
 9169TIP3    H127446   2.823   7.669   3.664
 9169TIP3    H227447   2.836   7.809   3.607
 9170TIP3   OH227448   6.380   0.181   3.675
 9170TIP3    H127449   6.408   0.102   3.630
 9170TIP3    H227450   6.461   0.221   3.707
 9171TIP3   OH227451   4.561   7.515   3.632
 9171TIP3    H127452   4.582   7.599   3.674
 9171TIP3    H227453   4.584   7.528   3.540
 9172TIP3   OH227454   3.949   7.686   3.663
 9172TIP3    H127455   3.988   7.601   3.686
 9172TIP3    H227456   3.914   7.673   3.575
 9173TIP3   OH227457   3.294   7.344   3.621
 9173TIP3    H127458   3.278   7.416   3.561
 9173TIP3    H227459   3.242   7.271   3.587
 9174TIP3   OH227460   3.989   7.444   3.243
 9174TIP3    H127461   4.048   7.439   3.318
 9174TIP3    H227462   4.043   7.479   3.172
 9175TIP3   OH227463   2.920   7.543   3.744
 9175TIP3    H127464   3.004   7.534   3.788
 9175TIP3    H227465   2.930   7.494   3.663
 9176TIP3   OH227466   3.361   7.746   3.541
 9176TIP3    H127467   3.455   7.728   3.552
 9176TIP3    H227468   3.325   7.663   3.509
 9177TIP3   OH227469   4.627   7.730   3.803
 9177TIP3    H127470   4.539   7.767   3.797
 9177TIP3    H227471   4.663   7.767   3.884
 9178TIP3   OH227472   3.279   7.340   4.067
 9178TIP3    H127473   3.228   7.377   3.994
 9178TIP3    H227474   3.225   7.356   4.144
 9179TIP3   OH227475   6.508   0.045   3.086
 9179TIP3    H127476   6.435   0.071   3.029
 9179TIP3    H227477   6.534   0.126   3.129
 9180TIP3   OH227478   6.221   0.068   3.858
 9180TIP3    H127479   6.158   0.135   3.883
 9180TIP3    H227480   6.275   0.109   3.790
 9181TIP3   OH227481   4.160   7.460   3.458
 9181TIP3    H127482   4.120   7.438   3.543
 9181TIP3    H227483   4.218   7.533   3.477
 9182TIP3   OH227484   3.164   7.450   3.841
 9182TIP3    H127485   3.220   7.524   3.865
 9182TIP3    H227486   3.210   7.408   3.768
 9183TIP3   OH227487   6.089   0.304   3.910
 9183TIP3    H127488   6.014   0.260   3.870
 9183TIP3    H227489   6.053   0.344   3.989
 9184TIP3   OH227490   2.651   7.904   3.258
 9184TIP3    H127491   2.648   7.982   3.203
 9184TIP3    H227492   2.697   7.932   3.337
 9185TIP3   OH227493   4.357   7.403   3.797
 9185TIP3    H127494   4.270   7.427   3.764
 9185TIP3    H227495   4.418   7.433   3.729
 9186TIP3   OH227496   3.622   7.039   3.786
 9186TIP3    H127497   3.614   6.947   3.811
 9186TIP3    H227498   3.547   7.082   3.828
 9187TIP3   OH227499   7.195   0.412   3.686
 9187TIP3    H127500   7.122   0.352   3.673
 9187TIP3    H227501   7.173   0.489   3.633
 9188TIP3   OH227502   3.586   7.775   3.057
 9188TIP3    H127503   3.508   7.830   3.049
 9188TIP3    H227504   3.634   7.789   2.975
 9189TIP3   OH227505   3.524   7.602   2.753
 9189TIP3    H127506   3.585   7.656   2.802
 9189TIP3    H227507   3.579   7.539   2.706
 9190TIP3   OH227508   7.311   0.043   3.635
 9190TIP3    H127509   7.225   0.085   3.644
 9190TIP3    H227510   7.336   0.059   3.544
 9191TIP3   OH227511   3.905   7.876   3.019
 9191TIP3    H127512   3.851   7.914   3.089
 9191TIP3    H227513   3.991   7.862   3.061
 9192TIP3   OH227514   4.138   7.921   3.916
 9192TIP3    H127515   4.141   7.999   3.971
 9192TIP3    H227516   4.055   7.929   3.868
 9193TIP3   OH227517   3.146   7.869   3.419
 9193TIP3    H127518   3.109   7.810   3.354
 9193TIP3    H227519   3.221   7.820   3.454
 9194TIP3   OH227520   6.091   0.192   3.512
 9194TIP3    H127521   6.118   0.284   3.507
 9194TIP3    H227522   6.171   0.143   3.491
 9195TIP3   OH227523   3.255   7.861   3.768
 9195TIP3    H127524   3.298   7.832   3.687
 9195TIP3    H227525   3.302   7.941   3.792
 9196TIP3   OH227526   6.290   0.290   4.119
 9196TIP3    H127527   6.336   0.369   4.090
 9196TIP3    H227528   6.227   0.272   4.050
 9197TIP3   OH227529   3.749   7.757   2.829
 9197TIP3    H127530   3.809   7.812   2.878
 9197TIP3    H227531   3.779   7.763   2.738
 9198TIP3   OH227532   3.174   7.962   4.222
 9198TIP3    H127533   3.182   8.045   4.269
 9198TIP3    H227534   3.083   7.936   4.233
 9199TIP3   OH227535   4.259   6.997   2.887
 9199TIP3    H127536   4.181   7.016   2.939
 9199TIP3    H227537   4.272   7.075   2.833
 9200TIP3   OH227538   3.026   7.704   3.233
 9200TIP3    H127539   2.965   7.753   3.178
 9200TIP3    H227540   2.976   7.627   3.261
 9201TIP3   OH227541   5.643   0.046   4.117
 9201TIP3    H127542   5.552   0.042   4.088
 9201TIP3    H227543   5.664  -0.044   4.142
 9202TIP3   OH227544   4.394   7.891   4.113
 9202TIP3    H127545   4.307   7.904   4.076
 9202TIP3    H227546   4.410   7.797   4.103
 9203TIP3   OH227547   5.839   0.194   4.019
 9203TIP3    H127548   5.879   0.243   4.091
 9203TIP3    H227549   5.770   0.143   4.061
 9204TIP3   OH227550   3.386   7.130   3.916
 9204TIP3    H127551   3.301   7.099   3.884
 9204TIP3    H227552   3.365   7.210   3.964
 9205TIP3   OH227553   3.928   7.245   4.114
 9205TIP3    H127554   3.997   7.222   4.175
 9205TIP3    H227555   3.847   7.228   4.162
 9206TIP3   OH227556   4.153   7.668   4.027
 9206TIP3    H127557   4.109   7.668   4.111
 9206TIP3    H227558   4.133   7.753   3.989
 9207TIP3   OH227559   3.830   7.738   2.566
 9207TIP3    H127560   3.793   7.732   2.478
 9207TIP3    H227561   3.902   7.800   2.557
 9208TIP3   OH227562   3.527   7.179   2.880
 9208TIP3    H127563   3.498   7.182   2.971
 9208TIP3    H227564   3.495   7.095   2.848
 9209TIP3   OH227565   3.325   7.653   3.930
 9209TIP3    H127566   3.280   7.666   4.014
 9209TIP3    H227567   3.300   7.729   3.877
 9210TIP3   OH227568   3.209   7.536   3.447
 9210TIP3    H127569   3.120   7.514   3.473
 9210TIP3    H227570   3.217   7.502   3.358
 9211TIP3   OH227571   3.702   7.558   3.168
 9211TIP3    H127572   3.659   7.637   3.137
 9211TIP3    H227573   3.769   7.539   3.102
 9212TIP3   OH227574   3.890   7.872   4.243
 9212TIP3    H127575   3.861   7.807   4.307
 9212TIP3    H227576   3.979   7.893   4.270
 9213TIP3   OH227577   3.853   7.650   3.411
 9213TIP3    H127578   3.807   7.718   3.361
 9213TIP3    H227579   3.861   7.576   3.350
 9214TIP3   OH227580   3.154   7.667   4.147
 9214TIP3    H127581   3.178   7.731   4.214
 9214TIP3    H227582   3.140   7.586   4.195
 9215TIP3   OH227583   3.185   7.151   2.853
 9215TIP3    H127584   3.183   7.153   2.949
 9215TIP3    H227585   3.114   7.209   2.826
 9216TIP3   OH227586   2.749   7.199   3.723
 9216TIP3    H127587   2.815   7.235   3.782
 9216TIP3    H227588   2.796   7.181   3.642
 9217TIP3   OH227589   2.682   7.171   3.239
 9217TIP3    H127590   2.724   7.205   3.160
 9217TIP3    H227591   2.620   7.239   3.265
 9218TIP3   OH227592   3.864   7.884   3.826
 9218TIP3    H127593   3.899   7.821   3.764
 9218TIP3    H227594   3.833   7.831   3.900
 9219TIP3   OH227595   3.560   7.331   3.504
 9219TIP3    H127596   3.485   7.333   3.564
 9219TIP3    H227597   3.636   7.326   3.562
 9220TIP3   OH227598   2.971   7.412   3.509
 9220TIP3    H127599   2.882   7.414   3.473
 9220TIP3    H227600   3.002   7.324   3.490
 9221TIP3   OH227601   3.215   7.406   3.205
 9221TIP3    H127602   3.309   7.418   3.195
 9221TIP3    H227603   3.179   7.424   3.118
 9222TIP3   OH227604   4.027   7.420   3.706
 9222TIP3    H127605   4.004   7.436   3.797
 9222TIP3    H227606   3.959   7.362   3.674
 9223TIP3   OH227607   3.088   7.424   2.962
 9223TIP3    H127608   3.019   7.388   2.906
 9223TIP3    H227609   3.147   7.469   2.901
 9224TIP3   OH227610   6.012   0.179   4.381
 9224TIP3    H127611   6.084   0.188   4.443
 9224TIP3    H227612   5.933   0.174   4.436
 9225TIP3   OH227613   3.625   7.688   3.603
 9225TIP3    H127614   3.694   7.647   3.551
 9225TIP3    H227615   3.629   7.644   3.688
 9226TIP3   OH227616   3.116   7.167   3.493
 9226TIP3    H127617   3.086   7.090   3.542
 9226TIP3    H227618   3.156   7.131   3.414
 9227TIP3   OH227619   3.593   7.593   3.878
 9227TIP3    H127620   3.506   7.627   3.898
 9227TIP3    H227621   3.652   7.647   3.930
 9228TIP3   OH227622   3.362   7.927   3.029
 9228TIP3    H127623   3.286   7.878   2.999
 9228TIP3    H227624   3.338   7.958   3.116
 9229TIP3   OH227625   7.063   0.155   3.622
 9229TIP3    H127626   7.089   0.200   3.542
 9229TIP3    H227627   6.978   0.118   3.602
 9230TIP3   OH227628   3.786   7.272   2.873
 9230TIP3    H127629   3.691   7.259   2.873
 9230TIP3    H227630   3.797   7.366   2.888
 9231TIP3   OH227631   6.596   0.198   4.017
 9231TIP3    H127632   6.634   0.189   4.105
 9231TIP3    H227633   6.512   0.241   4.032
 9232TIP3   OH227634   3.865   7.527   2.945
 9232TIP3    H127635   3.959   7.537   2.962
 9232TIP3    H227636   3.839   7.610   2.904
 9233TIP3   OH227637   3.003   7.895   3.650
 9233TIP3    H127638   3.044   7.896   3.563
 9233TIP3    H227639   3.076   7.877   3.710
 9234TIP3   OH227640   6.212   0.100   2.830
 9234TIP3    H127641   6.258   0.173   2.871
 9234TIP3    H227642   6.213   0.031   2.896
 9235TIP3   OH227643   2.918   7.863   4.287
 9235TIP3    H127644   2.926   7.841   4.379
 9235TIP3    H227645   2.845   7.811   4.256
 9236TIP3   OH227646   3.646   7.987   4.299
 9236TIP3    H127647   3.585   7.940   4.242
 9236TIP3    H227648   3.733   7.964   4.266
 9237TIP3   OH227649   4.281   7.623   2.783
 9237TIP3    H127650   4.224   7.575   2.722
 9237TIP3    H227651   4.284   7.712   2.748
 9238TIP3   OH227652   7.390   0.401   3.863
 9238TIP3    H127653   7.306   0.422   3.822
 9238TIP3    H227654   7.447   0.381   3.789
 9239TIP3   OH227655   6.826   0.038   3.553
 9239TIP3    H127656   6.735   0.050   3.525
 9239TIP3    H227657   6.856  -0.037   3.501
 9240TIP3   OH227658   2.702   7.576   3.000
 9240TIP3    H127659   2.758   7.652   3.017
 9240TIP3    H227660   2.632   7.583   3.064
 9241TIP3   OH227661   6.135   0.022   3.273
 9241TIP3    H127662   6.070   0.079   3.231
 9241TIP3    H227663   6.083  -0.033   3.331
 9242TIP3   OH227664   6.640   0.227   3.740
 9242TIP3    H127665   6.627   0.223   3.835
 9242TIP3    H227666   6.724   0.183   3.725
 9243TIP3   OH227667   6.584   0.040   2.578
 9243TIP3    H127668   6.634   0.023   2.658
 9243TIP3    H227669   6.493   0.027   2.603
 9244TIP3   OH227670   3.111   7.417   4.275
 9244TIP3    H127671   3.016   7.424   4.284
 9244TIP3    H227672   3.138   7.367   4.352
 9245TIP3   OH227673   6.747   0.021   2.797
 9245TIP3    H127674   6.735  -0.014   2.885
 9245TIP3    H227675   6.841   0.029   2.786
 9246TIP3   OH227676   5.926   0.134   2.797
 9246TIP3    H127677   5.888   0.115   2.711
 9246TIP3    H227678   6.016   0.159   2.778
 9247TIP3   OH227679   2.824   7.804   3.078
 9247TIP3    H127680   2.763   7.831   3.147
 9247TIP3    H227681   2.814   7.872   3.010
 9248TIP3   OH227682   3.960   7.477   3.966
 9248TIP3    H127683   4.038   7.521   4.000
 9248TIP3    H227684   3.950   7.400   4.023
 9249TIP3   OH227685   3.843   7.227   3.147
 9249TIP3    H127686   3.825   7.246   3.055
 9249TIP3    H227687   3.884   7.306   3.180
 9250TIP3   OH227688   3.490   7.414   3.250
 9250TIP3    H127689   3.562   7.467   3.218
 9250TIP3    H227690   3.511   7.397   3.342
 9251TIP3   OH227691   3.798   7.711   4.029
 9251TIP3    H127692   3.830   7.758   4.107
 9251TIP3    H227693   3.850   7.631   4.027
 9252TIP3   OH227694   3.661   7.126   3.332
 9252TIP3    H127695   3.640   7.202   3.386
 9252TIP3    H227696   3.729   7.157   3.272
 9253TIP3   OH227697   3.175   7.137   3.133
 9253TIP3    H127698   3.164   7.226   3.166
 9253TIP3    H227699   3.269   7.120   3.138
 9254TIP3   OH227700   4.419   7.625   4.020
 9254TIP3    H127701   4.324   7.626   4.027
 9254TIP3    H227702   4.436   7.583   3.936
 9255TIP3   OH227703   4.082   7.820   3.412
 9255TIP3    H127704   4.006   7.761   3.419
 9255TIP3    H227705   4.151   7.776   3.462
 9256TIP3   OH227706   2.765   7.981   2.873
 9256TIP3    H127707   2.808   8.065   2.887
 9256TIP3    H227708   2.826   7.931   2.819
 9257TIP3   OH227709   2.736   7.306   3.011
 9257TIP3    H127710   2.747   7.400   3.020
 9257TIP3    H227711   2.678   7.296   2.935
 9258TIP3   OH227712   3.121   7.046   3.879
 9258TIP3    H127713   3.094   7.012   3.793
 9258TIP3    H227714   3.114   6.971   3.937
 9259TIP3   OH227715   5.787   0.111   4.538
 9259TIP3    H127716   5.832   0.027   4.537
 9259TIP3    H227717   5.720   0.103   4.470
 9260TIP3   OH227718   2.948   7.814   2.756
 9260TIP3    H127719   2.991   7.792   2.838
 9260TIP3    H227720   3.014   7.796   2.689
 9261TIP3   OH227721   6.396   0.223   4.357
 9261TIP3    H127722   6.365   0.254   4.272
 9261TIP3    H227723   6.428   0.135   4.339
 9262TIP3   OH227724   3.472   8.020   2.586
 9262TIP3    H127725   3.439   8.060   2.666
 9262TIP3    H227726   3.445   7.928   2.593
 9263TIP3   OH227727   6.860   0.239   3.933
 9263TIP3    H127728   6.873   0.325   3.974
 9263TIP3    H227729   6.772   0.213   3.958
 9264TIP3   OH227730   3.117   7.905   4.536
 9264TIP3    H127731   3.202   7.876   4.501
 9264TIP3    H227732   3.138   7.945   4.620
 9265TIP3   OH227733   3.115   7.748   2.965
 9265TIP3    H127734   3.107   7.707   3.051
 9265TIP3    H227735   3.172   7.689   2.916
 9266TIP3   OH227736   3.416   7.834   4.182
 9266TIP3    H127737   3.337   7.889   4.188
 9266TIP3    H227738   3.463   7.869   4.106
 9267TIP3   OH227739   3.251   7.563   2.796
 9267TIP3    H127740   3.227   7.557   2.704
 9267TIP3    H227741   3.345   7.581   2.795
 9268TIP3   OH227742   6.746   0.173   4.274
 9268TIP3    H127743   6.836   0.145   4.261
 9268TIP3    H227744   6.728   0.155   4.366
 9269TIP3   OH227745   4.047   7.885   2.461
 9269TIP3    H127746   4.034   7.838   2.378
 9269TIP3    H227747   4.027   7.976   2.440
 9270TIP3   OH227748   3.533   7.623   4.305
 9270TIP3    H127749   3.539   7.549   4.245
 9270TIP3    H227750   3.494   7.693   4.253
 9271TIP3   OH227751   3.540   7.422   4.105
 9271TIP3    H127752   3.568   7.461   4.022
 9271TIP3    H227753   3.448   7.398   4.090
 9272TIP3   OH227754   3.578   7.945   3.996
 9272TIP3    H127755   3.664   7.969   3.962
 9272TIP3    H227756   3.516   7.997   3.945
 9273TIP3   OH227757   4.147   7.902   4.363
 9273TIP3    H127758   4.195   7.819   4.364
 9273TIP3    H227759   4.216   7.969   4.360
 9274TIP3   OH227760   7.022   0.109   4.103
 9274TIP3    H127761   6.960   0.160   4.051
 9274TIP3    H227762   7.108   0.141   4.075
 9275TIP3   OH227763   3.403   7.725   4.535
 9275TIP3    H127764   3.343   7.653   4.558
 9275TIP3    H227765   3.441   7.698   4.452
 9276TIP3   OH227766   3.662   7.187   4.195
 9276TIP3    H127767   3.621   7.268   4.164
 9276TIP3    H227768   3.596   7.120   4.181
 9277TIP3   OH227769   3.793   7.669   4.399
 9277TIP3    H127770   3.783   7.662   4.494
 9277TIP3    H227771   3.706   7.649   4.365
 9278TIP3   OH227772   4.034   7.613   4.263
 9278TIP3    H127773   3.957   7.618   4.320
 9278TIP3    H227774   4.106   7.594   4.322
 9279TIP3   OH227775   4.269   7.584   4.415
 9279TIP3    H127776   4.282   7.489   4.422
 9279TIP3    H227777   4.263   7.614   4.506
 9280TIP3   OH227778   3.255   7.497   4.604
 9280TIP3    H127779   3.261   7.408   4.570
 9280TIP3    H227780   3.290   7.491   4.693
 9281TIP3   OH227781   3.737   7.177   4.459
 9281TIP3    H127782   3.806   7.111   4.452
 9281TIP3    H227783   3.703   7.185   4.369
 9282TIP3   OH227784   3.819   7.395   4.606
 9282TIP3    H127785   3.793   7.323   4.547
 9282TIP3    H227786   3.746   7.456   4.602
 9283TIP3   OH227787   2.502   7.941   2.959
 9283TIP3    H127788   2.590   7.977   2.947
 9283TIP3    H227789   2.496   7.870   2.895
 9284TIP3   OH227790   7.224   0.626   4.117
 9284TIP3    H127791   7.165   0.675   4.174
 9284TIP3    H227792   7.311   0.660   4.137
 9285TIP3   OH227793   7.019   0.046   2.797
 9285TIP3    H127794   7.050   0.132   2.772
 9285TIP3    H227795   7.076   0.019   2.869
 9286TIP3   OH227796   4.339   7.939   2.995
 9286TIP3    H127797   4.272   7.907   3.055
 9286TIP3    H227798   4.398   7.990   3.050
 9287TIP3   OH227799   7.205   0.285   3.429
 9287TIP3    H127800   7.271   0.224   3.397
 9287TIP3    H227801   7.189   0.345   3.356
 9288TIP3   OH227802   4.263   7.856   2.631
 9288TIP3    H127803   4.189   7.858   2.571
 9288TIP3    H227804   4.246   7.927   2.692
 9289TIP3   OH227805   4.131   7.514   2.582
 9289TIP3    H127806   4.084   7.562   2.514
 9289TIP3    H227807   4.112   7.422   2.566
 9290TIP3   OH227808   4.143   7.806   3.143
 9290TIP3    H127809   4.153   7.712   3.131
 9290TIP3    H227810   4.128   7.817   3.237
 9291TIP3   OH227811   2.773   7.840   3.889
 9291TIP3    H127812   2.767   7.800   3.802
 9291TIP3    H227813   2.867   7.836   3.910
 9292TIP3   OH227814   7.261   0.205   4.014
 9292TIP3    H127815   7.324   0.134   4.000
 9292TIP3    H227816   7.287   0.272   3.951
 9293TIP3   OH227817   4.610   8.016   4.008
 9293TIP3    H127818   4.536   7.970   4.047
 9293TIP3    H227819   4.685   7.959   4.024
 9294TIP3   OH227820   4.078   7.244   2.550
 9294TIP3    H127821   4.141   7.221   2.618
 9294TIP3    H227822   3.996   7.204   2.580
 9295TIP3   OH227823   4.144   7.531   3.020
 9295TIP3    H127824   4.186   7.446   3.033
 9295TIP3    H227825   4.192   7.570   2.947
 9296TIP3   OH227826   4.295   7.691   3.538
 9296TIP3    H127827   4.376   7.711   3.490
 9296TIP3    H227828   4.309   7.728   3.625
 9297TIP3   OH227829   4.368   7.837   3.767
 9297TIP3    H127830   4.290   7.866   3.814
 9297TIP3    H227831   4.401   7.916   3.724
 9298TIP3   OH227832   2.992   7.541   4.543
 9298TIP3    H127833   3.086   7.541   4.561
 9298TIP3    H227834   2.960   7.461   4.585
 9299TIP3   OH227835   4.822   7.445   4.310
 9299TIP3    H127836   4.885   7.385   4.271
 9299TIP3    H227837   4.787   7.495   4.237
 9300TIP3   OH227838   4.253   7.278   3.068
 9300TIP3    H127839   4.297   7.264   3.152
 9300TIP3    H227840   4.189   7.207   3.062
 9301TIP3   OH227841   2.952   7.265   3.902
 9301TIP3    H127842   3.008   7.188   3.906
 9301TIP3    H227843   3.012   7.338   3.887
 9302TIP3   OH227844   2.740   7.526   3.958
 9302TIP3    H127845   2.792   7.520   3.878
 9302TIP3    H227846   2.775   7.603   4.004
 9303TIP3   OH227847   4.679   7.564   4.113
 9303TIP3    H127848   4.597   7.606   4.140
 9303TIP3    H227849   4.651   7.491   4.058
 9304TIP3   OH227850   4.307   7.202   2.707
 9304TIP3    H127851   4.350   7.137   2.651
 9304TIP3    H227852   4.367   7.276   2.709
 9305TIP3   OH227853   2.734   7.025   3.462
 9305TIP3    H127854   2.645   7.020   3.497
 9305TIP3    H227855   2.727   7.085   3.387
 9306TIP3   OH227856   2.950   7.102   4.281
 9306TIP3    H127857   2.902   7.100   4.364
 9306TIP3    H227858   2.892   7.148   4.221
 9307TIP3   OH227859   4.584   7.324   4.000
 9307TIP3    H127860   4.498   7.321   3.959
 9307TIP3    H227861   4.618   7.235   3.993
 9308TIP3   OH227862   3.796   7.245   3.633
 9308TIP3    H127863   3.757   7.172   3.680
 9308TIP3    H227864   3.865   7.205   3.580
 9309TIP3   OH227865   4.301   7.144   3.525
 9309TIP3    H127866   4.339   7.194   3.452
 9309TIP3    H227867   4.209   7.171   3.526
 9310TIP3   OH227868   4.413   7.228   3.290
 9310TIP3    H127869   4.482   7.170   3.259
 9310TIP3    H227870   4.448   7.316   3.276
 9311TIP3   OH227871   3.035   6.941   3.636
 9311TIP3    H127872   2.945   6.909   3.642
 9311TIP3    H227873   3.089   6.862   3.631
 9312TIP3   OH227874   2.832   6.828   3.280
 9312TIP3    H127875   2.870   6.878   3.208
 9312TIP3    H227876   2.807   6.894   3.344
 9313TIP3   OH227877   3.502   6.986   3.526
 9313TIP3    H127878   3.552   7.031   3.457
 9313TIP3    H227879   3.544   7.013   3.608
 9314TIP3   OH227880   4.012   7.129   3.504
 9314TIP3    H127881   4.026   7.095   3.416
 9314TIP3    H227882   4.014   7.052   3.561
 9315TIP3   OH227883   4.064   7.071   3.070
 9315TIP3    H127884   3.984   7.118   3.092
 9315TIP3    H227885   4.053   6.984   3.110
 9316TIP3   OH227886   2.960   6.972   3.053
 9316TIP3    H127887   3.006   6.913   2.994
 9316TIP3    H227888   3.028   7.030   3.088
 9317TIP3   OH227889   3.450   7.166   3.146
 9317TIP3    H127890   3.511   7.114   3.198
 9317TIP3    H227891   3.462   7.255   3.177
 9318TIP3   OH227892   3.255   7.224   4.519
 9318TIP3    H127893   3.219   7.157   4.577
 9318TIP3    H227894   3.348   7.229   4.544
 9319TIP3   OH227895   3.505   7.229   4.639
 9319TIP3    H127896   3.586   7.208   4.592
 9319TIP3    H227897   3.497   7.161   4.705
 9320TIP3   OH227898   4.331   7.312   4.430
 9320TIP3    H127899   4.348   7.285   4.520
 9320TIP3    H227900   4.417   7.307   4.387
 9321TIP3   OH227901   8.360   0.198   2.694
 9321TIP3    H127902   8.331   0.286   2.669
 9321TIP3    H227903   8.290   0.140   2.662
 9322TIP3   OH227904   8.361   0.205   3.091
 9322TIP3    H127905   8.406   0.189   3.173
 9322TIP3    H227906   8.320   0.121   3.069
 9323TIP3   OH227907   7.658   0.085   3.451
 9323TIP3    H127908   7.694   0.021   3.512
 9323TIP3    H227909   7.725   0.153   3.446
 9324TIP3   OH227910   0.112   0.481   2.764
 9324TIP3    H127911   0.103   0.412   2.829
 9324TIP3    H227912   0.085   0.560   2.809
 9325TIP3   OH227913   7.756   0.404   3.216
 9325TIP3    H127914   7.739   0.317   3.182
 9325TIP3    H227915   7.813   0.445   3.151
 9326TIP3   OH227916   4.506   7.723   2.926
 9326TIP3    H127917   4.467   7.807   2.952
 9326TIP3    H227918   4.433   7.674   2.887
 9327TIP3   OH227919   4.576   8.017   3.126
 9327TIP3    H127920   4.629   7.941   3.151
 9327TIP3    H227921   4.638   8.077   3.084
 9328TIP3   OH227922   8.193   0.433   3.102
 9328TIP3    H127923   8.234   0.351   3.073
 9328TIP3    H227924   8.267   0.486   3.134
 9329TIP3   OH227925   6.351   7.768   3.110
 9329TIP3    H127926   6.373   7.851   3.150
 9329TIP3    H227927   6.389   7.773   3.022
 9330TIP3   OH227928   5.745   7.943   3.142
 9330TIP3    H127929   5.788   7.860   3.167
 9330TIP3    H227930   5.708   7.925   3.056
 9331TIP3   OH227931   5.089   7.603   3.107
 9331TIP3    H127932   5.071   7.675   3.046
 9331TIP3    H227933   5.038   7.530   3.074
 9332TIP3   OH227934   5.787   7.699   2.730
 9332TIP3    H127935   5.852   7.690   2.798
 9332TIP3    H227936   5.835   7.731   2.654
 9333TIP3   OH227937   4.719   7.806   3.229
 9333TIP3    H127938   4.802   7.789   3.274
 9333TIP3    H227939   4.725   7.755   3.149
 9334TIP3   OH227940   5.159   8.003   3.020
 9334TIP3    H127941   5.252   7.982   3.032
 9334TIP3    H227942   5.120   7.921   2.991
 9335TIP3   OH227943   6.405   7.985   3.284
 9335TIP3    H127944   6.319   8.023   3.269
 9335TIP3    H227945   6.410   7.972   3.378
 9336TIP3   OH227946   5.075   7.597   3.554
 9336TIP3    H127947   5.023   7.632   3.481
 9336TIP3    H227948   5.021   7.613   3.631
 9337TIP3   OH227949   8.264   0.419   2.556
 9337TIP3    H127950   8.218   0.401   2.474
 9337TIP3    H227951   8.325   0.490   2.535
 9338TIP3   OH227952   8.051   0.333   3.314
 9338TIP3    H127953   8.000   0.401   3.357
 9338TIP3    H227954   8.097   0.378   3.243
 9339TIP3   OH227955   5.960   7.719   2.939
 9339TIP3    H127956   5.933   7.689   3.026
 9339TIP3    H227957   6.019   7.793   2.956
 9340TIP3   OH227958   4.961   7.707   3.328
 9340TIP3    H127959   5.017   7.780   3.352
 9340TIP3    H227960   5.006   7.665   3.255
 9341TIP3   OH227961   7.891   0.522   3.440
 9341TIP3    H127962   7.849   0.527   3.354
 9341TIP3    H227963   7.825   0.483   3.497
 9342TIP3   OH227964   7.312   0.131   2.742
 9342TIP3    H127965   7.244   0.193   2.716
 9342TIP3    H227966   7.346   0.167   2.824
 9343TIP3   OH227967   6.145   7.684   3.286
 9343TIP3    H127968   6.059   7.699   3.246
 9343TIP3    H227969   6.207   7.700   3.215
 9344TIP3   OH227970   5.417   7.295   3.268
 9344TIP3    H127971   5.413   7.203   3.296
 9344TIP3    H227972   5.342   7.336   3.312
 9345TIP3   OH227973   0.065   0.547   2.495
 9345TIP3    H127974   0.072   0.473   2.434
 9345TIP3    H227975   0.093   0.511   2.579
 9346TIP3   OH227976   0.374   0.673   3.249
 9346TIP3    H127977   0.368   0.585   3.212
 9346TIP3    H227978   0.388   0.730   3.174
 9347TIP3   OH227979   8.187   0.052   2.530
 9347TIP3    H127980   8.106   0.098   2.513
 9347TIP3    H227981   8.233   0.051   2.446
 9348TIP3   OH227982   5.322   7.869   2.227
 9348TIP3    H127983   5.385   7.920   2.277
 9348TIP3    H227984   5.374   7.805   2.179
 9349TIP3   OH227985   0.577   0.308   3.110
 9349TIP3    H127986   0.494   0.355   3.115
 9349TIP3    H227987   0.605   0.319   3.020
 9350TIP3   OH227988   0.042   0.130   2.500
 9350TIP3    H127989  -0.012   0.156   2.575
 9350TIP3    H227990   0.126   0.104   2.539
 9351TIP3   OH227991   0.272   0.178   3.421
 9351TIP3    H127992   0.272   0.259   3.473
 9351TIP3    H227993   0.188   0.179   3.375
 9352TIP3   OH227994   7.793   0.124   2.882
 9352TIP3    H127995   7.752   0.064   2.820
 9352TIP3    H227996   7.868   0.076   2.917
 9353TIP3   OH227997   7.937   0.520   3.045
 9353TIP3    H127998   7.944   0.548   2.954
 9353TIP3    H227999   8.027   0.494   3.069
 9354TIP3   OH228000   7.908   0.108   3.252
 9354TIP3    H128001   7.945   0.074   3.171
 9354TIP3    H228002   7.959   0.186   3.272
 9355TIP3   OH228003   8.122   0.613   3.572
 9355TIP3    H128004   8.083   0.690   3.614
 9355TIP3    H228005   8.051   0.575   3.519
 9356TIP3   OH228006   8.372   0.006   2.323
 9356TIP3    H128007   8.433   0.058   2.375
 9356TIP3    H228008   8.402   0.017   2.233
 9357TIP3   OH228009   7.802   0.206   3.709
 9357TIP3    H128010   7.809   0.292   3.751
 9357TIP3    H228011   7.710   0.181   3.722
 9358TIP3   OH228012   6.056   7.251   2.370
 9358TIP3    H128013   5.978   7.270   2.422
 9358TIP3    H228014   6.070   7.328   2.316
 9359TIP3   OH228015   4.823   7.979   2.696
 9359TIP3    H128016   4.754   8.020   2.643
 9359TIP3    H228017   4.782   7.900   2.731
 9360TIP3   OH228018   7.452   0.313   3.603
 9360TIP3    H128019   7.356   0.322   3.598
 9360TIP3    H228020   7.466   0.225   3.637
 9361TIP3   OH228021   0.527   0.139   3.583
 9361TIP3    H128022   0.443   0.146   3.537
 9361TIP3    H228023   0.546   0.045   3.584
 9362TIP3   OH228024   7.665   0.472   3.576
 9362TIP3    H128025   7.626   0.538   3.633
 9362TIP3    H228026   7.599   0.402   3.572
 9363TIP3   OH228027   5.182   7.386   3.403
 9363TIP3    H128028   5.098   7.354   3.370
 9363TIP3    H228029   5.161   7.466   3.452
 9364TIP3   OH228030   5.727   7.505   3.602
 9364TIP3    H128031   5.800   7.475   3.657
 9364TIP3    H228032   5.649   7.483   3.652
 9365TIP3   OH228033   5.951   7.933   3.520
 9365TIP3    H128034   5.907   7.929   3.605
 9365TIP3    H228035   5.931   8.020   3.486
 9366TIP3   OH228036   8.460   0.017   2.068
 9366TIP3    H128037   8.415   0.004   1.985
 9366TIP3    H228038   8.538   0.069   2.044
 9367TIP3   OH228039   5.324   7.435   2.369
 9367TIP3    H128040   5.296   7.438   2.461
 9367TIP3    H228041   5.291   7.351   2.337
 9368TIP3   OH228042   5.122   7.910   3.419
 9368TIP3    H128043   5.073   7.923   3.500
 9368TIP3    H228044   5.102   7.988   3.367
 9369TIP3   OH228045   5.002   7.794   2.930
 9369TIP3    H128046   4.913   7.769   2.957
 9369TIP3    H228047   5.012   7.758   2.842
 9370TIP3   OH228048   5.488   7.865   2.662
 9370TIP3    H128049   5.439   7.935   2.619
 9370TIP3    H228050   5.548   7.833   2.594
 9371TIP3   OH228051   0.008   0.123   3.732
 9371TIP3    H128052  -0.019   0.056   3.795
 9371TIP3    H228053   0.101   0.138   3.751
 9372TIP3   OH228054   5.652   7.889   2.889
 9372TIP3    H128055   5.585   7.913   2.826
 9372TIP3    H228056   5.696   7.814   2.849
 9373TIP3   OH228057   4.948   7.925   3.632
 9373TIP3    H128058   4.962   7.990   3.702
 9373TIP3    H228059   4.933   7.843   3.679
 9374TIP3   OH228060   4.984   7.410   2.340
 9374TIP3    H128061   4.982   7.410   2.436
 9374TIP3    H228062   4.910   7.465   2.314
 9375TIP3   OH228063   4.541   7.452   3.212
 9375TIP3    H128064   4.613   7.487   3.266
 9375TIP3    H228065   4.582   7.431   3.129
 9376TIP3   OH228066   4.473   7.429   2.719
 9376TIP3    H128067   4.518   7.463   2.642
 9376TIP3    H228068   4.414   7.500   2.745
 9377TIP3   OH228069   0.009   0.125   3.315
 9377TIP3    H128070   0.040   0.061   3.251
 9377TIP3    H228071  -0.024   0.072   3.387
 9378TIP3   OH228072   5.354   7.602   2.989
 9378TIP3    H128073   5.278   7.599   3.047
 9378TIP3    H228074   5.429   7.583   3.046
 9379TIP3   OH228075   4.766   7.669   2.996
 9379TIP3    H128076   4.677   7.674   2.962
 9379TIP3    H228077   4.794   7.579   2.978
 9380TIP3   OH228078   5.017   7.667   2.688
 9380TIP3    H128079   5.111   7.681   2.676
 9380TIP3    H228080   4.979   7.688   2.602
 9381TIP3   OH228081   5.832   7.682   3.198
 9381TIP3    H128082   5.806   7.698   3.288
 9381TIP3    H228083   5.771   7.617   3.166
 9382TIP3   OH228084   4.890   7.696   2.444
 9382TIP3    H128085   4.818   7.657   2.395
 9382TIP3    H228086   4.945   7.737   2.378
 9383TIP3   OH228087   7.810   0.439   3.870
 9383TIP3    H128088   7.885   0.465   3.923
 9383TIP3    H228089   7.736   0.443   3.930
 9384TIP3   OH228090   5.422   7.947   3.092
 9384TIP3    H128091   5.487   7.895   3.045
 9384TIP3    H228092   5.418   7.908   3.179
 9385TIP3   OH228093   4.915   7.423   2.981
 9385TIP3    H128094   4.883   7.348   3.030
 9385TIP3    H228095   4.955   7.385   2.903
 9386TIP3   OH228096   5.388   7.856   3.360
 9386TIP3    H128097   5.301   7.885   3.385
 9386TIP3    H228098   5.447   7.907   3.416
 9387TIP3   OH228099   7.954   0.194   2.479
 9387TIP3    H128100   7.879   0.141   2.452
 9387TIP3    H228101   7.924   0.239   2.558
 9388TIP3   OH228102   0.340   0.447   3.089
 9388TIP3    H128103   0.372   0.491   3.011
 9388TIP3    H228104   0.260   0.402   3.060
 9389TIP3   OH228105   5.581   7.531   2.364
 9389TIP3    H128106   5.487   7.513   2.362
 9389TIP3    H228107   5.587   7.625   2.378
 9390TIP3   OH228108   8.383   0.552   3.487
 9390TIP3    H128109   8.423   0.524   3.570
 9390TIP3    H228110   8.294   0.579   3.512
 9391TIP3   OH228111   5.649   7.790   2.443
 9391TIP3    H128112   5.744   7.794   2.452
 9391TIP3    H228113   5.627   7.866   2.390
 9392TIP3   OH228114   7.665   0.157   3.124
 9392TIP3    H128115   7.699   0.150   3.035
 9392TIP3    H228116   7.731   0.114   3.179
 9393TIP3   OH228117   8.095   0.375   2.333
 9393TIP3    H128118   8.036   0.450   2.334
 9393TIP3    H228119   8.048   0.306   2.379
 9394TIP3   OH228120   7.547   0.109   3.771
 9394TIP3    H128121   7.547   0.090   3.865
 9394TIP3    H228122   7.473   0.059   3.736
 9395TIP3   OH228123   8.269   0.259   3.784
 9395TIP3    H128124   8.203   0.203   3.744
 9395TIP3    H228125   8.352   0.225   3.751
 9396TIP3   OH228126   6.070   7.880   2.266
 9396TIP3    H128127   6.014   7.830   2.206
 9396TIP3    H228128   6.072   7.968   2.230
 9397TIP3   OH228129   0.650   0.690   3.359
 9397TIP3    H128130   0.564   0.732   3.365
 9397TIP3    H228131   0.667   0.682   3.265
 9398TIP3   OH228132   0.112   0.310   2.988
 9398TIP3    H128133   0.023   0.287   3.014
 9398TIP3    H228134   0.149   0.228   2.953
 9399TIP3   OH228135   4.486   7.849   2.466
 9399TIP3    H128136   4.540   7.926   2.484
 9399TIP3    H228137   4.412   7.857   2.526
 9400TIP3   OH228138   7.860   0.321   2.703
 9400TIP3    H128139   7.831   0.402   2.745
 9400TIP3    H228140   7.841   0.253   2.768
 9401TIP3   OH228141   8.424   0.524   3.216
 9401TIP3    H128142   8.406   0.535   3.310
 9401TIP3    H228143   8.508   0.478   3.213
 9402TIP3   OH228144   8.420   0.373   2.070
 9402TIP3    H128145   8.463   0.359   2.154
 9402TIP3    H228146   8.327   0.369   2.090
 9403TIP3   OH228147   4.905   7.675   3.761
 9403TIP3    H128148   4.810   7.682   3.768
 9403TIP3    H228149   4.931   7.624   3.837
 9404TIP3   OH228150   0.056   0.326   2.308
 9404TIP3    H128151   0.045   0.257   2.373
 9404TIP3    H228152   0.149   0.327   2.290
 9405TIP3   OH228153   7.734   0.329   2.180
 9405TIP3    H128154   7.732   0.241   2.144
 9405TIP3    H228155   7.817   0.365   2.150
 9406TIP3   OH228156   7.457   0.067   2.528
 9406TIP3    H128157   7.402   0.091   2.603
 9406TIP3    H228158   7.472   0.149   2.483
 9407TIP3   OH228159   5.755   7.740   3.459
 9407TIP3    H128160   5.835   7.781   3.492
 9407TIP3    H228161   5.745   7.661   3.512
 9408TIP3   OH228162   5.639   7.481   2.633
 9408TIP3    H128163   5.621   7.500   2.541
 9408TIP3    H228164   5.683   7.560   2.665
 9409TIP3   OH228165   5.296   7.680   2.730
 9409TIP3    H128166   5.362   7.745   2.705
 9409TIP3    H228167   5.314   7.662   2.822
 9410TIP3   OH228168   5.594   7.971   3.514
 9410TIP3    H128169   5.622   8.013   3.595
 9410TIP3    H228170   5.645   7.890   3.511
 9411TIP3   OH228171   5.461   7.381   2.820
 9411TIP3    H128172   5.449   7.457   2.877
 9411TIP3    H228173   5.528   7.409   2.757
 9412TIP3   OH228174   4.974   7.397   2.618
 9412TIP3    H128175   4.964   7.486   2.652
 9412TIP3    H228176   5.068   7.380   2.625
 9413TIP3   OH228177   6.213   7.873   3.491
 9413TIP3    H128178   6.120   7.888   3.509
 9413TIP3    H228179   6.214   7.806   3.422
 9414TIP3   OH228180   0.205   0.063   2.893
 9414TIP3    H128181   0.130   0.005   2.902
 9414TIP3    H228182   0.275   0.021   2.944
 9415TIP3   OH228183   7.479   0.302   2.343
 9415TIP3    H128184   7.564   0.341   2.326
 9415TIP3    H228185   7.478   0.222   2.291
 9416TIP3   OH228186   4.512   7.575   2.485
 9416TIP3    H128187   4.525   7.670   2.487
 9416TIP3    H228188   4.421   7.563   2.461
 9417TIP3   OH228189   4.919   7.301   3.365
 9417TIP3    H128190   4.891   7.268   3.280
 9417TIP3    H228191   4.911   7.226   3.423
 9418TIP3   OH228192   7.590   0.393   4.042
 9418TIP3    H128193   7.630   0.306   4.032
 9418TIP3    H228194   7.521   0.395   3.976
 9419TIP3   OH228195   7.548   0.066   2.224
 9419TIP3    H128196   7.591   0.037   2.305
 9419TIP3    H228197   7.619   0.070   2.159
 9420TIP3   OH228198   8.208   0.530   3.821
 9420TIP3    H128199   8.184   0.550   3.730
 9420TIP3    H228200   8.242   0.441   3.817
 9421TIP3   OH228201   8.004   0.297   2.077
 9421TIP3    H128202   8.057   0.311   2.155
 9421TIP3    H228203   8.030   0.211   2.045
 9422TIP3   OH228204   0.171   0.560   3.408
 9422TIP3    H128205   0.231   0.619   3.361
 9422TIP3    H228206   0.090   0.610   3.416
 9423TIP3   OH228207   7.734   0.158   4.023
 9423TIP3    H128208   7.815   0.136   3.978
 9423TIP3    H228209   7.762   0.194   4.107
 9424TIP3   OH228210   4.918   8.025   2.422
 9424TIP3    H128211   4.900   7.985   2.508
 9424TIP3    H228212   4.963   7.956   2.373
 9425TIP3   OH228213   8.051   0.088   3.678
 9425TIP3    H128214   7.968   0.136   3.680
 9425TIP3    H228215   8.094   0.117   3.598
 9426TIP3   OH228216   5.044   7.832   2.262
 9426TIP3    H128217   5.018   7.828   2.170
 9426TIP3    H228218   5.140   7.841   2.260
 9427TIP3   OH228219   0.053   0.462   3.779
 9427TIP3    H128220   0.135   0.439   3.736
 9427TIP3    H228221   0.047   0.403   3.854
 9428TIP3   OH228222   0.181   0.139   1.947
 9428TIP3    H128223   0.158   0.090   1.868
 9428TIP3    H228224   0.167   0.231   1.923
 9429TIP3   OH228225   5.328   7.880   3.792
 9429TIP3    H128226   5.332   7.807   3.730
 9429TIP3    H228227   5.290   7.953   3.741
 9430TIP3   OH228228   5.335   7.681   3.590
 9430TIP3    H128229   5.363   7.716   3.506
 9430TIP3    H228230   5.243   7.655   3.576
 9431TIP3   OH228231   8.204   0.181   3.477
 9431TIP3    H128232   8.294   0.187   3.447
 9431TIP3    H228233   8.155   0.238   3.417
 9432TIP3   OH228234   0.274   0.148   3.838
 9432TIP3    H128235   0.314   0.061   3.847
 9432TIP3    H228236   0.348   0.206   3.819
 9433TIP3   OH228237   0.309   0.406   3.579
 9433TIP3    H128238   0.251   0.462   3.527
 9433TIP3    H228239   0.395   0.418   3.541
 9434TIP3   OH228240   5.202   7.980   4.025
 9434TIP3    H128241   5.139   7.912   4.047
 9434TIP3    H228242   5.237   7.954   3.940
 9435TIP3   OH228243   5.459   7.446   3.683
 9435TIP3    H128244   5.417   7.526   3.651
 9435TIP3    H228245   5.394   7.378   3.668
 9436TIP3   OH228246   5.585   7.930   3.887
 9436TIP3    H128247   5.577   7.918   3.982
 9436TIP3    H228248   5.499   7.906   3.852
 9437TIP3   OH228249   5.829   7.881   3.754
 9437TIP3    H128250   5.752   7.879   3.810
 9437TIP3    H228251   5.901   7.852   3.811
 9438TIP3   OH228252   6.060   7.838   3.904
 9438TIP3    H128253   6.076   7.744   3.910
 9438TIP3    H228254   6.058   7.868   3.994
 9439TIP3   OH228255   5.047   7.755   4.091
 9439TIP3    H128256   5.054   7.666   4.055
 9439TIP3    H228257   5.083   7.748   4.179
 9440TIP3   OH228258   5.532   7.433   3.947
 9440TIP3    H128259   5.603   7.369   3.942
 9440TIP3    H228260   5.500   7.441   3.857
 9441TIP3   OH228261   5.617   7.652   4.091
 9441TIP3    H128262   5.591   7.580   4.034
 9441TIP3    H228263   5.543   7.713   4.088
 9442TIP3   OH228264   7.172   0.228   2.343
 9442TIP3    H128265   7.263   0.243   2.372
 9442TIP3    H228266   7.173   0.140   2.306
 9443TIP3   OH228267   0.528   0.843   3.623
 9443TIP3    H128268   0.446   0.839   3.672
 9443TIP3    H228269   0.571   0.923   3.655
 9444TIP3   OH228270   0.328   0.316   2.293
 9444TIP3    H128271   0.390   0.378   2.255
 9444TIP3    H228272   0.375   0.279   2.368
 9445TIP3   OH228273   0.462   0.188   2.495
 9445TIP3    H128274   0.395   0.143   2.547
 9445TIP3    H228275   0.525   0.220   2.559
 9446TIP3   OH228276   0.499   0.576   2.903
 9446TIP3    H128277   0.560   0.508   2.873
 9446TIP3    H228278   0.486   0.632   2.826
 9447TIP3   OH228279   0.384   0.105   2.128
 9447TIP3    H128280   0.315   0.106   2.061
 9447TIP3    H228281   0.362   0.178   2.186
 9448TIP3   OH228282   5.915   7.770   2.071
 9448TIP3    H128283   5.865   7.811   2.000
 9448TIP3    H228284   5.905   7.676   2.057
 9449TIP3   OH228285   0.272   0.041   2.626
 9449TIP3    H128286   0.279  -0.054   2.614
 9449TIP3    H228287   0.255   0.051   2.720
 9450TIP3   OH228288   7.399   0.097   3.379
 9450TIP3    H128289   7.388   0.059   3.291
 9450TIP3    H228290   7.492   0.090   3.397
 9451TIP3   OH228291   0.551   0.456   3.461
 9451TIP3    H128292   0.624   0.394   3.459
 9451TIP3    H228293   0.582   0.532   3.412
 9452TIP3   OH228294   0.747   0.267   3.484
 9452TIP3    H128295   0.669   0.224   3.519
 9452TIP3    H228296   0.820   0.209   3.507
 9453TIP3   OH228297   5.877   7.498   2.036
 9453TIP3    H128298   5.942   7.475   2.102
 9453TIP3    H228299   5.795   7.458   2.067
 9454TIP3   OH228300   5.935   7.787   2.503
 9454TIP3    H128301   5.978   7.702   2.517
 9454TIP3    H228302   5.982   7.824   2.429
 9455TIP3   OH228303   6.088   7.954   3.018
 9455TIP3    H128304   6.170   7.976   2.973
 9455TIP3    H228305   6.101   7.988   3.107
 9456TIP3   OH228306   0.487   0.086   3.248
 9456TIP3    H128307   0.414   0.116   3.303
 9456TIP3    H228308   0.518   0.165   3.204
 9457TIP3   OH228309   4.783   7.807   4.035
 9457TIP3    H128310   4.877   7.806   4.049
 9457TIP3    H228311   4.751   7.726   4.074
 9458TIP3   OH228312   6.616   7.705   3.786
 9458TIP3    H128313   6.680   7.642   3.752
 9458TIP3    H228314   6.585   7.752   3.709
 9459TIP3   OH228315   6.042   7.537   2.553
 9459TIP3    H128316   6.089   7.522   2.635
 9459TIP3    H228317   5.982   7.462   2.546
 9460TIP3   OH228318   4.750   7.521   3.384
 9460TIP3    H128319   4.805   7.443   3.389
 9460TIP3    H228320   4.811   7.593   3.370
 9461TIP3   OH228321   4.538   7.784   3.445
 9461TIP3    H128322   4.588   7.777   3.364
 9461TIP3    H228323   4.566   7.867   3.484
 9462TIP3   OH228324   6.475   7.820   3.583
 9462TIP3    H128325   6.389   7.855   3.607
 9462TIP3    H228326   6.455   7.740   3.535
 9463TIP3   OH228327   6.104   7.458   2.193
 9463TIP3    H128328   6.146   7.392   2.138
 9463TIP3    H228329   6.166   7.530   2.196
 9464TIP3   OH228330   4.523   7.288   2.948
 9464TIP3    H128331   4.436   7.281   2.986
 9464TIP3    H228332   4.512   7.346   2.872
 9465TIP3   OH228333   4.746   7.358   3.768
 9465TIP3    H128334   4.697   7.356   3.850
 9465TIP3    H228335   4.689   7.404   3.706
 9466TIP3   OH228336   6.387   7.560   3.493
 9466TIP3    H128337   6.296   7.544   3.468
 9466TIP3    H228338   6.429   7.474   3.482
 9467TIP3   OH228339   5.579   7.489   3.108
 9467TIP3    H128340   5.543   7.418   3.161
 9467TIP3    H228341   5.653   7.450   3.063
 9468TIP3   OH228342   6.090   7.409   3.004
 9468TIP3    H128343   6.127   7.457   2.930
 9468TIP3    H228344   5.996   7.427   3.000
 9469TIP3   OH228345   6.204   7.494   2.770
 9469TIP3    H128346   6.273   7.433   2.744
 9469TIP3    H228347   6.242   7.581   2.758
 9470TIP3   OH228348   4.833   7.199   3.122
 9470TIP3    H128349   4.743   7.167   3.130
 9470TIP3    H228350   4.886   7.119   3.117
 9471TIP3   OH228351   4.635   7.092   2.772
 9471TIP3    H128352   4.666   7.145   2.699
 9471TIP3    H228353   4.603   7.156   2.836
 9472TIP3   OH228354   5.297   7.244   3.011
 9472TIP3    H128355   5.350   7.287   2.943
 9472TIP3    H228356   5.339   7.268   3.093
 9473TIP3   OH228357   5.805   7.373   2.994
 9473TIP3    H128358   5.824   7.334   2.909
 9473TIP3    H228359   5.810   7.300   3.056
 9474TIP3   OH228360   5.860   7.325   2.554
 9474TIP3    H128361   5.779   7.370   2.577
 9474TIP3    H228362   5.851   7.238   2.595
 9475TIP3   OH228363   4.756   7.235   2.539
 9475TIP3    H128364   4.801   7.173   2.481
 9475TIP3    H228365   4.826   7.289   2.574
 9476TIP3   OH228366   5.250   7.427   2.636
 9476TIP3    H128367   5.310   7.377   2.691
 9476TIP3    H228368   5.264   7.518   2.663
 9477TIP3   OH228369   5.053   7.482   4.006
 9477TIP3    H128370   5.016   7.415   4.064
 9477TIP3    H228371   5.145   7.487   4.030
 9478TIP3   OH228372   5.305   7.483   4.123
 9478TIP3    H128373   5.384   7.466   4.072
 9478TIP3    H228374   5.301   7.412   4.187
 9479TIP3   OH228375   6.126   7.570   3.918
 9479TIP3    H128376   6.143   7.538   4.007
 9479TIP3    H228377   6.210   7.563   3.873
 9480TIP3   OH228378   0.954   0.345   2.928
 9480TIP3    H128379   0.983   0.275   2.986
 9480TIP3    H228380   1.002   0.422   2.957
 9481TIP3   OH228381   6.289   7.988   2.407
 9481TIP3    H128382   6.242   8.066   2.435
 9481TIP3    H228383   6.222   7.933   2.366
 9482TIP3   OH228384   0.697   0.257   2.623
 9482TIP3    H128385   0.743   0.180   2.657
 9482TIP3    H228386   0.744   0.279   2.542
 9483TIP3   OH228387   6.854   7.868   2.592
 9483TIP3    H128388   6.837   7.940   2.530
 9483TIP3    H228389   6.809   7.793   2.553
 9484TIP3   OH228390   0.840   0.042   2.710
 9484TIP3    H128391   0.924   0.027   2.754
 9484TIP3    H228392   0.844  -0.013   2.632
 9485TIP3   OH228393   6.842   7.853   3.057
 9485TIP3    H128394   6.792   7.884   2.982
 9485TIP3    H228395   6.787   7.874   3.133
 9486TIP3   OH228396   6.743   7.962   2.822
 9486TIP3    H128397   6.806   8.029   2.849
 9486TIP3    H228398   6.784   7.920   2.747
 9487TIP3   OH228399   0.517   0.471   2.170
 9487TIP3    H128400   0.508   0.455   2.076
 9487TIP3    H228401   0.547   0.561   2.177
 9488TIP3   OH228402   1.051   0.486   3.163
 9488TIP3    H128403   1.085   0.507   3.250
 9488TIP3    H228404   0.960   0.459   3.179
 9489TIP3   OH228405   0.861   0.217   2.129
 9489TIP3    H128406   0.887   0.283   2.193
 9489TIP3    H228407   0.871   0.134   2.174
 9490TIP3   OH228408   0.703   0.623   3.103
 9490TIP3    H128409   0.644   0.596   3.033
 9490TIP3    H228410   0.748   0.542   3.129
 9491TIP3   OH228411   6.970   7.655   2.914
 9491TIP3    H128412   6.901   7.617   2.860
 9491TIP3    H228413   6.926   7.723   2.965
 9492TIP3   OH228414   7.516   7.727   3.111
 9492TIP3    H128415   7.541   7.691   3.196
 9492TIP3    H228416   7.421   7.733   3.115
 9493TIP3   OH228417   1.250   0.138   2.922
 9493TIP3    H128418   1.192   0.159   2.994
 9493TIP3    H228419   1.268   0.222   2.880
 9494TIP3   OH228420   1.094   0.040   2.406
 9494TIP3    H128421   1.013  -0.005   2.427
 9494TIP3    H228422   1.111   0.017   2.314
 9495TIP3   OH228423   1.072   0.179   3.126
 9495TIP3    H128424   1.065   0.250   3.190
 9495TIP3    H228425   1.056   0.099   3.177
 9496TIP3   OH228426   6.766   7.591   1.861
 9496TIP3    H128427   6.745   7.645   1.937
 9496TIP3    H228428   6.751   7.648   1.786
 9497TIP3   OH228429   6.335   7.718   2.691
 9497TIP3    H128430   6.407   7.744   2.748
 9497TIP3    H228431   6.377   7.678   2.615
 9498TIP3   OH228432   6.267   7.686   2.210
 9498TIP3    H128433   6.308   7.717   2.130
 9498TIP3    H228434   6.203   7.754   2.232
 9499TIP3   OH228435   7.125   7.891   2.524
 9499TIP3    H128436   7.036   7.886   2.559
 9499TIP3    H228437   7.160   7.802   2.532
 9500TIP3   OH228438   6.543   7.908   2.479
 9500TIP3    H128439   6.453   7.914   2.448
 9500TIP3    H228440   6.568   7.817   2.463
 9501TIP3   OH228441   6.632   7.919   1.999
 9501TIP3    H128442   6.573   7.880   1.934
 9501TIP3    H228443   6.646   8.009   1.968
 9502TIP3   OH228444   6.705   7.673   2.458
 9502TIP3    H128445   6.677   7.597   2.510
 9502TIP3    H228446   6.739   7.636   2.377
 9503TIP3   OH228447   0.806   0.388   3.238
 9503TIP3    H128448   0.809   0.356   3.328
 9503TIP3    H228449   0.729   0.346   3.200
 9504TIP3   OH228450   0.624   0.092   1.992
 9504TIP3    H128451   0.682   0.163   2.020
 9504TIP3    H228452   0.544   0.105   2.044
 9505TIP3   OH228453   6.681   7.945   3.260
 9505TIP3    H128454   6.586   7.959   3.264
 9505TIP3    H228455   6.696   7.872   3.320
 9506TIP3   OH228456   6.722   7.678   2.125
 9506TIP3    H128457   6.702   7.770   2.108
 9506TIP3    H228458   6.815   7.677   2.145
 9507TIP3   OH228459   6.312   7.828   1.981
 9507TIP3    H128460   6.319   7.923   1.993
 9507TIP3    H228461   6.242   7.818   1.916
 9508TIP3   OH228462   6.705   7.563   2.855
 9508TIP3    H128463   6.682   7.525   2.770
 9508TIP3    H228464   6.706   7.488   2.915
 9509TIP3   OH228465   0.899   0.699   3.475
 9509TIP3    H128466   0.937   0.615   3.450
 9509TIP3    H228467   0.812   0.698   3.435
 9510TIP3   OH228468   1.054   0.447   3.447
 9510TIP3    H128469   1.097   0.362   3.453
 9510TIP3    H228470   1.030   0.468   3.537
 9511TIP3   OH228471   1.415   0.143   3.256
 9511TIP3    H128472   1.467   0.063   3.262
 9511TIP3    H228473   1.371   0.136   3.171
 9512TIP3   OH228474   7.102   7.934   3.070
 9512TIP3    H128475   7.109   7.973   2.982
 9512TIP3    H228476   7.013   7.901   3.075
 9513TIP3   OH228477   1.326   0.242   3.495
 9513TIP3    H128478   1.264   0.174   3.522
 9513TIP3    H228479   1.354   0.215   3.408
 9514TIP3   OH228480   7.245   7.709   3.151
 9514TIP3    H128481   7.197   7.785   3.119
 9514TIP3    H228482   7.183   7.636   3.141
 9515TIP3   OH228483   6.848   8.016   3.545
 9515TIP3    H128484   6.845   7.933   3.497
 9515TIP3    H228485   6.878   7.992   3.632
 9516TIP3   OH228486   7.332   7.690   3.411
 9516TIP3    H128487   7.408   7.634   3.400
 9516TIP3    H228488   7.293   7.696   3.324
 9517TIP3   OH228489   7.425   7.907   3.550
 9517TIP3    H128490   7.390   7.838   3.494
 9517TIP3    H228491   7.358   7.976   3.549
 9518TIP3   OH228492   0.493   0.452   1.897
 9518TIP3    H128493   0.504   0.516   1.826
 9518TIP3    H228494   0.471   0.371   1.852
 9519TIP3   OH228495   0.688   0.383   2.865
 9519TIP3    H128496   0.679   0.341   2.779
 9519TIP3    H228497   0.781   0.375   2.885
 9520TIP3   OH228498   0.914   0.065   3.550
 9520TIP3    H128499   1.009   0.057   3.549
 9520TIP3    H228500   0.883  -0.022   3.578
 9521TIP3   OH228501   6.534   7.778   2.880
 9521TIP3    H128502   6.588   7.698   2.883
 9521TIP3    H228503   6.597   7.848   2.863
 9522TIP3   OH228504   0.663   0.038   2.928
 9522TIP3    H128505   0.712   0.024   2.847
 9522TIP3    H228506   0.719   0.094   2.981
 9523TIP3   OH228507   6.324   7.554   2.441
 9523TIP3    H128508   6.236   7.540   2.474
 9523TIP3    H228509   6.312   7.606   2.362
 9524TIP3   OH228510   6.547   7.651   3.274
 9524TIP3    H128511   6.492   7.615   3.344
 9524TIP3    H228512   6.485   7.673   3.204
 9525TIP3   OH228513   6.626   7.454   2.610
 9525TIP3    H128514   6.537   7.422   2.617
 9525TIP3    H228515   6.680   7.375   2.605
 9526TIP3   OH228516   6.417   7.344   2.262
 9526TIP3    H128517   6.454   7.392   2.187
 9526TIP3    H228518   6.396   7.412   2.326
 9527TIP3   OH228519   6.537   7.484   2.039
 9527TIP3    H128520   6.589   7.431   1.978
 9527TIP3    H228521   6.601   7.545   2.076
 9528TIP3   OH228522   6.991   7.662   2.173
 9528TIP3    H128523   7.018   7.571   2.161
 9528TIP3    H228524   7.069   7.713   2.150
 9529TIP3   OH228525   6.849   7.735   3.489
 9529TIP3    H128526   6.811   7.672   3.549
 9529TIP3    H228527   6.942   7.738   3.512
 9530TIP3   OH228528   7.106   7.724   3.596
 9530TIP3    H128529   7.185   7.706   3.544
 9530TIP3    H228530   7.104   7.655   3.662
 9531TIP3   OH228531   5.103   4.906   0.614
 9531TIP3    H128532   5.083   4.846   0.686
 9531TIP3    H228533   5.132   4.986   0.656
 9532TIP3   OH228534   4.746   5.423   0.642
 9532TIP3    H128535   4.783   5.348   0.594
 9532TIP3    H228536   4.707   5.384   0.720
 9533TIP3   OH228537   4.791   4.815   0.277
 9533TIP3    H128538   4.746   4.834   0.360
 9533TIP3    H228539   4.821   4.900   0.246
 9534TIP3   OH228540   4.870   5.233   0.463
 9534TIP3    H128541   4.912   5.158   0.421
 9534TIP3    H228542   4.916   5.309   0.428
 9535TIP3   OH228543   4.996   4.999   0.376
 9535TIP3    H128544   5.026   4.951   0.299
 9535TIP3    H228545   5.066   4.988   0.440
 9536TIP3   OH228546   5.003   4.539   0.393
 9536TIP3    H128547   4.959   4.598   0.453
 9536TIP3    H228548   5.096   4.550   0.412
 9537TIP3   OH228549   4.619   5.106   0.436
 9537TIP3    H128550   4.648   5.198   0.435
 9537TIP3    H228551   4.523   5.111   0.437
 9538TIP3   OH228552   2.387   1.044   6.682
 9538TIP3    H128553   2.387   1.137   6.660
 9538TIP3    H228554   2.477   1.016   6.665
 9539TIP3   OH228555   4.583   5.416   0.106
 9539TIP3    H128556   4.518   5.403   0.037
 9539TIP3    H228557   4.536   5.464   0.175
 9540TIP3   OH228558   1.888   1.253   6.763
 9540TIP3    H128559   1.937   1.181   6.723
 9540TIP3    H228560   1.933   1.271   6.845
 9541TIP3   OH228561   4.829   5.310   0.064
 9541TIP3    H128562   4.748   5.345   0.099
 9541TIP3    H228563   4.892   5.316   0.136
 9542TIP3   OH228564   2.146   0.392   6.823
 9542TIP3    H128565   2.101   0.385   6.738
 9542TIP3    H228566   2.205   0.467   6.813
 9543TIP3   OH228567   4.670   4.843   0.009
 9543TIP3    H128568   4.717   4.912   0.057
 9543TIP3    H228569   4.674   4.767   0.066
 9544TIP3   OH228570   2.642   0.272   6.954
 9544TIP3    H128571   2.566   0.228   6.916
 9544TIP3    H228572   2.623   0.365   6.945
 9545TIP3   OH228573   2.276   1.082   6.933
 9545TIP3    H128574   2.306   1.012   6.990
 9545TIP3    H228575   2.313   1.060   6.847
 9546TIP3   OH228576   2.083   0.848   6.828
 9546TIP3    H128577   2.138   0.854   6.906
 9546TIP3    H228578   1.996   0.828   6.862
 9547TIP3   OH228579   2.397   1.315   6.643
 9547TIP3    H128580   2.446   1.388   6.604
 9547TIP3    H228581   2.320   1.356   6.681
 9548TIP3   OH228582   5.066   4.837   0.119
 9548TIP3    H128583   5.011   4.759   0.129
 9548TIP3    H228584   5.153   4.802   0.096
 9549TIP3   OH228585   4.325   5.110   0.034
 9549TIP3    H128586   4.368   5.070   0.109
 9549TIP3    H228587   4.379   5.185   0.012
 9550TIP3   OH228588   5.189   5.463   0.738
 9550TIP3    H128589   5.252   5.509   0.683
 9550TIP3    H228590   5.234   5.383   0.764
 9551TIP3   OH228591   1.603   1.028   6.726
 9551TIP3    H128592   1.582   1.004   6.817
 9551TIP3    H228593   1.678   0.974   6.704
 9552TIP3   OH228594   2.038   1.057   6.658
 9552TIP3    H128595   2.080   0.997   6.720
 9552TIP3    H228596   2.094   1.053   6.580
 9553TIP3   OH228597   2.349   0.555   6.708
 9553TIP3    H128598   2.340   0.513   6.622
 9553TIP3    H228599   2.328   0.647   6.692
 9554TIP3   OH228600   1.290   1.309   6.893
 9554TIP3    H128601   1.372   1.289   6.938
 9554TIP3    H228602   1.317   1.349   6.810
 9555TIP3   OH228603   5.424   5.574   0.638
 9555TIP3    H128604   5.484   5.620   0.697
 9555TIP3    H228605   5.427   5.624   0.556
 9556TIP3   OH228606   5.343   4.799   0.042
 9556TIP3    H128607   5.401   4.863   0.001
 9556TIP3    H228608   5.376   4.790   0.131
 9557TIP3   OH228609   5.465   4.797   0.282
 9557TIP3    H128610   5.413   4.738   0.335
 9557TIP3    H228611   5.550   4.801   0.327
 9558TIP3   OH228612   5.400   4.998   0.711
 9558TIP3    H128613   5.401   4.918   0.763
 9558TIP3    H228614   5.481   4.994   0.659
 9559TIP3   OH228615   2.560   0.542   6.885
 9559TIP3    H128616   2.490   0.525   6.823
 9559TIP3    H228617   2.539   0.628   6.922
 9560TIP3   OH228618   2.415   0.200   6.823
 9560TIP3    H128619   2.353   0.272   6.809
 9560TIP3    H228620   2.376   0.126   6.775
 9561TIP3   OH228621   5.260   4.476   0.455
 9561TIP3    H128622   5.276   4.385   0.432
 9561TIP3    H228623   5.250   4.476   0.550
 9562TIP3   OH228624   5.093   5.511   0.196
 9562TIP3    H128625   5.126   5.432   0.154
 9562TIP3    H228626   5.152   5.526   0.269
 9563TIP3   OH228627   1.624   1.296   6.823
 9563TIP3    H128628   1.718   1.291   6.804
 9563TIP3    H228629   1.585   1.229   6.766
 9564TIP3   OH228630   2.374   1.345   6.940
 9564TIP3    H128631   2.339   1.258   6.957
 9564TIP3    H228632   2.312   1.385   6.879
 9565TIP3   OH228633   3.811   0.898   6.964
 9565TIP3    H128634   3.793   0.987   6.932
 9565TIP3    H228635   3.751   0.842   6.914
 9566TIP3   OH228636   6.697   4.898   0.340
 9566TIP3    H128637   6.622   4.880   0.397
 9566TIP3    H228638   6.663   4.886   0.251
 9567TIP3   OH228639   5.887   4.851   0.788
 9567TIP3    H128640   5.851   4.806   0.864
 9567TIP3    H228641   5.961   4.797   0.760
 9568TIP3   OH228642   6.922   5.227   0.055
 9568TIP3    H128643   6.924   5.155   0.118
 9568TIP3    H228644   6.947   5.304   0.107
 9569TIP3   OH228645   5.967   5.255   0.416
 9569TIP3    H128646   5.977   5.214   0.502
 9569TIP3    H228647   6.057   5.262   0.383
 9570TIP3   OH228648   5.619   4.292   0.271
 9570TIP3    H128649   5.548   4.354   0.252
 9570TIP3    H228650   5.594   4.212   0.226
 9571TIP3   OH228651   5.686   4.752   0.426
 9571TIP3    H128652   5.663   4.660   0.436
 9571TIP3    H228653   5.779   4.751   0.402
 9572TIP3   OH228654   6.584   5.664   0.086
 9572TIP3    H128655   6.610   5.581   0.046
 9572TIP3    H228656   6.555   5.640   0.174
 9573TIP3   OH228657   6.446   5.116   0.366
 9573TIP3    H128658   6.460   5.043   0.305
 9573TIP3    H228659   6.533   5.151   0.382
 9574TIP3   OH228660   6.954   4.572   0.419
 9574TIP3    H128661   6.968   4.477   0.421
 9574TIP3    H228662   6.878   4.584   0.363
 9575TIP3   OH228663   6.191   4.226   0.332
 9575TIP3    H128664   6.194   4.319   0.352
 9575TIP3    H228665   6.109   4.214   0.286
 9576TIP3   OH228666   6.905   4.397   0.113
 9576TIP3    H128667   7.000   4.401   0.116
 9576TIP3    H228668   6.884   4.398   0.020
 9577TIP3   OH228669   5.849   4.362   0.504
 9577TIP3    H128670   5.861   4.365   0.599
 9577TIP3    H228671   5.933   4.394   0.469
 9578TIP3   OH228672   6.327   4.656   0.169
 9578TIP3    H128673   6.406   4.619   0.210
 9578TIP3    H228674   6.269   4.581   0.156
 9579TIP3   OH228675   7.546   4.662   0.554
 9579TIP3    H128676   7.464   4.709   0.538
 9579TIP3    H228677   7.598   4.724   0.605
 9580TIP3   OH228678   3.720   1.113   6.812
 9580TIP3    H128679   3.688   1.094   6.724
 9580TIP3    H228680   3.673   1.192   6.838
 9581TIP3   OH228681   6.329   5.026   0.599
 9581TIP3    H128682   6.332   5.104   0.655
 9581TIP3    H228683   6.357   5.057   0.513
 9582TIP3   OH228684   6.035   4.377   0.730
 9582TIP3    H128685   6.090   4.455   0.737
 9582TIP3    H228686   6.083   4.318   0.672
 9583TIP3   OH228687   6.232   5.182   0.804
 9583TIP3    H128688   6.247   5.268   0.766
 9583TIP3    H228689   6.221   5.199   0.898
 9584TIP3   OH228690   2.711   0.964   6.910
 9584TIP3    H128691   2.685   0.988   6.821
 9584TIP3    H228692   2.746   1.044   6.948
 9585TIP3   OH228693   6.976   5.461   0.199
 9585TIP3    H128694   6.892   5.454   0.246
 9585TIP3    H228695   6.973   5.546   0.156
 9586TIP3   OH228696   3.837   1.484   6.821
 9586TIP3    H128697   3.889   1.405   6.804
 9586TIP3    H228698   3.894   1.556   6.795
 9587TIP3   OH228699   3.991   1.273   6.746
 9587TIP3    H128700   3.958   1.190   6.714
 9587TIP3    H228701   4.031   1.252   6.831
 9588TIP3   OH228702   7.193   5.385   0.537
 9588TIP3    H128703   7.187   5.303   0.489
 9588TIP3    H228704   7.181   5.453   0.470
 9589TIP3   OH228705   3.662   0.755   6.777
 9589TIP3    H128706   3.579   0.797   6.756
 9589TIP3    H228707   3.707   0.748   6.693
 9590TIP3   OH228708   3.626   0.545   6.487
 9590TIP3    H128709   3.694   0.594   6.533
 9590TIP3    H228710   3.674   0.483   6.432
 9591TIP3   OH228711   7.408   5.040   0.390
 9591TIP3    H128712   7.319   5.077   0.393
 9591TIP3    H228713   7.435   5.050   0.299
 9592TIP3   OH228714   3.999   0.847   6.751
 9592TIP3    H128715   3.947   0.870   6.828
 9592TIP3    H228716   4.085   0.822   6.786
 9593TIP3   OH228717   7.092   4.961   0.703
 9593TIP3    H128718   7.091   4.986   0.795
 9593TIP3    H228719   7.000   4.951   0.679
 9594TIP3   OH228720   6.129   4.836   0.132
 9594TIP3    H128721   6.064   4.781   0.088
 9594TIP3    H228722   6.206   4.780   0.139
 9595TIP3   OH228723   6.222   5.266   0.310
 9595TIP3    H128724   6.187   5.231   0.228
 9595TIP3    H228725   6.301   5.215   0.326
 9596TIP3   OH228726   6.158   4.833   0.652
 9596TIP3    H128727   6.149   4.794   0.565
 9596TIP3    H228728   6.222   4.903   0.641
 9597TIP3   OH228729   6.735   5.458   0.319
 9597TIP3    H128730   6.695   5.521   0.378
 9597TIP3    H228731   6.698   5.373   0.345
 9598TIP3   OH228732   6.451   5.357   0.921
 9598TIP3    H128733   6.420   5.404   0.997
 9598TIP3    H228734   6.380   5.363   0.857
 9599TIP3   OH228735   3.852   0.690   6.577
 9599TIP3    H128736   3.904   0.756   6.624
 9599TIP3    H228737   3.877   0.701   6.485
 9600TIP3   OH228738   3.591   1.363   6.847
 9600TIP3    H128739   3.674   1.410   6.845
 9600TIP3    H228740   3.534   1.414   6.790
 9601TIP3   OH228741   6.114   5.466   1.001
 9601TIP3    H128742   6.078   5.549   0.969
 9601TIP3    H228743   6.083   5.461   1.092
 9602TIP3   OH228744   3.119   0.664   6.931
 9602TIP3    H128745   3.036   0.701   6.900
 9602TIP3    H228746   3.099   0.572   6.946
 9603TIP3   OH228747   4.180   1.295   6.187
 9603TIP3    H128748   4.178   1.389   6.166
 9603TIP3    H228749   4.269   1.268   6.166
 9604TIP3   OH228750   5.556   5.178   0.528
 9604TIP3    H128751   5.610   5.110   0.486
 9604TIP3    H228752   5.617   5.223   0.587
 9605TIP3   OH228753   7.464   5.736   0.544
 9605TIP3    H128754   7.464   5.641   0.538
 9605TIP3    H228755   7.373   5.759   0.565
 9606TIP3   OH228756   6.522   5.537   0.730
 9606TIP3    H128757   6.482   5.622   0.749
 9606TIP3    H228758   6.511   5.487   0.811
 9607TIP3   OH228759   3.486   1.601   6.656
 9607TIP3    H128760   3.443   1.577   6.574
 9607TIP3    H228761   3.445   1.683   6.682
 9608TIP3   OH228762   5.738   5.465   0.076
 9608TIP3    H128763   5.794   5.465   0.153
 9608TIP3    H228764   5.698   5.378   0.075
 9609TIP3   OH228765   3.687   1.525   6.287
 9609TIP3    H128766   3.737   1.452   6.251
 9609TIP3    H228767   3.718   1.534   6.377
 9610TIP3   OH228768   3.739   1.574   6.555
 9610TIP3    H128769   3.652   1.577   6.595
 9610TIP3    H228770   3.794   1.534   6.621
 9611TIP3   OH228771   7.362   4.855   0.903
 9611TIP3    H128772   7.349   4.873   0.810
 9611TIP3    H228773   7.297   4.788   0.924
 9612TIP3   OH228774   7.187   4.671   0.977
 9612TIP3    H128775   7.113   4.686   1.035
 9612TIP3    H228776   7.148   4.662   0.890
 9613TIP3   OH228777   3.931   0.707   6.317
 9613TIP3    H128778   3.877   0.703   6.238
 9613TIP3    H228779   4.010   0.752   6.290
 9614TIP3   OH228780   6.229   4.574   0.712
 9614TIP3    H128781   6.321   4.582   0.737
 9614TIP3    H228782   6.205   4.662   0.684
 9615TIP3   OH228783   6.124   4.473   0.173
 9615TIP3    H128784   6.053   4.427   0.218
 9615TIP3    H228785   6.149   4.414   0.102
 9616TIP3   OH228786   3.791   0.558   6.918
 9616TIP3    H128787   3.735   0.624   6.876
 9616TIP3    H228788   3.851   0.531   6.849
 9617TIP3   OH228789   6.767   4.609   0.214
 9617TIP3    H128790   6.715   4.642   0.141
 9617TIP3    H228791   6.806   4.528   0.181
 9618TIP3   OH228792   5.739   4.172   0.033
 9618TIP3    H128793   5.765   4.175  -0.059
 9618TIP3    H228794   5.649   4.207   0.033
 9619TIP3   OH228795   6.828   4.867   0.670
 9619TIP3    H128796   6.840   4.919   0.591
 9619TIP3    H228797   6.739   4.888   0.699
 9620TIP3   OH228798   5.933   4.269   0.227
 9620TIP3    H128799   5.853   4.279   0.279
 9620TIP3    H228800   5.903   4.231   0.144
 9621TIP3   OH228801   3.353   0.292   6.919
 9621TIP3    H128802   3.445   0.305   6.900
 9621TIP3    H228803   3.308   0.314   6.837
 9622TIP3   OH228804   3.199   0.370   6.702
 9622TIP3    H128805   3.132   0.334   6.643
 9622TIP3    H228806   3.257   0.420   6.645
 9623TIP3   OH228807   7.149   6.058   0.679
 9623TIP3    H128808   7.165   6.102   0.595
 9623TIP3    H228809   7.178   6.121   0.745
 9624TIP3   OH228810   6.522   4.570   0.343
 9624TIP3    H128811   6.599   4.554   0.288
 9624TIP3    H228812   6.557   4.615   0.420
 9625TIP3   OH228813   6.499   4.608   0.723
 9625TIP3    H128814   6.561   4.539   0.700
 9625TIP3    H228815   6.543   4.656   0.794
 9626TIP3   OH228816   3.430   0.886   6.707
 9626TIP3    H128817   3.351   0.833   6.693
 9626TIP3    H228818   3.409   0.940   6.784
 9627TIP3   OH228819   7.150   5.159   0.365
 9627TIP3    H128820   7.200   5.214   0.304
 9627TIP3    H228821   7.080   5.121   0.311
 9628TIP3   OH228822   3.856   0.294   6.555
 9628TIP3    H128823   3.805   0.237   6.611
 9628TIP3    H228824   3.903   0.351   6.616
 9629TIP3   OH228825   6.682   5.213   0.858
 9629TIP3    H128826   6.671   5.121   0.835
 9629TIP3    H228827   6.594   5.244   0.879
 9630TIP3   OH228828   3.976   0.484   6.723
 9630TIP3    H128829   4.072   0.493   6.724
 9630TIP3    H228830   3.947   0.554   6.664
 9631TIP3   OH228831   6.111   4.981   0.368
 9631TIP3    H128832   6.129   4.942   0.283
 9631TIP3    H228833   6.044   4.926   0.407
 9632TIP3   OH228834   3.588   1.055   6.566
 9632TIP3    H128835   3.539   1.137   6.567
 9632TIP3    H228836   3.532   0.992   6.611
 9633TIP3   OH228837   6.936   5.546   0.554
 9633TIP3    H128838   6.861   5.487   0.559
 9633TIP3    H228839   6.973   5.545   0.642
 9634TIP3   OH228840   4.388   0.554   6.517
 9634TIP3    H128841   4.341   0.497   6.456
 9634TIP3    H228842   4.384   0.641   6.478
 9635TIP3   OH228843   7.445   5.466   0.605
 9635TIP3    H128844   7.352   5.445   0.608
 9635TIP3    H228845   7.477   5.421   0.526
 9636TIP3   OH228846   4.108   1.372   6.452
 9636TIP3    H128847   4.076   1.308   6.516
 9636TIP3    H228848   4.121   1.322   6.372
 9637TIP3   OH228849   6.944   5.018   0.237
 9637TIP3    H128850   6.862   5.000   0.283
 9637TIP3    H228851   6.975   4.932   0.209
 9638TIP3   OH228852   6.053   5.251   0.086
 9638TIP3    H128853   6.044   5.332   0.036
 9638TIP3    H228854   5.966   5.212   0.087
 9639TIP3   OH228855   2.801   0.519   6.752
 9639TIP3    H128856   2.844   0.603   6.764
 9639TIP3    H228857   2.717   0.528   6.797
 9640TIP3   OH228858   6.193   5.045  -0.025
 9640TIP3    H128859   6.162   5.127   0.013
 9640TIP3    H228860   6.170   4.979   0.039
 9641TIP3   OH228861   6.478   5.501   0.456
 9641TIP3    H128862   6.450   5.578   0.406
 9641TIP3    H228863   6.466   5.527   0.547
 9642TIP3   OH228864   3.144   1.471   6.883
 9642TIP3    H128865   3.054   1.478   6.914
 9642TIP3    H228866   3.175   1.562   6.880
 9643TIP3   OH228867   6.688   5.208   0.439
 9643TIP3    H128868   6.701   5.268   0.512
 9643TIP3    H228869   6.757   5.143   0.448
 9644TIP3   OH228870   3.860   1.109   6.340
 9644TIP3    H128871   3.904   1.085   6.421
 9644TIP3    H228872   3.773   1.067   6.347
 9645TIP3   OH228873   6.961   5.817   0.545
 9645TIP3    H128874   6.936   5.725   0.535
 9645TIP3    H228875   6.943   5.855   0.459
 9646TIP3   OH228876   4.185   1.568   6.144
 9646TIP3    H128877   4.201   1.624   6.068
 9646TIP3    H228878   4.113   1.611   6.191
 9647TIP3   OH228879   4.025   1.041   6.553
 9647TIP3    H128880   4.012   0.975   6.621
 9647TIP3    H228881   4.120   1.042   6.538
 9648TIP3   OH228882   5.650   5.458   0.838
 9648TIP3    H128883   5.699   5.390   0.793
 9648TIP3    H228884   5.680   5.540   0.799
 9649TIP3   OH228885   3.213   1.077   6.352
 9649TIP3    H128886   3.226   0.987   6.321
 9649TIP3    H228887   3.197   1.067   6.446
 9650TIP3   OH228888   3.162   1.092   6.627
 9650TIP3    H128889   3.237   1.067   6.681
 9650TIP3    H228890   3.163   1.188   6.628
 9651TIP3   OH228891   2.891   0.774   6.820
 9651TIP3    H128892   2.828   0.827   6.870
 9651TIP3    H228893   2.919   0.831   6.748
 9652TIP3   OH228894   3.434   1.278   6.564
 9652TIP3    H128895   3.351   1.309   6.600
 9652TIP3    H228896   3.442   1.324   6.481
 9653TIP3   OH228897   6.460   4.342   0.007
 9653TIP3    H128898   6.516   4.419  -0.000
 9653TIP3    H228899   6.473   4.311   0.096
 9654TIP3   OH228900   6.677   4.707   0.920
 9654TIP3    H128901   6.672   4.715   1.016
 9654TIP3    H228902   6.765   4.673   0.904
 9655TIP3   OH228903   3.181   1.366   6.633
 9655TIP3    H128904   3.157   1.435   6.572
 9655TIP3    H228905   3.168   1.404   6.719
 9656TIP3   OH228906   7.012   4.755   0.192
 9656TIP3    H128907   6.930   4.715   0.220
 9656TIP3    H228908   7.081   4.702   0.232
 9657TIP3   OH228909   2.914   0.967   6.615
 9657TIP3    H128910   2.985   1.030   6.627
 9657TIP3    H228911   2.948   0.905   6.551
 9658TIP3   OH228912   2.836   0.241   6.709
 9658TIP3    H128913   2.846   0.335   6.722
 9658TIP3    H228914   2.742   0.225   6.724
 9659TIP3   OH228915   6.992   5.727   0.116
 9659TIP3    H128916   6.943   5.776   0.051
 9659TIP3    H228917   7.083   5.752   0.102
 9660TIP3   OH228918   5.599   5.227   0.067
 9660TIP3    H128919   5.537   5.226   0.140
 9660TIP3    H228920   5.552   5.269  -0.005
 9661TIP3   OH228921   3.369   1.287   6.269
 9661TIP3    H128922   3.320   1.210   6.298
 9661TIP3    H228923   3.443   1.252   6.219
 9662TIP3   OH228924   6.848   5.657   1.003
 9662TIP3    H128925   6.852   5.581   0.945
 9662TIP3    H228926   6.936   5.693   1.002
 9663TIP3   OH228927   3.826   1.321   6.169
 9663TIP3    H128928   3.851   1.251   6.229
 9663TIP3    H228929   3.880   1.306   6.091
 9664TIP3   OH228930   3.039   0.774   6.471
 9664TIP3    H128931   3.092   0.748   6.547
 9664TIP3    H228932   3.102   0.786   6.400
 9665TIP3   OH228933   3.599   0.995   6.295
 9665TIP3    H128934   3.579   1.007   6.388
 9665TIP3    H228935   3.587   0.902   6.280
 9666TIP3   OH228936   6.987   5.258   0.676
 9666TIP3    H128937   7.054   5.315   0.637
 9666TIP3    H228938   6.931   5.318   0.725
 9667TIP3   OH228939   3.218   0.712   6.676
 9667TIP3    H128940   3.198   0.681   6.764
 9667TIP3    H228941   3.266   0.640   6.635
 9668TIP3   OH228942   3.355   0.518   6.535
 9668TIP3    H128943   3.324   0.521   6.444
 9668TIP3    H228944   3.450   0.525   6.528
 9669TIP3   OH228945   4.155   0.818   6.196
 9669TIP3    H128946   4.134   0.777   6.112
 9669TIP3    H228947   4.129   0.909   6.186
 9670TIP3   OH228948   6.593   4.927   0.783
 9670TIP3    H128949   6.611   4.851   0.839
 9670TIP3    H228950   6.526   4.976   0.831
 9671TIP3   OH228951   7.124   5.079   0.944
 9671TIP3    H128952   7.087   5.166   0.933
 9671TIP3    H228953   7.218   5.095   0.954
 9672TIP3   OH228954   3.165   1.577   6.452
 9672TIP3    H128955   3.257   1.564   6.430
 9672TIP3    H228956   3.127   1.619   6.375
 9673TIP3   OH228957   2.643   0.952   6.633
 9673TIP3    H128958   2.737   0.964   6.625
 9673TIP3    H228959   2.628   0.863   6.600
 9674TIP3   OH228960   5.363   5.570   0.077
 9674TIP3    H128961   5.316   5.498   0.035
 9674TIP3    H228962   5.385   5.537   0.164
 9675TIP3   OH228963   5.404   5.479   0.326
 9675TIP3    H128964   5.394   5.385   0.309
 9675TIP3    H228965   5.491   5.487   0.365
 9676TIP3   OH228966   7.237   5.840   0.077
 9676TIP3    H128967   7.256   5.852   0.170
 9676TIP3    H228968   7.322   5.845   0.034
 9677TIP3   OH228969   7.263   5.840   0.351
 9677TIP3    H128970   7.216   5.757   0.363
 9677TIP3    H228971   7.355   5.817   0.368
 9678TIP3   OH228972   7.340   5.516   0.921
 9678TIP3    H128973   7.348   5.540   1.013
 9678TIP3    H228974   7.393   5.580   0.874
 9679TIP3   OH228975   4.304   1.028   6.526
 9679TIP3    H128976   4.365   1.095   6.495
 9679TIP3    H228977   4.344   0.995   6.607
 9680TIP3   OH228978   4.423   0.910   6.740
 9680TIP3    H128979   4.361   0.868   6.800
 9680TIP3    H228980   4.495   0.937   6.797
 9681TIP3   OH228981   7.330   5.298   0.216
 9681TIP3    H128982   7.386   5.233   0.174
 9681TIP3    H228983   7.327   5.370   0.153
 9682TIP3   OH228984   7.136   5.598   0.376
 9682TIP3    H128985   7.063   5.590   0.437
 9682TIP3    H228986   7.107   5.552   0.297
 9683TIP3   OH228987   4.350   0.795   6.387
 9683TIP3    H128988   4.282   0.797   6.319
 9683TIP3    H228989   4.334   0.873   6.439
 9684TIP3   OH228990   4.224   0.458   6.315
 9684TIP3    H128991   4.205   0.537   6.265
 9684TIP3    H228992   4.176   0.389   6.270
 9685TIP3   OH228993   4.232   0.754   6.866
 9685TIP3    H128994   4.246   0.661   6.845
 9685TIP3    H228995   4.221   0.755   6.961
 9686TIP3   OH228996   5.658   4.923   0.642
 9686TIP3    H128997   5.677   4.874   0.562
 9686TIP3    H228998   5.741   4.923   0.690
 9687TIP3   OH228999   7.526   5.209   0.713
 9687TIP3    H129000   7.462   5.179   0.778
 9687TIP3    H229001   7.478   5.273   0.660
 9688TIP3   OH229002   7.613   4.957   0.850
 9688TIP3    H129003   7.537   4.911   0.885
 9688TIP3    H229004   7.670   4.888   0.817
 9689TIP3   OH229005   4.256   0.493   6.755
 9689TIP3    H129006   4.316   0.427   6.789
 9689TIP3    H229007   4.295   0.521   6.672
 9690TIP3   OH229008   7.229   4.596   0.261
 9690TIP3    H129009   7.307   4.643   0.233
 9690TIP3    H229010   7.256   4.550   0.340
 9691TIP3   OH229011   7.308   4.780   0.478
 9691TIP3    H129012   7.293   4.792   0.385
 9691TIP3    H229013   7.340   4.864   0.509
 9692TIP3   OH229014   3.984   1.684   6.711
 9692TIP3    H129015   4.045   1.664   6.639
 9692TIP3    H229016   4.032   1.744   6.767
 9693TIP3   OH229017   6.128   5.474   0.509
 9693TIP3    H129018   6.051   5.501   0.558
 9693TIP3    H229019   6.185   5.434   0.574
 9694TIP3   OH229020   6.498   5.791   0.834
 9694TIP3    H129021   6.523   5.770   0.924
 9694TIP3    H229022   6.577   5.777   0.783
 9695TIP3   OH229023   6.740   5.997   0.590
 9695TIP3    H129024   6.805   5.930   0.572
 9695TIP3    H229025   6.773   6.043   0.667
 9696TIP3   OH229026   5.689   5.722   0.763
 9696TIP3    H129027   5.697   5.783   0.689
 9696TIP3    H229028   5.741   5.761   0.832
 9697TIP3   OH229029   6.041   5.747   0.510
 9697TIP3    H129030   5.997   5.785   0.586
 9697TIP3    H229031   5.994   5.782   0.434
 9698TIP3   OH229032   6.455   5.746   0.332
 9698TIP3    H129033   6.381   5.764   0.274
 9698TIP3    H229034   6.456   5.819   0.394
 9699TIP3   OH229035   6.704   5.723   0.445
 9699TIP3    H129036   6.616   5.724   0.407
 9699TIP3    H229037   6.755   5.780   0.388
 9700TIP3   OH229038   6.886   5.903   0.304
 9700TIP3    H129039   6.888   5.991   0.267
 9700TIP3    H229040   6.922   5.846   0.235
 9701TIP3   OH229041   5.765   5.644   0.431
 9701TIP3    H129042   5.695   5.579   0.436
 9701TIP3    H229043   5.830   5.606   0.373
 9702TIP3   OH229044   5.917   5.480   0.281
 9702TIP3    H129045   5.944   5.404   0.332
 9702TIP3    H229046   5.999   5.519   0.251
 9703TIP3   OH229047   6.185   5.542   0.253
 9703TIP3    H129048   6.225   5.461   0.223
 9703TIP3    H229049   6.174   5.530   0.347
 9704TIP3   OH229050   2.640   1.340   6.794
 9704TIP3    H129051   2.551   1.308   6.783
 9704TIP3    H229052   2.638   1.430   6.763
 9705TIP3   OH229053   3.426   1.524   6.386
 9705TIP3    H129054   3.513   1.544   6.350
 9705TIP3    H229055   3.395   1.450   6.335
 9706TIP3   OH229056   4.139   1.639   6.484
 9706TIP3    H129057   4.136   1.544   6.480
 9706TIP3    H229058   4.094   1.668   6.405
 9707TIP3   OH229059   2.730   1.347   6.443
 9707TIP3    H129060   2.733   1.353   6.538
 9707TIP3    H229061   2.811   1.303   6.419
 9708TIP3   OH229062   7.213   5.787   0.635
 9708TIP3    H129063   7.132   5.804   0.588
 9708TIP3    H229064   7.220   5.857   0.699
 9709TIP3   OH229065   5.617   1.169   6.430
 9709TIP3    H129066   5.596   1.260   6.406
 9709TIP3    H229067   5.541   1.118   6.401
 9710TIP3   OH229068   5.641   1.157   6.828
 9710TIP3    H129069   5.676   1.139   6.915
 9710TIP3    H229070   5.582   1.084   6.810
 9711TIP3   OH229071   7.759   5.038   0.221
 9711TIP3    H129072   7.793   4.984   0.292
 9711TIP3    H229073   7.835   5.057   0.167
 9712TIP3   OH229074   5.886   1.465   6.514
 9712TIP3    H129075   5.876   1.399   6.582
 9712TIP3    H229076   5.911   1.544   6.560
 9713TIP3   OH229077   4.576   0.686   6.685
 9713TIP3    H129078   4.528   0.768   6.700
 9713TIP3    H229079   4.516   0.633   6.631
 9714TIP3   OH229080   4.673   0.955   6.853
 9714TIP3    H129081   4.715   0.876   6.886
 9714TIP3    H229082   4.739   0.997   6.798
 9715TIP3   OH229083   5.540   1.906   6.522
 9715TIP3    H129084   5.573   1.838   6.463
 9715TIP3    H229085   5.533   1.862   6.607
 9716TIP3   OH229086   5.442   1.379   6.876
 9716TIP3    H129087   5.467   1.311   6.814
 9716TIP3    H229088   5.524   1.424   6.896
 9717TIP3   OH229089   5.847   0.876   6.917
 9717TIP3    H129090   5.890   0.791   6.925
 9717TIP3    H229091   5.808   0.874   6.829
 9718TIP3   OH229092   5.145   0.510   6.870
 9718TIP3    H129093   5.137   0.581   6.806
 9718TIP3    H229094   5.122   0.431   6.820
 9719TIP3   OH229095   5.791   0.639   6.540
 9719TIP3    H129096   5.881   0.608   6.542
 9719TIP3    H229097   5.774   0.661   6.449
 9720TIP3   OH229098   4.805   0.735   6.949
 9720TIP3    H129099   4.889   0.730   6.995
 9720TIP3    H229100   4.815   0.675   6.875
 9721TIP3   OH229101   5.227   0.945   6.781
 9721TIP3    H129102   5.321   0.929   6.789
 9721TIP3    H229103   5.189   0.859   6.764
 9722TIP3   OH229104   0.823   4.917   0.085
 9722TIP3    H129105   0.736   4.956   0.091
 9722TIP3    H229106   0.870   4.950   0.162
 9723TIP3   OH229107   5.532   1.386   6.278
 9723TIP3    H129108   5.489   1.356   6.198
 9723TIP3    H229109   5.477   1.458   6.309
 9724TIP3   OH229110   8.110   5.313   0.140
 9724TIP3    H129111   8.047   5.380   0.167
 9724TIP3    H229112   8.155   5.352   0.065
 9725TIP3   OH229113   7.885   4.697   0.116
 9725TIP3    H129114   7.960   4.740   0.156
 9725TIP3    H229115   7.923   4.626   0.064
 9726TIP3   OH229116   7.933   5.511   0.231
 9726TIP3    H129117   7.882   5.521   0.150
 9726TIP3    H229118   7.867   5.501   0.300
 9727TIP3   OH229119   4.491   1.207   6.416
 9727TIP3    H129120   4.458   1.225   6.328
 9727TIP3    H229121   4.520   1.292   6.449
 9728TIP3   OH229122   5.935   1.711   6.654
 9728TIP3    H129123   5.848   1.702   6.694
 9728TIP3    H229124   5.931   1.795   6.609
 9729TIP3   OH229125   5.640   1.747   6.315
 9729TIP3    H129126   5.692   1.667   6.304
 9729TIP3    H229127   5.698   1.817   6.283
 9730TIP3   OH229128   5.779   1.517   6.263
 9730TIP3    H129129   5.704   1.457   6.260
 9730TIP3    H229130   5.826   1.492   6.342
 9731TIP3   OH229131   0.499   5.614   0.062
 9731TIP3    H129132   0.483   5.539   0.004
 9731TIP3    H229133   0.484   5.691   0.006
 9732TIP3   OH229134   5.446   1.021   6.264
 9732TIP3    H129135   5.363   1.063   6.242
 9732TIP3    H229136   5.494   1.017   6.181
 9733TIP3   OH229137   5.407   0.829   5.972
 9733TIP3    H129138   5.475   0.886   6.007
 9733TIP3    H229139   5.441   0.740   5.987
 9734TIP3   OH229140   6.353   1.264   6.860
 9734TIP3    H129141   6.268   1.309   6.859
 9734TIP3    H229142   6.389   1.277   6.773
 9735TIP3   OH229143   5.798   1.104   6.237
 9735TIP3    H129144   5.737   1.128   6.307
 9735TIP3    H229145   5.882   1.096   6.280
 9736TIP3   OH229146   0.365   5.143   0.222
 9736TIP3    H129147   0.361   5.222   0.277
 9736TIP3    H229148   0.279   5.138   0.181
 9737TIP3   OH229149   5.048   1.074   6.608
 9737TIP3    H129150   5.013   1.002   6.556
 9737TIP3    H229151   5.108   1.032   6.670
 9738TIP3   OH229152   8.002   5.063   0.090
 9738TIP3    H129153   8.017   5.041  -0.002
 9738TIP3    H229154   8.037   5.151   0.100
 9739TIP3   OH229155   5.699   1.703   6.787
 9739TIP3    H129156   5.684   1.779   6.843
 9739TIP3    H229157   5.688   1.628   6.846
 9740TIP3   OH229158   8.087   5.646   0.404
 9740TIP3    H129159   8.118   5.578   0.465
 9740TIP3    H229160   8.058   5.598   0.327
 9741TIP3   OH229161   5.638   0.960   6.064
 9741TIP3    H129162   5.697   1.018   6.112
 9741TIP3    H229163   5.671   0.963   5.974
 9742TIP3   OH229164   7.916   5.188   0.485
 9742TIP3    H129165   7.919   5.269   0.535
 9742TIP3    H229166   7.824   5.161   0.488
 9743TIP3   OH229167   5.395   1.623   6.325
 9743TIP3    H129168   5.475   1.675   6.329
 9743TIP3    H229169   5.332   1.680   6.281
 9744TIP3   OH229170   4.907   0.900   6.424
 9744TIP3    H129171   4.831   0.951   6.397
 9744TIP3    H229172   4.870   0.820   6.461
 9745TIP3   OH229173   5.970   1.557   5.669
 9745TIP3    H129174   5.969   1.651   5.652
 9745TIP3    H229175   6.061   1.531   5.653
 9746TIP3   OH229176   7.547   5.327   0.399
 9746TIP3    H129177   7.481   5.320   0.330
 9746TIP3    H229178   7.589   5.241   0.400
 9747TIP3   OH229179   7.379   5.513   0.050
 9747TIP3    H129180   7.470   5.491   0.029
 9747TIP3    H229181   7.385   5.584   0.113
 9748TIP3   OH229182   0.733   5.979   0.121
 9748TIP3    H129183   0.740   5.884   0.129
 9748TIP3    H229184   0.652   6.002   0.167
 9749TIP3   OH229185   8.335   5.754   0.259
 9749TIP3    H129186   8.334   5.848   0.280
 9749TIP3    H229187   8.256   5.719   0.299
 9750TIP3   OH229188   5.279   1.858   6.145
 9750TIP3    H129189   5.230   1.838   6.065
 9750TIP3    H229190   5.244   1.943   6.173
 9751TIP3   OH229191   4.708   1.715   6.521
 9751TIP3    H129192   4.760   1.706   6.601
 9751TIP3    H229193   4.667   1.629   6.509
 9752TIP3   OH229194   5.479   1.779   5.776
 9752TIP3    H129195   5.531   1.706   5.740
 9752TIP3    H229196   5.513   1.791   5.864
 9753TIP3   OH229197   5.532   1.823   6.046
 9753TIP3    H129198   5.446   1.829   6.087
 9753TIP3    H229199   5.589   1.787   6.114
 9754TIP3   OH229200   0.612   5.073   0.361
 9754TIP3    H129201   0.536   5.114   0.321
 9754TIP3    H229202   0.586   4.981   0.371
 9755TIP3   OH229203   7.736   5.534   0.429
 9755TIP3    H129204   7.785   5.489   0.498
 9755TIP3    H229205   7.670   5.470   0.401
 9756TIP3   OH229206   0.393   4.894   0.361
 9756TIP3    H129207   0.358   4.939   0.439
 9756TIP3    H229208   0.373   4.953   0.289
 9757TIP3   OH229209   5.726   0.949   5.806
 9757TIP3    H129210   5.677   0.958   5.725
 9757TIP3    H229211   5.809   0.994   5.790
 9758TIP3   OH229212   8.082   4.852   0.247
 9758TIP3    H129213   8.019   4.860   0.319
 9758TIP3    H229214   8.064   4.927   0.191
 9759TIP3   OH229215   5.088   0.717   6.697
 9759TIP3    H129216   4.997   0.690   6.704
 9759TIP3    H229217   5.111   0.702   6.605
 9760TIP3   OH229218   5.579   0.855   6.432
 9760TIP3    H129219   5.524   0.917   6.384
 9760TIP3    H229220   5.645   0.828   6.368
 9761TIP3   OH229221   0.108   5.106   0.527
 9761TIP3    H129222   0.081   5.034   0.584
 9761TIP3    H229223   0.202   5.116   0.546
 9762TIP3   OH229224   5.738   0.877   6.666
 9762TIP3    H129225   5.684   0.925   6.603
 9762TIP3    H229226   5.750   0.791   6.625
 9763TIP3   OH229227   7.880   4.882   0.434
 9763TIP3    H129228   7.856   4.956   0.490
 9763TIP3    H229229   7.833   4.807   0.472
 9764TIP3   OH229230   4.672   0.437   6.525
 9764TIP3    H129231   4.691   0.471   6.437
 9764TIP3    H229232   4.578   0.449   6.536
 9765TIP3   OH229233   0.100   5.090   0.128
 9765TIP3    H129234   0.135   5.022   0.070
 9765TIP3    H229235   0.062   5.042   0.201
 9766TIP3   OH229236   4.834   0.604   6.698
 9766TIP3    H129237   4.745   0.639   6.696
 9766TIP3    H229238   4.827   0.520   6.653
 9767TIP3   OH229239   5.155   0.658   6.442
 9767TIP3    H129240   5.243   0.648   6.404
 9767TIP3    H229241   5.096   0.650   6.367
 9768TIP3   OH229242   5.028   0.604   6.208
 9768TIP3    H129243   4.938   0.596   6.176
 9768TIP3    H229244   5.073   0.657   6.143
 9769TIP3   OH229245   0.441   6.318   0.217
 9769TIP3    H129246   0.435   6.336   0.123
 9769TIP3    H229247   0.519   6.365   0.246
 9770TIP3   OH229248   7.936   5.455   0.616
 9770TIP3    H129249   8.007   5.461   0.680
 9770TIP3    H229250   7.858   5.437   0.669
 9771TIP3   OH229251   5.501   0.901   6.827
 9771TIP3    H129252   5.580   0.867   6.785
 9771TIP3    H229253   5.503   0.865   6.916
 9772TIP3   OH229254   8.342   4.821   0.146
 9772TIP3    H129255   8.255   4.822   0.186
 9772TIP3    H229256   8.400   4.859   0.213
 9773TIP3   OH229257   5.211   1.150   6.202
 9773TIP3    H129258   5.136   1.092   6.188
 9773TIP3    H229259   5.195   1.190   6.288
 9774TIP3   OH229260   6.115   1.403   6.827
 9774TIP3    H129261   6.148   1.451   6.751
 9774TIP3    H229262   6.034   1.363   6.797
 9775TIP3   OH229263   5.556   0.608   6.023
 9775TIP3    H129264   5.524   0.537   6.080
 9775TIP3    H229265   5.638   0.635   6.064
 9776TIP3   OH229266   8.456   5.493   0.288
 9776TIP3    H129267   8.524   5.490   0.356
 9776TIP3    H229268   8.434   5.586   0.281
 9777TIP3   OH229269   5.750   0.767   6.245
 9777TIP3    H129270   5.844   0.783   6.248
 9777TIP3    H229271   5.718   0.822   6.173
 9778TIP3   OH229272   5.374   1.310   6.054
 9778TIP3    H129273   5.328   1.395   6.054
 9778TIP3    H229274   5.316   1.252   6.104
 9779TIP3   OH229275   7.660   5.077   0.517
 9779TIP3    H129276   7.631   5.114   0.600
 9779TIP3    H229277   7.580   5.043   0.477
 9780TIP3   OH229278   8.365   5.231   0.592
 9780TIP3    H129279   8.295   5.176   0.557
 9780TIP3    H229280   8.444   5.199   0.550
 9781TIP3   OH229281   0.109   5.770   0.169
 9781TIP3    H129282   0.014   5.763   0.174
 9781TIP3    H229283   0.135   5.812   0.251
 9782TIP3   OH229284   6.145   0.840   6.019
 9782TIP3    H129285   6.092   0.789   5.958
 9782TIP3    H229286   6.158   0.924   5.975
 9783TIP3   OH229287   0.747   5.701   0.144
 9783TIP3    H129288   0.653   5.682   0.146
 9783TIP3    H229289   0.777   5.666   0.061
 9784TIP3   OH229290   5.901   1.629   5.938
 9784TIP3    H129291   5.870   1.563   6.000
 9784TIP3    H229292   5.913   1.581   5.856
 9785TIP3   OH229293   5.882   1.274   6.734
 9785TIP3    H129294   5.792   1.248   6.753
 9785TIP3    H229295   5.926   1.194   6.707
 9786TIP3   OH229296   5.016   1.499   6.487
 9786TIP3    H129297   5.000   1.581   6.441
 9786TIP3    H229298   4.953   1.499   6.559
 9787TIP3   OH229299   4.579   0.796   6.232
 9787TIP3    H129300   4.623   0.878   6.253
 9787TIP3    H229301   4.501   0.796   6.287
 9788TIP3   OH229302   5.149   1.263   6.436
 9788TIP3    H129303   5.115   1.350   6.459
 9788TIP3    H229304   5.117   1.206   6.506
 9789TIP3   OH229305   8.144   5.829   0.023
 9789TIP3    H129306   8.184   5.905  -0.018
 9789TIP3    H229307   8.211   5.795   0.082
 9790TIP3   OH229308   4.934   1.740   6.365
 9790TIP3    H129309   4.851   1.742   6.411
 9790TIP3    H229310   4.969   1.829   6.374
 9791TIP3   OH229311   0.025   5.482   0.013
 9791TIP3    H129312   0.009   5.473   0.107
 9791TIP3    H229313   0.098   5.423  -0.005
 9792TIP3   OH229314   5.653   1.364   5.826
 9792TIP3    H129315   5.705   1.336   5.901
 9792TIP3    H229316   5.566   1.328   5.843
 9793TIP3   OH229317   0.261   5.995   0.057
 9793TIP3    H129318   0.188   5.933   0.067
 9793TIP3    H229319   0.234   6.052  -0.015
 9794TIP3   OH229320   5.982   1.832   5.638
 9794TIP3    H129321   6.014   1.899   5.577
 9794TIP3    H229322   5.907   1.872   5.681
 9795TIP3   OH229323   5.823   1.277   6.020
 9795TIP3    H129324   5.808   1.228   6.101
 9795TIP3    H229325   5.918   1.288   6.017
 9796TIP3   OH229326   7.512   5.719   0.213
 9796TIP3    H129327   7.572   5.652   0.179
 9796TIP3    H229328   7.568   5.776   0.266
 9797TIP3   OH229329   5.011   1.338   5.840
 9797TIP3    H129330   5.022   1.247   5.813
 9797TIP3    H229331   4.997   1.333   5.935
 9798TIP3   OH229332   4.957   1.349   6.112
 9798TIP3    H129333   5.021   1.320   6.177
 9798TIP3    H229334   4.958   1.445   6.119
 9799TIP3   OH229335   4.688   1.037   6.317
 9799TIP3    H129336   4.626   1.084   6.372
 9799TIP3    H229337   4.712   1.099   6.248
 9800TIP3   OH229338   5.229   1.539   6.049
 9800TIP3    H129339   5.144   1.560   6.087
 9800TIP3    H229340   5.249   1.614   5.993
 9801TIP3   OH229341   5.439   0.628   6.464
 9801TIP3    H129342   5.491   0.708   6.458
 9801TIP3    H229343   5.384   0.641   6.541
 9802TIP3   OH229344   0.024   4.924   0.335
 9802TIP3    H129345   0.034   4.996   0.397
 9802TIP3    H229346   0.057   4.847   0.382
 9803TIP3   OH229347   4.975   1.622   6.121
 9803TIP3    H129348   4.952   1.691   6.059
 9803TIP3    H229349   4.960   1.662   6.207
 9804TIP3   OH229350   5.982   1.024   6.664
 9804TIP3    H129351   5.902   0.972   6.670
 9804TIP3    H229352   6.049   0.968   6.704
 9805TIP3   OH229353   4.707   1.225   6.106
 9805TIP3    H129354   4.779   1.288   6.118
 9805TIP3    H229355   4.741   1.161   6.044
 9806TIP3   OH229356   4.679   0.542   6.275
 9806TIP3    H129357   4.654   0.633   6.260
 9806TIP3    H229358   4.640   0.494   6.202
 9807TIP3   OH229359   5.952   1.979   6.574
 9807TIP3    H129360   5.909   2.028   6.504
 9807TIP3    H229361   6.046   1.992   6.558
 9808TIP3   OH229362   4.546   1.480   6.487
 9808TIP3    H129363   4.495   1.508   6.563
 9808TIP3    H229364   4.505   1.524   6.413
 9809TIP3   OH229365   7.558   6.009   0.571
 9809TIP3    H129366   7.600   6.003   0.657
 9809TIP3    H229367   7.536   5.919   0.549
 9810TIP3   OH229368   8.040   5.886   0.573
 9810TIP3    H129369   8.016   5.960   0.628
 9810TIP3    H229370   8.132   5.871   0.591
 9811TIP3   OH229371   5.173   1.533   5.731
 9811TIP3    H129372   5.124   1.464   5.776
 9811TIP3    H229373   5.248   1.488   5.692
 9812TIP3   OH229374   0.167   5.879   0.413
 9812TIP3    H129375   0.175   5.809   0.477
 9812TIP3    H229376   0.241   5.937   0.431
 9813TIP3   OH229377   5.612   1.573   5.653
 9813TIP3    H129378   5.642   1.507   5.715
 9813TIP3    H229379   5.674   1.566   5.580
 9814TIP3   OH229380   7.692   5.419   0.724
 9814TIP3    H129381   7.677   5.326   0.743
 9814TIP3    H229382   7.608   5.451   0.693
 9815TIP3   OH229383   4.834   1.033   5.962
 9815TIP3    H129384   4.885   1.006   6.038
 9815TIP3    H229385   4.900   1.049   5.894
 9816TIP3   OH229386   8.298   5.496   0.568
 9816TIP3    H129387   8.314   5.502   0.474
 9816TIP3    H229388   8.328   5.408   0.592
 9817TIP3   OH229389   5.381   1.259   5.785
 9817TIP3    H129390   5.365   1.270   5.879
 9817TIP3    H229391   5.371   1.165   5.770
 9818TIP3   OH229392   0.275   5.546   0.211
 9818TIP3    H129393   0.355   5.572   0.165
 9818TIP3    H229394   0.211   5.613   0.187
 9819TIP3   OH229395   7.890   5.137   0.784
 9819TIP3    H129396   7.956   5.092   0.731
 9819TIP3    H229397   7.921   5.131   0.874
 9820TIP3   OH229398   5.008   0.965   6.171
 9820TIP3    H129399   4.985   0.935   6.259
 9820TIP3    H229400   5.053   0.890   6.132
 9821TIP3   OH229401   8.167   5.077   0.472
 9821TIP3    H129402   8.078   5.113   0.466
 9821TIP3    H229403   8.207   5.099   0.387
 9822TIP3   OH229404   5.140   0.771   6.023
 9822TIP3    H129405   5.102   0.779   5.935
 9822TIP3    H229406   5.233   0.793   6.011
 9823TIP3   OH229407   0.156   5.427   0.574
 9823TIP3    H129408   0.224   5.387   0.520
 9823TIP3    H229409   0.146   5.368   0.649
 9824TIP3   OH229410   5.947   1.073   5.685
 9824TIP3    H129411   5.927   1.036   5.599
 9824TIP3    H229412   5.921   1.165   5.678
 9825TIP3   OH229413   8.234   4.836   0.576
 9825TIP3    H129414   8.199   4.772   0.514
 9825TIP3    H229415   8.209   4.921   0.538
 9826TIP3   OH229416   8.308   5.166   0.258
 9826TIP3    H129417   8.388   5.189   0.210
 9826TIP3    H229418   8.240   5.219   0.215
 9827TIP3   OH229419   0.376   5.110   0.603
 9827TIP3    H129420   0.387   5.054   0.680
 9827TIP3    H229421   0.463   5.149   0.589
 9828TIP3   OH229422   0.398   5.373   0.380
 9828TIP3    H129423   0.346   5.434   0.328
 9828TIP3    H229424   0.488   5.385   0.347
 9829TIP3   OH229425   8.135   4.979   0.798
 9829TIP3    H129426   8.080   4.929   0.858
 9829TIP3    H229427   8.166   4.915   0.734
 9830TIP3   OH229428   8.497   4.889   0.648
 9830TIP3    H129429   8.506   4.854   0.736
 9830TIP3    H229430   8.407   4.869   0.622
 9831TIP3   OH229431   4.963   1.830   5.936
 9831TIP3    H129432   5.053   1.810   5.914
 9831TIP3    H229433   4.928   1.875   5.860
 9832TIP3   OH229434   4.435   1.206   6.129
 9832TIP3    H129435   4.530   1.220   6.123
 9832TIP3    H229436   4.422   1.119   6.091
 9833TIP3   OH229437   4.332   1.805   6.581
 9833TIP3    H129438   4.273   1.745   6.535
 9833TIP3    H229439   4.381   1.749   6.641
 9834TIP3   OH229440   4.475   1.646   6.751
 9834TIP3    H129441   4.465   1.576   6.815
 9834TIP3    H229442   4.538   1.706   6.791
 9835TIP3   OH229443   6.222   2.036   6.557
 9835TIP3    H129444   6.241   2.069   6.645
 9835TIP3    H229445   6.276   2.090   6.500
 9836TIP3   OH229446   6.239   2.069   6.838
 9836TIP3    H129447   6.191   1.986   6.832
 9836TIP3    H229448   6.310   2.051   6.900
 9837TIP3   OH229449   0.616   5.772   0.465
 9837TIP3    H129450   0.543   5.776   0.526
 9837TIP3    H229451   0.656   5.859   0.470
 9838TIP3   OH229452   6.101   1.292   6.017
 9838TIP3    H129453   6.162   1.359   5.988
 9838TIP3    H229454   6.139   1.257   6.098
 9839TIP3   OH229455   6.219   1.171   6.233
 9839TIP3    H129456   6.151   1.150   6.298
 9839TIP3    H229457   6.288   1.214   6.283
 9840TIP3   OH229458   6.284   1.538   6.654
 9840TIP3    H129459   6.338   1.470   6.615
 9840TIP3    H229460   6.284   1.609   6.589
 9841TIP3   OH229461   6.101   1.827   6.846
 9841TIP3    H129462   6.032   1.870   6.897
 9841TIP3    H229463   6.054   1.784   6.775
 9842TIP3   OH229464   6.150   1.069   5.868
 9842TIP3    H129465   6.081   1.066   5.802
 9842TIP3    H229466   6.130   1.146   5.920
 9843TIP3   OH229467   5.987   0.759   5.800
 9843TIP3    H129468   6.003   0.826   5.734
 9843TIP3    H229469   5.968   0.680   5.750
 9844TIP3   OH229470   6.022   1.074   6.397
 9844TIP3    H129471   6.028   0.982   6.372
 9844TIP3    H229472   6.013   1.073   6.492
 9845TIP3   OH229473   7.505   5.103   0.146
 9845TIP3    H129474   7.495   5.057   0.063
 9845TIP3    H229475   7.597   5.090   0.169
 9846TIP3   OH229476   0.648   5.421   0.271
 9846TIP3    H129477   0.717   5.354   0.267
 9846TIP3    H229478   0.661   5.472   0.192
 9847TIP3   OH229479   0.829   5.220   0.291
 9847TIP3    H129480   0.754   5.169   0.322
 9847TIP3    H229481   0.905   5.164   0.304
 9848TIP3   OH229482   6.016   0.825   6.265
 9848TIP3    H129483   6.087   0.815   6.329
 9848TIP3    H229484   6.060   0.828   6.181
 9849TIP3   OH229485   6.182   0.868   6.789
 9849TIP3    H129486   6.259   0.897   6.739
 9849TIP3    H229487   6.192   0.910   6.874
 9850TIP3   OH229488   0.577   5.052   0.055
 9850TIP3    H129489   0.504   5.089   0.105
 9850TIP3    H229490   0.617   5.127   0.011
 9851TIP3   OH229491   7.738   4.721   0.767
 9851TIP3    H129492   7.774   4.732   0.856
 9851TIP3    H229493   7.675   4.650   0.776
 9852TIP3   OH229494   7.452   4.749   0.214
 9852TIP3    H129495   7.507   4.744   0.136
 9852TIP3    H229496   7.513   4.765   0.286
 9853TIP3   OH229497   5.784   1.943   6.200
 9853TIP3    H129498   5.840   1.932   6.123
 9853TIP3    H229499   5.827   2.011   6.251
 9854TIP3   OH229500   7.763   5.760   0.595
 9854TIP3    H129501   7.683   5.723   0.560
 9854TIP3    H229502   7.757   5.744   0.689
 9855TIP3   OH229503   8.328   6.022   0.333
 9855TIP3    H129504   8.368   6.018   0.420
 9855TIP3    H229505   8.388   6.077   0.282
 9856TIP3   OH229506   0.013   6.175   0.200
 9856TIP3    H129507   0.074   6.123   0.148
 9856TIP3    H229508   0.069   6.230   0.255
 9857TIP3   OH229509   7.584   6.036   0.236
 9857TIP3    H129510   7.495   6.059   0.208
 9857TIP3    H229511   7.606   6.104   0.300
 9858TIP3   OH229512   7.822   6.040   0.094
 9858TIP3    H129513   7.739   6.028   0.142
 9858TIP3    H229514   7.796   6.047   0.002
 9859TIP3   OH229515   5.403   2.038   6.810
 9859TIP3    H129516   5.329   2.049   6.751
 9859TIP3    H229517   5.413   2.123   6.853
 9860TIP3   OH229518   5.664   1.971   6.873
 9860TIP3    H129519   5.573   1.989   6.850
 9860TIP3    H229520   5.715   2.036   6.824
 9861TIP3   OH229521   5.867   2.148   6.775
 9861TIP3    H129522   5.859   2.234   6.733
 9861TIP3    H229523   5.896   2.090   6.704
 9862TIP3   OH229524   4.660   1.811   6.891
 9862TIP3    H129525   4.676   1.784   6.982
 9862TIP3    H229526   4.734   1.774   6.843
 9863TIP3   OH229527   4.867   1.699   6.741
 9863TIP3    H129528   4.868   1.631   6.808
 9863TIP3    H229529   4.954   1.739   6.746
 9864TIP3   OH229530   5.131   1.789   6.756
 9864TIP3    H129531   5.169   1.709   6.720
 9864TIP3    H229532   5.174   1.800   6.841
 9865TIP3   OH229533   4.427   1.612   6.277
 9865TIP3    H129534   4.346   1.572   6.245
 9865TIP3    H229535   4.426   1.701   6.242
 9866TIP3   OH229536   5.221   1.761   5.874
 9866TIP3    H129537   5.306   1.787   5.838
 9866TIP3    H229538   5.194   1.688   5.818
 9867TIP3   OH229539   5.935   1.898   5.970
 9867TIP3    H129540   5.928   1.803   5.963
 9867TIP3    H229541   5.889   1.931   5.892
 9868TIP3   OH229542   4.527   1.599   5.935
 9868TIP3    H129543   4.531   1.602   6.030
 9868TIP3    H229544   4.608   1.555   5.909
 9869TIP3   OH229545   0.483   6.045   0.220
 9869TIP3    H129546   0.410   6.013   0.168
 9869TIP3    H229547   0.469   6.139   0.227
 9870TIP3   OH229548   7.417   1.419   5.928
 9870TIP3    H129549   7.398   1.510   5.904
 9870TIP3    H229550   7.347   1.368   5.887
 9871TIP3   OH229551   7.408   1.429   6.282
 9871TIP3    H129552   7.429   1.433   6.375
 9871TIP3    H229553   7.363   1.345   6.271
 9872TIP3   OH229554   6.721   1.277   6.673
 9872TIP3    H129555   6.749   1.221   6.744
 9872TIP3    H229556   6.795   1.334   6.656
 9873TIP3   OH229557   7.682   1.724   5.998
 9873TIP3    H129558   7.663   1.666   6.072
 9873TIP3    H229559   7.709   1.806   6.039
 9874TIP3   OH229560   6.709   1.714   6.377
 9874TIP3    H129561   6.693   1.620   6.383
 9874TIP3    H229562   6.803   1.722   6.363
 9875TIP3   OH229563   6.359   0.942   6.165
 9875TIP3    H129564   6.323   1.025   6.196
 9875TIP3    H229565   6.283   0.894   6.131
 9876TIP3   OH229566   6.454   1.267   6.338
 9876TIP3    H129567   6.521   1.203   6.361
 9876TIP3    H229568   6.502   1.341   6.302
 9877TIP3   OH229569   7.338   2.163   6.009
 9877TIP3    H129570   7.370   2.096   5.948
 9877TIP3    H229571   7.327   2.117   6.092
 9878TIP3   OH229572   7.220   1.645   6.333
 9878TIP3    H129573   7.255   1.570   6.285
 9878TIP3    H229574   7.298   1.693   6.363
 9879TIP3   OH229575   7.607   1.152   6.409
 9879TIP3    H129576   7.627   1.059   6.423
 9879TIP3    H229577   7.568   1.155   6.322
 9880TIP3   OH229578   7.049   0.706   6.294
 9880TIP3    H129579   7.019   0.764   6.364
 9880TIP3    H229580   6.969   0.682   6.247
 9881TIP3   OH229581   7.585   0.862   6.022
 9881TIP3    H129582   7.676   0.835   6.023
 9881TIP3    H229583   7.560   0.857   5.929
 9882TIP3   OH229584   6.649   1.104   6.425
 9882TIP3    H129585   6.681   1.114   6.515
 9882TIP3    H229586   6.714   1.048   6.383
 9883TIP3   OH229587   7.052   1.245   6.250
 9883TIP3    H129588   7.144   1.223   6.262
 9883TIP3    H229589   7.015   1.168   6.208
 9884TIP3   OH229590   7.329   1.636   5.771
 9884TIP3    H129591   7.287   1.608   5.690
 9884TIP3    H229592   7.276   1.710   5.801
 9885TIP3   OH229593   7.082   1.565   6.562
 9885TIP3    H129594   7.020   1.631   6.595
 9885TIP3    H229595   7.122   1.606   6.486
 9886TIP3   OH229596   6.783   0.957   6.618
 9886TIP3    H129597   6.870   0.978   6.652
 9886TIP3    H229598   6.799   0.901   6.543
 9887TIP3   OH229599   6.910   1.761   6.659
 9887TIP3    H129600   6.891   1.848   6.625
 9887TIP3    H229601   6.831   1.737   6.708
 9888TIP3   OH229602   6.289   1.466   5.906
 9888TIP3    H129603   6.253   1.483   5.819
 9888TIP3    H229604   6.312   1.553   5.939
 9889TIP3   OH229605   7.729   1.968   6.137
 9889TIP3    H129606   7.642   1.959   6.176
 9889TIP3    H229607   7.727   2.054   6.094
 9890TIP3   OH229608   7.435   2.003   5.801
 9890TIP3    H129609   7.486   1.923   5.788
 9890TIP3    H229610   7.492   2.073   5.770
 9891TIP3   OH229611   7.576   1.775   5.746
 9891TIP3    H129612   7.505   1.711   5.740
 9891TIP3    H229613   7.624   1.751   5.825
 9892TIP3   OH229614   7.947   1.862   6.493
 9892TIP3    H129615   7.948   1.786   6.435
 9892TIP3    H229616   7.948   1.938   6.434
 9893TIP3   OH229617   7.248   1.278   5.758
 9893TIP3    H129618   7.165   1.320   5.736
 9893TIP3    H229619   7.293   1.267   5.674
 9894TIP3   OH229620   7.204   1.097   5.456
 9894TIP3    H129621   7.274   1.152   5.490
 9894TIP3    H229622   7.237   1.007   5.466
 9895TIP3   OH229623   8.166   1.533   6.331
 9895TIP3    H129624   8.077   1.569   6.331
 9895TIP3    H229625   8.193   1.535   6.240
 9896TIP3   OH229626   7.596   1.359   5.725
 9896TIP3    H129627   7.538   1.382   5.798
 9896TIP3    H229628   7.684   1.356   5.764
 9897TIP3   OH229629   7.900   1.377   6.487
 9897TIP3    H129630   7.976   1.430   6.511
 9897TIP3    H229631   7.849   1.433   6.427
 9898TIP3   OH229632   6.821   1.350   6.126
 9898TIP3    H129633   6.786   1.286   6.064
 9898TIP3    H229634   6.901   1.309   6.160
 9899TIP3   OH229635   6.967   1.759   6.267
 9899TIP3    H129636   6.945   1.738   6.176
 9899TIP3    H229637   7.053   1.721   6.280
 9900TIP3   OH229638   6.957   1.329   6.497
 9900TIP3    H129639   6.989   1.306   6.410
 9900TIP3    H229640   7.001   1.411   6.518
 9901TIP3   OH229641   7.490   1.956   6.265
 9901TIP3    H129642   7.480   2.034   6.320
 9901TIP3    H229643   7.479   1.883   6.325
 9902TIP3   OH229644   7.103   1.867   6.826
 9902TIP3    H129645   7.041   1.927   6.867
 9902TIP3    H229646   7.049   1.813   6.768
 9903TIP3   OH229647   7.433   1.221   5.552
 9903TIP3    H129648   7.493   1.277   5.601
 9903TIP3    H229649   7.464   1.225   5.461
 9904TIP3   OH229650   6.864   1.445   6.912
 9904TIP3    H129651   6.858   1.529   6.957
 9904TIP3    H229652   6.777   1.406   6.924
 9905TIP3   OH229653   7.191   1.874   5.816
 9905TIP3    H129654   7.270   1.928   5.818
 9905TIP3    H229655   7.127   1.927   5.769
 9906TIP3   OH229656   6.897   2.032   6.905
 9906TIP3    H129657   6.870   2.037   6.813
 9906TIP3    H229658   6.816   2.013   6.952
 9907TIP3   OH229659   6.692   1.170   5.934
 9907TIP3    H129660   6.624   1.222   5.891
 9907TIP3    H229661   6.645   1.097   5.974
 9908TIP3   OH229662   7.761   1.816   5.156
 9908TIP3    H129663   7.760   1.910   5.138
 9908TIP3    H229664   7.851   1.789   5.139
 9909TIP3   OH229665   6.485   1.576   6.850
 9909TIP3    H129666   6.416   1.555   6.787
 9909TIP3    H229667   6.521   1.491   6.875
 9910TIP3   OH229668   6.337   1.767   6.492
 9910TIP3    H129669   6.431   1.779   6.499
 9910TIP3    H229670   6.300   1.845   6.534
 9911TIP3   OH229671   8.181   2.251   6.524
 9911TIP3    H129672   8.198   2.157   6.515
 9911TIP3    H229673   8.098   2.255   6.573
 9912TIP3   OH229674   7.291   1.999   6.672
 9912TIP3    H129675   7.294   2.091   6.699
 9912TIP3    H229676   7.221   1.961   6.725
 9913TIP3   OH229677   7.076   2.117   5.630
 9913TIP3    H129678   7.026   2.096   5.552
 9913TIP3    H229679   7.040   2.200   5.660
 9914TIP3   OH229680   6.510   1.964   6.011
 9914TIP3    H129681   6.553   1.956   6.096
 9914TIP3    H229682   6.460   1.883   6.002
 9915TIP3   OH229683   7.277   2.036   5.262
 9915TIP3    H129684   7.328   1.964   5.226
 9915TIP3    H229685   7.310   2.047   5.351
 9916TIP3   OH229686   7.329   2.080   5.532
 9916TIP3    H129687   7.242   2.087   5.572
 9916TIP3    H229688   7.384   2.044   5.601
 9917TIP3   OH229689   6.682   1.764   6.819
 9917TIP3    H129690   6.732   1.753   6.900
 9917TIP3    H229691   6.612   1.700   6.824
 9918TIP3   OH229692   7.516   1.224   5.295
 9918TIP3    H129693   7.470   1.219   5.211
 9918TIP3    H229694   7.600   1.265   5.273
 9919TIP3   OH229695   7.032   1.120   6.661
 9919TIP3    H129696   6.980   1.124   6.742
 9919TIP3    H229697   6.998   1.192   6.608
 9920TIP3   OH229698   6.903   1.060   6.114
 9920TIP3    H129699   6.809   1.064   6.096
 9920TIP3    H229700   6.940   1.016   6.037
 9921TIP3   OH229701   7.379   1.101   5.916
 9921TIP3    H129702   7.322   1.164   5.873
 9921TIP3    H229703   7.438   1.071   5.846
 9922TIP3   OH229704   7.520   1.205   6.124
 9922TIP3    H129705   7.492   1.295   6.107
 9922TIP3    H229706   7.471   1.152   6.062
 9923TIP3   OH229707   6.848   1.115   6.867
 9923TIP3    H129708   6.867   1.139   6.958
 9923TIP3    H229709   6.834   1.020   6.870
 9924TIP3   OH229710   6.460   0.807   5.941
 9924TIP3    H129711   6.551   0.786   5.961
 9924TIP3    H229712   6.422   0.833   6.025
 9925TIP3   OH229713   7.489   1.370   6.536
 9925TIP3    H129714   7.518   1.290   6.492
 9925TIP3    H229715   7.558   1.388   6.600
 9926TIP3   OH229716   6.634   0.955   6.127
 9926TIP3    H129717   6.541   0.966   6.145
 9926TIP3    H229718   6.653   0.865   6.155
 9927TIP3   OH229719   6.972   0.928   5.892
 9927TIP3    H129720   7.064   0.907   5.874
 9927TIP3    H229721   6.930   0.928   5.806
 9928TIP3   OH229722   6.816   0.888   5.677
 9928TIP3    H129723   6.728   0.870   5.646
 9928TIP3    H229724   6.859   0.935   5.605
 9929TIP3   OH229725   7.901   2.565   6.640
 9929TIP3    H129726   7.902   2.593   6.549
 9929TIP3    H229727   7.969   2.617   6.683
 9930TIP3   OH229728   1.165   5.697   0.108
 9930TIP3    H129729   1.243   5.725   0.155
 9930TIP3    H229730   1.098   5.686   0.176
 9931TIP3   OH229731   7.308   1.167   6.324
 9931TIP3    H129732   7.364   1.104   6.279
 9931TIP3    H229733   7.312   1.143   6.416
 9932TIP3   OH229734   7.291   1.074   6.578
 9932TIP3    H129735   7.207   1.077   6.624
 9932TIP3    H229736   7.356   1.088   6.647
 9933TIP3   OH229737   7.009   1.409   5.700
 9933TIP3    H129738   6.936   1.351   5.682
 9933TIP3    H229739   6.990   1.447   5.786
 9934TIP3   OH229740   7.916   1.649   6.310
 9934TIP3    H129741   7.950   1.702   6.238
 9934TIP3    H229742   7.829   1.622   6.280
 9935TIP3   OH229743   7.344   0.867   5.489
 9935TIP3    H129744   7.321   0.784   5.531
 9935TIP3    H229745   7.438   0.877   5.505
 9936TIP3   OH229746   7.409   1.738   6.689
 9936TIP3    H129747   7.415   1.699   6.776
 9936TIP3    H229748   7.368   1.823   6.702
 9937TIP3   OH229749   7.541   1.009   5.722
 9937TIP3    H129750   7.621   1.050   5.758
 9937TIP3    H229751   7.522   1.060   5.643
 9938TIP3   OH229752   6.707   1.433   6.365
 9938TIP3    H129753   6.744   1.411   6.280
 9938TIP3    H229754   6.756   1.380   6.428
 9939TIP3   OH229755   7.169   1.567   5.545
 9939TIP3    H129756   7.124   1.651   5.543
 9939TIP3    H229757   7.111   1.510   5.596
 9940TIP3   OH229758   0.933   5.367   0.044
 9940TIP3    H129759   0.959   5.361   0.135
 9940TIP3    H229760   0.864   5.301   0.034
 9941TIP3   OH229761   1.652   5.504   0.066
 9941TIP3    H129762   1.579   5.452   0.032
 9941TIP3    H229763   1.703   5.442   0.118
 9942TIP3   OH229764   7.563   1.997   6.567
 9942TIP3    H129765   7.470   1.976   6.572
 9942TIP3    H229766   7.579   2.053   6.643
 9943TIP3   OH229767   7.951   1.099   5.480
 9943TIP3    H129768   7.896   1.049   5.420
 9943TIP3    H229769   7.960   1.185   5.439
 9944TIP3   OH229770   7.697   1.887   5.426
 9944TIP3    H129771   7.665   1.822   5.488
 9944TIP3    H229772   7.705   1.840   5.343
 9945TIP3   OH229773   7.676   1.526   6.233
 9945TIP3    H129774   7.583   1.505   6.241
 9945TIP3    H229775   7.714   1.451   6.187
 9946TIP3   OH229776   6.824   1.756   6.014
 9946TIP3    H129777   6.820   1.834   5.958
 9946TIP3    H229778   6.733   1.738   6.037
 9947TIP3   OH229779   6.387   1.055   5.733
 9947TIP3    H129780   6.435   1.137   5.742
 9947TIP3    H229781   6.310   1.065   5.789
 9948TIP3   OH229782   6.934   1.516   5.936
 9948TIP3    H129783   6.910   1.606   5.957
 9948TIP3    H229784   6.896   1.464   6.006
 9949TIP3   OH229785   7.105   2.082   6.470
 9949TIP3    H129786   7.142   2.154   6.419
 9949TIP3    H229787   7.179   2.046   6.519
 9950TIP3   OH229788   6.742   1.982   5.863
 9950TIP3    H129789   6.656   1.987   5.903
 9950TIP3    H229790   6.775   2.072   5.866
 9951TIP3   OH229791   7.474   1.724   6.425
 9951TIP3    H129792   7.456   1.724   6.519
 9951TIP3    H229793   7.558   1.681   6.416
 9952TIP3   OH229794   7.448   1.622   5.312
 9952TIP3    H129795   7.498   1.595   5.389
 9952TIP3    H229796   7.362   1.583   5.324
 9953TIP3   OH229797   7.714   2.242   6.477
 9953TIP3    H129798   7.640   2.182   6.476
 9953TIP3    H229799   7.697   2.304   6.406
 9954TIP3   OH229800   7.775   2.091   5.122
 9954TIP3    H129801   7.788   2.151   5.048
 9954TIP3    H229802   7.704   2.130   5.173
 9955TIP3   OH229803   7.615   1.539   5.511
 9955TIP3    H129804   7.603   1.484   5.589
 9955TIP3    H229805   7.710   1.551   5.506
 9956TIP3   OH229806   6.537   1.958   6.632
 9956TIP3    H129807   6.586   1.892   6.682
 9956TIP3    H229808   6.551   2.040   6.681
 9957TIP3   OH229809   6.810   1.594   5.323
 9957TIP3    H129810   6.820   1.503   5.295
 9957TIP3    H229811   6.791   1.588   5.417
 9958TIP3   OH229812   6.753   1.604   5.594
 9958TIP3    H129813   6.823   1.575   5.653
 9958TIP3    H229814   6.754   1.700   5.602
 9959TIP3   OH229815   6.491   1.306   5.804
 9959TIP3    H129816   6.424   1.350   5.856
 9959TIP3    H229817   6.507   1.365   5.731
 9960TIP3   OH229818   7.027   1.798   5.540
 9960TIP3    H129819   6.940   1.819   5.574
 9960TIP3    H229820   7.047   1.869   5.480
 9961TIP3   OH229821   7.242   0.871   5.897
 9961TIP3    H129822   7.288   0.955   5.900
 9961TIP3    H229823   7.224   0.850   5.989
 9962TIP3   OH229824   7.443   1.159   6.791
 9962TIP3    H129825   7.416   1.251   6.784
 9962TIP3    H229826   7.494   1.155   6.871
 9963TIP3   OH229827   6.772   1.876   5.611
 9963TIP3    H129828   6.748   1.946   5.549
 9963TIP3    H229829   6.759   1.915   5.697
 9964TIP3   OH229830   7.781   1.283   6.124
 9964TIP3    H129831   7.698   1.243   6.152
 9964TIP3    H229832   7.847   1.243   6.181
 9965TIP3   OH229833   6.500   1.486   5.588
 9965TIP3    H129834   6.571   1.549   5.597
 9965TIP3    H229835   6.533   1.421   5.526
 9966TIP3   OH229836   6.257   0.835   5.635
 9966TIP3    H129837   6.303   0.905   5.682
 9966TIP3    H229838   6.266   0.759   5.692
 9967TIP3   OH229839   7.747   2.236   6.059
 9967TIP3    H129840   7.702   2.285   5.989
 9967TIP3    H229841   7.840   2.248   6.041
 9968TIP3   OH229842   6.342   1.736   5.985
 9968TIP3    H129843   6.293   1.769   6.059
 9968TIP3    H229844   6.302   1.777   5.909
 9969TIP3   OH229845   0.859   6.277   0.113
 9969TIP3    H129846   0.942   6.279   0.159
 9969TIP3    H229847   0.838   6.184   0.104
 9970TIP3   OH229848   1.328   6.208   0.159
 9970TIP3    H129849   1.422   6.209   0.142
 9970TIP3    H229850   1.292   6.151   0.091
 9971TIP3   OH229851   6.972   1.789   5.217
 9971TIP3    H129852   6.922   1.720   5.260
 9971TIP3    H229853   7.046   1.744   5.177
 9972TIP3   OH229854   7.578   2.145   6.795
 9972TIP3    H129855   7.582   2.080   6.866
 9972TIP3    H229856   7.652   2.203   6.813
 9973TIP3   OH229857   7.410   1.830   5.138
 9973TIP3    H129858   7.439   1.764   5.201
 9973TIP3    H229859   7.471   1.822   5.065
 9974TIP3   OH229860   0.971   5.674   0.305
 9974TIP3    H129861   0.991   5.581   0.316
 9974TIP3    H229862   0.885   5.676   0.262
 9975TIP3   OH229863   6.633   1.293   5.448
 9975TIP3    H129864   6.682   1.268   5.525
 9975TIP3    H229865   6.699   1.306   5.380
 9976TIP3   OH229866   1.598   5.773   0.082
 9976TIP3    H129867   1.545   5.795   0.005
 9976TIP3    H229868   1.617   5.680   0.072
 9977TIP3   OH229869   7.183   1.518   5.274
 9977TIP3    H129870   7.165   1.527   5.368
 9977TIP3    H229871   7.170   1.424   5.256
 9978TIP3   OH229872   7.741   1.780   6.657
 9978TIP3    H129873   7.820   1.807   6.611
 9978TIP3    H229874   7.673   1.840   6.625
 9979TIP3   OH229875   1.092   5.410   0.279
 9979TIP3    H129876   1.158   5.347   0.251
 9979TIP3    H229877   1.107   5.420   0.373
 9980TIP3   OH229878   6.805   1.226   5.664
 9980TIP3    H129879   6.781   1.188   5.749
 9980TIP3    H229880   6.850   1.155   5.618
 9981TIP3   OH229881   7.112   1.323   6.908
 9981TIP3    H129882   7.025   1.364   6.903
 9981TIP3    H229883   7.152   1.344   6.824
 9982TIP3   OH229884   6.937   1.047   5.499
 9982TIP3    H129885   6.901   1.049   5.410
 9982TIP3    H229886   7.030   1.067   5.487
 9983TIP3   OH229887   7.740   1.330   5.169
 9983TIP3    H129888   7.724   1.291   5.083
 9983TIP3    H229889   7.714   1.421   5.160
 9984TIP3   OH229890   7.214   1.055   6.902
 9984TIP3    H129891   7.297   1.070   6.858
 9984TIP3    H229892   7.171   1.141   6.902
 9985TIP3   OH229893   7.261   1.397   6.691
 9985TIP3    H129894   7.334   1.392   6.629
 9985TIP3    H229895   7.201   1.461   6.651
 9986TIP3   OH229896   1.309   5.186   0.171
 9986TIP3    H129897   1.346   5.098   0.175
 9986TIP3    H229898   1.371   5.236   0.119
 9987TIP3   OH229899   6.760   2.082   5.424
 9987TIP3    H129900   6.851   2.064   5.399
 9987TIP3    H229901   6.723   2.129   5.350
 9988TIP3   OH229902   6.229   1.467   5.626
 9988TIP3    H129903   6.322   1.484   5.614
 9988TIP3    H229904   6.215   1.383   5.582
 9989TIP3   OH229905   6.139   2.054   6.063
 9989TIP3    H129906   6.074   2.001   6.018
 9989TIP3    H229907   6.183   1.994   6.123
 9990TIP3   OH229908   6.279   1.891   6.236
 9990TIP3    H129909   6.268   1.823   6.303
 9990TIP3    H229910   6.329   1.959   6.280
 9991TIP3   OH229911   8.014   2.290   6.032
 9991TIP3    H129912   8.035   2.325   6.119
 9991TIP3    H229913   8.072   2.338   5.973
 9992TIP3   OH229914   8.022   2.332   6.310
 9992TIP3    H129915   7.977   2.248   6.305
 9992TIP3    H229916   8.095   2.316   6.370
 9993TIP3   OH229917   7.892   1.555   5.501
 9993TIP3    H129918   7.953   1.620   5.466
 9993TIP3    H229919   7.936   1.522   5.579
 9994TIP3   OH229920   8.030   1.451   5.709
 9994TIP3    H129921   7.958   1.421   5.764
 9994TIP3    H229922   8.099   1.473   5.771
 9995TIP3   OH229923   8.069   1.790   6.129
 9995TIP3    H129924   8.124   1.725   6.086
 9995TIP3    H229925   8.071   1.866   6.070
 9996TIP3   OH229926   7.898   2.085   6.328
 9996TIP3    H129927   7.827   2.120   6.383
 9996TIP3    H229928   7.853   2.038   6.258
 9997TIP3   OH229929   7.949   1.337   5.345
 9997TIP3    H129930   7.880   1.331   5.279
 9997TIP3    H229931   7.924   1.413   5.399
 9998TIP3   OH229932   7.772   1.012   5.284
 9998TIP3    H129933   7.766   1.085   5.222
 9998TIP3    H229934   7.782   0.934   5.229
 9999TIP3   OH229935   7.837   1.341   5.861
 9999TIP3    H129936   7.871   1.255   5.836
 9999TIP3    H229937   7.827   1.337   5.956
10000TIP3   OH229938   6.458   1.328   6.610
10000TIP3    H129939   6.448   1.303   6.518
10000TIP3    H229940   6.551   1.317   6.628
10001TIP3   OH229941   7.950   1.112   5.752
10001TIP3    H129942   7.893   1.044   5.788
10001TIP3    H229943   7.944   1.100   5.657
10002TIP3   OH229944   7.975   1.183   6.287
10002TIP3    H129945   8.069   1.174   6.277
10002TIP3    H229946   7.963   1.228   6.370
10003TIP3   OH229947   0.979   4.992   0.320
10003TIP3    H129948   1.072   4.971   0.319
10003TIP3    H229949   0.940   4.922   0.373
10004TIP3   OH229950   6.417   0.983   6.699
10004TIP3    H129951   6.478   0.979   6.626
10004TIP3    H229952   6.459   1.042   6.762
10005TIP3   OH229953   7.583   2.196   5.688
10005TIP3    H129954   7.640   2.186   5.612
10005TIP3    H229955   7.624   2.266   5.739
10006TIP3   OH229956   1.011   6.004   0.129
10006TIP3    H129957   0.918   5.983   0.122
10006TIP3    H229958   1.035   5.979   0.218
10007TIP3   OH229959   6.879   2.037   6.622
10007TIP3    H129960   6.824   2.108   6.589
10007TIP3    H229961   6.962   2.048   6.575
10008TIP3   OH229962   7.286   2.269   6.749
10008TIP3    H129963   7.323   2.273   6.837
10008TIP3    H229964   7.348   2.317   6.694
10009TIP3   OH229965   7.473   2.424   6.617
10009TIP3    H129966   7.535   2.368   6.571
10009TIP3    H229967   7.528   2.483   6.668
10010TIP3   OH229968   6.542   2.286   6.664
10010TIP3    H129969   6.452   2.304   6.640
10010TIP3    H229970   6.562   2.351   6.732
10011TIP3   OH229971   6.771   2.267   6.512
10011TIP3    H129972   6.688   2.274   6.559
10011TIP3    H229973   6.750   2.294   6.423
10012TIP3   OH229974   7.192   2.286   6.302
10012TIP3    H129975   7.121   2.297   6.239
10012TIP3    H229976   7.203   2.373   6.342
10013TIP3   OH229977   7.458   2.224   6.352
10013TIP3    H129978   7.366   2.240   6.333
10013TIP3    H229979   7.505   2.292   6.303
10014TIP3   OH229980   7.663   2.406   6.259
10014TIP3    H129981   7.655   2.492   6.218
10014TIP3    H229982   7.692   2.348   6.189
10015TIP3   OH229983   6.454   2.065   6.386
10015TIP3    H129984   6.477   2.036   6.474
10015TIP3    H229985   6.525   2.031   6.331
10016TIP3   OH229986   6.654   1.947   6.245
10016TIP3    H129987   6.666   1.865   6.293
10016TIP3    H229988   6.741   1.988   6.246
10017TIP3   OH229989   6.922   2.036   6.262
10017TIP3    H129990   6.941   1.943   6.248
10017TIP3    H229991   6.973   2.059   6.339
10018TIP3   OH229992   6.228   1.857   5.768
10018TIP3    H129993   6.144   1.823   5.740
10018TIP3    H229994   6.228   1.948   5.737
10019TIP3   OH229995   7.019   2.016   5.360
10019TIP3    H129996   7.103   2.044   5.324
10019TIP3    H229997   6.992   1.944   5.304
10020TIP3   OH229998   7.735   2.156   5.457
10020TIP3    H129999   7.727   2.061   5.451
10020TIP3    H230000   7.685   2.189   5.382
10021TIP3   OH230001   6.321   1.858   5.418
10021TIP3    H130002   6.321   1.869   5.513
10021TIP3    H230003   6.403   1.813   5.399
10022TIP3   OH230004   7.932   2.294   6.637
10022TIP3    H130005   7.859   2.264   6.583
10022TIP3    H230006   7.925   2.389   6.637
10023TIP3   OH230007  -0.023   1.975   5.905
10023TIP3    H130008  -0.031   1.884   5.878
10023TIP3    H230009   0.062   1.981   5.948
10024TIP3   OH230010   8.193   1.225   5.680
10024TIP3    H130011   8.136   1.297   5.656
10024TIP3    H230012   8.135   1.159   5.716
10025TIP3   OH230013   8.286   1.445   5.830
10025TIP3    H130014   8.276   1.354   5.804
10025TIP3    H230015   8.336   1.485   5.758
10026TIP3   OH230016   8.085   1.720   5.388
10026TIP3    H130017   8.045   1.739   5.303
10026TIP3    H230018   8.103   1.806   5.426
10027TIP3   OH230019   8.279   1.816   6.318
10027TIP3    H130020   8.203   1.823   6.260
10027TIP3    H230021   8.267   1.732   6.363
10028TIP3   OH230022   8.128   2.025   5.978
10028TIP3    H130023   8.223   2.039   5.983
10028TIP3    H230024   8.090   2.104   6.015
10029TIP3   OH230025   8.297   2.227   5.510
10029TIP3    H130026   8.361   2.213   5.580
10029TIP3    H230027   8.260   2.140   5.494
10030TIP3   OH230028   8.262   1.002   5.478
10030TIP3    H130029   8.297   1.004   5.389
10030TIP3    H230030   8.214   1.085   5.487
10031TIP3   OH230031   8.203   1.306   5.249
10031TIP3    H130032   8.251   1.389   5.252
10031TIP3    H230033   8.117   1.327   5.288
10032TIP3   OH230034   8.317   2.231   6.106
10032TIP3    H130035   8.378   2.173   6.152
10032TIP3    H230036   8.332   2.317   6.144
10033TIP3   OH230037   8.293   1.568   5.276
10033TIP3    H130038   8.230   1.610   5.334
10033TIP3    H230039   8.298   1.626   5.200
10034TIP3   OH230040   8.292   1.765   5.076
10034TIP3    H130041   8.324   1.842   5.123
10034TIP3    H230042   8.342   1.765   4.994
10035TIP3   OH230043   8.067   1.114   5.111
10035TIP3    H130044   8.113   1.179   5.165
10035TIP3    H230045   8.066   1.035   5.164
10036TIP3   OH230046   8.128   1.985   5.473
10036TIP3    H130047   8.084   2.026   5.548
10036TIP3    H230048   8.090   2.029   5.397
10037TIP3   OH230049   8.304   2.509   6.539
10037TIP3    H130050   8.360   2.490   6.615
10037TIP3    H230051   8.261   2.426   6.519
10038TIP3   OH230052   8.020   1.725   5.108
10038TIP3    H130053   8.114   1.737   5.097
10038TIP3    H230054   8.002   1.638   5.072
10039TIP3   OH230055   7.939   2.315   5.545
10039TIP3    H130056   7.872   2.262   5.502
10039TIP3    H230057   7.982   2.255   5.605
10040TIP3   OH230058   8.067   2.141   5.718
10040TIP3    H130059   8.055   2.076   5.787
10040TIP3    H230060   8.125   2.207   5.756
10041TIP3   OH230061   8.250   1.586   6.066
10041TIP3    H130062   8.256   1.532   5.987
10041TIP3    H230063   8.341   1.605   6.088
10042TIP3   OH230064   8.315   2.509   6.166
10042TIP3    H130065   8.234   2.542   6.129
10042TIP3    H230066   8.331   2.565   6.242
10043TIP3   OH230067   0.052   2.503   6.015
10043TIP3    H130068  -0.029   2.508   6.066
10043TIP3    H230069   0.035   2.557   5.938
10044TIP3   OH230070   8.243   2.315   5.856
10044TIP3    H130071   8.266   2.291   5.946
10044TIP3    H230072   8.317   2.285   5.804
10045TIP3   OH230073   8.457   2.194   5.738
10045TIP3    H130074   8.457   2.111   5.785
10045TIP3    H230075   8.536   2.238   5.767
10046TIP3   OH230076   8.025   2.105   5.249
10046TIP3    H130077   7.938   2.076   5.220
10046TIP3    H230078   8.027   2.198   5.228
10047TIP3   OH230079   8.089   2.131   4.937
10047TIP3    H130080   8.057   2.186   5.009
10047TIP3    H230081   8.138   2.061   4.980
10048TIP3   OH230082   4.499   6.474   0.171
10048TIP3    H130083   4.480   6.554   0.122
10048TIP3    H230084   4.417   6.425   0.172
10049TIP3   OH230085   4.506   6.465   0.460
10049TIP3    H130086   4.478   6.380   0.494
10049TIP3    H230087   4.489   6.460   0.366
10050TIP3   OH230088   4.784   6.762   0.165
10050TIP3    H130089   4.779   6.694   0.232
10050TIP3    H230090   4.814   6.840   0.213
10051TIP3   OH230091   3.752   6.788   0.634
10051TIP3    H130092   3.707   6.803   0.717
10051TIP3    H230093   3.841   6.761   0.659
10052TIP3   OH230094   3.545   6.338   0.588
10052TIP3    H130095   3.493   6.258   0.600
10052TIP3    H230096   3.628   6.308   0.552
10053TIP3   OH230097   4.435   7.233   0.206
10053TIP3    H130098   4.476   7.168   0.151
10053TIP3    H230099   4.373   7.184   0.260
10054TIP3   OH230100   4.392   6.718   0.449
10054TIP3    H130101   4.441   6.637   0.463
10054TIP3    H230102   4.414   6.773   0.524
10055TIP3   OH230103   5.335   5.993   0.450
10055TIP3    H130104   5.274   6.052   0.494
10055TIP3    H230105   5.385   6.049   0.391
10056TIP3   OH230106   4.691   6.187   0.547
10056TIP3    H130107   4.733   6.143   0.621
10056TIP3    H230108   4.759   6.189   0.479
10057TIP3   OH230109   4.089   5.843   0.563
10057TIP3    H130110   4.028   5.915   0.581
10057TIP3    H230111   4.046   5.793   0.493
10058TIP3   OH230112   4.789   5.928   0.156
10058TIP3    H130113   4.836   5.964   0.230
10058TIP3    H230114   4.834   5.964   0.079
10059TIP3   OH230115   4.088   6.233   0.485
10059TIP3    H130116   4.166   6.184   0.512
10059TIP3    H230117   4.031   6.168   0.445
10060TIP3   OH230118   5.347   6.174   0.881
10060TIP3    H130119   5.292   6.215   0.815
10060TIP3    H230120   5.431   6.219   0.874
10061TIP3   OH230121   1.577   2.672   6.942
10061TIP3    H130122   1.535   2.648   6.860
10061TIP3    H230123   1.529   2.749   6.972
10062TIP3   OH230124   4.940   6.033   0.350
10062TIP3    H130125   4.947   5.966   0.418
10062TIP3    H230126   5.017   6.089   0.364
10063TIP3   OH230127   3.396   6.526   0.081
10063TIP3    H130128   3.301   6.531   0.080
10063TIP3    H230129   3.425   6.615   0.062
10064TIP3   OH230130   4.831   7.008   0.291
10064TIP3    H130131   4.747   7.014   0.336
10064TIP3    H230132   4.849   7.098   0.261
10065TIP3   OH230133   4.968   5.824   0.821
10065TIP3    H130134   4.968   5.855   0.731
10065TIP3    H230135   5.054   5.850   0.856
10066TIP3   OH230136   4.528   7.051   0.026
10066TIP3    H130137   4.574   6.970   0.002
10066TIP3    H230138   4.586   7.121  -0.006
10067TIP3   OH230139   1.815   2.816   6.878
10067TIP3    H130140   1.743   2.753   6.888
10067TIP3    H230141   1.876   2.794   6.949
10068TIP3   OH230142   5.068   6.908   0.689
10068TIP3    H130143   5.056   6.825   0.644
10068TIP3    H230144   5.027   6.973   0.631
10069TIP3   OH230145   1.494   2.322   6.895
10069TIP3    H130146   1.411   2.358   6.863
10069TIP3    H230147   1.554   2.329   6.820
10070TIP3   OH230148   1.466   2.102   6.637
10070TIP3    H130149   1.531   2.156   6.683
10070TIP3    H230150   1.518   2.039   6.587
10071TIP3   OH230151   5.199   6.537   0.474
10071TIP3    H130152   5.126   6.596   0.494
10071TIP3    H230153   5.251   6.585   0.410
10072TIP3   OH230154   1.840   2.396   6.898
10072TIP3    H130155   1.794   2.423   6.978
10072TIP3    H230156   1.927   2.370   6.928
10073TIP3   OH230157   4.893   6.478   0.938
10073TIP3    H130158   4.878   6.573   0.930
10073TIP3    H230159   4.833   6.439   0.875
10074TIP3   OH230160   3.932   6.390   0.320
10074TIP3    H130161   3.919   6.346   0.237
10074TIP3    H230162   4.010   6.348   0.358
10075TIP3   OH230163   4.013   6.690   0.628
10075TIP3    H130164   4.039   6.636   0.553
10075TIP3    H230165   4.080   6.758   0.632
10076TIP3   OH230166   3.990   6.310   0.758
10076TIP3    H130167   4.000   6.227   0.711
10076TIP3    H230168   4.033   6.296   0.842
10077TIP3   OH230169   4.602   7.045   0.438
10077TIP3    H130170   4.575   7.136   0.448
10077TIP3    H230171   4.661   7.029   0.512
10078TIP3   OH230172   1.694   2.254   6.715
10078TIP3    H130173   1.750   2.314   6.765
10078TIP3    H230174   1.720   2.266   6.624
10079TIP3   OH230175   4.282   6.920   0.040
10079TIP3    H130176   4.357   6.977   0.056
10079TIP3    H230177   4.216   6.978  -0.000
10080TIP3   OH230178   2.210   1.481   6.762
10080TIP3    H130179   2.132   1.504   6.813
10080TIP3    H230180   2.229   1.559   6.710
10081TIP3   OH230181   3.782   6.215   0.148
10081TIP3    H130182   3.720   6.282   0.117
10081TIP3    H230183   3.767   6.212   0.243
10082TIP3   OH230184   2.017   2.860   6.329
10082TIP3    H130185   2.019   2.955   6.317
10082TIP3    H230186   2.106   2.832   6.310
10083TIP3   OH230187   5.251   7.286   0.671
10083TIP3    H130188   5.286   7.199   0.690
10083TIP3    H230189   5.166   7.287   0.715
10084TIP3   OH230190   4.339   7.091   0.928
10084TIP3    H130191   4.381   7.170   0.963
10084TIP3    H230192   4.263   7.077   0.985
10085TIP3   OH230193   1.321   3.156   6.811
10085TIP3    H130194   1.273   3.139   6.729
10085TIP3    H230195   1.291   3.242   6.838
10086TIP3   OH230196   3.549   7.033   0.215
10086TIP3    H130197   3.595   7.017   0.297
10086TIP3    H230198   3.500   6.953   0.198
10087TIP3   OH230199   1.525   3.079   6.439
10087TIP3    H130200   1.577   3.007   6.404
10087TIP3    H230201   1.558   3.092   6.528
10088TIP3   OH230202   1.574   3.125   6.710
10088TIP3    H130203   1.488   3.130   6.751
10088TIP3    H230204   1.631   3.086   6.776
10089TIP3   OH230205   1.768   2.258   6.457
10089TIP3    H130206   1.729   2.251   6.370
10089TIP3    H230207   1.849   2.307   6.443
10090TIP3   OH230208   1.463   1.663   6.741
10090TIP3    H130209   1.450   1.652   6.835
10090TIP3    H230210   1.443   1.577   6.704
10091TIP3   OH230211   3.943   6.053   0.351
10091TIP3    H130212   3.913   5.969   0.385
10091TIP3    H230213   3.961   6.037   0.259
10092TIP3   OH230214   4.456   6.135   0.086
10092TIP3    H130215   4.406   6.204   0.043
10092TIP3    H230216   4.513   6.100   0.017
10093TIP3   OH230217   4.684   6.167   0.239
10093TIP3    H130218   4.612   6.193   0.182
10093TIP3    H230219   4.691   6.072   0.227
10094TIP3   OH230220   1.109   1.604   6.689
10094TIP3    H130221   1.118   1.603   6.784
10094TIP3    H230222   1.034   1.661   6.672
10095TIP3   OH230223   4.676   6.395   0.793
10095TIP3    H130224   4.718   6.362   0.713
10095TIP3    H230225   4.644   6.482   0.768
10096TIP3   OH230226   4.359   5.753   0.512
10096TIP3    H130227   4.265   5.772   0.516
10096TIP3    H230228   4.396   5.803   0.585
10097TIP3   OH230229   3.832   5.822   0.422
10097TIP3    H130230   3.746   5.864   0.419
10097TIP3    H230231   3.825   5.748   0.362
10098TIP3   OH230232   3.999   5.895   0.115
10098TIP3    H130233   4.076   5.948   0.093
10098TIP3    H230234   3.931   5.924   0.053
10099TIP3   OH230235   4.727   5.990   0.747
10099TIP3    H130236   4.781   5.980   0.825
10099TIP3    H230237   4.713   5.901   0.715
10100TIP3   OH230238   1.004   1.940   6.846
10100TIP3    H130239   0.953   1.880   6.791
10100TIP3    H230240   1.068   1.978   6.786
10101TIP3   OH230241   5.007   7.579   0.933
10101TIP3    H130242   4.949   7.581   0.857
10101TIP3    H230243   5.029   7.671   0.948
10102TIP3   OH230244   4.305   6.086   0.553
10102TIP3    H130245   4.356   6.124   0.481
10102TIP3    H230246   4.347   6.120   0.632
10103TIP3   OH230247   3.900   5.556   0.543
10103TIP3    H130248   3.828   5.508   0.502
10103TIP3    H230249   3.956   5.581   0.470
10104TIP3   OH230250   1.257   2.437   6.830
10104TIP3    H130251   1.180   2.382   6.819
10104TIP3    H230252   1.241   2.485   6.911
10105TIP3   OH230253   4.985   6.726   0.468
10105TIP3    H130254   5.029   6.787   0.409
10105TIP3    H230255   4.918   6.685   0.415
10106TIP3   OH230256   1.717   1.779   6.742
10106TIP3    H130257   1.623   1.760   6.745
10106TIP3    H230258   1.723   1.872   6.764
10107TIP3   OH230259   1.800   2.029   6.836
10107TIP3    H130260   1.896   2.027   6.840
10107TIP3    H230261   1.780   2.105   6.780
10108TIP3   OH230262   3.827   6.430   0.570
10108TIP3    H130263   3.876   6.416   0.489
10108TIP3    H230264   3.884   6.394   0.638
10109TIP3   OH230265   1.425   2.614   6.708
10109TIP3    H130266   1.379   2.698   6.710
10109TIP3    H230267   1.364   2.552   6.747
10110TIP3   OH230268   4.596   7.093   0.767
10110TIP3    H130269   4.557   7.139   0.841
10110TIP3    H230270   4.678   7.058   0.801
10111TIP3   OH230271   2.222   2.116   6.662
10111TIP3    H130272   2.164   2.070   6.601
10111TIP3    H230273   2.224   2.206   6.630
10112TIP3   OH230274   5.321   7.023   0.727
10112TIP3    H130275   5.237   7.008   0.771
10112TIP3    H230276   5.316   6.972   0.646
10113TIP3   OH230277   1.932   2.933   6.601
10113TIP3    H130278   1.905   2.870   6.668
10113TIP3    H230279   1.953   2.879   6.525
10114TIP3   OH230280   4.755   6.561   0.358
10114TIP3    H130281   4.673   6.522   0.389
10114TIP3    H230282   4.811   6.486   0.337
10115TIP3   OH230283   3.963   6.812   0.072
10115TIP3    H130284   3.967   6.908   0.073
10115TIP3    H230285   3.880   6.792   0.116
10116TIP3   OH230286   0.577   2.128   6.871
10116TIP3    H130287   0.644   2.197   6.874
10116TIP3    H230288   0.496   2.173   6.894
10117TIP3   OH230289   4.053   6.566   0.124
10117TIP3    H130290   4.044   6.660   0.112
10117TIP3    H230291   4.000   6.545   0.201
10118TIP3   OH230292   4.281   7.154   0.581
10118TIP3    H130293   4.258   7.245   0.562
10118TIP3    H230294   4.218   7.128   0.648
10119TIP3   OH230295   3.794   7.053   0.083
10119TIP3    H130296   3.706   7.073   0.114
10119TIP3    H230297   3.839   7.137   0.081
10120TIP3   OH230298   4.624   6.778   0.788
10120TIP3    H130299   4.550   6.718   0.793
10120TIP3    H230300   4.688   6.733   0.733
10121TIP3   OH230301   1.699   2.665   6.495
10121TIP3    H130302   1.758   2.636   6.565
10121TIP3    H230303   1.612   2.637   6.523
10122TIP3   OH230304   4.763   7.313   0.702
10122TIP3    H130305   4.701   7.243   0.685
10122TIP3    H230306   4.770   7.360   0.619
10123TIP3   OH230307   2.037   3.139   6.307
10123TIP3    H130308   2.083   3.214   6.269
10123TIP3    H230309   1.956   3.175   6.343
10124TIP3   OH230310   1.872   2.568   6.680
10124TIP3    H130311   1.857   2.521   6.763
10124TIP3    H230312   1.966   2.581   6.677
10125TIP3   OH230313   1.059   2.636   6.504
10125TIP3    H130314   1.070   2.545   6.478
10125TIP3    H230315   1.047   2.633   6.599
10126TIP3   OH230316   1.004   2.653   6.775
10126TIP3    H130317   1.044   2.626   6.857
10126TIP3    H230318   1.004   2.749   6.778
10127TIP3   OH230319   0.740   2.328   6.942
10127TIP3    H130320   0.678   2.390   6.977
10127TIP3    H230321   0.809   2.381   6.902
10128TIP3   OH230322   4.624   5.731   0.061
10128TIP3    H130323   4.605   5.752  -0.031
10128TIP3    H230324   4.672   5.807   0.093
10129TIP3   OH230325   1.274   2.839   6.712
10129TIP3    H130326   1.190   2.853   6.756
10129TIP3    H230327   1.287   2.918   6.660
10130TIP3   OH230328   4.299   5.904   0.080
10130TIP3    H130329   4.323   5.992   0.052
10130TIP3    H230330   4.267   5.916   0.170
10131TIP3   OH230331   4.471   5.625   0.254
10131TIP3    H130332   4.519   5.647   0.333
10131TIP3    H230333   4.522   5.665   0.183
10132TIP3   OH230334   1.009   2.927   6.774
10132TIP3    H130335   0.992   2.997   6.710
10132TIP3    H230336   0.987   2.967   6.858
10133TIP3   OH230337   3.986   5.640   0.019
10133TIP3    H130338   3.987   5.732   0.044
10133TIP3    H230339   4.075   5.610   0.034
10134TIP3   OH230340   4.883   6.329   0.310
10134TIP3    H130341   4.818   6.261   0.294
10134TIP3    H230342   4.958   6.282   0.347
10135TIP3   OH230343   0.749   2.545   6.743
10135TIP3    H130344   0.823   2.602   6.764
10135TIP3    H230345   0.788   2.475   6.691
10136TIP3   OH230346   0.712   1.811   6.806
10136TIP3    H130347   0.713   1.877   6.875
10136TIP3    H230348   0.692   1.729   6.852
10137TIP3   OH230349   4.865   7.284   0.258
10137TIP3    H130350   4.813   7.338   0.199
10137TIP3    H230351   4.956   7.306   0.236
10138TIP3   OH230352   3.387   6.809   0.213
10138TIP3    H130353   3.314   6.777   0.266
10138TIP3    H230354   3.348   6.824   0.127
10139TIP3   OH230355   1.219   2.832   6.394
10139TIP3    H130356   1.169   2.765   6.440
10139TIP3    H230357   1.295   2.786   6.358
10140TIP3   OH230358   1.659   2.872   6.318
10140TIP3    H130359   1.689   2.808   6.382
10140TIP3    H230360   1.723   2.867   6.247
10141TIP3   OH230361   0.880   2.333   6.623
10141TIP3    H130362   0.931   2.305   6.699
10141TIP3    H230363   0.945   2.348   6.555
10142TIP3   OH230364   1.409   2.555   6.438
10142TIP3    H130365   1.403   2.571   6.532
10142TIP3    H230366   1.404   2.459   6.430
10143TIP3   OH230367   4.874   6.745   0.914
10143TIP3    H130368   4.928   6.735   0.836
10143TIP3    H230369   4.792   6.783   0.882
10144TIP3   OH230370   1.051   2.255   6.829
10144TIP3    H130371   1.030   2.225   6.917
10144TIP3    H230372   1.102   2.184   6.791
10145TIP3   OH230373   1.190   2.063   6.684
10145TIP3    H130374   1.164   2.076   6.593
10145TIP3    H230375   1.286   2.071   6.683
10146TIP3   OH230376   1.993   2.381   6.352
10146TIP3    H130377   1.978   2.338   6.268
10146TIP3    H230378   1.966   2.471   6.338
10147TIP3   OH230379   1.009   3.134   6.596
10147TIP3    H130380   1.100   3.114   6.574
10147TIP3    H230381   0.975   3.180   6.519
10148TIP3   OH230382   0.477   2.517   6.711
10148TIP3    H130383   0.567   2.535   6.739
10148TIP3    H230384   0.472   2.421   6.706
10149TIP3   OH230385   3.185   7.079   0.134
10149TIP3    H130386   3.101   7.037   0.153
10149TIP3    H230387   3.230   7.082   0.218
10150TIP3   OH230388   3.258   6.944   0.674
10150TIP3    H130389   3.313   6.867   0.663
10150TIP3    H230390   3.292   7.008   0.612
10151TIP3   OH230391   5.130   7.353   0.230
10151TIP3    H130392   5.136   7.393   0.316
10151TIP3    H230393   5.196   7.397   0.178
10152TIP3   OH230394   5.104   7.429   0.491
10152TIP3    H130395   5.056   7.347   0.505
10152TIP3    H230396   5.186   7.417   0.539
10153TIP3   OH230397   2.147   2.580   6.680
10153TIP3    H130398   2.206   2.647   6.646
10153TIP3    H230399   2.196   2.540   6.753
10154TIP3   OH230400   2.288   2.437   6.864
10154TIP3    H130401   2.222   2.398   6.922
10154TIP3    H230402   2.352   2.477   6.923
10155TIP3   OH230403   5.152   6.866   0.310
10155TIP3    H130404   5.216   6.805   0.273
10155TIP3    H230405   5.166   6.948   0.262
10156TIP3   OH230406   4.984   7.185   0.518
10156TIP3    H130407   4.915   7.136   0.563
10156TIP3    H230408   4.982   7.152   0.428
10157TIP3   OH230409   2.199   2.355   6.530
10157TIP3    H130410   2.127   2.356   6.467
10157TIP3    H230411   2.183   2.431   6.586
10158TIP3   OH230412   2.058   2.006   6.475
10158TIP3    H130413   2.012   2.044   6.400
10158TIP3    H230414   2.048   1.912   6.464
10159TIP3   OH230415   4.917   6.300   0.043
10159TIP3    H130416   4.929   6.205   0.032
10159TIP3    H230417   4.912   6.313   0.138
10160TIP3   OH230418   5.194   6.824   0.919
10160TIP3    H130419   5.135   6.779   0.980
10160TIP3    H230420   5.137   6.851   0.847
10161TIP3   OH230421   5.349   6.447   1.010
10161TIP3    H130422   5.273   6.397   1.039
10161TIP3    H230423   5.423   6.389   1.026
10162TIP3   OH230424   2.020   1.735   6.444
10162TIP3    H130425   2.086   1.708   6.508
10162TIP3    H230426   1.940   1.691   6.472
10163TIP3   OH230427   2.099   2.016   6.888
10163TIP3    H130428   2.148   1.935   6.904
10163TIP3    H230429   2.143   2.056   6.813
10164TIP3   OH230430   5.101   6.233   0.434
10164TIP3    H130431   5.189   6.262   0.412
10164TIP3    H230432   5.113   6.178   0.511
10165TIP3   OH230433   5.183   6.321   0.715
10165TIP3    H130434   5.090   6.316   0.695
10165TIP3    H230435   5.213   6.400   0.669
10166TIP3   OH230436   5.039   5.768   0.005
10166TIP3    H130437   5.090   5.733   0.078
10166TIP3    H230438   4.971   5.702  -0.011
10167TIP3   OH230439   2.255   1.692   6.593
10167TIP3    H130440   2.298   1.629   6.536
10167TIP3    H230441   2.314   1.768   6.592
10168TIP3   OH230442   1.832   3.249   6.861
10168TIP3    H130443   1.887   3.236   6.784
10168TIP3    H230444   1.876   3.318   6.911
10169TIP3   OH230445   3.876   6.973   0.819
10169TIP3    H130446   3.836   7.057   0.793
10169TIP3    H230447   3.964   6.977   0.783
10170TIP3   OH230448   4.626   7.511   0.856
10170TIP3    H130449   4.700   7.461   0.821
10170TIP3    H230450   4.664   7.562   0.928
10171TIP3   OH230451   3.824   7.237   0.746
10171TIP3    H130452   3.803   7.305   0.810
10171TIP3    H230453   3.803   7.276   0.662
10172TIP3   OH230454   4.331   7.420   0.441
10172TIP3    H130455   4.263   7.408   0.375
10172TIP3    H230456   4.305   7.500   0.487
10173TIP3   OH230457   4.555   7.298   0.504
10173TIP3    H130458   4.473   7.334   0.470
10173TIP3    H230459   4.623   7.351   0.464
10174TIP3   OH230460   4.760   7.461   0.446
10174TIP3    H130461   4.759   7.545   0.400
10174TIP3    H230462   4.808   7.402   0.389
10175TIP3   OH230463   3.469   7.150   0.711
10175TIP3    H130464   3.487   7.085   0.778
10175TIP3    H230465   3.485   7.104   0.628
10176TIP3   OH230466   3.738   6.952   0.415
10176TIP3    H130467   3.725   6.897   0.493
10176TIP3    H230468   3.828   6.933   0.387
10177TIP3   OH230469   4.065   7.100   0.376
10177TIP3    H130470   4.040   7.018   0.333
10177TIP3    H230471   4.125   7.073   0.445
10178TIP3   OH230472   4.659   5.713   0.682
10178TIP3    H130473   4.640   5.620   0.680
10178TIP3    H230474   4.663   5.739   0.590
10179TIP3   OH230475   5.179   5.655   0.466
10179TIP3    H130476   5.214   5.696   0.387
10179TIP3    H230477   5.087   5.682   0.468
10180TIP3   OH230478   5.220   5.765   0.224
10180TIP3    H130479   5.278   5.709   0.172
10180TIP3    H230480   5.250   5.854   0.205
10181TIP3   OH230481   4.258   5.508   0.402
10181TIP3    H130482   4.316   5.583   0.412
10181TIP3    H230483   4.217   5.497   0.488
10182TIP3   OH230484   4.705   5.648   0.419
10182TIP3    H130485   4.772   5.707   0.384
10182TIP3    H230486   4.754   5.585   0.472
10183TIP3   OH230487   2.004   1.570   6.920
10183TIP3    H130488   1.921   1.609   6.947
10183TIP3    H230489   1.999   1.480   6.950
10184TIP3   OH230490   0.471   2.858   6.900
10184TIP3    H130491   0.407   2.820   6.840
10184TIP3    H230492   0.461   2.952   6.890
10185TIP3   OH230493   4.256   5.638   0.073
10185TIP3    H130494   4.320   5.601   0.134
10185TIP3    H230495   4.272   5.732   0.076
10186TIP3   OH230496   1.267   3.061   6.538
10186TIP3    H130497   1.352   3.087   6.503
10186TIP3    H230498   1.240   2.988   6.482
10187TIP3   OH230499   1.980   3.199   6.633
10187TIP3    H130500   1.970   3.104   6.626
10187TIP3    H230501   1.937   3.233   6.555
10188TIP3   OH230502   0.576   2.909   6.605
10188TIP3    H130503   0.576   2.928   6.699
10188TIP3    H230504   0.657   2.859   6.592
10189TIP3   OH230505   5.009   7.321   0.810
10189TIP3    H130506   4.926   7.310   0.764
10189TIP3    H230507   5.010   7.413   0.836
10190TIP3   OH230508   3.471   2.722   6.569
10190TIP3    H130509   3.443   2.810   6.546
10190TIP3    H230510   3.396   2.666   6.547
10191TIP3   OH230511   6.299   6.720   0.037
10191TIP3    H130512   6.341   6.709   0.122
10191TIP3    H230513   6.253   6.638   0.022
10192TIP3   OH230514   5.596   6.596   0.340
10192TIP3    H130515   5.613   6.522   0.399
10192TIP3    H230516   5.677   6.647   0.340
10193TIP3   OH230517   3.726   3.023   6.663
10193TIP3    H130518   3.715   2.957   6.731
10193TIP3    H230519   3.751   3.102   6.711
10194TIP3   OH230520   5.572   7.007   0.112
10194TIP3    H130521   5.559   6.913   0.103
10194TIP3    H230522   5.667   7.019   0.105
10195TIP3   OH230523   2.447   2.212   6.806
10195TIP3    H130524   2.411   2.299   6.826
10195TIP3    H230525   2.374   2.163   6.770
10196TIP3   OH230526   5.347   6.538   0.052
10196TIP3    H130527   5.395   6.462   0.085
10196TIP3    H230528   5.415   6.600   0.026
10197TIP3   OH230529   3.379   3.469   6.673
10197TIP3    H130530   3.414   3.398   6.619
10197TIP3    H230531   3.357   3.428   6.756
10198TIP3   OH230532   6.110   6.948   0.055
10198TIP3    H130533   6.149   6.867   0.022
10198TIP3    H230534   6.184   7.001   0.085
10199TIP3   OH230535   7.129   6.281   0.060
10199TIP3    H130536   7.151   6.351   0.122
10199TIP3    H230537   7.145   6.320  -0.026
10200TIP3   OH230538   6.524   6.437   0.091
10200TIP3    H130539   6.556   6.351   0.119
10200TIP3    H230540   6.475   6.419   0.010
10201TIP3   OH230541   5.874   6.090   0.044
10201TIP3    H130542   5.855   6.161  -0.017
10201TIP3    H230543   5.820   6.017   0.013
10202TIP3   OH230544   3.727   2.188   6.633
10202TIP3    H130545   3.795   2.180   6.700
10202TIP3    H230546   3.770   2.236   6.562
10203TIP3   OH230547   5.485   6.329   0.156
10203TIP3    H130548   5.574   6.327   0.190
10203TIP3    H230549   5.485   6.266   0.084
10204TIP3   OH230550   3.094   2.500   6.909
10204TIP3    H130551   3.187   2.480   6.922
10204TIP3    H230552   3.056   2.416   6.882
10205TIP3   OH230553   7.192   6.481   0.242
10205TIP3    H130554   7.104   6.519   0.239
10205TIP3    H230555   7.231   6.518   0.321
10206TIP3   OH230556   5.847   6.117   0.442
10206TIP3    H130557   5.798   6.176   0.386
10206TIP3    H230558   5.819   6.140   0.531
10207TIP3   OH230559   3.370   2.939   6.425
10207TIP3    H130560   3.327   2.913   6.344
10207TIP3    H230561   3.319   3.013   6.457
10208TIP3   OH230562   5.960   6.870   0.269
10208TIP3    H130563   5.898   6.936   0.298
10208TIP3    H230564   6.008   6.912   0.197
10209TIP3   OH230565   3.926   2.189   6.829
10209TIP3    H130566   3.870   2.168   6.903
10209TIP3    H230567   3.966   2.273   6.852
10210TIP3   OH230568   5.738   6.245   0.222
10210TIP3    H130569   5.797   6.316   0.247
10210TIP3    H230570   5.790   6.190   0.163
10211TIP3   OH230571   5.782   7.066   0.338
10211TIP3    H130572   5.751   7.155   0.321
10211TIP3    H230573   5.708   7.022   0.380
10212TIP3   OH230574   2.327   2.749   6.560
10212TIP3    H130575   2.294   2.774   6.473
10212TIP3    H230576   2.348   2.832   6.603
10213TIP3   OH230577   3.775   3.267   6.804
10213TIP3    H130578   3.689   3.260   6.845
10213TIP3    H230579   3.774   3.352   6.759
10214TIP3   OH230580   6.928   6.172   0.226
10214TIP3    H130581   6.842   6.206   0.201
10214TIP3    H230582   6.988   6.204   0.159
10215TIP3   OH230583   6.217   5.791   0.148
10215TIP3    H130584   6.206   5.700   0.176
10215TIP3    H230585   6.197   5.842   0.226
10216TIP3   OH230586   3.480   3.308   6.465
10216TIP3    H130587   3.531   3.228   6.455
10216TIP3    H230588   3.538   3.378   6.435
10217TIP3   OH230589   3.619   3.078   6.414
10217TIP3    H130590   3.549   3.013   6.407
10217TIP3    H230591   3.667   3.054   6.492
10218TIP3   OH230592   6.842   7.177   0.205
10218TIP3    H130593   6.827   7.099   0.151
10218TIP3    H230594   6.827   7.250   0.146
10219TIP3   OH230595   3.292   2.565   6.420
10219TIP3    H130596   3.212   2.613   6.402
10219TIP3    H230597   3.340   2.565   6.337
10220TIP3   OH230598   3.255   2.365   6.117
10220TIP3    H130599   3.319   2.415   6.168
10220TIP3    H230600   3.307   2.301   6.069
10221TIP3   OH230601   7.029   6.818   0.064
10221TIP3    H130602   6.946   6.865   0.070
10221TIP3    H230603   7.064   6.839  -0.022
10222TIP3   OH230604   3.652   2.648   6.380
10222TIP3    H130605   3.598   2.677   6.453
10222TIP3    H230606   3.737   2.629   6.420
10223TIP3   OH230607   6.712   6.698   0.347
10223TIP3    H130608   6.717   6.777   0.400
10223TIP3    H230609   6.623   6.698   0.311
10224TIP3   OH230610   2.885   2.635   6.788
10224TIP3    H130611   2.849   2.576   6.722
10224TIP3    H230612   2.961   2.589   6.823
10225TIP3   OH230613   3.003   3.038   6.945
10225TIP3    H130614   2.991   3.037   6.850
10225TIP3    H230615   3.095   3.015   6.958
10226TIP3   OH230616   5.839   6.637   0.198
10226TIP3    H130617   5.876   6.609   0.114
10226TIP3    H230618   5.882   6.720   0.218
10227TIP3   OH230619   6.373   7.269  -0.003
10227TIP3    H130620   6.362   7.344   0.055
10227TIP3    H230621   6.360   7.193   0.053
10228TIP3   OH230622   5.973   7.197   0.481
10228TIP3    H130623   5.912   7.246   0.537
10228TIP3    H230624   5.916   7.141   0.428
10229TIP3   OH230625   3.478   2.516   6.212
10229TIP3    H130626   3.539   2.571   6.260
10229TIP3    H230627   3.503   2.526   6.121
10230TIP3   OH230628   5.753   6.751   0.513
10230TIP3    H130629   5.742   6.845   0.527
10230TIP3    H230630   5.667   6.713   0.533
10231TIP3   OH230631   3.237   3.178   6.474
10231TIP3    H130632   3.317   3.231   6.481
10231TIP3    H230633   3.171   3.238   6.439
10232TIP3   OH230634   5.781   7.327   0.619
10232TIP3    H130635   5.737   7.326   0.534
10232TIP3    H230636   5.709   7.333   0.683
10233TIP3   OH230637   4.007   1.743   6.265
10233TIP3    H130638   3.922   1.761   6.305
10233TIP3    H230639   4.027   1.822   6.215
10234TIP3   OH230640   2.757   2.480   6.585
10234TIP3    H130641   2.680   2.526   6.551
10234TIP3    H230642   2.722   2.396   6.616
10235TIP3   OH230643   3.813   3.113   5.818
10235TIP3    H130644   3.814   3.207   5.800
10235TIP3    H230645   3.903   3.085   5.800
10236TIP3   OH230646   5.333   6.853   0.516
10236TIP3    H130647   5.259   6.863   0.457
10236TIP3    H230648   5.384   6.781   0.479
10237TIP3   OH230649   5.239   7.099   0.193
10237TIP3    H130650   5.335   7.106   0.193
10237TIP3    H230651   5.209   7.186   0.219
10238TIP3   OH230652   7.078   7.523   0.268
10238TIP3    H130653   7.081   7.428   0.283
10238TIP3    H230654   6.996   7.551   0.310
10239TIP3   OH230655   6.189   7.322   0.382
10239TIP3    H130656   6.180   7.411   0.417
10239TIP3    H230657   6.115   7.274   0.418
10240TIP3   OH230658   3.121   3.422   6.291
10240TIP3    H130659   3.066   3.401   6.216
10240TIP3    H230660   3.085   3.504   6.326
10241TIP3   OH230661   2.554   3.287   6.671
10241TIP3    H130662   2.614   3.278   6.745
10241TIP3    H230663   2.479   3.232   6.693
10242TIP3   OH230664   3.321   3.337   5.925
10242TIP3    H130665   3.371   3.263   5.890
10242TIP3    H230666   3.355   3.348   6.014
10243TIP3   OH230667   3.374   3.382   6.195
10243TIP3    H130668   3.287   3.390   6.234
10243TIP3    H230669   3.428   3.343   6.264
10244TIP3   OH230670   6.974   6.629   0.517
10244TIP3    H130671   6.882   6.648   0.539
10244TIP3    H230672   6.975   6.535   0.499
10245TIP3   OH230673   5.581   6.973   0.493
10245TIP3    H130674   5.581   7.065   0.520
10245TIP3    H230675   5.489   6.947   0.494
10246TIP3   OH230676   5.939   5.888   0.305
10246TIP3    H130677   5.859   5.873   0.256
10246TIP3    H230678   5.940   5.982   0.323
10247TIP3   OH230679   6.485   5.940   0.521
10247TIP3    H130680   6.577   5.954   0.542
10247TIP3    H230681   6.440   6.017   0.556
10248TIP3   OH230682   6.721   6.441   0.436
10248TIP3    H130683   6.661   6.444   0.510
10248TIP3    H230684   6.716   6.529   0.397
10249TIP3   OH230685   3.555   2.519   5.951
10249TIP3    H130686   3.522   2.503   5.863
10249TIP3    H230687   3.637   2.567   5.937
10250TIP3   OH230688   3.272   1.917   6.258
10250TIP3    H130689   3.237   1.926   6.347
10250TIP3    H230690   3.235   1.835   6.226
10251TIP3   OH230691   5.919   6.419   0.342
10251TIP3    H130692   5.850   6.412   0.408
10251TIP3    H230693   5.902   6.502   0.298
10252TIP3   OH230694   2.944   2.282   6.825
10252TIP3    H130695   2.855   2.258   6.851
10252TIP3    H230696   2.953   2.246   6.736
10253TIP3   OH230697   3.422   2.364   6.556
10253TIP3    H130698   3.372   2.437   6.518
10253TIP3    H230699   3.475   2.331   6.483
10254TIP3   OH230700   6.456   6.664   0.578
10254TIP3    H130701   6.461   6.646   0.672
10254TIP3    H230702   6.509   6.743   0.566
10255TIP3   OH230703   3.579   2.375   6.787
10255TIP3    H130704   3.516   2.405   6.721
10255TIP3    H230705   3.621   2.298   6.748
10256TIP3   OH230706   5.695   6.378   0.490
10256TIP3    H130707   5.720   6.427   0.568
10256TIP3    H230708   5.628   6.316   0.521
10257TIP3   OH230709   2.915   1.893   6.212
10257TIP3    H130710   2.893   1.919   6.302
10257TIP3    H230711   2.854   1.943   6.158
10258TIP3   OH230712   5.311   5.998   0.124
10258TIP3    H130713   5.392   6.028   0.164
10258TIP3    H230714   5.338   5.957   0.042
10259TIP3   OH230715   2.414   1.922   6.599
10259TIP3    H130716   2.468   1.957   6.528
10259TIP3    H230717   2.354   1.994   6.620
10260TIP3   OH230718   6.456   6.643   0.254
10260TIP3    H130719   6.485   6.572   0.197
10260TIP3    H230720   6.400   6.600   0.319
10261TIP3   OH230721   3.303   2.082   6.876
10261TIP3    H130722   3.226   2.078   6.933
10261TIP3    H230723   3.378   2.075   6.935
10262TIP3   OH230724   2.706   2.156   6.882
10262TIP3    H130725   2.617   2.159   6.846
10262TIP3    H230726   2.738   2.068   6.862
10263TIP3   OH230727   2.963   2.156   6.584
10263TIP3    H130728   3.057   2.167   6.571
10263TIP3    H230729   2.925   2.174   6.498
10264TIP3   OH230730   6.595   6.165   0.109
10264TIP3    H130731   6.590   6.176   0.204
10264TIP3    H230732   6.520   6.111   0.086
10265TIP3   OH230733   2.831   2.176   6.346
10265TIP3    H130734   2.747   2.152   6.308
10265TIP3    H230735   2.879   2.219   6.274
10266TIP3   OH230736   6.760   7.861   0.351
10266TIP3    H130737   6.748   7.869   0.257
10266TIP3    H230738   6.844   7.904   0.368
10267TIP3   OH230739   5.803   6.960   0.700
10267TIP3    H130740   5.856   7.019   0.754
10267TIP3    H230741   5.713   6.993   0.710
10268TIP3   OH230742   6.192   6.446   0.030
10268TIP3    H130743   6.261   6.401  -0.018
10268TIP3    H230744   6.190   6.403   0.116
10269TIP3   OH230745   2.858   1.917   6.850
10269TIP3    H130746   2.822   1.838   6.891
10269TIP3    H230747   2.900   1.887   6.771
10270TIP3   OH230748   6.170   6.330   0.283
10270TIP3    H130749   6.085   6.368   0.303
10270TIP3    H230750   6.232   6.380   0.336
10271TIP3   OH230751   3.061   2.710   6.365
10271TIP3    H130752   2.988   2.651   6.344
10271TIP3    H230753   3.036   2.751   6.448
10272TIP3   OH230754   6.793   6.962   0.036
10272TIP3    H130755   6.824   7.011  -0.040
10272TIP3    H230756   6.710   6.923   0.007
10273TIP3   OH230757   3.525   2.020   6.257
10273TIP3    H130758   3.432   1.995   6.254
10273TIP3    H230759   3.524   2.115   6.269
10274TIP3   OH230760   6.324   7.059   0.422
10274TIP3    H130761   6.362   7.021   0.502
10274TIP3    H230762   6.280   7.138   0.452
10275TIP3   OH230763   3.572   2.285   6.334
10275TIP3    H130764   3.666   2.295   6.346
10275TIP3    H230765   3.546   2.362   6.283
10276TIP3   OH230766   5.574   6.720   0.071
10276TIP3    H130767   5.626   6.708  -0.008
10276TIP3    H230768   5.628   6.682   0.141
10277TIP3   OH230769   3.211   2.866   6.196
10277TIP3    H130770   3.165   2.950   6.199
10277TIP3    H230771   3.159   2.809   6.252
10278TIP3   OH230772   5.562   6.586   0.630
10278TIP3    H130773   5.605   6.629   0.703
10278TIP3    H230774   5.468   6.600   0.645
10279TIP3   OH230775   6.187   6.829   0.590
10279TIP3    H130776   6.111   6.779   0.621
10279TIP3    H230777   6.254   6.813   0.656
10280TIP3   OH230778   6.454   7.333   0.298
10280TIP3    H130779   6.361   7.314   0.312
10280TIP3    H230780   6.482   7.375   0.379
10281TIP3   OH230781   7.088   7.242   0.302
10281TIP3    H130782   6.993   7.233   0.297
10281TIP3    H230783   7.119   7.214   0.216
10282TIP3   OH230784   3.741   3.188   6.087
10282TIP3    H130785   3.716   3.121   6.151
10282TIP3    H230786   3.756   3.138   6.007
10283TIP3   OH230787   3.722   2.824   6.876
10283TIP3    H130788   3.633   2.801   6.901
10283TIP3    H230789   3.759   2.744   6.839
10284TIP3   OH230790   2.866   3.069   6.683
10284TIP3    H130791   2.857   3.134   6.613
10284TIP3    H230792   2.806   3.099   6.751
10285TIP3   OH230793   2.427   2.347   6.375
10285TIP3    H130794   2.474   2.427   6.396
10285TIP3    H230795   2.349   2.349   6.431
10286TIP3   OH230796   2.962   2.821   6.593
10286TIP3    H130797   2.936   2.909   6.621
10286TIP3    H230798   2.940   2.765   6.667
10287TIP3   OH230799   5.985   7.387   0.195
10287TIP3    H130800   6.020   7.457   0.140
10287TIP3    H230801   6.061   7.353   0.242
10288TIP3   OH230802   2.780   3.287   6.514
10288TIP3    H130803   2.695   3.289   6.557
10288TIP3    H230804   2.813   3.376   6.523
10289TIP3   OH230805   6.354   7.040   0.154
10289TIP3    H130806   6.340   7.044   0.249
10289TIP3    H230807   6.429   6.982   0.143
10290TIP3   OH230808   3.496   2.921   5.983
10290TIP3    H130809   3.554   2.896   6.054
10290TIP3    H230810   3.410   2.888   6.010
10291TIP3   OH230811   6.596   7.549   0.195
10291TIP3    H130812   6.539   7.477   0.221
10291TIP3    H230813   6.543   7.600   0.134
10292TIP3   OH230814   3.827   3.390   5.790
10292TIP3    H130815   3.873   3.463   5.748
10292TIP3    H230816   3.748   3.430   5.827
10293TIP3   OH230817   5.760   6.135   0.695
10293TIP3    H130818   5.669   6.163   0.702
10293TIP3    H230819   5.797   6.149   0.782
10294TIP3   OH230820   3.670   2.838   6.174
10294TIP3    H130821   3.656   2.783   6.251
10294TIP3    H230822   3.766   2.845   6.167
10295TIP3   OH230823   2.848   2.885   5.986
10295TIP3    H130824   2.862   2.794   5.961
10295TIP3    H230825   2.834   2.882   6.081
10296TIP3   OH230826   2.797   2.903   6.259
10296TIP3    H130827   2.858   2.875   6.327
10296TIP3    H230828   2.797   2.999   6.265
10297TIP3   OH230829   2.532   2.591   6.462
10297TIP3    H130830   2.466   2.634   6.516
10297TIP3    H230831   2.552   2.654   6.392
10298TIP3   OH230832   6.566   6.214   0.370
10298TIP3    H130833   6.626   6.274   0.414
10298TIP3    H230834   6.531   6.159   0.440
10299TIP3   OH230835   3.583   1.971   6.528
10299TIP3    H130836   3.559   1.993   6.438
10299TIP3    H230837   3.619   2.052   6.563
10300TIP3   OH230838   3.069   3.097   6.200
10300TIP3    H130839   2.983   3.116   6.236
10300TIP3    H230840   3.091   3.174   6.147
10301TIP3   OH230841   3.242   2.166   6.621
10301TIP3    H130842   3.302   2.237   6.599
10301TIP3    H230843   3.261   2.146   6.713
10302TIP3   OH230844   6.351   6.456   0.442
10302TIP3    H130845   6.372   6.530   0.498
10302TIP3    H230846   6.425   6.396   0.452
10303TIP3   OH230847   3.393   1.870   6.705
10303TIP3    H130848   3.376   1.943   6.764
10303TIP3    H230849   3.463   1.901   6.647
10304TIP3   OH230850   2.814   3.176   6.268
10304TIP3    H130851   2.791   3.247   6.208
10304TIP3    H230852   2.799   3.214   6.355
10305TIP3   OH230853   2.903   1.889   6.504
10305TIP3    H130854   2.897   1.978   6.538
10305TIP3    H230855   2.996   1.869   6.503
10306TIP3   OH230856   6.977   6.357   0.454
10306TIP3    H130857   6.883   6.369   0.469
10306TIP3    H230858   6.981   6.302   0.376
10307TIP3   OH230859   3.813   2.564   6.783
10307TIP3    H130860   3.733   2.518   6.807
10307TIP3    H230861   3.880   2.526   6.839
10308TIP3   OH230862   2.545   2.781   6.253
10308TIP3    H130863   2.614   2.845   6.265
10308TIP3    H230864   2.582   2.718   6.190
10309TIP3   OH230865   2.489   2.078   6.382
10309TIP3    H130866   2.483   2.173   6.391
10309TIP3    H230867   2.421   2.056   6.318
10310TIP3   OH230868   3.797   3.533   6.722
10310TIP3    H130869   3.753   3.585   6.654
10310TIP3    H230870   3.890   3.551   6.709
10311TIP3   OH230871   5.681   5.834   0.240
10311TIP3    H130872   5.653   5.788   0.161
10311TIP3    H230873   5.670   5.769   0.310
10312TIP3   OH230874   2.364   3.005   6.653
10312TIP3    H130875   2.350   3.060   6.730
10312TIP3    H230876   2.344   3.062   6.578
10313TIP3   OH230877   5.458   7.464   0.658
10313TIP3    H130878   5.502   7.472   0.742
10313TIP3    H230879   5.386   7.403   0.674
10314TIP3   OH230880   5.843   7.572   0.712
10314TIP3    H130881   5.932   7.583   0.746
10314TIP3    H230882   5.845   7.489   0.666
10315TIP3   OH230883   3.019   3.076   5.883
10315TIP3    H130884   2.959   3.016   5.927
10315TIP3    H230885   3.097   3.024   5.867
10316TIP3   OH230886   6.529   7.464   0.522
10316TIP3    H130887   6.520   7.386   0.577
10316TIP3    H230888   6.605   7.510   0.558
10317TIP3   OH230889   3.452   3.127   5.804
10317TIP3    H130890   3.481   3.062   5.869
10317TIP3    H230891   3.515   3.119   5.733
10318TIP3   OH230892   5.437   6.970   1.010
10318TIP3    H130893   5.470   6.881   1.007
10318TIP3    H230894   5.362   6.971   0.950
10319TIP3   OH230895   2.678   2.589   6.111
10319TIP3    H130896   2.731   2.567   6.188
10319TIP3    H230897   2.742   2.597   6.040
10320TIP3   OH230898   6.139   7.088   0.654
10320TIP3    H130899   6.078   7.120   0.588
10320TIP3    H230900   6.160   6.999   0.626
10321TIP3   OH230901   3.202   2.819   5.924
10321TIP3    H130902   3.196   2.831   6.019
10321TIP3    H230903   3.198   2.724   5.911
10322TIP3   OH230904   6.616   7.102   0.341
10322TIP3    H130905   6.691   7.142   0.297
10322TIP3    H230906   6.544   7.163   0.327
10323TIP3   OH230907   5.666   6.545   0.992
10323TIP3    H130908   5.712   6.598   0.927
10323TIP3    H230909   5.637   6.609   1.058
10324TIP3   OH230910   2.856   2.525   6.321
10324TIP3    H130911   2.835   2.497   6.410
10324TIP3    H230912   2.900   2.450   6.282
10325TIP3   OH230913   5.987   6.633   0.569
10325TIP3    H130914   5.906   6.679   0.547
10325TIP3    H230915   6.039   6.637   0.489
10326TIP3   OH230916   2.981   2.328   6.169
10326TIP3    H130917   2.950   2.329   6.078
10326TIP3    H230918   3.076   2.334   6.162
10327TIP3   OH230919   6.502   6.991   0.654
10327TIP3    H130920   6.585   6.971   0.610
10327TIP3    H230921   6.514   6.957   0.742
10328TIP3   OH230922   3.776   2.638   5.837
10328TIP3    H130923   3.765   2.594   5.752
10328TIP3    H230924   3.749   2.729   5.819
10329TIP3   OH230925   6.045   6.383   0.650
10329TIP3    H130926   6.061   6.332   0.571
10329TIP3    H230927   6.017   6.468   0.618
10330TIP3   OH230928   6.109   6.157   0.498
10330TIP3    H130929   6.151   6.186   0.417
10330TIP3    H230930   6.019   6.139   0.474
10331TIP3   OH230931   6.144   6.684   0.350
10331TIP3    H130932   6.203   6.734   0.407
10331TIP3    H230933   6.083   6.749   0.316
10332TIP3   OH230934   6.771   6.699   0.722
10332TIP3    H130935   6.831   6.635   0.760
10332TIP3    H230936   6.819   6.782   0.726
10333TIP3   OH230937   6.743   6.931   0.500
10333TIP3    H130938   6.693   6.990   0.444
10333TIP3    H230939   6.834   6.944   0.473
10334TIP3   OH230940   5.979   6.497   0.925
10334TIP3    H130941   5.932   6.449   0.993
10334TIP3    H230942   5.959   6.451   0.844
10335TIP3   OH230943   6.204   5.951   0.662
10335TIP3    H130944   6.175   6.032   0.619
10335TIP3    H230945   6.124   5.907   0.687
10336TIP3   OH230946   6.381   6.364   0.840
10336TIP3    H130947   6.425   6.377   0.924
10336TIP3    H230948   6.322   6.439   0.832
10337TIP3   OH230949   6.549   6.380   0.632
10337TIP3    H130950   6.496   6.395   0.711
10337TIP3    H230951   6.631   6.342   0.665
10338TIP3   OH230952   6.949   6.297   1.005
10338TIP3    H130953   6.973   6.334   0.920
10338TIP3    H230954   6.867   6.251   0.989
10339TIP3   OH230955   5.834   6.303   1.045
10339TIP3    H130956   5.807   6.212   1.032
10339TIP3    H230957   5.808   6.323   1.135
10340TIP3   OH230958   6.284   5.933   0.922
10340TIP3    H130959   6.355   5.879   0.886
10340TIP3    H230960   6.244   5.974   0.845
10341TIP3   OH230961   6.399   6.153   1.055
10341TIP3    H130962   6.392   6.099   0.976
10341TIP3    H230963   6.333   6.221   1.043
10342TIP3   OH230964   2.805   3.383   6.083
10342TIP3    H130965   2.895   3.363   6.058
10342TIP3    H230966   2.769   3.432   6.009
10343TIP3   OH230967   2.272   2.763   6.271
10343TIP3    H130968   2.366   2.779   6.270
10343TIP3    H230969   2.262   2.675   6.235
10344TIP3   OH230970   2.181   3.361   6.726
10344TIP3    H130971   2.120   3.300   6.685
10344TIP3    H230972   2.237   3.306   6.781
10345TIP3   OH230973   2.359   3.210   6.873
10345TIP3    H130974   2.353   3.154   6.951
10345TIP3    H230975   2.408   3.287   6.903
10346TIP3   OH230976   4.057   3.611   6.698
10346TIP3    H130977   4.087   3.620   6.788
10346TIP3    H230978   4.129   3.647   6.645
10347TIP3   OH230979   6.937   7.621   0.029
10347TIP3    H130980   6.883   7.542   0.034
10347TIP3    H230981   6.998   7.613   0.102
10348TIP3   OH230982   6.958   7.340   0.607
10348TIP3    H130983   6.887   7.353   0.670
10348TIP3    H230984   7.005   7.423   0.606
10349TIP3   OH230985   3.947   2.840   6.166
10349TIP3    H130986   4.011   2.906   6.137
10349TIP3    H230987   3.986   2.801   6.244
10350TIP3   OH230988   4.064   2.715   6.376
10350TIP3    H130989   4.008   2.663   6.434
10350TIP3    H230990   4.143   2.732   6.428
10351TIP3   OH230991   4.128   3.093   6.803
10351TIP3    H130992   4.180   3.023   6.764
10351TIP3    H230993   4.129   3.163   6.738
10352TIP3   OH230994   6.777   7.394   0.051
10352TIP3    H130995   6.710   7.442   0.100
10352TIP3    H230996   6.729   7.349  -0.019
10353TIP3   OH230997   4.000   2.628   5.993
10353TIP3    H130998   3.920   2.626   5.941
10353TIP3    H230999   3.982   2.693   6.062
10354TIP3   OH231000   3.858   2.253   6.036
10354TIP3    H131001   3.854   2.316   5.965
10354TIP3    H231002   3.836   2.169   5.995
10355TIP3   OH231003   3.880   2.555   6.516
10355TIP3    H131004   3.876   2.461   6.503
10355TIP3    H231005   3.860   2.568   6.608
10356TIP3   OH231006   5.343   6.668   0.288
10356TIP3    H131007   5.328   6.632   0.201
10356TIP3    H231008   5.437   6.654   0.304
10357TIP3   OH231009   7.004   6.985   0.430
10357TIP3    H131010   7.069   6.915   0.421
10357TIP3    H231011   7.031   7.051   0.366
10358TIP3   OH231012   7.180   6.778   0.426
10358TIP3    H131013   7.105   6.730   0.461
10358TIP3    H231014   7.255   6.722   0.447
10359TIP3   OH231015   3.806   1.993   5.951
10359TIP3    H131016   3.855   1.935   6.009
10359TIP3    H231017   3.716   1.959   5.954
10360TIP3   OH231018   3.856   2.278   6.393
10360TIP3    H131019   3.888   2.188   6.393
10360TIP3    H231020   3.881   2.312   6.307
10361TIP3   OH231021   4.030   2.435   6.912
10361TIP3    H131022   4.112   2.459   6.868
10361TIP3    H231023   4.037   2.475   6.999
10362TIP3   OH231024   6.934   6.594   0.197
10362TIP3    H131025   6.865   6.624   0.256
10362TIP3    H231026   6.969   6.673   0.156
10363TIP3   OH231027   5.571   6.315   0.894
10363TIP3    H131028   5.605   6.388   0.945
10363TIP3    H231029   5.606   6.237   0.939
10364TIP3   OH231030   7.420   6.209   0.700
10364TIP3    H131031   7.461   6.142   0.645
10364TIP3    H231032   7.357   6.252   0.642
10365TIP3   OH231033   3.988   2.023   6.478
10365TIP3    H131034   3.965   2.004   6.569
10365TIP3    H231035   3.936   1.961   6.427
10366TIP3   OH231036   5.536   6.060   0.272
10366TIP3    H131037   5.587   5.979   0.267
10366TIP3    H231038   5.601   6.129   0.259
10367TIP3   OH231039   5.357   6.306   0.399
10367TIP3    H131040   5.400   6.309   0.314
10367TIP3    H231041   5.336   6.398   0.419
10368TIP3   OH231042   7.235   6.318   0.534
10368TIP3    H131043   7.146   6.352   0.543
10368TIP3    H231044   7.227   6.248   0.468
10369TIP3   OH231045   4.099   1.946   6.097
10369TIP3    H131046   4.107   1.881   6.028
10369TIP3    H231047   4.098   2.031   6.052
10370TIP3   OH231048   2.472   1.811   6.840
10370TIP3    H131049   2.384   1.786   6.868
10370TIP3    H231050   2.459   1.853   6.755
10371TIP3   OH231051   3.629   3.504   6.353
10371TIP3    H131052   3.683   3.488   6.276
10371TIP3    H231053   3.679   3.566   6.406
10372TIP3   OH231054   5.469   5.966   0.716
10372TIP3    H131055   5.441   5.969   0.808
10372TIP3    H231056   5.398   5.922   0.671
10373TIP3   OH231057   5.628   7.366   0.861
10373TIP3    H131058   5.602   7.274   0.856
10373TIP3    H231059   5.586   7.399   0.941
10374TIP3   OH231060   5.751   7.343   0.337
10374TIP3    H131061   5.697   7.416   0.306
10374TIP3    H231062   5.835   7.355   0.294
10375TIP3   OH231063   6.168   7.584   0.470
10375TIP3    H131064   6.208   7.577   0.556
10375TIP3    H231065   6.231   7.635   0.419
10376TIP3   OH231066   6.357   7.736   0.342
10376TIP3    H131067   6.421   7.671   0.312
10376TIP3    H231068   6.406   7.793   0.401
10377TIP3   OH231069   7.158   6.089   0.398
10377TIP3    H131070   7.067   6.087   0.371
10377TIP3    H231071   7.187   5.998   0.395
10378TIP3   OH231072   5.629   7.562   0.225
10378TIP3    H131073   5.538   7.533   0.231
10378TIP3    H231074   5.641   7.583   0.132
10379TIP3   OH231075   6.070   7.588   0.019
10379TIP3    H131076   5.993   7.599  -0.038
10379TIP3    H231077   6.075   7.670   0.068
10380TIP3   OH231078   6.338   7.545   0.071
10380TIP3    H131079   6.244   7.549   0.053
10380TIP3    H231080   6.376   7.610   0.012
10381TIP3   OH231081   3.676   3.723   6.882
10381TIP3    H131082   3.650   3.765   6.800
10381TIP3    H231083   3.734   3.652   6.856
10382TIP3   OH231084   2.718   3.218   6.885
10382TIP3    H131085   2.716   3.146   6.948
10382TIP3    H231086   2.676   3.291   6.931
10383TIP3   OH231087   2.989   3.366   6.904
10383TIP3    H131088   2.931   3.290   6.894
10383TIP3    H231089   3.038   3.348   6.985
10384TIP3   OH231090   6.376   5.998   0.049
10384TIP3    H131091   6.326   5.927   0.090
10384TIP3    H231092   6.445   5.954  -0.000
10385TIP3   OH231093   4.028   1.895   6.890
10385TIP3    H131094   4.040   1.983   6.854
10385TIP3    H231095   3.933   1.886   6.901
10386TIP3   OH231096   4.194   2.016   6.680
10386TIP3    H131097   4.238   1.932   6.667
10386TIP3    H231098   4.228   2.048   6.764
10387TIP3   OH231099   5.600   5.693   0.024
10387TIP3    H131100   5.509   5.664   0.026
10387TIP3    H231101   5.651   5.613   0.031
10388TIP3   OH231102   2.570   1.582   6.667
10388TIP3    H131103   2.601   1.631   6.590
10388TIP3    H231104   2.551   1.650   6.732
10389TIP3   OH231105   3.217   1.734   6.877
10389TIP3    H131106   3.270   1.775   6.808
10389TIP3    H231107   3.263   1.757   6.958
10390TIP3   OH231108   3.754   1.867   6.863
10390TIP3    H131109   3.751   1.822   6.778
10390TIP3    H231110   3.751   1.796   6.927
10391TIP3   OH231111   3.801   1.819   6.438
10391TIP3    H131112   3.718   1.862   6.460
10391TIP3    H231113   3.794   1.732   6.477
10392TIP3   OH231114   2.283   3.158   6.439
10392TIP3    H131115   2.198   3.125   6.412
10392TIP3    H231116   2.283   3.251   6.413
10393TIP3   OH231117   2.686   1.727   6.411
10393TIP3    H131118   2.730   1.662   6.357
10393TIP3    H231119   2.756   1.780   6.449
10394TIP3   OH231120   3.183   1.918   6.520
10394TIP3    H131121   3.238   1.861   6.573
10394TIP3    H231122   3.201   2.007   6.552
10395TIP3   OH231123   3.062   3.313   6.018
10395TIP3    H131124   3.147   3.341   5.984
10395TIP3    H231125   3.038   3.238   5.965
10396TIP3   OH231126   3.776   3.456   6.121
10396TIP3    H131127   3.769   3.361   6.115
10396TIP3    H231128   3.731   3.488   6.043
10397TIP3   OH231129   5.812   5.853   0.969
10397TIP3    H131130   5.814   5.824   1.060
10397TIP3    H231131   5.877   5.923   0.965
10398TIP3   OH231132   2.365   3.161   6.085
10398TIP3    H131133   2.366   3.169   6.181
10398TIP3    H231134   2.447   3.117   6.064
10399TIP3   OH231135   6.908   6.068   0.796
10399TIP3    H131136   6.938   6.053   0.886
10399TIP3    H231137   6.986   6.055   0.743
10400TIP3   OH231138   6.826   7.594   0.355
10400TIP3    H131139   6.751   7.560   0.307
10400TIP3    H231140   6.807   7.687   0.366
10401TIP3   OH231141   5.255   2.971   6.063
10401TIP3    H131142   5.226   3.060   6.045
10401TIP3    H231143   5.183   2.916   6.033
10402TIP3   OH231144   5.226   2.969   6.487
10402TIP3    H131145   5.290   2.955   6.557
10402TIP3    H231146   5.198   2.881   6.462
10403TIP3   OH231147   4.558   2.842   6.826
10403TIP3    H131148   4.590   2.785   6.896
10403TIP3    H231149   4.636   2.883   6.790
10404TIP3   OH231150   5.538   3.287   6.127
10404TIP3    H131151   5.608   3.223   6.136
10404TIP3    H231152   5.557   3.354   6.192
10405TIP3   OH231153   4.543   3.263   6.522
10405TIP3    H131154   4.531   3.168   6.527
10405TIP3    H231155   4.638   3.274   6.513
10406TIP3   OH231156   4.312   2.770   6.505
10406TIP3    H131157   4.363   2.694   6.533
10406TIP3    H231158   4.377   2.833   6.475
10407TIP3   OH231159   5.180   3.716   6.163
10407TIP3    H131160   5.208   3.652   6.098
10407TIP3    H231161   5.184   3.669   6.246
10408TIP3   OH231162   5.063   3.200   6.493
10408TIP3    H131163   5.103   3.116   6.470
10408TIP3    H231164   5.138   3.257   6.512
10409TIP3   OH231165   6.093   2.516   6.498
10409TIP3    H131166   6.112   2.601   6.538
10409TIP3    H231167   6.110   2.530   6.404
10410TIP3   OH231168   5.466   2.681   6.531
10410TIP3    H131169   5.512   2.600   6.552
10410TIP3    H231170   5.431   2.666   6.443
10411TIP3   OH231171   4.830   2.349   6.491
10411TIP3    H131172   4.814   2.421   6.430
10411TIP3    H231173   4.783   2.275   6.454
10412TIP3   OH231174   5.522   2.443   6.114
10412TIP3    H131175   5.588   2.437   6.183
10412TIP3    H231176   5.569   2.477   6.038
10413TIP3   OH231177   4.454   2.551   6.596
10413TIP3    H131178   4.535   2.539   6.645
10413TIP3    H231179   4.466   2.500   6.516
10414TIP3   OH231180   4.885   2.757   6.415
10414TIP3    H131181   4.979   2.741   6.424
10414TIP3    H231182   4.850   2.675   6.380
10415TIP3   OH231183   6.156   2.732   6.670
10415TIP3    H131184   6.072   2.775   6.653
10415TIP3    H231185   6.187   2.774   6.751
10416TIP3   OH231186   4.811   2.341   6.932
10416TIP3    H131187   4.758   2.377   6.861
10416TIP3    H231188   4.759   2.356   7.011
10417TIP3   OH231189   5.132   3.184   5.935
10417TIP3    H131190   5.108   3.172   5.843
10417TIP3    H231191   5.092   3.268   5.959
10418TIP3   OH231192   4.914   3.119   6.709
10418TIP3    H131193   4.857   3.188   6.743
10418TIP3    H231194   4.961   3.160   6.637
10419TIP3   OH231195   5.696   2.461   6.325
10419TIP3    H131196   5.659   2.440   6.411
10419TIP3    H231197   5.754   2.535   6.342
10420TIP3   OH231198   4.691   2.454   6.707
10420TIP3    H131199   4.745   2.528   6.734
10420TIP3    H231200   4.743   2.410   6.639
10421TIP3   OH231201   4.749   3.319   6.809
10421TIP3    H131202   4.733   3.408   6.776
10421TIP3    H231203   4.672   3.299   6.862
10422TIP3   OH231204   4.134   3.018   6.053
10422TIP3    H131205   4.097   3.039   5.967
10422TIP3    H231206   4.161   3.103   6.089
10423TIP3   OH231207   5.572   3.531   6.298
10423TIP3    H131208   5.483   3.519   6.330
10423TIP3    H231209   5.569   3.614   6.250
10424TIP3   OH231210   5.887   2.406   6.662
10424TIP3    H131211   5.801   2.430   6.629
10424TIP3    H231212   5.948   2.436   6.595
10425TIP3   OH231213   5.153   2.048   6.650
10425TIP3    H131214   5.148   1.956   6.677
10425TIP3    H231215   5.078   2.090   6.693
10426TIP3   OH231216   5.270   3.560   5.950
10426TIP3    H131217   5.319   3.479   5.937
10426TIP3    H231218   5.330   3.629   5.921
10427TIP3   OH231219   5.416   3.339   5.887
10427TIP3    H131220   5.401   3.254   5.847
10427TIP3    H231221   5.459   3.319   5.970
10428TIP3   OH231222   5.808   3.412   6.632
10428TIP3    H131223   5.790   3.340   6.571
10428TIP3    H231224   5.793   3.491   6.580
10429TIP3   OH231225   5.085   2.817   5.902
10429TIP3    H131226   5.008   2.870   5.882
10429TIP3    H231227   5.138   2.819   5.822
10430TIP3   OH231228   5.058   2.620   5.605
10430TIP3    H131229   5.122   2.669   5.657
10430TIP3    H231230   5.110   2.554   5.559
10431TIP3   OH231231   5.985   3.083   6.521
10431TIP3    H131232   5.901   3.127   6.508
10431TIP3    H231233   6.023   3.078   6.433
10432TIP3   OH231234   5.441   2.909   5.872
10432TIP3    H131235   5.385   2.934   5.946
10432TIP3    H231236   5.524   2.885   5.912
10433TIP3   OH231237   5.672   2.940   6.799
10433TIP3    H131238   5.668   3.023   6.848
10433TIP3    H231239   5.592   2.940   6.747
10434TIP3   OH231240   4.678   2.890   6.280
10434TIP3    H131241   4.643   2.831   6.214
10434TIP3    H231242   4.754   2.845   6.316
10435TIP3   OH231243   4.807   3.312   6.420
10435TIP3    H131244   4.789   3.293   6.328
10435TIP3    H231245   4.894   3.276   6.435
10436TIP3   OH231246   4.786   2.885   6.644
10436TIP3    H131247   4.826   2.851   6.563
10436TIP3    H231248   4.837   2.964   6.663
10437TIP3   OH231249   5.325   3.522   6.419
10437TIP3    H131250   5.321   3.595   6.480
10437TIP3    H231251   5.320   3.444   6.475
10438TIP3   OH231252   7.782   7.431   0.031
10438TIP3    H131253   7.722   7.490   0.076
10438TIP3    H231254   7.725   7.378  -0.025
10439TIP3   OH231255   5.278   2.769   5.700
10439TIP3    H131256   5.338   2.825   5.751
10439TIP3    H231257   5.307   2.780   5.610
10440TIP3   OH231258   7.539   6.989   0.145
10440TIP3    H131259   7.544   7.078   0.181
10440TIP3    H231260   7.446   6.967   0.148
10441TIP3   OH231261   5.021   3.442   5.961
10441TIP3    H131262   5.107   3.485   5.968
10441TIP3    H231263   4.967   3.504   5.913
10442TIP3   OH231264   7.573   7.593   0.115
10442TIP3    H131265   7.545   7.599   0.023
10442TIP3    H231266   7.492   7.574   0.163
10443TIP3   OH231267   5.792   1.997   5.753
10443TIP3    H131268   5.714   2.016   5.805
10443TIP3    H231269   5.805   2.076   5.700
10444TIP3   OH231270   4.554   2.735   6.074
10444TIP3    H131271   4.480   2.785   6.039
10444TIP3    H231272   4.522   2.645   6.077
10445TIP3   OH231273   5.609   3.368   5.306
10445TIP3    H131274   5.607   3.462   5.288
10445TIP3    H231275   5.698   3.341   5.287
10446TIP3   OH231276   7.161   7.140   0.060
10446TIP3    H131277   7.092   7.120  -0.003
10446TIP3    H231278   7.197   7.055   0.085
10447TIP3   OH231279   4.197   3.315   6.635
10447TIP3    H131280   4.290   3.305   6.618
10447TIP3    H231281   4.191   3.388   6.696
10448TIP3   OH231282   6.036   3.786   6.697
10448TIP3    H131283   6.042   3.691   6.701
10448TIP3    H231284   5.956   3.807   6.744
10449TIP3   OH231285   5.140   3.559   6.827
10449TIP3    H131286   5.135   3.651   6.855
10449TIP3    H231287   5.073   3.515   6.878
10450TIP3   OH231288   4.914   3.667   5.785
10450TIP3    H131289   4.871   3.650   5.701
10450TIP3    H231290   4.882   3.753   5.811
10451TIP3   OH231291   4.351   3.523   6.165
10451TIP3    H131292   4.398   3.515   6.248
10451TIP3    H231293   4.306   3.439   6.155
10452TIP3   OH231294   5.117   3.590   5.413
10452TIP3    H131295   5.168   3.518   5.378
10452TIP3    H231296   5.152   3.604   5.501
10453TIP3   OH231297   5.168   3.639   5.683
10453TIP3    H131298   5.083   3.642   5.726
10453TIP3    H231299   5.228   3.604   5.749
10454TIP3   OH231300   0.252   6.909   0.032
10454TIP3    H131301   0.175   6.920  -0.024
10454TIP3    H231302   0.273   6.816   0.026
10455TIP3   OH231303   7.364   7.325   0.037
10455TIP3    H131304   7.415   7.312   0.117
10455TIP3    H231305   7.292   7.262   0.043
10456TIP3   OH231306   4.914   2.130   6.781
10456TIP3    H131307   4.829   2.099   6.752
10456TIP3    H231308   4.895   2.207   6.834
10457TIP3   OH231309   8.299   6.259   0.037
10457TIP3    H131310   8.366   6.232   0.100
10457TIP3    H231311   8.216   6.241   0.082
10458TIP3   OH231312   5.687   2.677   6.896
10458TIP3    H131313   5.643   2.675   6.982
10458TIP3    H231314   5.667   2.764   6.861
10459TIP3   OH231315   5.359   2.773   5.439
10459TIP3    H131316   5.318   2.766   5.352
10459TIP3    H231317   5.441   2.818   5.423
10460TIP3   OH231318   5.065   2.177   5.750
10460TIP3    H131319   5.032   2.181   5.840
10460TIP3    H231320   5.030   2.095   5.716
10461TIP3   OH231321   4.852   2.661   6.792
10461TIP3    H131322   4.809   2.672   6.877
10461TIP3    H231323   4.832   2.741   6.744
10462TIP3   OH231324   4.748   2.540   6.311
10462TIP3    H131325   4.657   2.522   6.332
10462TIP3    H231326   4.760   2.505   6.223
10463TIP3   OH231327   5.218   2.614   6.037
10463TIP3    H131328   5.171   2.687   5.997
10463TIP3    H231329   5.278   2.584   5.969
10464TIP3   OH231330   8.241   6.900   0.178
10464TIP3    H131331   8.211   6.831   0.237
10464TIP3    H231332   8.334   6.910   0.197
10465TIP3   OH231333   5.373   2.623   6.277
10465TIP3    H131334   5.314   2.657   6.210
10465TIP3    H231335   5.419   2.550   6.234
10466TIP3   OH231336   7.518   6.680   0.073
10466TIP3    H131337   7.554   6.739   0.139
10466TIP3    H231338   7.502   6.598   0.119
10467TIP3   OH231339   4.729   2.154   5.722
10467TIP3    H131340   4.721   2.155   5.818
10467TIP3    H231341   4.652   2.203   5.692
10468TIP3   OH231342   4.340   2.179   6.496
10468TIP3    H131343   4.370   2.229   6.572
10468TIP3    H231344   4.420   2.143   6.458
10469TIP3   OH231345   5.400   2.886   6.696
10469TIP3    H131346   5.430   2.822   6.631
10469TIP3    H231347   5.367   2.833   6.768
10470TIP3   OH231348   5.096   2.339   6.368
10470TIP3    H131349   5.022   2.342   6.429
10470TIP3    H231350   5.173   2.329   6.424
10471TIP3   OH231351   4.510   2.406   6.365
10471TIP3    H131352   4.441   2.392   6.301
10471TIP3    H231353   4.561   2.325   6.363
10472TIP3   OH231354   4.754   2.411   6.068
10472TIP3    H131355   4.848   2.423   6.057
10472TIP3    H231356   4.717   2.433   5.983
10473TIP3   OH231357   5.565   2.422   6.574
10473TIP3    H131358   5.540   2.439   6.665
10473TIP3    H231359   5.499   2.360   6.542
10474TIP3   OH231360   4.629   2.445   5.827
10474TIP3    H131361   4.563   2.398   5.776
10474TIP3    H231362   4.684   2.488   5.762
10475TIP3   OH231363   5.745   4.124   6.794
10475TIP3    H131364   5.739   4.140   6.700
10475TIP3    H231365   5.823   4.172   6.822
10476TIP3   OH231366   7.524   7.246   0.267
10476TIP3    H131367   7.605   7.264   0.315
10476TIP3    H231368   7.456   7.245   0.334
10477TIP3   OH231369   5.151   2.690   6.468
10477TIP3    H131370   5.220   2.648   6.416
10477TIP3    H231371   5.156   2.647   6.553
10478TIP3   OH231372   4.653   2.167   6.358
10478TIP3    H131373   4.633   2.086   6.405
10478TIP3    H231374   4.697   2.138   6.278
10479TIP3   OH231375   5.122   2.597   6.743
10479TIP3    H131376   5.034   2.631   6.763
10479TIP3    H231377   5.180   2.650   6.797
10480TIP3   OH231378   4.855   2.968   5.844
10480TIP3    H131379   4.782   2.909   5.825
10480TIP3    H231380   4.834   3.004   5.930
10481TIP3   OH231381   5.742   3.200   6.468
10481TIP3    H131382   5.765   3.191   6.376
10481TIP3    H231383   5.656   3.159   6.476
10482TIP3   OH231384   5.319   2.277   5.740
10482TIP3    H131385   5.226   2.258   5.742
10482TIP3    H231386   5.325   2.370   5.757
10483TIP3   OH231387   5.265   3.294   6.850
10483TIP3    H131388   5.306   3.284   6.936
10483TIP3    H231389   5.223   3.380   6.853
10484TIP3   OH231390   5.382   2.535   5.821
10484TIP3    H131391   5.476   2.535   5.834
10484TIP3    H231392   5.364   2.615   5.772
10485TIP3   OH231393   4.549   2.975   6.510
10485TIP3    H131394   4.588   2.958   6.424
10485TIP3    H231395   4.614   2.942   6.573
10486TIP3   OH231396   5.011   3.124   5.681
10486TIP3    H131397   4.964   3.207   5.682
10486TIP3    H231398   4.959   3.066   5.737
10487TIP3   OH231399   7.270   6.921   0.196
10487TIP3    H131400   7.284   6.909   0.290
10487TIP3    H231401   7.202   6.858   0.173
10488TIP3   OH231402   8.005   7.047   0.213
10488TIP3    H131403   7.939   6.992   0.171
10488TIP3    H231404   8.089   7.009   0.187
10489TIP3   OH231405   5.414   3.576   6.749
10489TIP3    H131406   5.319   3.563   6.754
10489TIP3    H231407   5.437   3.616   6.832
10490TIP3   OH231408   5.814   2.630   5.648
10490TIP3    H131409   5.757   2.582   5.589
10490TIP3    H231410   5.816   2.719   5.612
10491TIP3   OH231411   6.056   3.508   6.713
10491TIP3    H131412   5.963   3.485   6.716
10491TIP3    H231413   6.087   3.468   6.632
10492TIP3   OH231414   5.534   3.444   5.570
10492TIP3    H131415   5.510   3.376   5.633
10492TIP3    H231416   5.551   3.397   5.489
10493TIP3   OH231417   5.511   3.057   6.425
10493TIP3    H131418   5.420   3.044   6.397
10493TIP3    H231419   5.562   3.005   6.363
10494TIP3   OH231420   4.671   3.312   6.165
10494TIP3    H131421   4.672   3.390   6.108
10494TIP3    H231422   4.578   3.295   6.179
10495TIP3   OH231423   4.239   2.597   5.869
10495TIP3    H131424   4.283   2.680   5.889
10495TIP3    H231425   4.156   2.603   5.917
10496TIP3   OH231426   4.766   3.066   6.080
10496TIP3    H131427   4.750   3.156   6.107
10496TIP3    H231428   4.740   3.013   6.156
10497TIP3   OH231429   4.948   3.637   6.622
10497TIP3    H131430   4.985   3.709   6.571
10497TIP3    H231431   5.023   3.600   6.670
10498TIP3   OH231432   4.582   3.543   6.012
10498TIP3    H131433   4.497   3.547   6.057
10498TIP3    H231434   4.615   3.632   6.016
10499TIP3   OH231435   5.318   3.290   6.577
10499TIP3    H131436   5.309   3.281   6.672
10499TIP3    H231437   5.383   3.225   6.552
10500TIP3   OH231438   5.299   3.177   5.476
10500TIP3    H131439   5.354   3.156   5.552
10500TIP3    H231440   5.212   3.146   5.501
10501TIP3   OH231441   5.564   3.805   6.636
10501TIP3    H131442   5.491   3.743   6.644
10501TIP3    H231443   5.540   3.862   6.564
10502TIP3   OH231444   5.617   3.643   5.274
10502TIP3    H131445   5.641   3.706   5.206
10502TIP3    H231446   5.544   3.685   5.320
10503TIP3   OH231447   7.477   6.430   0.200
10503TIP3    H131448   7.382   6.433   0.212
10503TIP3    H231449   7.509   6.383   0.277
10504TIP3   OH231450   5.470   3.111   5.684
10504TIP3    H131451   5.454   3.043   5.749
10504TIP3    H231452   5.565   3.110   5.672
10505TIP3   OH231453   4.371   3.516   6.786
10505TIP3    H131454   4.424   3.451   6.832
10505TIP3    H231455   4.382   3.597   6.837
10506TIP3   OH231456   4.648   3.146   5.472
10506TIP3    H131457   4.662   3.055   5.446
10506TIP3    H231458   4.633   3.142   5.567
10507TIP3   OH231459   4.596   3.160   5.746
10507TIP3    H131460   4.670   3.131   5.799
10507TIP3    H231461   4.597   3.255   5.753
10508TIP3   OH231462   4.333   2.850   5.951
10508TIP3    H131463   4.265   2.892   6.005
10508TIP3    H231464   4.350   2.913   5.881
10509TIP3   OH231465   5.493   2.485   6.833
10509TIP3    H131466   5.571   2.529   6.866
10509TIP3    H231467   5.484   2.407   6.888
10510TIP3   OH231468   5.377   2.227   6.013
10510TIP3    H131469   5.359   2.247   5.921
10510TIP3    H231470   5.420   2.306   6.046
10511TIP3   OH231471   4.863   3.350   5.686
10511TIP3    H131472   4.779   3.375   5.724
10511TIP3    H231473   4.887   3.425   5.631
10512TIP3   OH231474   5.032   2.424   6.111
10512TIP3    H131475   5.095   2.492   6.084
10512TIP3    H231476   5.054   2.407   6.203
10513TIP3   OH231477   5.325   2.716   6.898
10513TIP3    H131478   5.354   2.760   6.978
10513TIP3    H231479   5.378   2.637   6.894
10514TIP3   OH231480   5.195   2.128   6.200
10514TIP3    H131481   5.176   2.205   6.253
10514TIP3    H231482   5.263   2.158   6.139
10515TIP3   OH231483   4.610   3.433   5.761
10515TIP3    H131484   4.589   3.504   5.700
10515TIP3    H231485   4.600   3.473   5.848
10516TIP3   OH231486   4.709   2.141   6.001
10516TIP3    H131487   4.701   2.232   6.030
10516TIP3    H231488   4.803   2.123   6.006
10517TIP3   OH231489   5.954   2.632   6.890
10517TIP3    H131490   5.859   2.632   6.897
10517TIP3    H231491   5.972   2.597   6.803
10518TIP3   OH231492   5.601   2.813   6.284
10518TIP3    H131493   5.531   2.748   6.294
10518TIP3    H231494   5.676   2.773   6.329
10519TIP3   OH231495   4.344   3.039   5.741
10519TIP3    H131496   4.416   3.102   5.752
10519TIP3    H231497   4.377   2.975   5.678
10520TIP3   OH231498   4.257   2.319   5.904
10520TIP3    H131499   4.270   2.413   5.902
10520TIP3    H231500   4.182   2.303   5.846
10521TIP3   OH231501   5.588   3.799   6.212
10521TIP3    H131502   5.543   3.846   6.142
10521TIP3    H231503   5.681   3.817   6.198
10522TIP3   OH231504   4.647   2.046   6.743
10522TIP3    H131505   4.624   2.006   6.659
10522TIP3    H231506   4.649   1.973   6.805
10523TIP3   OH231507   4.190   3.290   6.138
10523TIP3    H131508   4.137   3.320   6.212
10523TIP3    H231509   4.149   3.330   6.061
10524TIP3   OH231510   7.223   7.835   0.260
10524TIP3    H131511   7.302   7.846   0.313
10524TIP3    H231512   7.213   7.741   0.249
10525TIP3   OH231513   7.678   7.762   0.306
10525TIP3    H131514   7.771   7.739   0.312
10525TIP3    H231515   7.644   7.706   0.236
10526TIP3   OH231516   4.810   3.347   5.370
10526TIP3    H131517   4.762   3.276   5.413
10526TIP3    H231518   4.885   3.305   5.329
10527TIP3   OH231519   8.298   7.692   0.057
10527TIP3    H131520   8.311   7.622   0.121
10527TIP3    H231521   8.373   7.750   0.071
10528TIP3   OH231522   5.249   3.382   5.293
10528TIP3    H131523   5.286   3.319   5.355
10528TIP3    H231524   5.309   3.378   5.218
10529TIP3   OH231525   7.318   7.239   0.457
10529TIP3    H131526   7.342   7.147   0.464
10529TIP3    H231527   7.232   7.239   0.416
10530TIP3   OH231528   4.472   2.846   5.597
10530TIP3    H131529   4.524   2.822   5.674
10530TIP3    H231530   4.536   2.858   5.527
10531TIP3   OH231531   7.935   7.322   0.233
10531TIP3    H131532   7.890   7.342   0.151
10531TIP3    H231533   7.969   7.233   0.221
10532TIP3   OH231534   5.005   3.063   5.413
10532TIP3    H131535   4.998   3.078   5.508
10532TIP3    H231536   5.000   2.968   5.403
10533TIP3   OH231537   5.588   3.351   6.793
10533TIP3    H131538   5.662   3.376   6.738
10533TIP3    H231539   5.519   3.414   6.770
10534TIP3   OH231540   7.435   6.985   0.451
10534TIP3    H131541   7.499   6.922   0.419
10534TIP3    H231542   7.464   7.007   0.540
10535TIP3   OH231543   4.652   2.781   5.804
10535TIP3    H131544   4.634   2.750   5.892
10535TIP3    H231545   4.698   2.709   5.762
10536TIP3   OH231546   7.776   6.851   0.106
10536TIP3    H131547   7.699   6.907   0.115
10536TIP3    H231548   7.821   6.885   0.029
10537TIP3   OH231549   4.784   2.588   5.651
10537TIP3    H131550   4.756   2.592   5.560
10537TIP3    H231551   4.879   2.594   5.648
10538TIP3   OH231552   8.299   7.245   0.221
10538TIP3    H131553   8.360   7.202   0.161
10538TIP3    H231554   8.292   7.185   0.295
10539TIP3   OH231555   5.586   2.892   5.330
10539TIP3    H131556   5.572   2.847   5.246
10539TIP3    H231557   5.558   2.982   5.314
10540TIP3   OH231558   7.898   6.637   0.225
10540TIP3    H131559   7.901   6.563   0.165
10540TIP3    H231560   7.857   6.707   0.175
10541TIP3   OH231561   5.071   2.426   6.970
10541TIP3    H131562   5.097   2.463   6.886
10541TIP3    H231563   4.981   2.397   6.957
10542TIP3   OH231564   5.088   2.957   6.848
10542TIP3    H131565   5.176   2.971   6.813
10542TIP3    H231566   5.034   3.019   6.800
10543TIP3   OH231567   0.009   6.920   0.277
10543TIP3    H131568   0.040   6.830   0.284
10543TIP3    H231569   0.082   6.968   0.237
10544TIP3   OH231570   5.704   3.177   6.965
10544TIP3    H131571   5.652   3.238   6.913
10544TIP3    H231572   5.794   3.189   6.933
10545TIP3   OH231573   7.782   6.734   0.464
10545TIP3    H131574   7.705   6.680   0.484
10545TIP3    H231575   7.810   6.704   0.378
10546TIP3   OH231576   8.038   6.205   0.117
10546TIP3    H131577   7.994   6.285   0.090
10546TIP3    H231578   7.972   6.137   0.109
10547TIP3   OH231579   8.153   6.687   0.322
10547TIP3    H131580   8.143   6.674   0.416
10547TIP3    H231581   8.067   6.665   0.285
10548TIP3   OH231582   8.401   6.642   0.195
10548TIP3    H131583   8.322   6.638   0.248
10548TIP3    H231584   8.470   6.607   0.252
10549TIP3   OH231585   0.135   6.589   0.343
10549TIP3    H131586   0.147   6.494   0.351
10549TIP3    H231587   0.129   6.620   0.433
10550TIP3   OH231588   7.610   6.511   0.511
10550TIP3    H131589   7.616   6.420   0.480
10550TIP3    H231590   7.660   6.512   0.592
10551TIP3   OH231591   8.104   6.184   0.380
10551TIP3    H131592   8.174   6.119   0.378
10551TIP3    H231593   8.075   6.190   0.289
10552TIP3   OH231594   8.191   6.422   0.489
10552TIP3    H131595   8.159   6.344   0.442
10552TIP3    H231596   8.114   6.477   0.499
10553TIP3   OH231597   4.599   3.640   5.576
10553TIP3    H131598   4.691   3.622   5.554
10553TIP3    H231599   4.565   3.686   5.499
10554TIP3   OH231600   4.071   3.021   5.767
10554TIP3    H131601   4.165   3.037   5.760
10554TIP3    H231602   4.059   2.934   5.731
10555TIP3   OH231603   3.974   3.618   6.220
10555TIP3    H131604   3.911   3.561   6.175
10555TIP3    H231605   4.020   3.560   6.280
10556TIP3   OH231606   4.115   3.455   6.392
10556TIP3    H131607   4.104   3.385   6.457
10556TIP3    H231608   4.170   3.520   6.437
10557TIP3   OH231609   5.846   3.887   6.191
10557TIP3    H131610   5.882   3.903   6.278
10557TIP3    H231611   5.917   3.907   6.131
10558TIP3   OH231612   5.880   3.885   6.476
10558TIP3    H131613   5.832   3.803   6.466
10558TIP3    H231614   5.950   3.863   6.537
10559TIP3   OH231615   0.263   7.585   0.112
10559TIP3    H131616   0.190   7.594   0.173
10559TIP3    H231617   0.305   7.671   0.113
10560TIP3   OH231618   5.751   3.089   5.668
10560TIP3    H131619   5.809   3.158   5.636
10560TIP3    H231620   5.792   3.059   5.749
10561TIP3   OH231621   5.879   2.967   5.889
10561TIP3    H131622   5.802   2.917   5.919
10561TIP3    H231623   5.897   3.028   5.961
10562TIP3   OH231624   5.947   3.358   6.277
10562TIP3    H131625   5.913   3.276   6.242
10562TIP3    H231626   5.904   3.426   6.224
10563TIP3   OH231627   5.741   3.642   6.489
10563TIP3    H131628   5.672   3.685   6.540
10563TIP3    H231629   5.694   3.599   6.418
10564TIP3   OH231630   5.793   2.869   5.508
10564TIP3    H131631   5.722   2.869   5.445
10564TIP3    H231632   5.776   2.944   5.565
10565TIP3   OH231633   5.659   2.520   5.449
10565TIP3    H131634   5.611   2.560   5.377
10565TIP3    H231635   5.644   2.426   5.439
10566TIP3   OH231636   5.669   2.836   6.007
10566TIP3    H131637   5.674   2.750   6.047
10566TIP3    H231638   5.675   2.897   6.080
10567TIP3   OH231639   4.296   2.879   6.758
10567TIP3    H131640   4.289   2.845   6.669
10567TIP3    H231641   4.390   2.876   6.777
10568TIP3   OH231642   5.955   3.228   6.857
10568TIP3    H131643   6.024   3.164   6.840
10568TIP3    H231644   5.945   3.275   6.774
10569TIP3   OH231645   6.140   3.023   6.860
10569TIP3    H131646   6.063   2.981   6.900
10569TIP3    H231647   6.213   2.965   6.882
10570TIP3   OH231648   5.609   2.250   5.422
10570TIP3    H131649   5.674   2.224   5.487
10570TIP3    H231650   5.528   2.207   5.450
10571TIP3   OH231651   5.660   2.515   5.878
10571TIP3    H131652   5.710   2.434   5.890
10571TIP3    H231653   5.714   2.567   5.819
10572TIP3   OH231654   5.830   2.693   6.404
10572TIP3    H131655   5.906   2.721   6.352
10572TIP3    H231656   5.842   2.735   6.489
10573TIP3   OH231657   5.899   2.847   6.633
10573TIP3    H131658   5.820   2.875   6.679
10573TIP3    H231659   5.931   2.926   6.590
10574TIP3   OH231660   7.345   6.563   0.467
10574TIP3    H131661   7.439   6.566   0.486
10574TIP3    H231662   7.314   6.484   0.512
10575TIP3   OH231663   0.691   6.456   0.235
10575TIP3    H131664   0.750   6.394   0.192
10575TIP3    H231665   0.652   6.505   0.162
10576TIP3   OH231666   5.790   2.273   5.932
10576TIP3    H131667   5.833   2.261   6.017
10576TIP3    H231668   5.725   2.202   5.928
10577TIP3   OH231669   4.472   2.260   6.727
10577TIP3    H131670   4.528   2.186   6.749
10577TIP3    H231671   4.528   2.337   6.735
10578TIP3   OH231672   4.277   2.523   6.819
10578TIP3    H131673   4.329   2.532   6.740
10578TIP3    H231674   4.294   2.603   6.869
10579TIP3   OH231675   0.543   6.571   0.036
10579TIP3    H131676   0.458   6.612   0.049
10579TIP3    H231677   0.525   6.494  -0.018
10580TIP3   OH231678   5.841   2.203   5.574
10580TIP3    H131679   5.885   2.140   5.518
10580TIP3    H231680   5.899   2.279   5.576
10581TIP3   OH231681   5.417   3.757   5.839
10581TIP3    H131682   5.473   3.744   5.762
10581TIP3    H231683   5.463   3.822   5.892
10582TIP3   OH231684   7.331   6.131   0.187
10582TIP3    H131685   7.278   6.115   0.266
10582TIP3    H231686   7.269   6.170   0.125
10583TIP3   OH231687   7.351   7.558   0.282
10583TIP3    H131688   7.259   7.535   0.270
10583TIP3    H231689   7.369   7.538   0.374
10584TIP3   OH231690   4.719   3.594   6.771
10584TIP3    H131691   4.667   3.667   6.738
10584TIP3    H231692   4.804   3.603   6.728
10585TIP3   OH231693   5.131   3.827   6.907
10585TIP3    H131694   5.170   3.822   6.995
10585TIP3    H231695   5.193   3.880   6.857
10586TIP3   OH231696   5.317   3.983   6.776
10586TIP3    H131697   5.377   3.931   6.723
10586TIP3    H231698   5.374   4.039   6.830
10587TIP3   OH231699   6.121   2.321   6.866
10587TIP3    H131700   6.034   2.317   6.828
10587TIP3    H231701   6.155   2.232   6.859
10588TIP3   OH231702   4.388   3.846   6.813
10588TIP3    H131703   4.295   3.863   6.794
10588TIP3    H231704   4.410   3.909   6.882
10589TIP3   OH231705   4.616   3.825   6.661
10589TIP3    H131706   4.533   3.833   6.709
10589TIP3    H231707   4.594   3.852   6.571
10590TIP3   OH231708   5.035   3.844   6.456
10590TIP3    H131709   4.968   3.856   6.389
10590TIP3    H231710   5.046   3.930   6.496
10591TIP3   OH231711   5.302   3.789   6.515
10591TIP3    H131712   5.210   3.802   6.491
10591TIP3    H231713   5.350   3.852   6.461
10592TIP3   OH231714   5.506   3.967   6.414
10592TIP3    H131715   5.498   4.052   6.372
10592TIP3    H231716   5.535   3.908   6.344
10593TIP3   OH231717   4.298   3.622   6.539
10593TIP3    H131718   4.322   3.595   6.628
10593TIP3    H231719   4.368   3.588   6.484
10594TIP3   OH231720   4.497   3.503   6.397
10594TIP3    H131721   4.507   3.419   6.441
10594TIP3    H231722   4.584   3.543   6.399
10595TIP3   OH231723   4.763   3.591   6.415
10595TIP3    H131724   4.784   3.499   6.401
10595TIP3    H231725   4.815   3.616   6.491
10596TIP3   OH231726   5.325   2.244   6.496
10596TIP3    H131727   5.286   2.173   6.546
10596TIP3    H231728   5.396   2.202   6.447
10597TIP3   OH231729   5.833   2.146   6.393
10597TIP3    H131730   5.871   2.196   6.320
10597TIP3    H231731   5.741   2.171   6.394
10598TIP3   OH231732   5.945   2.228   6.157
10598TIP3    H131733   6.016   2.170   6.127
10598TIP3    H231734   5.980   2.317   6.144
10599TIP3   OH231735   4.559   1.944   6.497
10599TIP3    H131736   4.474   1.902   6.513
10599TIP3    H231737   4.621   1.871   6.490
10600TIP3   OH231738   4.370   1.848   6.139
10600TIP3    H131739   4.417   1.886   6.065
10600TIP3    H231740   4.284   1.889   6.137
10601TIP3   OH231741   5.028   1.998   6.394
10601TIP3    H131742   5.084   2.038   6.327
10601TIP3    H231743   5.071   2.019   6.477
10602TIP3   OH231744   5.546   2.132   6.372
10602TIP3    H131745   5.559   2.097   6.284
10602TIP3    H231746   5.547   2.054   6.429
10603TIP3   OH231747   5.597   2.069   5.937
10603TIP3    H131748   5.517   2.117   5.959
10603TIP3    H231749   5.586   1.983   5.977
10604TIP3   OH231750   4.072   3.408   5.922
10604TIP3    H131751   3.988   3.370   5.897
10604TIP3    H231752   4.069   3.497   5.888
10605TIP3   OH231753   4.496   1.974   5.918
10605TIP3    H131754   4.541   1.915   5.858
10605TIP3    H231755   4.565   2.031   5.952
10606TIP3   OH231756   4.984   2.172   6.016
10606TIP3    H131757   5.044   2.120   6.069
10606TIP3    H231758   5.000   2.263   6.043
10607TIP3   OH231759   4.860   3.575   5.513
10607TIP3    H131760   4.944   3.602   5.477
10607TIP3    H231761   4.832   3.502   5.457
10608TIP3   OH231762   5.567   3.712   5.609
10608TIP3    H131763   5.562   3.617   5.601
10608TIP3    H231764   5.523   3.745   5.531
10609TIP3   OH231765   7.634   6.240   0.436
10609TIP3    H131766   7.602   6.165   0.486
10609TIP3    H231767   7.726   6.249   0.461
10610TIP3   OH231768   7.892   6.253   0.542
10610TIP3    H131769   7.964   6.233   0.482
10610TIP3    H231770   7.905   6.194   0.616
10611TIP3   OH231771   4.167   3.417   5.573
10611TIP3    H131772   4.169   3.414   5.669
10611TIP3    H231773   4.247   3.372   5.545
10612TIP3   OH231774   0.198   6.317   0.355
10612TIP3    H131775   0.216   6.289   0.445
10612TIP3    H231776   0.284   6.313   0.312
10613TIP3   OH231777   5.786   3.851   6.801
10613TIP3    H131778   5.713   3.819   6.748
10613TIP3    H231779   5.773   3.945   6.806
10614TIP3   OH231780   7.061   3.237   5.546
10614TIP3    H131781   7.032   3.324   5.519
10614TIP3    H231782   6.990   3.179   5.519
10615TIP3   OH231783   7.063   3.227   5.958
10615TIP3    H131784   7.109   3.207   6.040
10615TIP3    H231785   7.016   3.146   5.937
10616TIP3   OH231786   6.386   3.112   6.288
10616TIP3    H131787   6.411   3.052   6.358
10616TIP3    H231788   6.468   3.135   6.245
10617TIP3   OH231789   7.322   3.535   5.636
10617TIP3    H131790   7.308   3.469   5.705
10617TIP3    H231791   7.346   3.614   5.684
10618TIP3   OH231792   6.357   3.542   6.020
10618TIP3    H131793   6.347   3.448   6.028
10618TIP3    H231794   6.450   3.555   6.002
10619TIP3   OH231795   6.032   2.742   5.800
10619TIP3    H131796   5.989   2.820   5.836
10619TIP3    H231797   5.961   2.693   5.758
10620TIP3   OH231798   6.161   3.048   6.002
10620TIP3    H131799   6.178   2.961   6.038
10620TIP3    H231800   6.134   3.031   5.911
10621TIP3   OH231801   6.974   3.979   5.645
10621TIP3    H131802   7.007   3.913   5.584
10621TIP3    H231803   6.957   3.932   5.726
10622TIP3   OH231804   6.861   3.455   5.972
10622TIP3    H131805   6.898   3.375   5.936
10622TIP3    H231806   6.937   3.506   6.001
10623TIP3   OH231807   7.882   2.773   5.985
10623TIP3    H131808   7.898   2.862   6.017
10623TIP3    H231809   7.914   2.775   5.894
10624TIP3   OH231810   7.279   2.944   6.008
10624TIP3    H131811   7.314   2.858   6.032
10624TIP3    H231812   7.240   2.929   5.922
10625TIP3   OH231813   6.628   2.603   5.967
10625TIP3    H131814   6.605   2.676   5.910
10625TIP3    H231815   6.573   2.531   5.936
10626TIP3   OH231816   7.321   2.701   5.600
10626TIP3    H131817   7.387   2.692   5.669
10626TIP3    H231818   7.370   2.735   5.525
10627TIP3   OH231819   6.248   2.801   6.095
10627TIP3    H131820   6.333   2.788   6.138
10627TIP3    H231821   6.257   2.754   6.012
10628TIP3   OH231822   6.681   3.013   5.890
10628TIP3    H131823   6.774   2.993   5.902
10628TIP3    H231824   6.642   2.931   5.859
10629TIP3   OH231825   7.945   2.994   6.159
10629TIP3    H131826   7.858   3.032   6.146
10629TIP3    H231827   7.975   3.032   6.242
10630TIP3   OH231828   6.606   2.599   6.422
10630TIP3    H131829   6.556   2.633   6.347
10630TIP3    H231830   6.551   2.617   6.498
10631TIP3   OH231831   6.962   3.455   5.403
10631TIP3    H131832   6.919   3.427   5.322
10631TIP3    H231833   6.909   3.528   5.435
10632TIP3   OH231834   6.715   3.382   6.197
10632TIP3    H131835   6.651   3.447   6.228
10632TIP3    H231836   6.754   3.423   6.120
10633TIP3   OH231837   7.493   2.716   5.813
10633TIP3    H131838   7.453   2.694   5.897
10633TIP3    H231839   7.549   2.791   5.832
10634TIP3   OH231840   6.496   2.705   6.191
10634TIP3    H131841   6.551   2.780   6.216
10634TIP3    H231842   6.543   2.665   6.117
10635TIP3   OH231843   6.546   3.578   6.297
10635TIP3    H131844   6.525   3.665   6.262
10635TIP3    H231845   6.468   3.554   6.348
10636TIP3   OH231846   5.925   3.274   5.543
10636TIP3    H131847   5.888   3.294   5.457
10636TIP3    H231848   5.951   3.359   5.578
10637TIP3   OH231849   7.370   3.783   5.778
10637TIP3    H131850   7.284   3.773   5.819
10637TIP3    H231851   7.366   3.866   5.732
10638TIP3   OH231852   7.682   2.665   6.151
10638TIP3    H131853   7.595   2.688   6.117
10638TIP3    H231854   7.742   2.694   6.083
10639TIP3   OH231855   6.952   2.298   6.141
10639TIP3    H131856   6.941   2.205   6.164
10639TIP3    H231857   6.877   2.341   6.182
10640TIP3   OH231858   7.072   3.820   5.437
10640TIP3    H131859   7.123   3.739   5.426
10640TIP3    H231860   7.131   3.889   5.407
10641TIP3   OH231861   7.212   3.591   5.387
10641TIP3    H131862   7.142   3.526   5.379
10641TIP3    H231863   7.260   3.565   5.466
10642TIP3   OH231864   7.598   3.679   6.124
10642TIP3    H131865   7.581   3.603   6.068
10642TIP3    H231866   7.582   3.755   6.068
10643TIP3   OH231867   6.889   3.078   5.393
10643TIP3    H131868   6.807   3.124   5.376
10643TIP3    H231869   6.934   3.077   5.309
10644TIP3   OH231870   6.854   2.876   5.092
10644TIP3    H131871   6.920   2.925   5.141
10644TIP3    H231872   6.905   2.810   5.044
10645TIP3   OH231873   7.783   3.331   5.987
10645TIP3    H131874   7.700   3.377   5.988
10645TIP3    H231875   7.817   3.345   5.899
10646TIP3   OH231876   7.244   3.164   5.356
10646TIP3    H131877   7.189   3.193   5.429
10646TIP3    H231878   7.327   3.139   5.396
10647TIP3   OH231879   7.473   3.197   6.289
10647TIP3    H131880   7.470   3.280   6.337
10647TIP3    H231881   7.389   3.194   6.242
10648TIP3   OH231882   6.468   3.149   5.769
10648TIP3    H131883   6.431   3.089   5.704
10648TIP3    H231884   6.543   3.101   5.806
10649TIP3   OH231885   6.611   3.581   5.901
10649TIP3    H131886   6.583   3.552   5.814
10649TIP3    H231887   6.694   3.536   5.915
10650TIP3   OH231888   6.629   3.124   6.144
10650TIP3    H131889   6.640   3.103   6.051
10650TIP3    H231890   6.654   3.217   6.151
10651TIP3   OH231891   7.136   3.774   5.913
10651TIP3    H131892   7.119   3.852   5.966
10651TIP3    H231893   7.119   3.700   5.972
10652TIP3   OH231894   6.745   3.681   6.458
10652TIP3    H131895   6.685   3.741   6.503
10652TIP3    H231896   6.688   3.629   6.401
10653TIP3   OH231897   7.077   3.024   5.187
10653TIP3    H131898   7.136   3.082   5.236
10653TIP3    H231899   7.104   3.034   5.096
10654TIP3   OH231900   6.500   3.224   6.594
10654TIP3    H131901   6.504   3.318   6.612
10654TIP3    H231902   6.406   3.204   6.588
10655TIP3   OH231903   6.827   3.693   5.453
10655TIP3    H131904   6.907   3.746   5.454
10655TIP3    H231905   6.764   3.746   5.404
10656TIP3   OH231906   6.536   3.843   6.541
10656TIP3    H131907   6.510   3.849   6.449
10656TIP3    H231908   6.455   3.824   6.588
10657TIP3   OH231909   7.589   2.255   5.244
10657TIP3    H131910   7.511   2.274   5.295
10657TIP3    H231911   7.602   2.333   5.189
10658TIP3   OH231912   6.345   2.992   5.562
10658TIP3    H131913   6.270   3.040   5.526
10658TIP3    H231914   6.310   2.906   5.584
10659TIP3   OH231915   7.391   3.631   4.792
10659TIP3    H131916   7.394   3.724   4.774
10659TIP3    H231917   7.480   3.599   4.774
10660TIP3   OH231918   6.129   3.382   6.481
10660TIP3    H131919   6.066   3.373   6.410
10660TIP3    H231920   6.162   3.293   6.495
10661TIP3   OH231921   5.977   3.589   6.108
10661TIP3    H131922   6.052   3.529   6.110
10661TIP3    H231923   5.996   3.654   6.176
10662TIP3   OH231924   7.833   4.040   6.186
10662TIP3    H131925   7.839   3.945   6.194
10662TIP3    H231926   7.752   4.063   6.232
10663TIP3   OH231927   6.936   3.817   6.314
10663TIP3    H131928   6.931   3.908   6.342
10663TIP3    H231929   6.867   3.773   6.364
10664TIP3   OH231930   6.714   3.932   5.267
10664TIP3    H131931   6.665   3.909   5.188
10664TIP3    H231932   6.676   4.015   5.296
10665TIP3   OH231933   6.147   3.778   5.647
10665TIP3    H131934   6.189   3.772   5.733
10665TIP3    H231935   6.097   3.697   5.639
10666TIP3   OH231936   6.915   3.850   4.900
10666TIP3    H131937   6.966   3.777   4.864
10666TIP3    H231938   6.949   3.861   4.989
10667TIP3   OH231939   6.967   3.895   5.170
10667TIP3    H131940   6.880   3.903   5.208
10667TIP3    H231941   7.020   3.857   5.240
10668TIP3   OH231942   7.714   3.154   6.462
10668TIP3    H131943   7.635   3.166   6.409
10668TIP3    H231944   7.735   3.061   6.455
10669TIP3   OH231945   6.328   3.571   6.466
10669TIP3    H131946   6.377   3.555   6.546
10669TIP3    H231947   6.257   3.506   6.468
10670TIP3   OH231948   6.717   2.391   6.270
10670TIP3    H131949   6.634   2.357   6.237
10670TIP3    H231950   6.694   2.470   6.319
10671TIP3   OH231951   7.252   2.506   6.463
10671TIP3    H131952   7.321   2.479   6.523
10671TIP3    H231953   7.170   2.488   6.510
10672TIP3   OH231954   7.484   2.933   6.383
10672TIP3    H131955   7.437   2.931   6.466
10672TIP3    H231956   7.464   3.020   6.347
10673TIP3   OH231957   7.159   3.029   4.927
10673TIP3    H131958   7.114   3.024   4.842
10673TIP3    H231959   7.240   3.076   4.908
10674TIP3   OH231960   6.867   2.429   5.237
10674TIP3    H131961   6.832   2.435   5.326
10674TIP3    H231962   6.828   2.349   5.202
10675TIP3   OH231963   6.663   2.902   6.292
10675TIP3    H131964   6.609   2.916   6.370
10675TIP3    H231965   6.653   2.983   6.241
10676TIP3   OH231966   6.536   2.795   5.797
10676TIP3    H131967   6.446   2.774   5.822
10676TIP3    H231968   6.545   2.759   5.708
10677TIP3   OH231969   7.019   2.876   5.528
10677TIP3    H131970   6.970   2.947   5.487
10677TIP3    H231971   7.076   2.843   5.458
10678TIP3   OH231972   7.201   3.147   6.606
10678TIP3    H131973   7.172   3.078   6.666
10678TIP3    H231974   7.294   3.158   6.626
10679TIP3   OH231975   7.185   2.893   5.755
10679TIP3    H131976   7.116   2.918   5.693
10679TIP3    H231977   7.227   2.817   5.714
10680TIP3   OH231978   6.483   2.935   6.495
10680TIP3    H131979   6.474   3.004   6.561
10680TIP3    H231980   6.460   2.854   6.542
10681TIP3   OH231981   6.529   2.413   5.210
10681TIP3    H131982   6.520   2.414   5.305
10681TIP3    H231983   6.452   2.459   5.177
10682TIP3   OH231984   6.073   2.451   6.078
10682TIP3    H131985   6.144   2.487   6.130
10682TIP3    H231986   6.112   2.430   5.993
10683TIP3   OH231987   6.004   2.433   5.588
10683TIP3    H131988   6.048   2.468   5.510
10683TIP3    H231989   5.944   2.503   5.614
10684TIP3   OH231990   7.215   3.142   6.180
10684TIP3    H131991   7.242   3.075   6.117
10684TIP3    H231992   7.174   3.093   6.251
10685TIP3   OH231993   6.892   2.594   5.854
10685TIP3    H131994   6.812   2.595   5.907
10685TIP3    H231995   6.963   2.588   5.918
10686TIP3   OH231996   6.295   2.675   5.855
10686TIP3    H131997   6.204   2.683   5.826
10686TIP3    H231998   6.318   2.584   5.838
10687TIP3   OH231999   6.554   2.669   5.554
10687TIP3    H132000   6.647   2.684   5.539
10687TIP3    H232001   6.512   2.690   5.470
10688TIP3   OH232002   7.355   2.680   6.060
10688TIP3    H132003   7.332   2.698   6.151
10688TIP3    H232004   7.286   2.620   6.029
10689TIP3   OH232005   6.425   2.699   5.314
10689TIP3    H132006   6.359   2.651   5.264
10689TIP3    H232007   6.479   2.743   5.248
10690TIP3   OH232008   7.535   4.378   6.286
10690TIP3    H132009   7.533   4.395   6.192
10690TIP3    H232010   7.612   4.426   6.317
10691TIP3   OH232011   6.486   3.488   6.697
10691TIP3    H132012   6.565   3.511   6.745
10691TIP3    H232013   6.416   3.492   6.762
10692TIP3   OH232014   6.949   2.953   5.959
10692TIP3    H132015   7.015   2.901   5.912
10692TIP3    H232016   6.945   2.914   6.046
10693TIP3   OH232017   6.448   2.424   5.846
10693TIP3    H132018   6.416   2.349   5.897
10693TIP3    H232019   6.477   2.386   5.763
10694TIP3   OH232020   6.926   2.856   6.225
10694TIP3    H132021   6.837   2.882   6.249
10694TIP3    H232022   6.982   2.910   6.280
10695TIP3   OH232023   6.653   3.220   5.341
10695TIP3    H132024   6.579   3.162   5.320
10695TIP3    H232025   6.630   3.257   5.426
10696TIP3   OH232026   7.546   3.469   5.952
10696TIP3    H132027   7.578   3.518   5.876
10696TIP3    H232028   7.465   3.428   5.921
10697TIP3   OH232029   7.118   2.533   5.230
10697TIP3    H132030   7.025   2.512   5.230
10697TIP3    H232031   7.121   2.628   5.246
10698TIP3   OH232032   7.063   3.556   6.344
10698TIP3    H132033   7.095   3.543   6.434
10698TIP3    H232034   7.017   3.640   6.347
10699TIP3   OH232035   7.180   2.794   5.310
10699TIP3    H132036   7.275   2.800   5.320
10699TIP3    H232037   7.156   2.872   5.259
10700TIP3   OH232038   6.381   3.269   6.013
10700TIP3    H132039   6.400   3.229   5.928
10700TIP3    H232040   6.339   3.200   6.064
10701TIP3   OH232041   6.804   3.380   5.180
10701TIP3    H132042   6.758   3.464   5.178
10701TIP3    H232043   6.749   3.323   5.233
10702TIP3   OH232044   6.235   3.146   6.623
10702TIP3    H132045   6.229   3.124   6.716
10702TIP3    H232046   6.156   3.110   6.584
10703TIP3   OH232047   6.962   3.294   6.647
10703TIP3    H132048   6.892   3.237   6.615
10703TIP3    H232049   7.043   3.255   6.613
10704TIP3   OH232050   7.209   3.833   6.235
10704TIP3    H132051   7.115   3.819   6.242
10704TIP3    H232052   7.234   3.873   6.319
10705TIP3   OH232053   7.601   2.882   5.132
10705TIP3    H132054   7.546   2.835   5.070
10705TIP3    H232055   7.603   2.972   5.098
10706TIP3   OH232056   7.846   3.760   6.210
10706TIP3    H132057   7.751   3.746   6.211
10706TIP3    H232058   7.875   3.724   6.127
10707TIP3   OH232059   7.338   3.698   5.063
10707TIP3    H132060   7.303   3.631   5.122
10707TIP3    H232061   7.343   3.654   4.978
10708TIP3   OH232062   7.315   3.334   5.853
10708TIP3    H132063   7.225   3.310   5.875
10708TIP3    H232064   7.352   3.255   5.814
10709TIP3   OH232065   6.461   3.567   5.652
10709TIP3    H132066   6.456   3.644   5.596
10709TIP3    H232067   6.370   3.548   5.674
10710TIP3   OH232068   6.026   2.858   5.361
10710TIP3    H132069   6.070   2.941   5.380
10710TIP3    H232070   5.947   2.860   5.414
10711TIP3   OH232071   6.569   3.324   5.576
10711TIP3    H132072   6.544   3.413   5.599
10711TIP3    H232073   6.537   3.270   5.648
10712TIP3   OH232074   6.742   3.896   6.111
10712TIP3    H132075   6.780   3.967   6.059
10712TIP3    H232076   6.817   3.859   6.158
10713TIP3   OH232077   6.380   3.796   5.500
10713TIP3    H132078   6.293   3.800   5.541
10713TIP3    H232079   6.413   3.886   5.504
10714TIP3   OH232080   7.106   3.546   6.073
10714TIP3    H132081   7.096   3.544   6.168
10714TIP3    H232082   7.176   3.484   6.055
10715TIP3   OH232083   7.089   3.433   4.950
10715TIP3    H132084   7.139   3.407   5.028
10715TIP3    H232085   7.003   3.393   4.963
10716TIP3   OH232086   7.359   4.060   6.120
10716TIP3    H132087   7.286   3.998   6.130
10716TIP3    H232088   7.332   4.118   6.049
10717TIP3   OH232089   7.413   3.904   4.759
10717TIP3    H132090   7.438   3.967   4.692
10717TIP3    H232091   7.340   3.945   4.805
10718TIP3   OH232092   6.432   2.679   6.626
10718TIP3    H132093   6.336   2.688   6.629
10718TIP3    H232094   6.453   2.622   6.699
10719TIP3   OH232095   7.260   3.352   5.149
10719TIP3    H132096   7.246   3.297   5.226
10719TIP3    H232097   7.356   3.358   5.142
10720TIP3   OH232098   6.157   3.770   6.272
10720TIP3    H132099   6.212   3.700   6.307
10720TIP3    H232100   6.184   3.848   6.322
10721TIP3   OH232101   6.452   3.401   4.959
10721TIP3    H132102   6.460   3.309   4.932
10721TIP3    H232103   6.431   3.397   5.052
10722TIP3   OH232104   6.390   3.417   5.229
10722TIP3    H132105   6.457   3.389   5.291
10722TIP3    H232106   6.390   3.513   5.236
10723TIP3   OH232107   6.124   3.109   5.439
10723TIP3    H132108   6.059   3.153   5.493
10723TIP3    H232109   6.141   3.169   5.368
10724TIP3   OH232110   7.289   2.740   6.320
10724TIP3    H132111   7.367   2.781   6.357
10724TIP3    H232112   7.275   2.662   6.374
10725TIP3   OH232113   7.174   2.484   5.502
10725TIP3    H132114   7.153   2.503   5.410
10725TIP3    H232115   7.215   2.564   5.534
10726TIP3   OH232116   6.664   3.612   5.177
10726TIP3    H132117   6.577   3.633   5.212
10726TIP3    H232118   6.683   3.683   5.116
10727TIP3   OH232119   6.836   2.680   5.594
10727TIP3    H132120   6.897   2.749   5.571
10727TIP3    H232121   6.852   2.664   5.687
10728TIP3   OH232122   7.126   2.978   6.382
10728TIP3    H132123   7.149   3.023   6.463
10728TIP3    H232124   7.176   2.897   6.384
10729TIP3   OH232125   6.991   2.386   5.689
10729TIP3    H132126   6.967   2.463   5.740
10729TIP3    H232127   7.057   2.417   5.627
10730TIP3   OH232128   6.409   3.690   5.248
10730TIP3    H132129   6.386   3.760   5.186
10730TIP3    H232130   6.396   3.729   5.334
10731TIP3   OH232131   6.505   2.399   5.488
10731TIP3    H132132   6.494   2.489   5.520
10731TIP3    H232133   6.600   2.383   5.494
10732TIP3   OH232134   7.749   2.884   6.377
10732TIP3    H132135   7.654   2.888   6.385
10732TIP3    H232136   7.765   2.843   6.293
10733TIP3   OH232137   7.408   3.080   5.757
10733TIP3    H132138   7.330   3.025   5.767
10733TIP3    H232139   7.475   3.037   5.810
10734TIP3   OH232140   6.138   3.294   5.228
10734TIP3    H132141   6.206   3.360   5.236
10734TIP3    H232142   6.172   3.231   5.165
10735TIP3   OH232143   6.060   2.582   5.363
10735TIP3    H132144   6.070   2.676   5.369
10735TIP3    H232145   5.985   2.570   5.303
10736TIP3   OH232146   7.384   4.053   5.700
10736TIP3    H132147   7.339   4.102   5.631
10736TIP3    H232148   7.477   4.069   5.683
10737TIP3   OH232149   6.458   2.301   6.230
10737TIP3    H132150   6.426   2.269   6.145
10737TIP3    H232151   6.446   2.227   6.289
10738TIP3   OH232152   5.980   3.548   5.620
10738TIP3    H132153   5.932   3.582   5.696
10738TIP3    H232154   5.939   3.590   5.545
10739TIP3   OH232155   6.166   4.085   6.692
10739TIP3    H132156   6.250   4.086   6.738
10739TIP3    H232157   6.145   3.992   6.681
10740TIP3   OH232158   6.636   4.012   6.735
10740TIP3    H132159   6.730   3.993   6.740
10740TIP3    H232160   6.605   3.956   6.664
10741TIP3   OH232161   6.607   3.604   4.855
10741TIP3    H132162   6.559   3.532   4.896
10741TIP3    H232163   6.681   3.561   4.811
10742TIP3   OH232164   7.265   3.943   6.482
10742TIP3    H132165   7.274   3.873   6.547
10742TIP3    H232166   7.340   4.000   6.498
10743TIP3   OH232167   7.047   3.643   4.777
10743TIP3    H132168   7.078   3.577   4.839
10743TIP3    H232169   7.107   3.637   4.703
10744TIP3   OH232170   6.277   3.486   6.883
10744TIP3    H132171   6.295   3.392   6.892
10744TIP3    H232172   6.193   3.490   6.836
10745TIP3   OH232173   6.271   3.103   5.085
10745TIP3    H132174   6.323   3.080   5.162
10745TIP3    H232175   6.335   3.114   5.015
10746TIP3   OH232176   6.896   3.570   6.660
10746TIP3    H132177   6.849   3.591   6.579
10746TIP3    H232178   6.926   3.480   6.648
10747TIP3   OH232179   6.825   3.322   4.911
10747TIP3    H132180   6.805   3.336   5.004
10747TIP3    H232181   6.811   3.229   4.897
10748TIP3   OH232182   7.379   3.604   6.279
10748TIP3    H132183   7.454   3.637   6.229
10748TIP3    H232184   7.309   3.666   6.260
10749TIP3   OH232185   6.399   3.233   6.889
10749TIP3    H132186   6.471   3.208   6.832
10749TIP3    H232187   6.440   3.253   6.973
10750TIP3   OH232188   6.448   3.037   5.295
10750TIP3    H132189   6.425   3.006   5.382
10750TIP3    H232190   6.492   2.962   5.254
10751TIP3   OH232191   6.757   3.118   6.550
10751TIP3    H132192   6.669   3.155   6.555
10751TIP3    H232193   6.790   3.147   6.465
10752TIP3   OH232194   6.579   2.844   5.139
10752TIP3    H132195   6.550   2.849   5.049
10752TIP3    H232196   6.675   2.850   5.134
10753TIP3   OH232197   7.260   3.495   6.650
10753TIP3    H132198   7.321   3.453   6.590
10753TIP3    H232199   7.251   3.434   6.723
10754TIP3   OH232200   7.384   3.146   4.812
10754TIP3    H132201   7.367   3.104   4.728
10754TIP3    H232202   7.356   3.237   4.799
10755TIP3   OH232203   6.863   2.887   6.652
10755TIP3    H132204   6.861   2.815   6.589
10755TIP3    H232205   6.825   2.961   6.604
10756TIP3   OH232206   6.867   2.682   6.454
10756TIP3    H132207   6.893   2.719   6.370
10756TIP3    H232208   6.775   2.659   6.442
10757TIP3   OH232209   6.886   3.218   6.333
10757TIP3    H132210   6.972   3.238   6.297
10757TIP3    H232211   6.826   3.277   6.287
10758TIP3   OH232212   7.471   3.169   6.706
10758TIP3    H132213   7.510   3.081   6.712
10758TIP3    H232214   7.541   3.223   6.670
10759TIP3   OH232215   7.503   3.432   6.446
10759TIP3    H132216   7.448   3.492   6.396
10759TIP3    H232217   7.592   3.448   6.414
10760TIP3   OH232218   6.743   2.977   6.894
10760TIP3    H132219   6.673   2.914   6.912
10760TIP3    H232220   6.770   2.958   6.804
10761TIP3   OH232221   6.988   2.448   6.546
10761TIP3    H132222   6.946   2.528   6.515
10761TIP3    H232223   6.922   2.379   6.533
10762TIP3   OH232224   7.116   2.931   6.753
10762TIP3    H132225   7.103   2.920   6.847
10762TIP3    H232226   7.032   2.911   6.714
10763TIP3   OH232227   7.356   2.886   6.615
10763TIP3    H132228   7.279   2.886   6.672
10763TIP3    H232229   7.428   2.860   6.672
10764TIP3   OH232230   7.597   2.851   6.755
10764TIP3    H132231   7.609   2.756   6.761
10764TIP3    H232232   7.591   2.880   6.846
10765TIP3   OH232233   0.911   6.763   0.017
10765TIP3    H132234   0.915   6.675  -0.021
10765TIP3    H232235   0.949   6.753   0.104
10766TIP3   OH232236   7.063   2.432   6.809
10766TIP3    H132237   7.132   2.367   6.799
10766TIP3    H232238   7.026   2.443   6.722
10767TIP3   OH232239   7.150   2.656   6.944
10767TIP3    H132240   7.121   2.583   6.889
10767TIP3    H232241   7.076   2.717   6.945
10768TIP3   OH232242   6.398   3.896   5.063
10768TIP3    H132243   6.488   3.879   5.036
10768TIP3    H232244   6.359   3.942   4.988
10769TIP3   OH232245   5.865   3.274   5.254
10769TIP3    H132246   5.959   3.291   5.247
10769TIP3    H232247   5.853   3.188   5.214
10770TIP3   OH232248   5.772   3.872   5.696
10770TIP3    H132249   5.707   3.817   5.652
10770TIP3    H232250   5.818   3.813   5.755
10771TIP3   OH232251   5.917   3.714   5.867
10771TIP3    H132252   5.908   3.648   5.935
10771TIP3    H232253   5.966   3.785   5.909
10772TIP3   OH232254   7.648   4.125   5.680
10772TIP3    H132255   7.679   4.143   5.769
10772TIP3    H232256   7.720   4.153   5.624
10773TIP3   OH232257   7.682   4.139   5.962
10773TIP3    H132258   7.628   4.060   5.954
10773TIP3    H232259   7.746   4.118   6.029
10774TIP3   OH232260   7.720   3.833   6.535
10774TIP3    H132261   7.647   3.838   6.596
10774TIP3    H232262   7.758   3.921   6.535
10775TIP3   OH232263   7.539   3.345   5.146
10775TIP3    H132264   7.596   3.418   5.121
10775TIP3    H232265   7.582   3.308   5.223
10776TIP3   OH232266   7.665   3.205   5.347
10776TIP3    H132267   7.599   3.167   5.404
10776TIP3    H232268   7.729   3.243   5.408
10777TIP3   OH232269   7.715   3.608   5.778
10777TIP3    H132270   7.764   3.536   5.739
10777TIP3    H232271   7.714   3.676   5.710
10778TIP3   OH232272   7.535   3.901   5.970
10778TIP3    H132273   7.466   3.943   6.022
10778TIP3    H232274   7.489   3.858   5.899
10779TIP3   OH232275   7.587   3.122   4.994
10779TIP3    H132276   7.516   3.121   4.929
10779TIP3    H232277   7.568   3.198   5.048
10780TIP3   OH232278   7.453   2.774   4.931
10780TIP3    H132279   7.405   2.815   4.859
10780TIP3    H232280   7.438   2.681   4.920
10781TIP3   OH232281   7.470   3.066   5.488
10781TIP3    H132282   7.475   2.971   5.476
10781TIP3    H232283   7.452   3.078   5.581
10782TIP3   OH232284   6.114   3.073   6.286
10782TIP3    H132285   6.074   3.089   6.200
10782TIP3    H232286   6.207   3.095   6.273
10783TIP3   OH232287   7.756   3.489   6.346
10783TIP3    H132288   7.822   3.421   6.331
10783TIP3    H232289   7.764   3.547   6.271
10784TIP3   OH232290   7.928   3.278   6.345
10784TIP3    H132291   7.855   3.236   6.389
10784TIP3    H232292   8.003   3.221   6.364
10785TIP3   OH232293   7.403   2.505   4.910
10785TIP3    H132294   7.466   2.478   4.977
10785TIP3    H232295   7.321   2.464   4.937
10786TIP3   OH232296   7.469   2.788   5.372
10786TIP3    H132297   7.513   2.704   5.385
10786TIP3    H232298   7.514   2.827   5.297
10787TIP3   OH232299   7.622   2.953   5.890
10787TIP3    H132300   7.704   2.972   5.844
10787TIP3    H232301   7.633   2.992   5.976
10788TIP3   OH232302   7.692   3.105   6.118
10788TIP3    H132303   7.616   3.136   6.169
10788TIP3    H232304   7.724   3.183   6.074
10789TIP3   OH232305   6.312   2.816   6.912
10789TIP3    H132306   6.407   2.810   6.921
10789TIP3    H232307   6.280   2.733   6.947
10790TIP3   OH232308   8.149   2.710   6.670
10790TIP3    H132309   8.207   2.643   6.633
10790TIP3    H232310   8.114   2.756   6.594
10791TIP3   OH232311   7.581   2.536   5.421
10791TIP3    H132312   7.626   2.522   5.504
10791TIP3    H232313   7.517   2.465   5.415
10792TIP3   OH232314   6.284   2.519   6.245
10792TIP3    H132315   6.342   2.443   6.251
10792TIP3    H232316   6.343   2.593   6.233
10793TIP3   OH232317   6.066   2.798   6.307
10793TIP3    H132318   6.121   2.778   6.231
10793TIP3    H232319   6.065   2.893   6.312
10794TIP3   OH232320   8.003   2.814   6.465
10794TIP3    H132321   7.919   2.857   6.479
10794TIP3    H232322   7.983   2.739   6.409
10795TIP3   OH232323   7.638   2.458   5.061
10795TIP3    H132324   7.683   2.396   5.003
10795TIP3    H232325   7.695   2.535   5.062
10796TIP3   OH232326   6.059   2.292   5.815
10796TIP3    H132327   5.971   2.281   5.852
10796TIP3    H232328   6.045   2.349   5.739
10797TIP3   OH232329   7.225   4.012   5.329
10797TIP3    H132330   7.276   3.999   5.249
10797TIP3    H232331   7.269   4.085   5.373
10798TIP3   OH232332   6.281   2.362   6.633
10798TIP3    H132333   6.229   2.355   6.714
10798TIP3    H232334   6.223   2.408   6.572
10799TIP3   OH232335   6.314   3.808   6.706
10799TIP3    H132336   6.221   3.788   6.692
10799TIP3    H232337   6.329   3.788   6.799
10800TIP3   OH232338   6.513   3.853   6.259
10800TIP3    H132339   6.461   3.926   6.225
10800TIP3    H232340   6.598   3.862   6.215
10801TIP3   OH232341   6.927   4.084   6.394
10801TIP3    H132342   6.965   4.078   6.481
10801TIP3    H232343   6.989   4.137   6.344
10802TIP3   OH232344   7.112   4.241   6.263
10802TIP3    H132345   7.175   4.188   6.213
10802TIP3    H232346   7.167   4.296   6.319
10803TIP3   OH232347   7.911   2.581   6.348
10803TIP3    H132348   7.822   2.579   6.313
10803TIP3    H232349   7.944   2.492   6.338
10804TIP3   OH232350   6.182   4.108   6.300
10804TIP3    H132351   6.091   4.127   6.277
10804TIP3    H232352   6.203   4.170   6.370
10805TIP3   OH232353   6.410   4.084   6.149
10805TIP3    H132354   6.327   4.092   6.196
10805TIP3    H232355   6.388   4.109   6.059
10806TIP3   OH232356   6.830   4.100   5.942
10806TIP3    H132357   6.759   4.110   5.879
10806TIP3    H232358   6.840   4.186   5.981
10807TIP3   OH232359   7.097   4.043   5.994
10807TIP3    H132360   7.004   4.056   5.976
10807TIP3    H232361   7.142   4.107   5.938
10808TIP3   OH232362   7.313   4.230   5.900
10808TIP3    H132363   7.297   4.313   5.854
10808TIP3    H232364   7.337   4.169   5.830
10809TIP3   OH232365   6.088   3.885   6.027
10809TIP3    H132366   6.109   3.851   6.114
10809TIP3    H232367   6.158   3.850   5.971
10810TIP3   OH232368   6.289   3.768   5.884
10810TIP3    H132369   6.300   3.687   5.933
10810TIP3    H232370   6.376   3.808   5.883
10811TIP3   OH232371   6.560   3.854   5.899
10811TIP3    H132372   6.579   3.762   5.883
10811TIP3    H232373   6.609   3.875   5.979
10812TIP3   OH232374   7.127   2.504   5.990
10812TIP3    H132375   7.085   2.432   6.037
10812TIP3    H232376   7.194   2.462   5.936
10813TIP3   OH232377   7.629   2.403   5.877
10813TIP3    H132378   7.666   2.453   5.805
10813TIP3    H232379   7.536   2.426   5.877
10814TIP3   OH232380   7.742   2.485   5.642
10814TIP3    H132381   7.813   2.428   5.612
10814TIP3    H232382   7.775   2.574   5.626
10815TIP3   OH232383   6.367   2.200   5.988
10815TIP3    H132384   6.276   2.169   5.996
10815TIP3    H232385   6.419   2.120   5.982
10816TIP3   OH232386   6.174   2.098   5.641
10816TIP3    H132387   6.202   2.150   5.565
10816TIP3    H232388   6.140   2.161   5.703
10817TIP3   OH232389   6.835   2.241   5.879
10817TIP3    H132390   6.883   2.290   5.812
10817TIP3    H232391   6.872   2.272   5.962
10818TIP3   OH232392   7.343   2.389   5.857
10818TIP3    H132393   7.348   2.354   5.768
10818TIP3    H232394   7.344   2.311   5.914
10819TIP3   OH232395   7.393   2.327   5.425
10819TIP3    H132396   7.313   2.375   5.446
10819TIP3    H232397   7.382   2.241   5.464
10820TIP3   OH232398   5.862   3.672   5.406
10820TIP3    H132399   5.778   3.639   5.376
10820TIP3    H232400   5.864   3.763   5.375
10821TIP3   OH232401   6.287   2.237   5.406
10821TIP3    H132402   6.332   2.176   5.348
10821TIP3    H232403   6.357   2.293   5.441
10822TIP3   OH232404   6.781   2.428   5.501
10822TIP3    H132405   6.839   2.377   5.557
10822TIP3    H232406   6.796   2.519   5.527
10823TIP3   OH232407   6.657   3.830   4.998
10823TIP3    H132408   6.741   3.859   4.961
10823TIP3    H232409   6.629   3.759   4.941
10824TIP3   OH232410   7.369   3.967   5.095
10824TIP3    H132411   7.363   3.872   5.088
10824TIP3    H232412   7.322   4.000   5.018
10825TIP3   OH232413   6.583   2.481   6.876
10825TIP3    H132414   6.548   2.413   6.933
10825TIP3    H232415   6.675   2.488   6.902
10826TIP3   OH232416   1.169   6.498   0.054
10826TIP3    H132417   1.246   6.472   0.004
10826TIP3    H232418   1.157   6.429   0.118
10827TIP3   OH232419   5.958   3.671   5.055
10827TIP3    H132420   5.961   3.686   5.149
10827TIP3    H232421   6.041   3.626   5.036
10828TIP3   OH232422   7.653   2.580   6.768
10828TIP3    H132423   7.665   2.561   6.861
10828TIP3    H232424   7.741   2.573   6.730
10829TIP3   OH232425   7.583   4.106   6.282
10829TIP3    H132426   7.508   4.074   6.233
10829TIP3    H232427   7.565   4.200   6.296
10830TIP3   OH232428   8.124   3.347   5.822
10830TIP3    H132429   8.163   3.306   5.899
10830TIP3    H232430   8.198   3.363   5.763
10831TIP3   OH232431   8.113   3.793   5.521
10831TIP3    H132432   8.102   3.698   5.523
10831TIP3    H232433   8.206   3.805   5.502
10832TIP3   OH232434   7.822   2.981   5.273
10832TIP3    H132435   7.786   3.066   5.300
10832TIP3    H232436   7.749   2.935   5.233
10833TIP3   OH232437   7.894   3.286   5.480
10833TIP3    H132438   7.941   3.207   5.506
10833TIP3    H232439   7.961   3.341   5.438
10834TIP3   OH232440   0.341   4.269   5.173
10834TIP3    H132441   0.416   4.212   5.191
10834TIP3    H232442   0.267   4.208   5.162
10835TIP3   OH232443   0.244   3.574   5.388
10835TIP3    H132444   0.233   3.620   5.304
10835TIP3    H232445   0.308   3.627   5.436
10836TIP3   OH232446   8.328   2.799   5.552
10836TIP3    H132447   8.350   2.876   5.500
10836TIP3    H232448   8.373   2.726   5.508
10837TIP3   OH232449   8.025   3.066   5.572
10837TIP3    H132450   8.102   3.052   5.626
10837TIP3    H232451   8.035   3.005   5.499
10838TIP3   OH232452   8.379   3.312   5.370
10838TIP3    H132453   8.475   3.309   5.375
10838TIP3    H232454   8.352   3.221   5.384
10839TIP3   OH232455   8.368   2.846   5.924
10839TIP3    H132456   8.317   2.885   5.853
10839TIP3    H232457   8.310   2.848   6.000
10840TIP3   OH232458   8.458   3.617   5.702
10840TIP3    H132459   8.400   3.681   5.742
10840TIP3    H232460   8.458   3.639   5.609
10841TIP3   OH232461   8.231   2.975   5.727
10841TIP3    H132462   8.296   3.045   5.734
10841TIP3    H232463   8.266   2.917   5.660
10842TIP3   OH232464   8.309   3.828   5.786
10842TIP3    H132465   8.295   3.915   5.749
10842TIP3    H232466   8.232   3.813   5.841
10843TIP3   OH232467   7.709   3.538   5.036
10843TIP3    H132468   7.666   3.556   4.953
10843TIP3    H232469   7.739   3.623   5.067
10844TIP3   OH232470   8.184   3.443   5.247
10844TIP3    H132471   8.151   3.388   5.176
10844TIP3    H232472   8.249   3.390   5.291
10845TIP3   OH232473   8.353   3.869   5.388
10845TIP3    H132474   8.330   3.837   5.301
10845TIP3    H232475   8.435   3.823   5.410
10846TIP3   OH232476   8.327   3.382   5.639
10846TIP3    H132477   8.365   3.353   5.556
10846TIP3    H232478   8.377   3.460   5.663
10847TIP3   OH232479   8.506   3.909   5.953
10847TIP3    H132480   8.456   3.979   5.993
10847TIP3    H232481   8.445   3.865   5.894
10848TIP3   OH232482   8.301   3.505   6.058
10848TIP3    H132483   8.298   3.591   6.101
10848TIP3    H232484   8.211   3.473   6.060
10849TIP3   OH232485   0.014   3.914   4.970
10849TIP3    H132486   0.090   3.968   4.990
10849TIP3    H232487  -0.043   3.971   4.918
10850TIP3   OH232488   8.326   4.100   6.028
10850TIP3    H132489   8.296   4.106   5.937
10850TIP3    H232490   8.247   4.084   6.079
10851TIP3   OH232491   8.130   3.270   5.041
10851TIP3    H132492   8.042   3.295   5.011
10851TIP3    H232493   8.114   3.201   5.105
10852TIP3   OH232494   7.914   3.643   5.975
10852TIP3    H132495   7.846   3.623   5.910
10852TIP3    H232496   7.951   3.558   5.997
10853TIP3   OH232497   7.781   3.828   5.607
10853TIP3    H132498   7.876   3.823   5.594
10853TIP3    H232499   7.769   3.902   5.666
10854TIP3   OH232500   0.164   4.060   5.783
10854TIP3    H132501   0.140   4.135   5.837
10854TIP3    H232502   0.116   3.987   5.822
10855TIP3   OH232503   8.470   4.210   4.789
10855TIP3    H132504   8.494   4.220   4.697
10855TIP3    H232505   8.431   4.294   4.813
10856TIP3   OH232506   7.940   4.034   5.131
10856TIP3    H132507   7.978   4.026   5.218
10856TIP3    H232508   7.889   3.954   5.119
10857TIP3   OH232509   0.359   4.158   4.794
10857TIP3    H132510   0.320   4.206   4.721
10857TIP3    H232511   0.402   4.083   4.753
10858TIP3   OH232512   8.103   3.837   5.961
10858TIP3    H132513   8.155   3.823   6.041
10858TIP3    H232514   8.035   3.769   5.965
10859TIP3   OH232515   8.470   2.633   5.786
10859TIP3    H132516   8.386   2.608   5.749
10859TIP3    H232517   8.455   2.718   5.826
10860TIP3   OH232518   8.408   3.171   5.801
10860TIP3    H132519   8.355   3.190   5.879
10860TIP3    H232520   8.391   3.245   5.743
10861TIP3   OH232521   8.185   3.117   5.256
10861TIP3    H132522   8.155   3.040   5.306
10861TIP3    H232523   8.271   3.091   5.223
10862TIP3   OH232524   8.249   3.190   6.023
10862TIP3    H132525   8.280   3.229   6.104
10862TIP3    H232526   8.217   3.104   6.048
10863TIP3   OH232527   8.304   2.620   4.674
10863TIP3    H132528   8.286   2.627   4.768
10863TIP3    H232529   8.255   2.692   4.636
10864TIP3   OH232530   7.862   2.711   5.558
10864TIP3    H132531   7.924   2.745   5.622
10864TIP3    H232532   7.914   2.704   5.477
10865TIP3   OH232533   7.799   2.691   5.075
10865TIP3    H132534   7.849   2.733   5.005
10865TIP3    H232535   7.733   2.757   5.099
10866TIP3   OH232536   8.066   2.895   5.362
10866TIP3    H132537   7.981   2.912   5.320
10866TIP3    H232538   8.097   2.814   5.320
10867TIP3   OH232539   8.385   2.893   4.993
10867TIP3    H132540   8.448   2.919   4.925
10867TIP3    H232541   8.305   2.940   4.972
10868TIP3   OH232542   8.138   2.976   4.920
10868TIP3    H132543   8.049   2.947   4.939
10868TIP3    H232544   8.154   2.947   4.830
10869TIP3   OH232545   8.264   3.758   6.185
10869TIP3    H132546   8.341   3.777   6.238
10869TIP3    H232547   8.193   3.748   6.248
10870TIP3   OH232548   8.206   2.671   5.270
10870TIP3    H132549   8.183   2.610   5.340
10870TIP3    H232550   8.228   2.614   5.196
10871TIP3   OH232551   0.169   3.117   5.851
10871TIP3    H132552   0.076   3.139   5.837
10871TIP3    H232553   0.209   3.130   5.766
10872TIP3   OH232554   8.499   3.428   4.921
10872TIP3    H132555   8.431   3.446   4.856
10872TIP3    H232556   8.464   3.463   5.003
10873TIP3   OH232557   0.408   3.771   5.772
10873TIP3    H132558   0.424   3.692   5.823
10873TIP3    H232559   0.367   3.831   5.835
10874TIP3   OH232560   8.115   3.516   5.503
10874TIP3    H132561   8.137   3.503   5.411
10874TIP3    H232562   8.181   3.466   5.551
10875TIP3   OH232563   0.110   3.552   4.612
10875TIP3    H132564   0.053   3.621   4.646
10875TIP3    H232565   0.101   3.480   4.675
10876TIP3   OH232566   8.031   3.431   6.114
10876TIP3    H132567   8.053   3.421   6.207
10876TIP3    H232568   7.964   3.365   6.097
10877TIP3   OH232569   0.219   3.530   6.132
10877TIP3    H132570   0.143   3.473   6.116
10877TIP3    H232571   0.291   3.470   6.148
10878TIP3   OH232572   8.249   3.814   5.134
10878TIP3    H132573   8.243   3.896   5.085
10878TIP3    H232574   8.158   3.785   5.143
10879TIP3   OH232575   7.818   3.117   4.847
10879TIP3    H132576   7.858   3.202   4.865
10879TIP3    H232577   7.737   3.117   4.897
10880TIP3   OH232578   8.397   3.574   5.141
10880TIP3    H132579   8.362   3.661   5.119
10880TIP3    H232580   8.322   3.526   5.174
10881TIP3   OH232581   0.000   4.159   5.592
10881TIP3    H132582   0.041   4.240   5.563
10881TIP3    H232583   0.071   4.110   5.635
10882TIP3   OH232584   8.174   4.043   4.990
10882TIP3    H132585   8.088   4.047   5.032
10882TIP3    H232586   8.201   4.134   4.981
10883TIP3   OH232587   8.211   2.917   6.142
10883TIP3    H132588   8.117   2.937   6.140
10883TIP3    H232589   8.219   2.845   6.204
10884TIP3   OH232590   7.960   4.025   5.763
10884TIP3    H132591   8.008   3.949   5.796
10884TIP3    H232592   7.975   4.094   5.828
10885TIP3   OH232593   8.195   3.654   4.483
10885TIP3    H132594   8.145   3.573   4.483
10885TIP3    H232595   8.189   3.686   4.573
10886TIP3   OH232596   8.129   3.743   4.735
10886TIP3    H132597   8.200   3.749   4.798
10886TIP3    H232598   8.092   3.831   4.731
10887TIP3   OH232599   7.899   3.370   4.929
10887TIP3    H132600   7.833   3.408   4.987
10887TIP3    H232601   7.915   3.438   4.863
10888TIP3   OH232602   8.499   3.794   4.666
10888TIP3    H132603   8.429   3.859   4.677
10888TIP3    H232604   8.569   3.842   4.623
10889TIP3   OH232605   8.041   3.999   4.738
10889TIP3    H132606   8.069   4.061   4.671
10889TIP3    H232607   8.092   4.022   4.816
10890TIP3   OH232608   8.284   2.631   4.959
10890TIP3    H132609   8.275   2.725   4.975
10890TIP3    H232610   8.378   2.614   4.972
10891TIP3   OH232611   7.905   3.582   4.746
10891TIP3    H132612   7.967   3.655   4.754
10891TIP3    H232613   7.942   3.526   4.678
10892TIP3   OH232614   7.881   2.852   4.866
10892TIP3    H132615   7.858   2.945   4.862
10892TIP3    H232616   7.830   2.812   4.796
10893TIP3   OH232617   8.213   2.553   5.719
10893TIP3    H132618   8.197   2.525   5.628
10893TIP3    H232619   8.215   2.472   5.769
10894TIP3   OH232620   7.776   3.807   5.106
10894TIP3    H132621   7.723   3.838   5.180
10894TIP3    H232622   7.735   3.846   5.029
10895TIP3   OH232623   7.954   4.332   6.188
10895TIP3    H132624   8.036   4.338   6.237
10895TIP3    H232625   7.934   4.239   6.185
10896TIP3   OH232626   8.417   4.282   6.213
10896TIP3    H132627   8.498   4.243   6.246
10896TIP3    H232628   8.391   4.225   6.140
10897TIP3   OH232629   8.403   3.916   4.394
10897TIP3    H132630   8.334   3.852   4.408
10897TIP3    H232631   8.484   3.865   4.399
10898TIP3   OH232632   8.066   3.736   6.376
10898TIP3    H132633   8.087   3.642   6.382
10898TIP3    H232634   7.981   3.739   6.332
10899TIP3   OH232635   8.026   3.400   4.595
10899TIP3    H132636   8.056   3.346   4.668
10899TIP3    H232637   8.061   3.357   4.517
10900TIP3   OH232638   0.084   3.764   6.171
10900TIP3    H132639   0.049   3.798   6.088
10900TIP3    H232640   0.128   3.682   6.147
10901TIP3   OH232641   0.068   3.462   4.352
10901TIP3    H132642   0.121   3.496   4.425
10901TIP3    H232643  -0.005   3.417   4.394
10902TIP3   OH232644   8.183   3.478   6.360
10902TIP3    H132645   8.239   3.409   6.325
10902TIP3    H232646   8.223   3.502   6.443
10903TIP3   OH232647   8.165   3.252   4.770
10903TIP3    H132648   8.158   3.229   4.862
10903TIP3    H232649   8.223   3.186   4.732
10904TIP3   OH232650   0.029   3.350   6.051
10904TIP3    H132651  -0.054   3.395   6.062
10904TIP3    H232652   0.048   3.356   5.958
10905TIP3   OH232653   8.339   3.100   4.618
10905TIP3    H132654   8.317   3.136   4.532
10905TIP3    H232655   8.406   3.034   4.600
10906TIP3   OH232656   0.156   3.172   6.234
10906TIP3    H132657   0.110   3.094   6.203
10906TIP3    H232658   0.109   3.245   6.192
10907TIP3   OH232659   0.165   2.858   5.943
10907TIP3    H132660   0.167   2.945   5.902
10907TIP3    H232661   0.073   2.842   5.961
10908TIP3   OH232662   0.120   3.419   5.805
10908TIP3    H132663   0.202   3.466   5.820
10908TIP3    H232664   0.062   3.485   5.766
10909TIP3   OH232665   8.337   3.254   6.281
10909TIP3    H132666   8.360   3.171   6.325
10909TIP3    H232667   8.416   3.308   6.290
10910TIP3   OH232668   8.361   3.011   6.423
10910TIP3    H132669   8.362   2.918   6.398
10910TIP3    H232670   8.411   3.015   6.504
10911TIP3   OH232671   8.182   4.155   4.550
10911TIP3    H132672   8.272   4.183   4.534
10911TIP3    H232673   8.134   4.187   4.473
10912TIP3   OH232674   7.640   3.528   4.743
10912TIP3    H132675   7.733   3.551   4.745
10912TIP3    H232676   7.637   3.440   4.706
10913TIP3   OH232677   7.572   4.127   5.186
10913TIP3    H132678   7.507   4.073   5.140
10913TIP3    H232679   7.615   4.066   5.246
10914TIP3   OH232680   7.709   3.964   5.362
10914TIP3    H132681   7.698   3.893   5.425
10914TIP3    H232682   7.756   4.032   5.410
10915TIP3   OH232683   7.874   3.390   5.733
10915TIP3    H132684   7.871   3.359   5.643
10915TIP3    H232685   7.966   3.386   5.757
10916TIP3   OH232686   8.093   3.066   6.397
10916TIP3    H132687   8.188   3.064   6.399
10916TIP3    H232688   8.066   2.984   6.437
10917TIP3   OH232689   8.046   2.770   5.756
10917TIP3    H132690   8.107   2.697   5.747
10917TIP3    H232691   8.101   2.848   5.750
10918TIP3   OH232692   7.866   3.048   5.802
10918TIP3    H132693   7.908   3.040   5.717
10918TIP3    H232694   7.896   3.133   5.836
10919TIP3   OH232695   7.858   2.537   5.293
10919TIP3    H132696   7.774   2.533   5.338
10919TIP3    H232697   7.843   2.599   5.221
10920TIP3   OH232698   8.075   2.632   6.124
10920TIP3    H132699   8.021   2.619   6.202
10920TIP3    H232700   8.016   2.673   6.061
10921TIP3   OH232701   8.111   4.065   6.197
10921TIP3    H132702   8.019   4.042   6.187
10921TIP3    H232703   8.131   4.046   6.288
10922TIP3   OH232704   8.287   4.102   5.751
10922TIP3    H132705   8.228   4.168   5.715
10922TIP3    H232706   8.368   4.112   5.701
10923TIP3   OH232707   0.173   4.311   5.902
10923TIP3    H132708   0.240   4.259   5.946
10923TIP3    H232709   0.219   4.355   5.831
10924TIP3   OH232710   0.543   4.563   5.788
10924TIP3    H132711   0.549   4.527   5.700
10924TIP3    H232712   0.531   4.657   5.775
10925TIP3   OH232713   7.959   4.389   5.780
10925TIP3    H132714   7.867   4.411   5.767
10925TIP3    H232715   7.983   4.432   5.862
10926TIP3   OH232716   8.174   4.318   5.630
10926TIP3    H132717   8.092   4.337   5.675
10926TIP3    H232718   8.159   4.348   5.540
10927TIP3   OH232719   0.086   4.398   5.486
10927TIP3    H132720   0.057   4.419   5.397
10927TIP3    H232721   0.041   4.463   5.541
10928TIP3   OH232722   0.322   4.256   5.475
10928TIP3    H132723   0.251   4.318   5.460
10928TIP3    H232724   0.373   4.256   5.394
10929TIP3   OH232725   7.882   4.139   5.522
10929TIP3    H132726   7.911   4.108   5.608
10929TIP3    H232727   7.947   4.104   5.460
10930TIP3   OH232728   8.069   4.019   5.371
10930TIP3    H132729   8.082   3.937   5.420
10930TIP3    H232730   8.154   4.063   5.374
10931TIP3   OH232731   8.320   4.134   5.390
10931TIP3    H132732   8.341   4.042   5.373
10931TIP3    H232733   8.375   4.158   5.464
10932TIP3   OH232734   8.167   2.461   5.455
10932TIP3    H132735   8.075   2.436   5.465
10932TIP3    H232736   8.215   2.379   5.465
10933TIP3   OH232737   7.983   2.347   5.123
10933TIP3    H132738   7.995   2.402   5.045
10933TIP3    H232739   7.941   2.405   5.187
10934TIP3   OH232740   7.657   3.928   4.893
10934TIP3    H132741   7.573   3.896   4.861
10934TIP3    H232742   7.661   4.019   4.862
10935TIP3   OH232743   8.064   2.480   4.889
10935TIP3    H132744   8.102   2.415   4.830
10935TIP3    H232745   8.137   2.533   4.918
10936TIP3   OH232746   8.457   4.158   4.504
10936TIP3    H132747   8.537   4.118   4.540
10936TIP3    H232748   8.421   4.091   4.446
10937TIP3   OH232749   8.363   2.729   6.359
10937TIP3    H132750   8.345   2.667   6.429
10937TIP3    H232751   8.458   2.726   6.347
10938TIP3   OH232752   7.749   3.930   4.551
10938TIP3    H132753   7.757   3.952   4.644
10938TIP3    H232754   7.833   3.889   4.529
10939TIP3   OH232755   1.315   4.278   6.726
10939TIP3    H132756   1.294   4.366   6.695
10939TIP3    H232757   1.241   4.224   6.700
10940TIP3   OH232758   6.965   0.278   0.175
10940TIP3    H132759   7.016   0.253   0.253
10940TIP3    H232760   6.930   0.195   0.143
10941TIP3   OH232761   6.301   0.190   0.519
10941TIP3    H132762   6.283   0.097   0.531
10941TIP3    H232763   6.383   0.192   0.469
10942TIP3   OH232764   1.567   4.590   6.791
10942TIP3    H132765   1.551   4.523   6.858
10942TIP3    H232766   1.592   4.668   6.841
10943TIP3   OH232767   6.261   0.559   0.209
10943TIP3    H132768   6.239   0.467   0.222
10943TIP3    H232769   6.357   0.562   0.207
10944TIP3   OH232770   6.028   0.082   0.197
10944TIP3    H132771   6.070   0.014   0.250
10944TIP3    H232772   6.085   0.159   0.208
10945TIP3   OH232773   6.782   0.492   0.212
10945TIP3    H132774   6.822   0.412   0.178
10945TIP3    H232775   6.855   0.545   0.244
10946TIP3   OH232776   4.963   7.835   0.207
10946TIP3    H132777   4.985   7.921   0.244
10946TIP3    H232778   4.992   7.840   0.116
10947TIP3   OH232779   4.351   7.988   0.241
10947TIP3    H132780   4.402   7.910   0.263
10947TIP3    H232781   4.320   7.973   0.152
10948TIP3   OH232782   3.734   7.659   0.195
10948TIP3    H132783   3.698   7.718   0.129
10948TIP3    H232784   3.687   7.577   0.182
10949TIP3   OH232785   1.572   3.742   6.770
10949TIP3    H132786   1.639   3.733   6.837
10949TIP3    H232787   1.618   3.778   6.694
10950TIP3   OH232788   3.346   7.893   0.307
10950TIP3    H132789   3.419   7.852   0.353
10950TIP3    H232790   3.336   7.842   0.227
10951TIP3   OH232791   6.600   0.047   0.130
10951TIP3    H132792   6.694   0.034   0.119
10951TIP3    H232793   6.561  -0.034   0.097
10952TIP3   OH232794   7.862   0.053   0.348
10952TIP3    H132795   7.775   0.066   0.384
10952TIP3    H232796   7.921   0.078   0.420
10953TIP3   OH232797   3.694   7.726   0.672
10953TIP3    H132798   3.619   7.769   0.632
10953TIP3    H232799   3.658   7.678   0.746
10954TIP3   OH232800   1.236   4.502   6.573
10954TIP3    H132801   1.183   4.486   6.494
10954TIP3    H232802   1.195   4.577   6.614
10955TIP3   OH232803   6.637   0.427   0.440
10955TIP3    H132804   6.572   0.491   0.471
10955TIP3    H232805   6.679   0.470   0.366
10956TIP3   OH232806   4.588   7.773   0.027
10956TIP3    H132807   4.550   7.746   0.111
10956TIP3    H232808   4.641   7.851   0.049
10957TIP3   OH232809   3.582   7.780   0.393
10957TIP3    H132810   3.623   7.861   0.425
10957TIP3    H232811   3.642   7.748   0.326
10958TIP3   OH232812   6.451   0.602   0.552
10958TIP3    H132813   6.412   0.682   0.516
10958TIP3    H232814   6.390   0.574   0.621
10959TIP3   OH232815   7.295   0.816   0.007
10959TIP3    H132816   7.214   0.803   0.057
10959TIP3    H232817   7.284   0.902  -0.034
10960TIP3   OH232818   4.756   7.718   0.344
10960TIP3    H132819   4.666   7.733   0.312
10960TIP3    H232820   4.811   7.760   0.278
10961TIP3   OH232821   4.129   7.358   0.273
10961TIP3    H132822   4.104   7.267   0.283
10961TIP3    H232823   4.054   7.408   0.306
10962TIP3   OH232824   1.495   4.615   6.514
10962TIP3    H132825   1.412   4.570   6.524
10962TIP3    H232826   1.533   4.615   6.602
10963TIP3   OH232827   7.517   0.718   0.357
10963TIP3    H132828   7.499   0.642   0.302
10963TIP3    H232829   7.499   0.793   0.301
10964TIP3   OH232830   1.138   4.129   6.569
10964TIP3    H132831   1.058   4.177   6.550
10964TIP3    H232832   1.184   4.124   6.485
10965TIP3   OH232833   1.108   3.921   6.267
10965TIP3    H132834   1.173   3.971   6.317
10965TIP3    H232835   1.160   3.854   6.222
10966TIP3   OH232836   7.707   0.381   0.220
10966TIP3    H132837   7.621   0.424   0.217
10966TIP3    H232838   7.740   0.387   0.131
10967TIP3   OH232839   1.494   4.203   6.534
10967TIP3    H132840   1.441   4.233   6.608
10967TIP3    H232841   1.578   4.179   6.573
10968TIP3   OH232842   7.380   0.266   0.502
10968TIP3    H132843   7.372   0.345   0.555
10968TIP3    H232844   7.302   0.266   0.447
10969TIP3   OH232845   6.396   0.186   0.012
10969TIP3    H132846   6.362   0.125  -0.054
10969TIP3    H232847   6.471   0.141   0.050
10970TIP3   OH232848   6.533   0.603   0.137
10970TIP3    H132849   6.518   0.582   0.045
10970TIP3    H232850   6.620   0.568   0.156
10971TIP3   OH232851   6.523   0.191   0.356
10971TIP3    H132852   6.557   0.156   0.274
10971TIP3    H232853   6.572   0.272   0.370
10972TIP3   OH232854   7.077   0.801   0.162
10972TIP3    H132855   7.047   0.882   0.203
10972TIP3    H232856   7.048   0.732   0.222
10973TIP3   OH232857   6.665   0.712   0.688
10973TIP3    H132858   6.609   0.773   0.735
10973TIP3    H232859   6.605   0.658   0.637
10974TIP3   OH232860   1.324   4.071   6.364
10974TIP3    H132861   1.385   4.127   6.414
10974TIP3    H232862   1.352   4.082   6.273
10975TIP3   OH232863   6.378   0.255   0.784
10975TIP3    H132864   6.376   0.341   0.825
10975TIP3    H232865   6.327   0.265   0.704
10976TIP3   OH232866   6.461   0.876   0.763
10976TIP3    H132867   6.438   0.894   0.672
10976TIP3    H232868   6.380   0.893   0.812
10977TIP3   OH232869   1.837   3.299   6.416
10977TIP3    H132870   1.761   3.318   6.470
10977TIP3    H232871   1.850   3.378   6.363
10978TIP3   OH232872   0.627   4.020   6.745
10978TIP3    H132873   0.550   4.076   6.736
10978TIP3    H232874   0.592   3.933   6.760
10979TIP3   OH232875   1.651   4.668   5.963
10979TIP3    H132876   1.650   4.763   5.955
10979TIP3    H232877   1.742   4.643   5.948
10980TIP3   OH232878   7.745   1.072   0.415
10980TIP3    H132879   7.753   0.977   0.429
10980TIP3    H232880   7.665   1.097   0.461
10981TIP3   OH232881   6.854   0.843   0.541
10981TIP3    H132882   6.853   0.934   0.570
10981TIP3    H232883   6.786   0.800   0.594
10982TIP3   OH232884   0.851   4.967   6.403
10982TIP3    H132885   0.861   5.057   6.371
10982TIP3    H232886   0.898   4.965   6.486
10983TIP3   OH232887   1.145   4.891   6.094
10983TIP3    H132888   1.203   4.820   6.065
10983TIP3    H232889   1.169   4.905   6.185
10984TIP3   OH232890   1.198   4.943   6.373
10984TIP3    H132891   1.141   4.950   6.450
10984TIP3    H232892   1.287   4.952   6.408
10985TIP3   OH232893   7.595   0.259   0.687
10985TIP3    H132894   7.535   0.238   0.615
10985TIP3    H232895   7.640   0.177   0.705
10986TIP3   OH232896   3.713   7.488   0.541
10986TIP3    H132897   3.690   7.467   0.450
10986TIP3    H232898   3.696   7.582   0.549
10987TIP3   OH232899   4.290   7.563   0.674
10987TIP3    H132900   4.353   7.499   0.707
10987TIP3    H232901   4.276   7.623   0.747
10988TIP3   OH232902   7.384   0.002   0.586
10988TIP3    H132903   7.337   0.009   0.669
10988TIP3    H232904   7.382   0.091   0.550
10989TIP3   OH232905   1.405   4.070   6.103
10989TIP3    H132906   1.367   4.064   6.015
10989TIP3    H232907   1.485   4.121   6.091
10990TIP3   OH232908   1.116   3.477   6.414
10990TIP3    H132909   1.080   3.482   6.502
10990TIP3    H232910   1.081   3.395   6.378
10991TIP3   OH232911   6.530  -0.019   0.522
10991TIP3    H132912   6.541   0.016   0.611
10991TIP3    H232913   6.535   0.057   0.465
10992TIP3   OH232914   3.625   7.845   0.029
10992TIP3    H132915   3.534   7.829   0.053
10992TIP3    H232916   3.633   7.811  -0.060
10993TIP3   OH232917   1.269   3.923   6.700
10993TIP3    H132918   1.221   3.996   6.661
10993TIP3    H232919   1.326   3.891   6.630
10994TIP3   OH232920   7.128   0.230   0.840
10994TIP3    H132921   7.096   0.166   0.905
10994TIP3    H232922   7.223   0.234   0.856
10995TIP3   OH232923   1.439   3.936   6.922
10995TIP3    H132924   1.373   3.961   6.858
10995TIP3    H232925   1.482   3.859   6.884
10996TIP3   OH232926   3.506   7.986   0.771
10996TIP3    H132927   3.530   8.078   0.780
10996TIP3    H232928   3.473   7.961   0.857
10997TIP3   OH232929   0.792   3.458   6.398
10997TIP3    H132930   0.776   3.453   6.493
10997TIP3    H232931   0.716   3.506   6.363
10998TIP3   OH232932   3.173   7.614   0.202
10998TIP3    H132933   3.226   7.619   0.282
10998TIP3    H232934   3.177   7.522   0.177
10999TIP3   OH232935   0.318   3.527   6.827
10999TIP3    H132936   0.382   3.550   6.760
10999TIP3    H232937   0.267   3.607   6.840
11000TIP3   OH232938   7.136   0.199   0.382
11000TIP3    H132939   7.160   0.124   0.329
11000TIP3    H232940   7.104   0.162   0.464
11001TIP3   OH232941   3.986   7.648   0.072
11001TIP3    H132942   3.911   7.650   0.132
11001TIP3    H232943   4.063   7.652   0.129
11002TIP3   OH232944   3.384   7.728   0.077
11002TIP3    H132945   3.297   7.696   0.099
11002TIP3    H232946   3.435   7.648   0.060
11003TIP3   OH232947   0.803   3.717   6.723
11003TIP3    H132948   0.896   3.732   6.712
11003TIP3    H232949   0.764   3.745   6.641
11004TIP3   OH232950   4.467   7.729   0.269
11004TIP3    H132951   4.446   7.745   0.361
11004TIP3    H232952   4.394   7.677   0.236
11005TIP3   OH232953   0.669   3.773   6.485
11005TIP3    H132954   0.619   3.706   6.438
11005TIP3    H232955   0.730   3.808   6.421
11006TIP3   OH232956   7.456   1.415   0.523
11006TIP3    H132957   7.447   1.435   0.429
11006TIP3    H232958   7.536   1.460   0.549
11007TIP3   OH232959   6.381   0.508   0.895
11007TIP3    H132960   6.458   0.549   0.933
11007TIP3    H232961   6.310   0.527   0.957
11008TIP3   OH232962   4.039   8.026   0.135
11008TIP3    H132963   4.111   7.972   0.103
11008TIP3    H232964   4.044   8.017   0.231
11009TIP3   OH232965   3.531   7.493   0.046
11009TIP3    H132966   3.482   7.422   0.087
11009TIP3    H232967   3.560   7.457  -0.038
11010TIP3   OH232968   4.033   8.022   0.409
11010TIP3    H132969   3.998   7.935   0.429
11010TIP3    H232970   4.091   8.042   0.482
11011TIP3   OH232971   0.910   4.315   6.514
11011TIP3    H132972   0.864   4.231   6.505
11011TIP3    H232973   0.894   4.342   6.604
11012TIP3   OH232974   7.462   0.508   0.187
11012TIP3    H132975   7.493   0.556   0.110
11012TIP3    H232976   7.380   0.466   0.157
11013TIP3   OH232977   1.366   3.584   6.398
11013TIP3    H132978   1.273   3.561   6.403
11013TIP3    H232979   1.370   3.677   6.419
11014TIP3   OH232980   6.978   0.587   0.593
11014TIP3    H132981   7.024   0.584   0.677
11014TIP3    H232982   6.939   0.674   0.590
11015TIP3   OH232983   1.430   3.840   6.484
11015TIP3    H132984   1.525   3.843   6.496
11015TIP3    H232985   1.410   3.919   6.434
11016TIP3   OH232986   6.236   0.277   0.231
11016TIP3    H132987   6.295   0.244   0.163
11016TIP3    H232988   6.271   0.243   0.313
11017TIP3   OH232989   1.062   4.448   6.331
11017TIP3    H132990   1.018   4.533   6.323
11017TIP3    H232991   1.007   4.398   6.391
11018TIP3   OH232992   6.884   0.352   0.853
11018TIP3    H132993   6.849   0.329   0.767
11018TIP3    H232994   6.976   0.327   0.849
11019TIP3   OH232995   7.125   0.863   0.467
11019TIP3    H132996   7.031   0.850   0.475
11019TIP3    H232997   7.149   0.913   0.545
11020TIP3   OH232998   1.853   3.927   6.310
11020TIP3    H132999   1.798   3.880   6.248
11020TIP3    H233000   1.856   4.017   6.277
11021TIP3   OH233001   7.763   0.797   0.446
11021TIP3    H133002   7.668   0.782   0.444
11021TIP3    H233003   7.795   0.761   0.364
11022TIP3   OH233004   1.579   4.742   6.262
11022TIP3    H133005   1.552   4.694   6.341
11022TIP3    H233006   1.581   4.675   6.193
11023TIP3   OH233007   7.231   0.376   0.087
11023TIP3    H133008   7.139   0.357   0.104
11023TIP3    H233009   7.266   0.294   0.050
11024TIP3   OH233010   0.707   4.612   6.829
11024TIP3    H133011   0.704   4.688   6.771
11024TIP3    H233012   0.638   4.628   6.893
11025TIP3   OH233013   0.230   3.971   6.512
11025TIP3    H133014   0.297   3.983   6.579
11025TIP3    H233015   0.188   3.888   6.534
11026TIP3   OH233016   0.828   4.377   6.764
11026TIP3    H133017   0.785   4.460   6.784
11026TIP3    H233018   0.796   4.317   6.831
11027TIP3   OH233019   6.659   0.936   0.349
11027TIP3    H133020   6.699   1.005   0.296
11027TIP3    H233021   6.732   0.896   0.395
11028TIP3   OH233022   0.601   4.847   6.695
11028TIP3    H133023   0.565   4.852   6.784
11028TIP3    H233024   0.644   4.931   6.682
11029TIP3   OH233025   7.022   0.578   0.322
11029TIP3    H133026   7.011   0.575   0.417
11029TIP3    H233027   7.100   0.525   0.305
11030TIP3   OH233028   1.336   4.479   6.135
11030TIP3    H133029   1.397   4.443   6.200
11030TIP3    H233030   1.249   4.454   6.167
11031TIP3   OH233031   7.273   1.098   0.355
11031TIP3    H133032   7.199   1.037   0.360
11031TIP3    H233033   7.251   1.158   0.284
11032TIP3   OH233034   1.664   4.945   5.940
11032TIP3    H133035   1.696   5.013   5.881
11032TIP3    H233036   1.587   4.984   5.982
11033TIP3   OH233037   1.515   4.366   6.307
11033TIP3    H133038   1.500   4.324   6.392
11033TIP3    H233039   1.609   4.386   6.307
11034TIP3   OH233040   0.739   4.437   6.131
11034TIP3    H133041   0.755   4.345   6.110
11034TIP3    H233042   0.698   4.435   6.217
11035TIP3   OH233043   0.656   4.474   6.407
11035TIP3    H133044   0.722   4.426   6.457
11035TIP3    H233045   0.678   4.566   6.423
11036TIP3   OH233046   0.398   4.158   6.701
11036TIP3    H133047   0.334   4.199   6.759
11036TIP3    H233048   0.395   4.210   6.621
11037TIP3   OH233049   4.402   7.795   0.520
11037TIP3    H133050   4.458   7.869   0.542
11037TIP3    H233051   4.444   7.720   0.561
11038TIP3   OH233052   1.425   3.529   6.670
11038TIP3    H133053   1.407   3.550   6.578
11038TIP3    H233054   1.468   3.607   6.704
11039TIP3   OH233055   0.937   4.694   6.336
11039TIP3    H133056   0.851   4.702   6.377
11039TIP3    H233057   0.989   4.763   6.377
11040TIP3   OH233058   1.082   3.731   6.763
11040TIP3    H133059   1.144   3.800   6.739
11040TIP3    H233060   1.103   3.710   6.853
11041TIP3   OH233061   7.050   0.085   0.616
11041TIP3    H133062   7.034   0.162   0.670
11041TIP3    H233063   7.118   0.036   0.663
11042TIP3   OH233064   1.246   3.429   6.855
11042TIP3    H133065   1.227   3.506   6.908
11042TIP3    H233066   1.313   3.458   6.793
11043TIP3   OH233067   0.686   4.751   6.446
11043TIP3    H133068   0.724   4.834   6.416
11043TIP3    H233069   0.650   4.771   6.532
11044TIP3   OH233070   0.759   3.442   6.678
11044TIP3    H133071   0.743   3.535   6.699
11044TIP3    H233072   0.854   3.434   6.680
11045TIP3   OH233073   4.833   7.953   0.530
11045TIP3    H133074   4.744   7.950   0.566
11045TIP3    H233075   4.837   7.879   0.469
11046TIP3   OH233076   7.320   0.122  -0.007
11046TIP3    H133077   7.246   0.061  -0.001
11046TIP3    H233078   7.390   0.079   0.043
11047TIP3   OH233079   0.399   4.560   6.377
11047TIP3    H133080   0.485   4.523   6.394
11047TIP3    H233081   0.363   4.507   6.307
11048TIP3   OH233082   0.476   3.598   6.619
11048TIP3    H133083   0.488   3.692   6.628
11048TIP3    H233084   0.418   3.588   6.544
11049TIP3   OH233085   1.636   5.095   6.881
11049TIP3    H133086   1.590   5.135   6.807
11049TIP3    H233087   1.729   5.105   6.860
11050TIP3   OH233088   3.678   7.384   0.286
11050TIP3    H133089   3.597   7.367   0.237
11050TIP3    H233090   3.689   7.307   0.342
11051TIP3   OH233091   6.493   1.078   0.963
11051TIP3    H133092   6.568   1.082   1.022
11051TIP3    H233093   6.522   1.020   0.892
11052TIP3   OH233094   0.809   4.624   5.952
11052TIP3    H133095   0.785   4.554   6.012
11052TIP3    H233096   0.900   4.606   5.928
11053TIP3   OH233097   7.182   0.995   0.698
11053TIP3    H133098   7.178   0.917   0.754
11053TIP3    H233099   7.263   1.039   0.725
11054TIP3   OH233100   1.290   4.690   5.961
11054TIP3    H133101   1.321   4.624   6.023
11054TIP3    H233102   1.353   4.686   5.889
11055TIP3   OH233103   0.547   4.225   6.232
11055TIP3    H133104   0.553   4.160   6.302
11055TIP3    H233105   0.621   4.206   6.175
11056TIP3   OH233106   6.817   0.614   0.896
11056TIP3    H133107   6.776   0.637   0.812
11056TIP3    H233108   6.849   0.525   0.884
11057TIP3   OH233109   1.044   4.365   6.064
11057TIP3    H133110   1.036   4.383   6.158
11057TIP3    H233111   1.043   4.269   6.058
11058TIP3   OH233112   7.292   0.640   0.502
11058TIP3    H133113   7.370   0.673   0.457
11058TIP3    H233114   7.226   0.707   0.487
11059TIP3   OH233115   0.789   4.078   6.520
11059TIP3    H133116   0.739   4.047   6.595
11059TIP3    H233117   0.787   4.004   6.458
11060TIP3   OH233118   6.619   0.139   0.734
11060TIP3    H133119   6.545   0.195   0.758
11060TIP3    H233120   6.679   0.197   0.687
11061TIP3   OH233121   0.837   3.890   6.311
11061TIP3    H133122   0.812   3.900   6.219
11061TIP3    H233123   0.933   3.896   6.311
11062TIP3   OH233124   7.176   0.524   0.873
11062TIP3    H133125   7.250   0.494   0.820
11062TIP3    H233126   7.176   0.467   0.949
11063TIP3   OH233127   1.629   4.194   5.991
11063TIP3    H133128   1.613   4.150   5.907
11063TIP3    H233129   1.600   4.284   5.977
11064TIP3   OH233130   3.937   8.010   0.906
11064TIP3    H133131   3.929   7.936   0.845
11064TIP3    H233132   3.881   8.078   0.870
11065TIP3   OH233133   3.938   7.768   0.770
11065TIP3    H133134   4.000   7.785   0.699
11065TIP3    H233135   3.853   7.764   0.726
11066TIP3   OH233136   6.808   0.280   0.594
11066TIP3    H133137   6.862   0.240   0.525
11066TIP3    H233138   6.754   0.345   0.548
11067TIP3   OH233139   7.396   0.220   0.928
11067TIP3    H133140   7.453   0.149   0.957
11067TIP3    H233141   7.454   0.279   0.879
11068TIP3   OH233142   7.404   0.486   0.693
11068TIP3    H133143   7.357   0.546   0.635
11068TIP3    H233144   7.494   0.487   0.662
11069TIP3   OH233145   3.983   7.505   0.838
11069TIP3    H133146   3.981   7.597   0.810
11069TIP3    H233147   3.896   7.490   0.875
11070TIP3   OH233148   7.025   0.026   0.994
11070TIP3    H133149   7.022   0.050   1.087
11070TIP3    H233150   6.933   0.027   0.966
11071TIP3   OH233151   4.374   7.968   0.796
11071TIP3    H133152   4.310   7.987   0.865
11071TIP3    H233153   4.441   7.916   0.838
11072TIP3   OH233154   4.737   7.911   1.127
11072TIP3    H133155   4.771   7.825   1.103
11072TIP3    H233156   4.741   7.912   1.223
11073TIP3   OH233157   4.164   7.330   0.939
11073TIP3    H133158   4.142   7.319   1.032
11073TIP3    H233159   4.107   7.401   0.909
11074TIP3   OH233160   1.906   5.145   6.857
11074TIP3    H133161   1.925   5.173   6.947
11074TIP3    H233162   1.971   5.192   6.804
11075TIP3   OH233163   7.599   1.174   0.194
11075TIP3    H133164   7.543   1.096   0.189
11075TIP3    H233165   7.662   1.155   0.264
11076TIP3   OH233166   7.626   0.878   0.768
11076TIP3    H133167   7.559   0.880   0.837
11076TIP3    H233168   7.673   0.961   0.777
11077TIP3   OH233169   1.794   4.392   6.320
11077TIP3    H133170   1.853   4.462   6.294
11077TIP3    H233171   1.834   4.355   6.399
11078TIP3   OH233172   1.916   4.252   6.526
11078TIP3    H133173   1.850   4.212   6.582
11078TIP3    H233174   1.982   4.285   6.587
11079TIP3   OH233175   1.966   4.650   6.954
11079TIP3    H133176   2.021   4.580   6.918
11079TIP3    H233177   1.955   4.711   6.881
11080TIP3   OH233178   7.450   0.940   0.203
11080TIP3    H133179   7.380   0.979   0.256
11080TIP3    H233180   7.405   0.895   0.132
11081TIP3   OH233181   1.835   4.166   6.170
11081TIP3    H133182   1.762   4.167   6.108
11081TIP3    H233183   1.820   4.242   6.226
11082TIP3   OH233184   1.702   3.820   6.108
11082TIP3    H133185   1.651   3.858   6.037
11082TIP3    H233186   1.690   3.725   6.098
11083TIP3   OH233187   1.721   4.110   6.665
11083TIP3    H133188   1.729   4.015   6.657
11083TIP3    H233189   1.703   4.125   6.758
11084TIP3   OH233190   7.660   0.535   0.579
11084TIP3    H133191   7.726   0.467   0.565
11084TIP3    H233192   7.671   0.594   0.504
11085TIP3   OH233193   7.842   0.331   0.575
11085TIP3    H133194   7.766   0.292   0.618
11085TIP3    H233195   7.914   0.271   0.595
11086TIP3   OH233196   1.655   3.549   6.080
11086TIP3    H133197   1.721   3.524   6.145
11086TIP3    H233198   1.574   3.507   6.110
11087TIP3   OH233199   1.716   3.832   6.545
11087TIP3    H133200   1.760   3.749   6.560
11087TIP3    H233201   1.764   3.872   6.472
11088TIP3   OH233202   7.535  -0.005   0.120
11088TIP3    H133203   7.616   0.014   0.073
11088TIP3    H233204   7.544   0.038   0.204
11089TIP3   OH233205   7.586   0.160   0.334
11089TIP3    H133206   7.517   0.203   0.385
11089TIP3    H233207   7.637   0.232   0.298
11090TIP3   OH233208   5.209   7.790   0.924
11090TIP3    H133209   5.275   7.733   0.884
11090TIP3    H233210   5.229   7.877   0.890
11091TIP3   OH233211   1.826   3.583   6.598
11091TIP3    H133212   1.874   3.570   6.680
11091TIP3    H233213   1.766   3.509   6.593
11092TIP3   OH233214   3.323   7.585   0.427
11092TIP3    H133215   3.373   7.507   0.449
11092TIP3    H233216   3.363   7.655   0.479
11093TIP3   OH233217   5.075   7.870   0.662
11093TIP3    H133218   5.032   7.951   0.633
11093TIP3    H233219   5.048   7.804   0.598
11094TIP3   OH233220   1.883   3.505   6.235
11094TIP3    H133221   1.927   3.439   6.182
11094TIP3    H233222   1.945   3.578   6.240
11095TIP3   OH233223   3.194   7.363   0.084
11095TIP3    H133224   3.113   7.314   0.099
11095TIP3    H233225   3.176   7.419   0.009
11096TIP3   OH233226   1.434   5.055   6.463
11096TIP3    H133227   1.510   5.041   6.406
11096TIP3    H233228   1.471   5.084   6.546
11097TIP3   OH233229   6.423   0.901   0.491
11097TIP3    H133230   6.375   0.975   0.452
11097TIP3    H233231   6.508   0.903   0.448
11098TIP3   OH233232   6.855   1.105   0.613
11098TIP3    H133233   6.885   1.104   0.704
11098TIP3    H233234   6.917   1.163   0.569
11099TIP3   OH233235   7.036   1.274   0.496
11099TIP3    H133236   7.098   1.220   0.449
11099TIP3    H233237   7.089   1.323   0.559
11100TIP3   OH233238   4.992   7.673   0.492
11100TIP3    H133239   4.927   7.670   0.422
11100TIP3    H233240   5.037   7.589   0.486
11101TIP3   OH233241   6.323   1.123   0.343
11101TIP3    H133242   6.266   1.197   0.364
11101TIP3    H233243   6.279   1.079   0.270
11102TIP3   OH233244   6.758   1.134   0.182
11102TIP3    H133245   6.701   1.149   0.106
11102TIP3    H233246   6.768   1.221   0.221
11103TIP3   OH233247   7.020   1.070   0.230
11103TIP3    H133248   6.926   1.081   0.214
11103TIP3    H233249   7.061   1.137   0.175
11104TIP3   OH233250   7.229   1.266   0.137
11104TIP3    H133251   7.213   1.349   0.092
11104TIP3    H233252   7.252   1.205   0.067
11105TIP3   OH233253   6.226   0.788   0.056
11105TIP3    H133254   6.210   0.717   0.118
11105TIP3    H233255   6.303   0.833   0.090
11106TIP3   OH233256   6.472   0.879   0.149
11106TIP3    H133257   6.495   0.788   0.134
11106TIP3    H233258   6.530   0.908   0.219
11107TIP3   OH233259   4.242   7.591   0.177
11107TIP3    H133260   4.197   7.515   0.214
11107TIP3    H233261   4.309   7.554   0.119
11108TIP3   OH233262   4.721   7.463   0.111
11108TIP3    H133263   4.759   7.512   0.038
11108TIP3    H233264   4.627   7.482   0.107
11109TIP3   OH233265   1.992   3.539   6.814
11109TIP3    H133266   2.061   3.479   6.786
11109TIP3    H233267   2.028   3.626   6.799
11110TIP3   OH233268   3.429   7.284   0.202
11110TIP3    H133269   3.341   7.292   0.165
11110TIP3    H233270   3.452   7.192   0.188
11111TIP3   OH233271   0.447   3.116   6.798
11111TIP3    H133272   0.463   3.179   6.728
11111TIP3    H233273   0.412   3.169   6.870
11112TIP3   OH233274   3.895   7.303   0.085
11112TIP3    H133275   3.964   7.346   0.034
11112TIP3    H233276   3.867   7.369   0.148
11113TIP3   OH233277   4.445   7.456   0.056
11113TIP3    H133278   4.459   7.415  -0.029
11113TIP3    H233279   4.438   7.383   0.117
11114TIP3   OH233280   1.643   3.370   6.601
11114TIP3    H133281   1.563   3.417   6.621
11114TIP3    H233282   1.631   3.284   6.640
11115TIP3   OH233283   0.553   3.275   6.583
11115TIP3    H133284   0.609   3.212   6.538
11115TIP3    H233285   0.615   3.337   6.623
11116TIP3   OH233286   1.032   3.476   6.677
11116TIP3    H133287   1.093   3.426   6.731
11116TIP3    H233288   1.047   3.567   6.702
11117TIP3   OH233289   0.867   4.866   6.108
11117TIP3    H133290   0.956   4.894   6.084
11117TIP3    H233291   0.875   4.833   6.197
11118TIP3   OH233292   1.627   5.011   6.265
11118TIP3    H133293   1.616   4.916   6.264
11118TIP3    H233294   1.577   5.041   6.189
11119TIP3   OH233295   4.764   7.636   1.058
11119TIP3    H133296   4.767   7.601   1.147
11119TIP3    H233297   4.853   7.625   1.025
11120TIP3   OH233298   7.500   1.143   0.510
11120TIP3    H133299   7.421   1.113   0.464
11120TIP3    H233300   7.483   1.235   0.528
11121TIP3   OH233301   3.108   4.536   6.205
11121TIP3    H133302   3.079   4.625   6.184
11121TIP3    H233303   3.034   4.480   6.182
11122TIP3   OH233304   3.101   4.522   6.617
11122TIP3    H133305   3.147   4.515   6.701
11122TIP3    H233306   3.058   4.438   6.607
11123TIP3   OH233307   8.068   0.399   0.035
11123TIP3    H133308   8.099   0.340   0.104
11123TIP3    H233309   8.148   0.427  -0.010
11124TIP3   OH233310   3.363   4.840   6.301
11124TIP3    H133311   3.355   4.774   6.369
11124TIP3    H233312   3.385   4.921   6.347
11125TIP3   OH233313   2.386   4.834   6.690
11125TIP3    H133314   2.371   4.739   6.689
11125TIP3    H233315   2.480   4.843   6.675
11126TIP3   OH233316   2.081   4.032   6.450
11126TIP3    H133317   2.039   4.114   6.476
11126TIP3    H233318   2.009   3.978   6.416
11127TIP3   OH233319   2.150   4.322   6.662
11127TIP3    H133320   2.198   4.246   6.693
11127TIP3    H233321   2.216   4.379   6.622
11128TIP3   OH233322   3.017   5.280   6.315
11128TIP3    H133323   3.050   5.208   6.261
11128TIP3    H233324   3.034   5.251   6.405
11129TIP3   OH233325   2.904   4.752   6.641
11129TIP3    H133326   2.944   4.673   6.603
11129TIP3    H233327   2.978   4.803   6.674
11130TIP3   OH233328   3.941   4.073   6.664
11130TIP3    H133329   3.954   4.150   6.720
11130TIP3    H233330   3.947   4.107   6.575
11131TIP3   OH233331   3.323   4.235   6.675
11131TIP3    H133332   3.355   4.146   6.691
11131TIP3    H233333   3.284   4.231   6.587
11132TIP3   OH233334   2.674   3.910   6.631
11132TIP3    H133335   2.649   3.982   6.572
11132TIP3    H233336   2.622   3.835   6.600
11133TIP3   OH233337   3.360   4.002   6.266
11133TIP3    H133338   3.424   3.995   6.336
11133TIP3    H233339   3.409   4.038   6.192
11134TIP3   OH233340   2.297   4.109   6.758
11134TIP3    H133341   2.376   4.086   6.805
11134TIP3    H233342   2.301   4.059   6.677
11135TIP3   OH233343   2.721   4.315   6.566
11135TIP3    H133344   2.814   4.297   6.575
11135TIP3    H233345   2.684   4.234   6.531
11136TIP3   OH233346   3.984   4.289   6.827
11136TIP3    H133347   3.900   4.335   6.823
11136TIP3    H233348   4.028   4.327   6.902
11137TIP3   OH233349   5.491   7.890   0.133
11137TIP3    H133350   5.436   7.932   0.066
11137TIP3    H233351   5.442   7.903   0.215
11138TIP3   OH233352   3.004   4.756   6.064
11138TIP3    H133353   2.962   4.730   5.982
11138TIP3    H233354   2.952   4.831   6.094
11139TIP3   OH233355   2.751   4.677   6.860
11139TIP3    H133356   2.698   4.748   6.896
11139TIP3    H233357   2.801   4.718   6.789
11140TIP3   OH233358   3.534   4.023   6.475
11140TIP3    H133359   3.506   3.988   6.560
11140TIP3    H233360   3.590   4.097   6.497
11141TIP3   OH233361   2.538   4.002   6.855
11141TIP3    H133362   2.591   4.078   6.880
11141TIP3    H233363   2.585   3.962   6.783
11142TIP3   OH233364   8.256   0.873   0.023
11142TIP3    H133365   8.241   0.961  -0.011
11142TIP3    H233366   8.180   0.855   0.078
11143TIP3   OH233367   1.973   4.578   6.205
11143TIP3    H133368   1.933   4.597   6.121
11143TIP3    H233369   1.999   4.664   6.239
11144TIP3   OH233370   3.404   5.084   6.444
11144TIP3    H133371   3.320   5.075   6.488
11144TIP3    H233372   3.402   5.171   6.404
11145TIP3   OH233373   2.995   3.614   6.793
11145TIP3    H133374   2.996   3.522   6.819
11145TIP3    H233375   2.915   3.649   6.832
11146TIP3   OH233376   3.115   5.117   6.108
11146TIP3    H133377   3.169   5.039   6.096
11146TIP3    H233378   3.166   5.188   6.070
11147TIP3   OH233379   3.256   4.889   6.050
11147TIP3    H133380   3.183   4.826   6.049
11147TIP3    H233381   3.305   4.867   6.129
11148TIP3   OH233382   3.647   4.976   6.787
11148TIP3    H133383   3.630   4.902   6.729
11148TIP3    H233384   3.625   5.053   6.734
11149TIP3   OH233385   2.930   4.378   6.057
11149TIP3    H133386   2.850   4.426   6.035
11149TIP3    H233387   2.978   4.374   5.975
11150TIP3   OH233388   2.903   4.184   5.747
11150TIP3    H133389   2.968   4.230   5.799
11150TIP3    H233390   2.952   4.118   5.698
11151TIP3   OH233391   3.831   4.618   6.637
11151TIP3    H133392   3.750   4.668   6.643
11151TIP3    H233393   3.869   4.642   6.553
11152TIP3   OH233394   3.294   4.467   6.018
11152TIP3    H133395   3.239   4.495   6.092
11152TIP3    H233396   3.378   4.444   6.059
11153TIP3   OH233397   0.676   0.489   0.003
11153TIP3    H133398   0.680   0.571   0.052
11153TIP3    H233399   0.589   0.488  -0.037
11154TIP3   OH233400   2.519   4.453   6.428
11154TIP3    H133401   2.482   4.393   6.363
11154TIP3    H233402   2.591   4.404   6.468
11155TIP3   OH233403   2.646   4.870   6.574
11155TIP3    H133404   2.630   4.845   6.483
11155TIP3    H233405   2.733   4.837   6.593
11156TIP3   OH233406   2.626   4.441   6.798
11156TIP3    H133407   2.664   4.408   6.716
11156TIP3    H233408   2.675   4.521   6.816
11157TIP3   OH233409   3.171   5.070   6.583
11157TIP3    H133410   3.166   5.155   6.628
11157TIP3    H233411   3.157   5.006   6.652
11158TIP3   OH233412   8.451   0.961   0.204
11158TIP3    H133413   8.395   1.031   0.237
11158TIP3    H233414   8.397   0.915   0.139
11159TIP3   OH233415   3.121   4.328   5.858
11159TIP3    H133416   3.180   4.383   5.909
11159TIP3    H233417   3.149   4.341   5.767
11160TIP3   OH233418   8.215   0.531   0.304
11160TIP3    H133419   8.218   0.623   0.332
11160TIP3    H233420   8.122   0.509   0.303
11161TIP3   OH233421   2.869   4.996   6.108
11161TIP3    H133422   2.951   5.043   6.120
11161TIP3    H233423   2.808   5.062   6.074
11162TIP3   OH233424   8.241   1.141   0.254
11162TIP3    H133425   8.217   1.144   0.162
11162TIP3    H233426   8.159   1.123   0.300
11163TIP3   OH233427   3.637   3.559   5.903
11163TIP3    H133428   3.557   3.576   5.955
11163TIP3    H233429   3.651   3.640   5.855
11164TIP3   OH233430   2.393   4.296   6.224
11164TIP3    H133431   2.315   4.338   6.189
11164TIP3    H233432   2.364   4.209   6.249
11165TIP3   OH233433   3.450   4.927   5.447
11165TIP3    H133434   3.454   5.023   5.438
11165TIP3    H233435   3.541   4.899   5.437
11166TIP3   OH233436   7.837   0.685   0.209
11166TIP3    H133437   7.768   0.663   0.147
11166TIP3    H233438   7.873   0.601   0.236
11167TIP3   OH233439   2.019   4.872   6.777
11167TIP3    H133440   2.113   4.863   6.791
11167TIP3    H233441   1.991   4.941   6.837
11168TIP3   OH233442   3.873   5.337   6.852
11168TIP3    H133443   3.878   5.242   6.865
11168TIP3    H233444   3.793   5.363   6.897
11169TIP3   OH233445   0.088   1.117   0.007
11169TIP3    H133446   0.183   1.128   0.000
11169TIP3    H233447   0.076   1.060   0.083
11170TIP3   OH233448   2.755   5.233   5.932
11170TIP3    H133449   2.693   5.217   5.862
11170TIP3    H233450   2.731   5.319   5.967
11171TIP3   OH233451   2.193   5.080   6.316
11171TIP3    H133452   2.233   5.071   6.402
11171TIP3    H233453   2.143   4.999   6.304
11172TIP3   OH233454   3.024   5.053   5.552
11172TIP3    H133455   3.039   4.987   5.619
11172TIP3    H233456   3.040   5.137   5.596
11173TIP3   OH233457   3.000   5.191   5.811
11173TIP3    H133458   2.919   5.199   5.861
11173TIP3    H233459   3.066   5.166   5.876
11174TIP3   OH233460   0.937   0.465   0.216
11174TIP3    H133461   0.857   0.515   0.196
11174TIP3    H233462   0.909   0.374   0.211
11175TIP3   OH233463   8.038   0.872   0.194
11175TIP3    H133464   8.091   0.856   0.272
11175TIP3    H233465   7.969   0.805   0.197
11176TIP3   OH233466   2.752   3.669   6.917
11176TIP3    H133467   2.682   3.604   6.918
11176TIP3    H233468   2.718   3.742   6.970
11177TIP3   OH233469   6.127   7.798   0.187
11177TIP3    H133470   6.194   7.773   0.251
11177TIP3    H233471   6.044   7.784   0.232
11178TIP3   OH233472   0.741   0.245   0.107
11178TIP3    H133473   0.691   0.246   0.189
11178TIP3    H233474   0.723   0.330   0.067
11179TIP3   OH233475   3.211   4.358   5.606
11179TIP3    H133476   3.163   4.343   5.525
11179TIP3    H233477   3.289   4.406   5.579
11180TIP3   OH233478   2.911   3.731   5.904
11180TIP3    H133479   2.877   3.735   5.993
11180TIP3    H233480   2.873   3.651   5.867
11181TIP3   OH233481   8.363   0.207   0.001
11181TIP3    H133482   8.316   0.216   0.085
11181TIP3    H233483   8.341   0.287  -0.046
11182TIP3   OH233484   2.578   4.101   6.459
11182TIP3    H133485   2.490   4.075   6.485
11182TIP3    H233486   2.589   4.063   6.372
11183TIP3   OH233487   3.061   4.177   6.193
11183TIP3    H133488   3.012   4.248   6.152
11183TIP3    H233489   3.117   4.144   6.123
11184TIP3   OH233490   0.415   0.457   0.317
11184TIP3    H133491   0.392   0.386   0.377
11184TIP3    H233492   0.507   0.475   0.335
11185TIP3   OH233493   3.226   4.197   6.421
11185TIP3    H133494   3.158   4.224   6.359
11185TIP3    H233495   3.266   4.120   6.380
11186TIP3   OH233496   8.195   0.228   0.219
11186TIP3    H133497   8.222   0.289   0.287
11186TIP3    H233498   8.180   0.145   0.265
11187TIP3   OH233499   2.571   3.716   5.869
11187TIP3    H133500   2.564   3.715   5.965
11187TIP3    H233501   2.494   3.764   5.840
11188TIP3   OH233502   2.128   3.756   6.728
11188TIP3    H133503   2.198   3.780   6.788
11188TIP3    H233504   2.173   3.714   6.654
11189TIP3   OH233505   2.048   3.734   6.250
11189TIP3    H133506   2.095   3.769   6.175
11189TIP3    H233507   1.987   3.804   6.275
11190TIP3   OH233508   3.252   4.437   6.842
11190TIP3    H133509   3.281   4.370   6.780
11190TIP3    H233510   3.214   4.387   6.915
11191TIP3   OH233511   2.938   3.898   6.520
11191TIP3    H133512   2.857   3.897   6.572
11191TIP3    H233513   3.008   3.888   6.585
11192TIP3   OH233514   2.343   3.976   6.522
11192TIP3    H133515   2.252   3.977   6.489
11192TIP3    H233516   2.372   3.886   6.506
11193TIP3   OH233517   2.597   3.973   6.217
11193TIP3    H133518   2.692   3.984   6.203
11193TIP3    H233519   2.558   3.992   6.132
11194TIP3   OH233520   3.391   3.973   6.731
11194TIP3    H133521   3.371   3.972   6.825
11194TIP3    H233522   3.324   3.916   6.692
11195TIP3   OH233523   2.470   4.004   5.975
11195TIP3    H133524   2.404   3.956   5.926
11195TIP3    H233525   2.525   4.045   5.909
11196TIP3   OH233526   3.586   5.683   6.948
11196TIP3    H133527   3.582   5.697   6.853
11196TIP3    H233528   3.665   5.728   6.976
11197TIP3   OH233529   8.195   0.790   0.418
11197TIP3    H133530   8.278   0.810   0.462
11197TIP3    H233531   8.130   0.789   0.488
11198TIP3   OH233532   2.990   4.254   6.624
11198TIP3    H133533   3.056   4.202   6.577
11198TIP3    H233534   2.989   4.216   6.712
11199TIP3   OH233535   2.496   3.735   6.502
11199TIP3    H133536   2.457   3.663   6.551
11199TIP3    H233537   2.540   3.693   6.428
11200TIP3   OH233538   2.968   4.166   6.894
11200TIP3    H133539   2.878   4.191   6.913
11200TIP3    H233540   3.021   4.222   6.950
11201TIP3   OH233541   2.700   4.526   5.992
11201TIP3    H133542   2.628   4.466   5.973
11201TIP3    H233543   2.679   4.563   6.078
11202TIP3   OH233544   3.598   4.765   6.612
11202TIP3    H133545   3.631   4.817   6.538
11202TIP3    H233546   3.515   4.730   6.581
11203TIP3   OH233547   3.162   3.835   5.889
11203TIP3    H133548   3.069   3.811   5.892
11203TIP3    H233549   3.164   3.929   5.907
11204TIP3   OH233550   0.283   0.854   0.089
11204TIP3    H133551   0.317   0.841   0.177
11204TIP3    H233552   0.312   0.942   0.064
11205TIP3   OH233553   3.221   4.094   5.975
11205TIP3    H133554   3.316   4.100   5.987
11205TIP3    H233555   3.199   4.172   5.924
11206TIP3   OH233556   2.397   4.551   6.660
11206TIP3    H133557   2.433   4.528   6.574
11206TIP3    H233558   2.456   4.510   6.723
11207TIP3   OH233559   2.852   4.683   5.821
11207TIP3    H133560   2.804   4.765   5.829
11207TIP3    H233561   2.803   4.621   5.876
11208TIP3   OH233562   7.945   0.467   0.347
11208TIP3    H133563   7.953   0.447   0.440
11208TIP3    H233564   7.874   0.410   0.317
11209TIP3   OH233565   0.173   0.586   0.372
11209TIP3    H133566   0.109   0.527   0.333
11209TIP3    H233567   0.257   0.555   0.339
11210TIP3   OH233568   3.649   4.214   5.782
11210TIP3    H133569   3.593   4.158   5.729
11210TIP3    H233570   3.616   4.303   5.766
11211TIP3   OH233571   3.892   5.054   6.879
11211TIP3    H133572   3.797   5.043   6.874
11211TIP3    H233573   3.924   5.026   6.793
11212TIP3   OH233574   3.347   5.001   5.714
11212TIP3    H133575   3.338   4.937   5.784
11212TIP3    H233576   3.383   4.951   5.640
11213TIP3   OH233577   3.362   4.639   6.510
11213TIP3    H133578   3.272   4.621   6.537
11213TIP3    H233579   3.393   4.556   6.473
11214TIP3   OH233580   2.503   4.868   6.309
11214TIP3    H133581   2.502   4.948   6.257
11214TIP3    H233582   2.411   4.847   6.324
11215TIP3   OH233583   2.064   4.161   6.019
11215TIP3    H133584   2.111   4.241   6.041
11215TIP3    H233585   1.986   4.161   6.075
11216TIP3   OH233586   2.613   4.626   6.228
11216TIP3    H133587   2.590   4.715   6.255
11216TIP3    H233588   2.586   4.571   6.302
11217TIP3   OH233589   2.767   5.223   6.754
11217TIP3    H133590   2.821   5.286   6.705
11217TIP3    H233591   2.827   5.187   6.819
11218TIP3   OH233592   2.422   5.101   6.162
11218TIP3    H133593   2.337   5.105   6.206
11218TIP3    H233594   2.456   5.191   6.166
11219TIP3   OH233595   3.146   4.831   6.751
11219TIP3    H133596   3.129   4.844   6.844
11219TIP3    H233597   3.241   4.818   6.746
11220TIP3   OH233598   3.112   4.742   5.652
11220TIP3    H133599   3.182   4.713   5.711
11220TIP3    H233600   3.032   4.706   5.690
11221TIP3   OH233601   3.401   5.349   6.795
11221TIP3    H133602   3.349   5.280   6.836
11221TIP3    H233603   3.344   5.382   6.725
11222TIP3   OH233604   3.458   5.203   5.424
11222TIP3    H133605   3.488   5.263   5.355
11222TIP3    H233606   3.386   5.249   5.467
11223TIP3   OH233607   5.348   8.000   0.352
11223TIP3    H133608   5.277   7.937   0.339
11223TIP3    H233609   5.404   7.959   0.418
11224TIP3   OH233610   3.314   4.654   5.810
11224TIP3    H133611   3.297   4.598   5.886
11224TIP3    H233612   3.410   4.663   5.808
11225TIP3   OH233613   7.904   1.066   0.007
11225TIP3    H133614   7.983   1.021  -0.025
11225TIP3    H233615   7.895   1.036   0.097
11226TIP3   OH233616   2.474   4.711   5.625
11226TIP3    H133617   2.491   4.621   5.595
11226TIP3    H233618   2.463   4.703   5.720
11227TIP3   OH233619   2.435   4.717   5.898
11227TIP3    H133620   2.503   4.686   5.958
11227TIP3    H233621   2.436   4.812   5.908
11228TIP3   OH233622   2.168   4.407   6.103
11228TIP3    H133623   2.103   4.452   6.157
11228TIP3    H233624   2.186   4.468   6.031
11229TIP3   OH233625   6.256   8.009   0.078
11229TIP3    H133626   6.226   8.068   0.147
11229TIP3    H233627   6.215   7.925   0.099
11230TIP3   OH233628   3.218   3.785   6.164
11230TIP3    H133629   3.198   3.805   6.072
11230TIP3    H233630   3.258   3.865   6.198
11231TIP3   OH233631   2.706   4.910   5.838
11231TIP3    H133632   2.620   4.927   5.877
11231TIP3    H233633   2.731   4.992   5.797
11232TIP3   OH233634   2.879   3.980   6.260
11232TIP3    H133635   2.941   4.050   6.237
11232TIP3    H233636   2.896   3.964   6.353
11233TIP3   OH233637   0.333   0.281   0.119
11233TIP3    H133638   0.348   0.356   0.178
11233TIP3    H233639   0.365   0.206   0.168
11234TIP3   OH233640   3.037   3.689   6.355
11234TIP3    H133641   3.015   3.767   6.406
11234TIP3    H233642   3.103   3.720   6.292
11235TIP3   OH233643   2.453   4.990   5.914
11235TIP3    H133644   2.429   5.058   5.851
11235TIP3    H233645   2.440   5.030   6.000
11236TIP3   OH233646   2.551   3.702   6.146
11236TIP3    H133647   2.539   3.789   6.183
11236TIP3    H233648   2.644   3.685   6.155
11237TIP3   OH233649   3.451   4.381   6.416
11237TIP3    H133650   3.373   4.326   6.428
11237TIP3    H233651   3.518   4.341   6.471
11238TIP3   OH233652   2.184   4.594   5.892
11238TIP3    H133653   2.255   4.657   5.903
11238TIP3    H233654   2.218   4.530   5.829
11239TIP3   OH233655   2.102   3.884   6.024
11239TIP3    H133656   2.112   3.979   6.030
11239TIP3    H233657   2.021   3.871   5.976
11240TIP3   OH233658   3.429   5.352   6.362
11240TIP3    H133659   3.388   5.397   6.289
11240TIP3    H233660   3.523   5.365   6.349
11241TIP3   OH233661   2.027   4.852   6.282
11241TIP3    H133662   1.972   4.881   6.355
11241TIP3    H233663   1.987   4.892   6.204
11242TIP3   OH233664   7.883   1.380   0.415
11242TIP3    H133665   7.964   1.390   0.465
11242TIP3    H233666   7.869   1.285   0.410
11243TIP3   OH233667   8.342   1.308   0.450
11243TIP3    H133668   8.432   1.281   0.464
11243TIP3    H233669   8.313   1.255   0.375
11244TIP3   OH233670   2.667   4.882   5.526
11244TIP3    H133671   2.589   4.843   5.567
11244TIP3    H233672   2.731   4.812   5.526
11245TIP3   OH233673   7.990   0.779   0.607
11245TIP3    H133674   8.010   0.685   0.616
11245TIP3    H233675   7.904   0.781   0.565
11246TIP3   OH233676   2.317   4.404   5.747
11246TIP3    H133677   2.368   4.379   5.824
11246TIP3    H233678   2.382   4.417   5.678
11247TIP3   OH233679   0.114   0.864   0.397
11247TIP3    H133680   0.071   0.889   0.316
11247TIP3    H233681   0.149   0.776   0.381
11248TIP3   OH233682   2.816   4.643   5.548
11248TIP3    H133683   2.821   4.650   5.643
11248TIP3    H233684   2.821   4.549   5.530
11249TIP3   OH233685   3.429   4.889   6.936
11249TIP3    H133686   3.504   4.927   6.891
11249TIP3    H233687   3.364   4.959   6.940
11250TIP3   OH233688   8.113   0.524   0.602
11250TIP3    H133689   8.192   0.498   0.554
11250TIP3    H233690   8.145   0.548   0.689
11251TIP3   OH233691   2.496   4.340   5.957
11251TIP3    H133692   2.472   4.311   6.045
11251TIP3    H233693   2.539   4.264   5.917
11252TIP3   OH233694   8.457   0.404   0.256
11252TIP3    H133695   8.377   0.455   0.265
11252TIP3    H233696   8.498   0.437   0.175
11253TIP3   OH233697   2.627   4.147   5.799
11253TIP3    H133698   2.598   4.153   5.708
11253TIP3    H233699   2.722   4.153   5.795
11254TIP3   OH233700   0.457   0.799   0.379
11254TIP3    H133701   0.534   0.771   0.329
11254TIP3    H233702   0.456   0.742   0.455
11255TIP3   OH233703   3.417   4.485   5.467
11255TIP3    H133704   3.400   4.432   5.389
11255TIP3    H233705   3.375   4.569   5.449
11256TIP3   OH233706   0.076   0.187   0.369
11256TIP3    H133707   0.073   0.109   0.315
11256TIP3    H233708   0.034   0.255   0.316
11257TIP3   OH233709   5.742   7.991   0.177
11257TIP3    H133710   5.767   8.029   0.092
11257TIP3    H233711   5.654   7.957   0.162
11258TIP3   OH233712   0.100   0.510   0.049
11258TIP3    H133713   0.186   0.546   0.031
11258TIP3    H233714   0.039   0.570   0.006
11259TIP3   OH233715   0.676   0.482   0.409
11259TIP3    H133716   0.697   0.416   0.475
11259TIP3    H233717   0.749   0.545   0.415
11260TIP3   OH233718   0.731   0.716   0.159
11260TIP3    H133719   0.669   0.773   0.113
11260TIP3    H233720   0.817   0.743   0.128
11261TIP3   OH233721   8.453   0.301   0.599
11261TIP3    H133722   8.385   0.235   0.614
11261TIP3    H233723   8.487   0.281   0.512
11262TIP3   OH233724   5.853   7.742   0.250
11262TIP3    H133725   5.811   7.825   0.228
11262TIP3    H233726   5.781   7.678   0.250
11263TIP3   OH233727   0.338   0.233   0.451
11263TIP3    H133728   0.346   0.210   0.544
11263TIP3    H233729   0.246   0.214   0.430
11264TIP3   OH233730   0.550   0.155   0.296
11264TIP3    H133731   0.479   0.174   0.357
11264TIP3    H233732   0.625   0.137   0.352
11265TIP3   OH233733   0.782   0.123   0.430
11265TIP3    H133734   0.812   0.039   0.465
11265TIP3    H233735   0.789   0.183   0.504
11266TIP3   OH233736   8.291   0.085   0.639
11266TIP3    H133737   8.301   0.003   0.591
11266TIP3    H233738   8.327   0.066   0.726
11267TIP3   OH233739   5.956   7.760   0.500
11267TIP3    H133740   6.018   7.688   0.506
11267TIP3    H233741   5.912   7.747   0.416
11268TIP3   OH233742   6.038   7.989   0.615
11268TIP3    H133743   6.017   7.909   0.567
11268TIP3    H233744   5.956   8.038   0.618
11269TIP3   OH233745   2.442   5.193   5.724
11269TIP3    H133746   2.532   5.174   5.696
11269TIP3    H233747   2.404   5.242   5.652
11270TIP3   OH233748   1.911   4.578   5.915
11270TIP3    H133749   2.005   4.593   5.910
11270TIP3    H233750   1.899   4.491   5.878
11271TIP3   OH233751   1.821   5.174   6.364
11271TIP3    H133752   1.757   5.121   6.318
11271TIP3    H233753   1.864   5.113   6.424
11272TIP3   OH233754   1.961   5.011   6.538
11272TIP3    H133755   1.952   4.939   6.600
11272TIP3    H233756   2.007   5.079   6.587
11273TIP3   OH233757   3.698   5.412   6.345
11273TIP3    H133758   3.719   5.439   6.434
11273TIP3    H233759   3.757   5.464   6.289
11274TIP3   OH233760   3.719   5.437   6.627
11274TIP3    H133761   3.666   5.357   6.623
11274TIP3    H233762   3.789   5.417   6.689
11275TIP3   OH233763   0.932   1.131   0.260
11275TIP3    H133764   0.857   1.142   0.319
11275TIP3    H233765   0.975   1.217   0.262
11276TIP3   OH233766   3.592   4.655   5.813
11276TIP3    H133767   3.653   4.724   5.786
11276TIP3    H233768   3.637   4.610   5.885
11277TIP3   OH233769   3.725   4.489   5.990
11277TIP3    H133770   3.663   4.453   6.053
11277TIP3    H233771   3.797   4.522   6.044
11278TIP3   OH233772   3.768   4.906   6.441
11278TIP3    H133773   3.820   4.838   6.399
11278TIP3    H233774   3.767   4.979   6.379
11279TIP3   OH233775   3.574   5.198   6.638
11279TIP3    H133776   3.508   5.241   6.693
11279TIP3    H233777   3.524   5.156   6.568
11280TIP3   OH233778   3.628   4.449   5.638
11280TIP3    H133779   3.556   4.456   5.575
11280TIP3    H233780   3.614   4.522   5.698
11281TIP3   OH233781   3.517   4.069   5.597
11281TIP3    H133782   3.494   4.114   5.516
11281TIP3    H233783   3.490   3.978   5.583
11282TIP3   OH233784   3.522   4.368   6.149
11282TIP3    H133785   3.519   4.272   6.144
11282TIP3    H233786   3.504   4.388   6.240
11283TIP3   OH233787   2.140   4.444   6.909
11283TIP3    H133788   2.131   4.402   6.824
11283TIP3    H233789   2.233   4.438   6.929
11284TIP3   OH233790   0.979   0.787   0.069
11284TIP3    H133791   1.042   0.718   0.050
11284TIP3    H233792   0.998   0.856   0.006
11285TIP3   OH233793   1.139   0.567   0.057
11285TIP3    H133794   1.074   0.533   0.119
11285TIP3    H233795   1.218   0.515   0.073
11286TIP3   OH233796   3.450   3.799   5.564
11286TIP3    H133797   3.508   3.776   5.637
11286TIP3    H233798   3.364   3.767   5.591
11287TIP3   OH233799   3.508   4.088   6.040
11287TIP3    H133800   3.552   4.003   6.052
11287TIP3    H233801   3.560   4.133   5.973
11288TIP3   OH233802   3.665   4.257   6.553
11288TIP3    H133803   3.747   4.278   6.508
11288TIP3    H233804   3.674   4.298   6.640
11289TIP3   OH233805   3.726   4.407   6.784
11289TIP3    H133806   3.654   4.446   6.834
11289TIP3    H233807   3.766   4.480   6.737
11290TIP3   OH233808   8.024   0.136   0.628
11290TIP3    H133809   8.118   0.121   0.616
11290TIP3    H233810   8.001   0.083   0.705
11291TIP3   OH233811   7.001   7.983   0.324
11291TIP3    H133812   7.079   7.929   0.311
11291TIP3    H233813   7.031   8.056   0.378
11292TIP3   OH233814   3.627   3.836   6.084
11292TIP3    H133815   3.669   3.826   6.170
11292TIP3    H233816   3.563   3.766   6.081
11293TIP3   OH233817   2.328   3.802   6.916
11293TIP3    H133818   2.374   3.723   6.943
11293TIP3    H233819   2.397   3.867   6.902
11294TIP3   OH233820   7.778   0.082   0.028
11294TIP3    H133821   7.833   0.083  -0.050
11294TIP3    H233822   7.829   0.127   0.095
11295TIP3   OH233823   1.179   0.168   0.218
11295TIP3    H133824   1.159   0.197   0.307
11295TIP3    H233825   1.233   0.090   0.230
11296TIP3   OH233826   3.698   3.750   5.705
11296TIP3    H133827   3.699   3.670   5.654
11296TIP3    H233828   3.790   3.778   5.708
11297TIP3   OH233829   2.094   3.584   6.474
11297TIP3    H133830   2.007   3.583   6.514
11297TIP3    H233831   2.086   3.646   6.401
11298TIP3   OH233832   3.241   5.316   5.975
11298TIP3    H133833   3.304   5.304   5.905
11298TIP3    H233834   3.283   5.375   6.037
11299TIP3   OH233835   5.207   7.772   0.332
11299TIP3    H133836   5.197   7.715   0.408
11299TIP3    H233837   5.121   7.770   0.289
11300TIP3   OH233838   8.018   1.112   0.420
11300TIP3    H133839   7.927   1.082   0.419
11300TIP3    H233840   8.050   1.089   0.507
11301TIP3   OH233841   2.546   5.156   6.909
11301TIP3    H133842   2.504   5.230   6.865
11301TIP3    H233843   2.637   5.160   6.881
11302TIP3   OH233844   0.143   1.440   0.156
11302TIP3    H133845   0.189   1.386   0.219
11302TIP3    H233846   0.208   1.457   0.087
11303TIP3   OH233847   3.169   5.535   6.915
11303TIP3    H133848   3.224   5.460   6.893
11303TIP3    H233849   3.225   5.591   6.969
11304TIP3   OH233850   2.216   5.392   6.934
11304TIP3    H133851   2.173   5.350   6.860
11304TIP3    H233852   2.258   5.320   6.981
11305TIP3   OH233853   2.456   5.392   6.780
11305TIP3    H133854   2.376   5.420   6.825
11305TIP3    H233855   2.446   5.425   6.691
11306TIP3   OH233856   2.884   5.418   6.595
11306TIP3    H133857   2.812   5.435   6.534
11306TIP3    H233858   2.895   5.499   6.643
11307TIP3   OH233859   3.153   5.349   6.622
11307TIP3    H133860   3.060   5.370   6.619
11307TIP3    H233861   3.197   5.430   6.595
11308TIP3   OH233862   3.348   5.537   6.555
11308TIP3    H133863   3.345   5.620   6.507
11308TIP3    H233864   3.378   5.473   6.491
11309TIP3   OH233865   2.150   5.197   6.720
11309TIP3    H133866   2.171   5.148   6.800
11309TIP3    H233867   2.209   5.161   6.654
11310TIP3   OH233868   2.327   5.068   6.558
11310TIP3    H133869   2.340   4.982   6.599
11310TIP3    H233870   2.415   5.104   6.550
11311TIP3   OH233871   2.595   5.148   6.556
11311TIP3    H133872   2.619   5.056   6.546
11311TIP3    H233873   2.648   5.179   6.629
11312TIP3   OH233874   3.172   3.802   6.656
11312TIP3    H133875   3.124   3.734   6.702
11312TIP3    H233876   3.236   3.755   6.602
11313TIP3   OH233877   3.674   3.714   6.550
11313TIP3    H133878   3.711   3.765   6.478
11313TIP3    H233879   3.579   3.721   6.537
11314TIP3   OH233880   3.787   3.803   6.308
11314TIP3    H133881   3.855   3.740   6.285
11314TIP3    H233882   3.826   3.888   6.290
11315TIP3   OH233883   2.395   3.516   6.623
11315TIP3    H133884   2.311   3.477   6.650
11315TIP3    H233885   2.460   3.450   6.645
11316TIP3   OH233886   2.198   3.389   6.297
11316TIP3    H133887   2.236   3.444   6.228
11316TIP3    H233888   2.172   3.452   6.365
11317TIP3   OH233889   2.875   3.545   6.538
11317TIP3    H133890   2.931   3.594   6.477
11317TIP3    H233891   2.906   3.571   6.624
11318TIP3   OH233892   3.392   3.689   6.517
11318TIP3    H133893   3.395   3.651   6.429
11318TIP3    H233894   3.390   3.613   6.575
11319TIP3   OH233895   3.439   3.629   6.086
11319TIP3    H133896   3.358   3.675   6.108
11319TIP3    H233897   3.430   3.543   6.126
11320TIP3   OH233898   1.913   4.972   6.063
11320TIP3    H133899   1.827   4.937   6.040
11320TIP3    H233900   1.910   5.063   6.034
11321TIP3   OH233901   2.332   3.539   6.068
11321TIP3    H133902   2.378   3.476   6.012
11321TIP3    H233903   2.401   3.594   6.104
11322TIP3   OH233904   2.826   3.728   6.167
11322TIP3    H133905   2.882   3.675   6.224
11322TIP3    H233906   2.842   3.819   6.194
11323TIP3   OH233907   2.702   5.127   5.657
11323TIP3    H133908   2.788   5.160   5.630
11323TIP3    H233909   2.689   5.049   5.604
11324TIP3   OH233910   3.406   5.267   5.756
11324TIP3    H133911   3.393   5.173   5.746
11324TIP3    H233912   3.367   5.305   5.677
11325TIP3   OH233913   5.485   7.847   0.536
11325TIP3    H133914   5.438   7.763   0.534
11325TIP3    H233915   5.567   7.827   0.581
11326TIP3   OH233916   5.723   7.816   0.676
11326TIP3    H133917   5.796   7.797   0.618
11326TIP3    H233918   5.726   7.748   0.743
11327TIP3   OH233919   2.002   4.973   5.721
11327TIP3    H133920   2.002   4.981   5.817
11327TIP3    H233921   2.084   4.929   5.701
11328TIP3   OH233922   6.531   7.881   0.502
11328TIP3    H133923   6.550   7.862   0.594
11328TIP3    H233924   6.616   7.872   0.458
11329TIP3   OH233925   3.625   5.408   6.951
11329TIP3    H133926   3.549   5.376   6.903
11329TIP3    H233927   3.610   5.502   6.961
11330TIP3   OH233928   4.901   4.788   5.693
11330TIP3    H133929   4.871   4.877   5.673
11330TIP3    H233930   4.828   4.732   5.667
11331TIP3   OH233931   4.899   4.775   6.099
11331TIP3    H133932   4.943   4.779   6.184
11331TIP3    H233933   4.861   4.688   6.096
11332TIP3   OH233934   4.194   4.658   6.468
11332TIP3    H133935   4.227   4.597   6.535
11332TIP3    H233936   4.270   4.710   6.444
11333TIP3   OH233937   5.156   5.104   5.796
11333TIP3    H133938   5.148   5.032   5.859
11333TIP3    H233939   5.159   5.183   5.850
11334TIP3   OH233940   4.180   5.071   6.156
11334TIP3    H133941   4.166   4.977   6.166
11334TIP3    H233942   4.275   5.080   6.146
11335TIP3   OH233943   3.958   4.580   6.135
11335TIP3    H133944   4.006   4.503   6.165
11335TIP3    H233945   4.025   4.647   6.123
11336TIP3   OH233946   4.829   5.554   5.831
11336TIP3    H133947   4.849   5.469   5.790
11336TIP3    H233948   4.853   5.542   5.923
11337TIP3   OH233949   4.702   5.002   6.124
11337TIP3    H133950   4.741   4.925   6.082
11337TIP3    H233951   4.777   5.050   6.159
11338TIP3   OH233952   5.729   4.330   6.132
11338TIP3    H133953   5.749   4.415   6.171
11338TIP3    H233954   5.753   4.340   6.040
11339TIP3   OH233955   5.116   4.497   6.158
11339TIP3    H133956   5.158   4.415   6.181
11339TIP3    H233957   5.078   4.482   6.071
11340TIP3   OH233958   4.464   4.166   6.126
11340TIP3    H133959   4.442   4.235   6.064
11340TIP3    H233960   4.419   4.089   6.093
11341TIP3   OH233961   5.161   4.260   5.749
11341TIP3    H133962   5.227   4.251   5.818
11341TIP3    H233963   5.209   4.294   5.674
11342TIP3   OH233964   4.080   4.354   6.243
11342TIP3    H133965   4.170   4.352   6.275
11342TIP3    H233966   4.056   4.262   6.232
11343TIP3   OH233967   4.526   4.568   6.047
11343TIP3    H133968   4.620   4.556   6.060
11343TIP3    H233969   4.495   4.483   6.015
11344TIP3   OH233970   5.793   4.548   6.303
11344TIP3    H133971   5.706   4.585   6.291
11344TIP3    H233972   5.822   4.581   6.388
11345TIP3   OH233973   4.450   4.158   6.567
11345TIP3    H133974   4.399   4.200   6.498
11345TIP3    H233975   4.398   4.171   6.647
11346TIP3   OH233976   4.785   5.005   5.569
11346TIP3    H133977   4.753   4.987   5.480
11346TIP3    H233978   4.741   5.086   5.594
11347TIP3   OH233979   4.548   4.933   6.344
11347TIP3    H133980   4.495   5.006   6.378
11347TIP3    H233981   4.599   4.972   6.273
11348TIP3   OH233982   5.333   4.276   5.961
11348TIP3    H133983   5.298   4.253   6.047
11348TIP3    H233984   5.391   4.350   5.977
11349TIP3   OH233985   4.333   4.275   6.342
11349TIP3    H133986   4.387   4.350   6.368
11349TIP3    H233987   4.383   4.233   6.273
11350TIP3   OH233988   4.387   5.136   6.444
11350TIP3    H133989   4.378   5.226   6.411
11350TIP3    H233990   4.307   5.122   6.495
11351TIP3   OH233991   3.770   4.834   5.694
11351TIP3    H133992   3.738   4.853   5.606
11351TIP3    H233993   3.795   4.919   5.729
11352TIP3   OH233994   5.161   5.351   5.959
11352TIP3    H133995   5.084   5.369   6.012
11352TIP3    H233996   5.174   5.431   5.907
11353TIP3   OH233997   5.526   4.228   6.303
11353TIP3    H133998   5.439   4.249   6.268
11353TIP3    H233999   5.587   4.253   6.234
11354TIP3   OH234000   4.790   3.852   6.287
11354TIP3    H134001   4.784   3.760   6.315
11354TIP3    H234002   4.716   3.895   6.330
11355TIP3   OH234003   4.909   5.374   5.602
11355TIP3    H134004   4.961   5.295   5.588
11355TIP3    H234005   4.964   5.446   5.571
11356TIP3   OH234006   5.065   5.158   5.537
11356TIP3    H134007   5.034   5.076   5.499
11356TIP3    H234008   5.103   5.132   5.621
11357TIP3   OH234009   5.445   5.233   6.276
11357TIP3    H134010   5.426   5.161   6.216
11357TIP3    H234011   5.419   5.311   6.228
11358TIP3   OH234012   4.725   4.632   5.540
11358TIP3    H134013   4.648   4.685   5.520
11358TIP3    H234014   4.776   4.632   5.459
11359TIP3   OH234015   4.703   4.421   5.256
11359TIP3    H134016   4.767   4.477   5.300
11359TIP3    H234017   4.756   4.361   5.204
11360TIP3   OH234018   5.628   4.891   6.134
11360TIP3    H134019   5.544   4.936   6.135
11360TIP3    H234020   5.662   4.906   6.045
11361TIP3   OH234021   5.086   4.723   5.504
11361TIP3    H134022   5.031   4.750   5.578
11361TIP3    H234023   5.168   4.696   5.545
11362TIP3   OH234024   5.314   4.754   6.438
11362TIP3    H134025   5.310   4.837   6.486
11362TIP3    H234026   5.231   4.751   6.390
11363TIP3   OH234027   4.314   4.700   5.921
11363TIP3    H134028   4.281   4.641   5.854
11363TIP3    H234029   4.393   4.658   5.954
11364TIP3   OH234030   4.444   5.116   6.060
11364TIP3    H134031   4.430   5.106   5.965
11364TIP3    H234032   4.533   5.084   6.074
11365TIP3   OH234033   4.425   4.699   6.275
11365TIP3    H134034   4.466   4.666   6.195
11365TIP3    H234035   4.472   4.780   6.295
11366TIP3   OH234036   4.572   5.230   6.629
11366TIP3    H134037   4.511   5.294   6.666
11366TIP3    H234038   4.521   5.182   6.565
11367TIP3   OH234039   4.917   4.583   5.340
11367TIP3    H134040   4.977   4.639   5.388
11367TIP3    H234041   4.943   4.594   5.248
11368TIP3   OH234042   4.343   4.794   6.725
11368TIP3    H134043   4.348   4.885   6.755
11368TIP3    H234044   4.250   4.774   6.725
11369TIP3   OH234045   4.661   5.255   5.600
11369TIP3    H134046   4.744   5.301   5.613
11369TIP3    H234047   4.607   5.318   5.553
11370TIP3   OH234048   4.372   5.407   6.691
11370TIP3    H134049   4.351   5.415   6.598
11370TIP3    H234050   4.288   5.389   6.734
11371TIP3   OH234051   5.429   3.811   5.391
11371TIP3    H134052   5.351   3.832   5.442
11371TIP3    H234053   5.444   3.888   5.337
11372TIP3   OH234054   4.189   4.537   5.718
11372TIP3    H134055   4.120   4.594   5.686
11372TIP3    H234056   4.176   4.455   5.671
11373TIP3   OH234057   5.247   5.185   4.943
11373TIP3    H134058   5.247   5.279   4.924
11373TIP3    H234059   5.337   5.157   4.925
11374TIP3   OH234060   3.966   4.949   6.639
11374TIP3    H134061   3.897   4.929   6.576
11374TIP3    H234062   4.000   4.863   6.664
11375TIP3   OH234063   3.820   5.136   6.279
11375TIP3    H134064   3.915   5.144   6.279
11375TIP3    H234065   3.789   5.214   6.326
11376TIP3   OH234066   5.671   5.600   6.339
11376TIP3    H134067   5.679   5.505   6.348
11376TIP3    H234068   5.589   5.622   6.382
11377TIP3   OH234069   4.758   5.365   6.478
11377TIP3    H134070   4.760   5.458   6.500
11377TIP3    H234071   4.695   5.327   6.540
11378TIP3   OH234072   4.553   5.480   5.421
11378TIP3    H134073   4.508   5.462   5.338
11378TIP3    H234074   4.520   5.565   5.448
11379TIP3   OH234075   3.988   5.338   5.803
11379TIP3    H134076   4.036   5.331   5.886
11379TIP3    H234077   3.942   5.254   5.795
11380TIP3   OH234078   4.755   5.407   5.050
11380TIP3    H134079   4.805   5.334   5.015
11380TIP3    H234080   4.789   5.419   5.139
11381TIP3   OH234081   4.808   5.452   5.321
11381TIP3    H134082   4.723   5.453   5.364
11381TIP3    H234083   4.869   5.420   5.388
11382TIP3   OH234084   5.561   4.713   6.606
11382TIP3    H134085   5.480   4.725   6.556
11382TIP3    H234086   5.579   4.619   6.599
11383TIP3   OH234087   4.167   5.135   6.612
11383TIP3    H134088   4.218   5.123   6.692
11383TIP3    H234089   4.095   5.072   6.619
11384TIP3   OH234090   4.555   3.945   6.418
11384TIP3    H134091   4.470   3.913   6.388
11384TIP3    H234092   4.534   4.025   6.466
11385TIP3   OH234093   5.098   4.063   6.617
11385TIP3    H134094   5.167   4.037   6.677
11385TIP3    H234095   5.017   4.045   6.664
11386TIP3   OH234096   5.323   4.492   6.534
11386TIP3    H134097   5.279   4.489   6.619
11386TIP3    H234098   5.304   4.579   6.499
11387TIP3   OH234099   5.001   4.594   5.082
11387TIP3    H134100   4.954   4.588   4.999
11387TIP3    H234101   5.084   4.635   5.060
11388TIP3   OH234102   4.701   3.990   5.389
11388TIP3    H134103   4.670   3.993   5.479
11388TIP3    H234104   4.668   3.908   5.354
11389TIP3   OH234105   4.492   4.480   6.430
11389TIP3    H134106   4.450   4.493   6.515
11389TIP3    H234107   4.471   4.560   6.381
11390TIP3   OH234108   4.381   4.351   5.943
11390TIP3    H134109   4.293   4.388   5.937
11390TIP3    H234110   4.394   4.306   5.860
11391TIP3   OH234111   4.856   4.428   5.673
11391TIP3    H134112   4.809   4.501   5.633
11391TIP3    H234113   4.917   4.398   5.606
11392TIP3   OH234114   5.044   4.701   6.755
11392TIP3    H134115   5.016   4.633   6.816
11392TIP3    H234116   5.137   4.715   6.775
11393TIP3   OH234117   5.019   4.447   5.906
11393TIP3    H134118   4.954   4.476   5.842
11393TIP3    H234119   5.063   4.374   5.863
11394TIP3   OH234120   4.322   4.485   6.652
11394TIP3    H134121   4.357   4.546   6.717
11394TIP3    H234122   4.308   4.404   6.701
11395TIP3   OH234123   4.366   3.968   5.357
11395TIP3    H134124   4.360   3.972   5.452
11395TIP3    H234125   4.290   4.016   5.326
11396TIP3   OH234126   3.936   4.007   6.197
11396TIP3    H134127   3.996   4.040   6.264
11396TIP3    H234128   3.990   3.954   6.139
11397TIP3   OH234129   3.892   4.037   5.777
11397TIP3    H134130   3.967   4.004   5.727
11397TIP3    H234131   3.819   3.980   5.752
11398TIP3   OH234132   5.056   4.697   6.332
11398TIP3    H134133   5.080   4.632   6.267
11398TIP3    H234134   5.013   4.647   6.401
11399TIP3   OH234135   4.729   4.154   6.004
11399TIP3    H134136   4.654   4.158   6.064
11399TIP3    H234137   4.805   4.143   6.062
11400TIP3   OH234138   4.393   4.229   5.698
11400TIP3    H134139   4.487   4.240   5.689
11400TIP3    H234140   4.358   4.250   5.611
11401TIP3   OH234141   5.205   4.237   6.211
11401TIP3    H134142   5.180   4.255   6.301
11401TIP3    H234143   5.140   4.174   6.179
11402TIP3   OH234144   4.253   4.269   5.462
11402TIP3    H134145   4.199   4.215   5.404
11402TIP3    H234146   4.315   4.313   5.403
11403TIP3   OH234147   5.384   5.936   6.431
11403TIP3    H134148   5.381   5.951   6.337
11403TIP3    H234149   5.462   5.983   6.460
11404TIP3   OH234150   4.326   5.049   6.844
11404TIP3    H134151   4.408   5.071   6.889
11404TIP3    H234152   4.259   5.054   6.912
11405TIP3   OH234153   4.791   4.507   6.110
11405TIP3    H134154   4.860   4.462   6.060
11405TIP3    H234155   4.793   4.464   6.196
11406TIP3   OH234156   4.319   3.967   6.001
11406TIP3    H134157   4.276   3.895   6.049
11406TIP3    H234158   4.369   3.923   5.933
11407TIP3   OH234159   4.760   4.413   6.382
11407TIP3    H134160   4.673   4.448   6.401
11407TIP3    H234161   4.819   4.467   6.434
11408TIP3   OH234162   4.494   4.783   5.485
11408TIP3    H134163   4.419   4.729   5.460
11408TIP3    H234164   4.470   4.818   5.571
11409TIP3   OH234165   5.391   5.027   6.100
11409TIP3    H134166   5.421   5.076   6.024
11409TIP3    H234167   5.309   4.987   6.071
11410TIP3   OH234168   4.957   4.089   5.383
11410TIP3    H134169   4.863   4.072   5.380
11410TIP3    H234170   4.964   4.184   5.394
11411TIP3   OH234171   4.888   5.114   6.502
11411TIP3    H134172   4.946   5.126   6.577
11411TIP3    H234173   4.856   5.202   6.482
11412TIP3   OH234174   5.023   4.351   5.458
11412TIP3    H134175   5.118   4.355   5.467
11412TIP3    H234176   5.000   4.428   5.406
11413TIP3   OH234177   4.176   4.769   6.151
11413TIP3    H134178   4.218   4.760   6.065
11413TIP3    H234179   4.245   4.744   6.213
11414TIP3   OH234180   4.650   4.942   5.329
11414TIP3    H134181   4.601   5.024   5.327
11414TIP3    H234182   4.596   4.883   5.382
11415TIP3   OH234183   4.075   4.730   6.776
11415TIP3    H134184   4.095   4.721   6.869
11415TIP3    H234185   4.009   4.662   6.759
11416TIP3   OH234186   4.810   4.850   6.795
11416TIP3    H134187   4.745   4.802   6.744
11416TIP3    H234188   4.894   4.814   6.766
11417TIP3   OH234189   5.063   5.355   6.388
11417TIP3    H134190   5.006   5.388   6.318
11417TIP3    H234191   5.055   5.419   6.458
11418TIP3   OH234192   5.447   4.444   5.287
11418TIP3    H134193   5.390   4.398   5.226
11418TIP3    H234194   5.452   4.534   5.252
11419TIP3   OH234195   5.691   5.322   6.361
11419TIP3    H134196   5.597   5.305   6.362
11419TIP3    H234197   5.721   5.286   6.277
11420TIP3   OH234198   5.177   5.258   5.209
11420TIP3    H134199   5.147   5.190   5.269
11420TIP3    H234200   5.191   5.213   5.126
11421TIP3   OH234201   5.161   4.894   6.000
11421TIP3    H134202   5.071   4.878   6.028
11421TIP3    H234203   5.190   4.811   5.962
11422TIP3   OH234204   4.309   5.126   5.799
11422TIP3    H134205   4.313   5.204   5.742
11422TIP3    H234206   4.217   5.120   5.825
11423TIP3   OH234207   3.867   4.436   5.501
11423TIP3    H134208   3.916   4.516   5.521
11423TIP3    H234209   3.781   4.451   5.539
11424TIP3   OH234210   4.398   4.877   5.720
11424TIP3    H134211   4.382   4.968   5.742
11424TIP3    H234212   4.374   4.828   5.799
11425TIP3   OH234213   4.617   5.448   6.250
11425TIP3    H134214   4.682   5.493   6.196
11425TIP3    H234215   4.668   5.401   6.316
11426TIP3   OH234216   4.217   5.356   5.647
11426TIP3    H134217   4.132   5.362   5.692
11426TIP3    H234218   4.250   5.446   5.647
11427TIP3   OH234219   4.947   5.059   6.239
11427TIP3    H134220   4.931   5.077   6.331
11427TIP3    H234221   5.038   5.086   6.224
11428TIP3   OH234222   4.934   4.992   5.103
11428TIP3    H134223   4.981   4.970   5.184
11428TIP3    H234224   4.849   4.949   5.113
11429TIP3   OH234225   5.182   5.634   6.260
11429TIP3    H134226   5.106   5.582   6.236
11429TIP3    H234227   5.186   5.703   6.194
11430TIP3   OH234228   5.257   5.460   4.912
11430TIP3    H134229   5.290   5.528   4.853
11430TIP3    H234230   5.182   5.499   4.955
11431TIP3   OH234231   4.289   4.227   6.785
11431TIP3    H134232   4.194   4.229   6.799
11431TIP3    H234233   4.323   4.177   6.859
11432TIP3   OH234234   5.101   4.928   5.317
11432TIP3    H134235   5.087   4.859   5.382
11432TIP3    H234236   5.196   4.928   5.302
11433TIP3   OH234237   4.012   5.338   6.420
11433TIP3    H134238   4.063   5.275   6.472
11433TIP3    H234239   4.029   5.422   6.462
11434TIP3   OH234240   4.284   4.964   5.111
11434TIP3    H134241   4.292   4.874   5.078
11434TIP3    H234242   4.269   4.954   5.205
11435TIP3   OH234243   4.231   4.975   5.386
11435TIP3    H134244   4.309   4.952   5.437
11435TIP3    H234245   4.229   5.071   5.389
11436TIP3   OH234246   3.974   4.671   5.593
11436TIP3    H134247   3.910   4.718   5.646
11436TIP3    H234248   3.995   4.731   5.521
11437TIP3   OH234249   5.132   4.296   6.470
11437TIP3    H134250   5.209   4.341   6.505
11437TIP3    H234251   5.121   4.219   6.526
11438TIP3   OH234252   5.014   4.042   5.653
11438TIP3    H134253   4.995   4.060   5.561
11438TIP3    H234254   5.057   4.121   5.684
11439TIP3   OH234255   4.496   5.164   5.325
11439TIP3    H134256   4.411   5.191   5.361
11439TIP3    H234257   4.522   5.236   5.269
11440TIP3   OH234258   4.669   4.239   5.746
11440TIP3    H134259   4.733   4.305   5.720
11440TIP3    H234260   4.690   4.221   5.838
11441TIP3   OH234261   4.963   4.533   6.534
11441TIP3    H134262   4.991   4.581   6.612
11441TIP3    H234263   5.017   4.454   6.534
11442TIP3   OH234264   4.834   3.940   5.837
11442TIP3    H134265   4.816   4.017   5.892
11442TIP3    H234266   4.901   3.970   5.776
11443TIP3   OH234267   4.243   5.249   5.396
11443TIP3    H134268   4.223   5.319   5.335
11443TIP3    H234269   4.233   5.288   5.483
11444TIP3   OH234270   4.346   3.959   5.636
11444TIP3    H134271   4.341   4.048   5.672
11444TIP3    H234272   4.439   3.936   5.641
11445TIP3   OH234273   5.588   4.439   6.520
11445TIP3    H134274   5.493   4.447   6.531
11445TIP3    H234275   5.599   4.385   6.443
11446TIP3   OH234276   5.247   4.635   5.906
11446TIP3    H134277   5.169   4.581   5.920
11446TIP3    H234278   5.315   4.593   5.959
11447TIP3   OH234279   3.980   4.853   5.378
11447TIP3    H134280   4.050   4.918   5.389
11447TIP3    H234281   4.015   4.791   5.314
11448TIP3   OH234282   3.866   4.173   5.541
11448TIP3    H134283   3.883   4.258   5.500
11448TIP3    H234284   3.847   4.115   5.467
11449TIP3   OH234285   5.224   5.602   5.852
11449TIP3    H134286   5.181   5.652   5.782
11449TIP3    H234287   5.318   5.614   5.836
11450TIP3   OH234288   4.291   3.857   6.382
11450TIP3    H134289   4.264   3.820   6.298
11450TIP3    H234290   4.285   3.784   6.444
11451TIP3   OH234291   3.817   5.102   5.777
11451TIP3    H134292   3.777   5.142   5.854
11451TIP3    H234293   3.777   5.148   5.703
11452TIP3   OH234294   4.009   5.647   6.840
11452TIP3    H134295   4.092   5.651   6.887
11452TIP3    H234296   3.991   5.553   6.830
11453TIP3   OH234297   4.478   5.571   6.886
11453TIP3    H134298   4.572   5.555   6.889
11453TIP3    H234299   4.447   5.516   6.814
11454TIP3   OH234300   4.449   5.161   5.008
11454TIP3    H134301   4.399   5.090   5.049
11454TIP3    H234302   4.522   5.117   4.964
11455TIP3   OH234303   5.094   5.504   6.634
11455TIP3    H134304   5.109   5.432   6.695
11455TIP3    H234305   5.172   5.559   6.643
11456TIP3   OH234306   4.887   5.200   4.929
11456TIP3    H134307   4.918   5.134   4.991
11456TIP3    H234308   4.947   5.192   4.854
11457TIP3   OH234309   1.289   1.037   0.095
11457TIP3    H134310   1.307   0.943   0.102
11457TIP3    H234311   1.202   1.041   0.054
11458TIP3   OH234312   4.107   4.659   5.234
11458TIP3    H134313   4.164   4.638   5.308
11458TIP3    H234314   4.167   4.671   5.160
11459TIP3   OH234315   4.743   5.128   6.816
11459TIP3    H134316   4.695   5.151   6.737
11459TIP3    H234317   4.780   5.042   6.799
11460TIP3   OH234318   4.668   4.884   5.062
11460TIP3    H134319   4.650   4.899   5.155
11460TIP3    H234320   4.657   4.789   5.051
11461TIP3   OH234321   5.226   5.143   6.424
11461TIP3    H134322   5.301   5.178   6.377
11461TIP3    H234323   5.158   5.210   6.416
11462TIP3   OH234324   1.401   0.776   0.089
11462TIP3    H134325   1.480   0.744   0.045
11462TIP3    H234326   1.430   0.799   0.177
11463TIP3   OH234327   4.292   4.597   5.437
11463TIP3    H134328   4.292   4.567   5.528
11463TIP3    H234329   4.342   4.532   5.389
11464TIP3   OH234330   4.580   4.656   6.680
11464TIP3    H134331   4.504   4.714   6.691
11464TIP3    H234332   4.627   4.693   6.605
11465TIP3   OH234333   4.428   4.401   5.298
11465TIP3    H134334   4.399   4.404   5.207
11465TIP3    H234335   4.523   4.403   5.294
11466TIP3   OH234336   5.103   5.052   6.804
11466TIP3    H134337   5.161   5.007   6.742
11466TIP3    H234338   5.095   4.992   6.878
11467TIP3   OH234339   5.226   4.706   4.963
11467TIP3    H134340   5.213   4.662   4.879
11467TIP3    H234341   5.198   4.796   4.947
11468TIP3   OH234342   4.701   4.444   6.804
11468TIP3    H134343   4.706   4.370   6.743
11468TIP3    H234344   4.662   4.515   6.752
11469TIP3   OH234345   4.710   4.239   6.607
11469TIP3    H134346   4.738   4.279   6.524
11469TIP3    H234347   4.619   4.213   6.592
11470TIP3   OH234348   4.726   4.779   6.487
11470TIP3    H134349   4.814   4.807   6.463
11470TIP3    H234350   4.668   4.838   6.439
11471TIP3   OH234351   5.311   4.729   6.856
11471TIP3    H134352   5.353   4.643   6.860
11471TIP3    H234353   5.380   4.787   6.824
11472TIP3   OH234354   5.346   4.984   6.604
11472TIP3    H134355   5.291   5.041   6.550
11472TIP3    H234356   5.435   5.000   6.572
11473TIP3   OH234357   1.750   0.527   0.105
11473TIP3    H134358   1.679   0.465   0.125
11473TIP3    H234359   1.779   0.502   0.017
11474TIP3   OH234360   4.834   4.004   6.698
11474TIP3    H134361   4.792   4.084   6.667
11474TIP3    H234362   4.768   3.936   6.685
11475TIP3   OH234363   4.958   4.487   6.903
11475TIP3    H134364   4.946   4.475   6.997
11475TIP3    H234365   4.873   4.468   6.865
11476TIP3   OH234366   5.203   4.443   6.770
11476TIP3    H134367   5.124   4.442   6.825
11476TIP3    H234368   5.273   4.415   6.829
11477TIP3   OH234369   2.605   0.392  -0.020
11477TIP3    H134370   2.618   0.298  -0.013
11477TIP3    H234371   2.599   0.422   0.070
11478TIP3   OH234372   1.582   0.307   0.171
11478TIP3    H134373   1.588   0.218   0.137
11478TIP3    H234374   1.615   0.302   0.261
11479TIP3   OH234375   4.908   3.992   6.962
11479TIP3    H134376   4.976   3.926   6.957
11479TIP3    H234377   4.874   4.000   6.873
11480TIP3   OH234378   2.159   0.202   0.169
11480TIP3    H134379   2.132   0.131   0.111
11480TIP3    H234380   2.085   0.264   0.167
11481TIP3   OH234381   4.236   5.454   5.209
11481TIP3    H134382   4.327   5.436   5.187
11481TIP3    H234383   4.202   5.501   5.134
11482TIP3   OH234384   3.708   4.832   5.410
11482TIP3    H134385   3.801   4.851   5.399
11482TIP3    H234386   3.697   4.746   5.368
11483TIP3   OH234387   3.614   5.423   5.852
11483TIP3    H134388   3.551   5.367   5.806
11483TIP3    H234389   3.660   5.364   5.911
11484TIP3   OH234390   3.758   5.259   6.023
11484TIP3    H134391   3.748   5.194   6.092
11484TIP3    H234392   3.810   5.329   6.064
11485TIP3   OH234393   5.495   5.659   5.835
11485TIP3    H134394   5.512   5.687   5.924
11485TIP3    H234395   5.545   5.720   5.780
11486TIP3   OH234396   5.522   5.689   6.114
11486TIP3    H134397   5.463   5.613   6.111
11486TIP3    H234398   5.587   5.666   6.179
11487TIP3   OH234399   5.565   5.388   6.683
11487TIP3    H134400   5.492   5.397   6.743
11487TIP3    H234401   5.607   5.474   6.683
11488TIP3   OH234402   5.380   4.907   5.296
11488TIP3    H134403   5.442   4.974   5.266
11488TIP3    H234404   5.423   4.867   5.372
11489TIP3   OH234405   5.504   4.765   5.499
11489TIP3    H134406   5.437   4.723   5.553
11489TIP3    H234407   5.568   4.798   5.562
11490TIP3   OH234408   5.565   5.167   5.930
11490TIP3    H134409   5.615   5.099   5.885
11490TIP3    H234410   5.562   5.239   5.867
11491TIP3   OH234411   5.359   5.457   6.133
11491TIP3    H134412   5.293   5.505   6.183
11491TIP3    H234413   5.309   5.414   6.063
11492TIP3   OH234414   5.432   4.682   5.143
11492TIP3    H134415   5.362   4.679   5.078
11492TIP3    H234416   5.412   4.759   5.197
11493TIP3   OH234417   5.290   4.340   5.092
11493TIP3    H134418   5.249   4.379   5.015
11493TIP3    H234419   5.274   4.246   5.083
11494TIP3   OH234420   5.310   4.623   5.637
11494TIP3    H134421   5.316   4.528   5.624
11494TIP3    H234422   5.292   4.633   5.730
11495TIP3   OH234423   3.934   4.689   6.391
11495TIP3    H134424   3.928   4.656   6.302
11495TIP3    H234425   4.027   4.687   6.412
11496TIP3   OH234426   5.595   5.042   6.497
11496TIP3    H134427   5.665   4.979   6.478
11496TIP3    H234428   5.594   5.100   6.420
11497TIP3   OH234429   5.778   4.836   6.491
11497TIP3    H134430   5.702   4.795   6.534
11497TIP3    H234431   5.852   4.780   6.515
11498TIP3   OH234432   5.242   4.071   5.073
11498TIP3    H134433   5.310   4.039   5.133
11498TIP3    H234434   5.164   4.021   5.096
11499TIP3   OH234435   5.310   4.347   5.522
11499TIP3    H134436   5.354   4.263   5.535
11499TIP3    H234437   5.356   4.386   5.448
11500TIP3   OH234438   5.464   4.511   6.039
11500TIP3    H134439   5.545   4.530   5.993
11500TIP3    H234440   5.476   4.550   6.126
11501TIP3   OH234441   5.536   4.664   6.266
11501TIP3    H134442   5.460   4.693   6.317
11501TIP3    H234443   5.568   4.743   6.222
11502TIP3   OH234444   1.321   0.369   0.098
11502TIP3    H134445   1.414   0.361   0.122
11502TIP3    H234446   1.278   0.300   0.147
11503TIP3   OH234447   5.995   4.262   6.811
11503TIP3    H134448   6.056   4.202   6.768
11503TIP3    H234449   5.957   4.312   6.739
11504TIP3   OH234450   5.420   4.095   5.573
11504TIP3    H134451   5.466   4.080   5.656
11504TIP3    H234452   5.358   4.023   5.565
11505TIP3   OH234453   4.131   4.084   6.370
11505TIP3    H134454   4.180   4.004   6.390
11505TIP3    H234455   4.195   4.154   6.378
11506TIP3   OH234456   3.910   4.351   6.471
11506TIP3    H134457   3.965   4.363   6.393
11506TIP3    H234458   3.925   4.430   6.523
11507TIP3   OH234459   5.847   4.379   6.614
11507TIP3    H134460   5.762   4.420   6.631
11507TIP3    H234461   5.827   4.304   6.559
11508TIP3   OH234462   5.481   4.015   5.214
11508TIP3    H134463   5.524   3.953   5.156
11508TIP3    H234464   5.537   4.093   5.213
11509TIP3   OH234465   3.888   3.825   5.953
11509TIP3    H134466   3.807   3.819   6.004
11509TIP3    H234467   3.897   3.919   5.934
11510TIP3   OH234468   5.051   5.568   5.476
11510TIP3    H134469   5.109   5.555   5.401
11510TIP3    H234470   5.098   5.629   5.533
11511TIP3   OH234471   4.122   3.905   6.790
11511TIP3    H134472   4.068   3.844   6.841
11511TIP3    H234473   4.059   3.957   6.741
11512TIP3   OH234474   4.149   5.367   6.854
11512TIP3    H134475   4.055   5.346   6.847
11512TIP3    H234476   4.169   5.352   6.946
11513TIP3   OH234477   4.376   5.413   6.403
11513TIP3    H134478   4.322   5.483   6.367
11513TIP3    H234479   4.461   5.424   6.361
11514TIP3   OH234480   4.759   5.639   6.550
11514TIP3    H134481   4.805   5.637   6.634
11514TIP3    H234482   4.819   5.685   6.491
11515TIP3   OH234483   4.946   5.786   6.408
11515TIP3    H134484   5.001   5.732   6.351
11515TIP3    H234485   5.009   5.840   6.458
11516TIP3   OH234486   5.759   4.133   6.505
11516TIP3    H134487   5.671   4.124   6.468
11516TIP3    H234488   5.797   4.046   6.498
11517TIP3   OH234489   4.014   5.652   6.451
11517TIP3    H134490   3.924   5.674   6.430
11517TIP3    H234491   4.041   5.716   6.517
11518TIP3   OH234492   4.247   5.634   6.300
11518TIP3    H134493   4.163   5.640   6.345
11518TIP3    H234494   4.228   5.661   6.210
11519TIP3   OH234495   5.190   5.808   6.047
11519TIP3    H134496   5.152   5.883   6.002
11519TIP3    H234497   5.180   5.735   5.987
11520TIP3   OH234498   3.933   5.436   6.170
11520TIP3    H134499   3.955   5.410   6.260
11520TIP3    H234500   4.006   5.403   6.117
11521TIP3   OH234501   4.137   5.315   6.034
11521TIP3    H134502   4.146   5.231   6.079
11521TIP3    H234503   4.223   5.356   6.041
11522TIP3   OH234504   4.403   5.396   6.070
11522TIP3    H134505   4.424   5.303   6.060
11522TIP3    H234506   4.469   5.430   6.131
11523TIP3   OH234507   4.957   4.053   6.130
11523TIP3    H134508   4.921   3.981   6.180
11523TIP3    H234509   5.030   4.014   6.081
11524TIP3   OH234510   5.467   3.963   6.029
11524TIP3    H134511   5.506   4.012   5.957
11524TIP3    H234512   5.375   3.988   6.028
11525TIP3   OH234513   5.580   4.046   5.794
11525TIP3    H134514   5.649   3.987   5.763
11525TIP3    H234515   5.616   4.133   5.781
11526TIP3   OH234516   4.202   3.753   6.138
11526TIP3    H134517   4.115   3.717   6.151
11526TIP3    H234518   4.260   3.677   6.134
11527TIP3   OH234519   3.997   3.639   5.780
11527TIP3    H134520   4.048   3.692   5.718
11527TIP3    H234521   3.972   3.701   5.848
11528TIP3   OH234522   4.669   3.804   6.028
11528TIP3    H134523   4.723   3.847   5.961
11528TIP3    H234524   4.711   3.827   6.111
11529TIP3   OH234525   5.181   3.942   6.010
11529TIP3    H134526   5.199   3.907   5.923
11529TIP3    H234527   5.184   3.866   6.067
11530TIP3   OH234528   5.234   3.885   5.573
11530TIP3    H134529   5.154   3.932   5.595
11530TIP3    H234530   5.224   3.799   5.614
11531TIP3   OH234531   3.700   5.230   5.565
11531TIP3    H134532   3.617   5.200   5.529
11531TIP3    H234533   3.708   5.320   5.532
11532TIP3   OH234534   4.128   3.798   5.566
11532TIP3    H134535   4.167   3.732   5.508
11532TIP3    H234536   4.202   3.851   5.595
11533TIP3   OH234537   4.621   3.985   5.655
11533TIP3    H134538   4.683   3.934   5.708
11533TIP3    H234539   4.637   4.076   5.680
11534TIP3   OH234540   4.497   5.389   5.150
11534TIP3    H134541   4.582   5.416   5.114
11534TIP3    H234542   4.470   5.315   5.094
11535TIP3   OH234543   5.208   5.527   5.248
11535TIP3    H134544   5.203   5.431   5.240
11535TIP3    H234545   5.163   5.559   5.170
11536TIP3   OH234546   1.595   0.037   0.082
11536TIP3    H134547   1.558  -0.031   0.139
11536TIP3    H234548   1.687   0.043   0.107
11537TIP3   OH234549   1.844   0.040   0.205
11537TIP3    H134550   1.923   0.016   0.156
11537TIP3    H234551   1.837  -0.028   0.272
11538TIP3   OH234552   3.807   5.236   5.207
11538TIP3    H134553   3.817   5.256   5.301
11538TIP3    H234554   3.886   5.189   5.184
11539TIP3   OH234555   2.668   0.121  -0.008
11539TIP3    H134556   2.685   0.091   0.082
11539TIP3    H234557   2.754   0.115  -0.051
11540TIP3   OH234558   5.414   5.661   6.428
11540TIP3    H134559   5.336   5.632   6.380
11540TIP3    H234560   5.402   5.755   6.438
11541TIP3   OH234561   6.696   5.048   5.186
11541TIP3    H134562   6.665   5.136   5.163
11541TIP3    H234563   6.627   4.989   5.155
11542TIP3   OH234564   6.707   5.050   5.599
11542TIP3    H134565   6.755   5.027   5.678
11542TIP3    H234566   6.663   4.969   5.574
11543TIP3   OH234567   5.998   4.917   5.945
11543TIP3    H134568   6.028   4.858   6.014
11543TIP3    H234569   6.079   4.943   5.899
11544TIP3   OH234570   6.960   5.334   5.269
11544TIP3    H134571   6.954   5.267   5.337
11544TIP3    H234572   6.989   5.413   5.316
11545TIP3   OH234573   5.986   5.348   5.654
11545TIP3    H134574   5.971   5.253   5.658
11545TIP3    H234575   6.080   5.357   5.639
11546TIP3   OH234576   5.672   4.545   5.430
11546TIP3    H134577   5.628   4.627   5.453
11546TIP3    H234578   5.604   4.492   5.388
11547TIP3   OH234579   5.737   4.834   5.636
11547TIP3    H134580   5.787   4.758   5.665
11547TIP3    H234581   5.796   4.882   5.579
11548TIP3   OH234582   6.584   5.814   5.276
11548TIP3    H134583   6.620   5.733   5.239
11548TIP3    H234584   6.551   5.789   5.362
11549TIP3   OH234585   6.491   5.263   5.608
11549TIP3    H134586   6.516   5.192   5.549
11549TIP3    H234587   6.573   5.290   5.650
11550TIP3   OH234588   7.529   4.607   5.599
11550TIP3    H134589   7.498   4.697   5.586
11550TIP3    H234590   7.575   4.586   5.518
11551TIP3   OH234591   6.915   4.755   5.644
11551TIP3    H134592   6.953   4.670   5.668
11551TIP3    H234593   6.876   4.739   5.558
11552TIP3   OH234594   6.264   4.418   5.604
11552TIP3    H134595   6.242   4.490   5.546
11552TIP3    H234596   6.211   4.344   5.572
11553TIP3   OH234597   6.958   4.517   5.236
11553TIP3    H134598   7.024   4.505   5.303
11553TIP3    H234599   7.006   4.551   5.160
11554TIP3   OH234600   5.888   4.623   5.731
11554TIP3    H134601   5.970   4.606   5.776
11554TIP3    H234602   5.893   4.572   5.650
11555TIP3   OH234603   6.314   4.826   5.542
11555TIP3    H134604   6.408   4.808   5.548
11555TIP3    H234605   6.277   4.746   5.505
11556TIP3   OH234606   6.244   4.415   6.057
11556TIP3    H134607   6.192   4.447   5.984
11556TIP3    H234608   6.189   4.430   6.134
11557TIP3   OH234609   6.573   5.260   5.063
11557TIP3    H134610   6.544   5.241   4.974
11557TIP3    H234611   6.530   5.343   5.085
11558TIP3   OH234612   6.345   5.189   5.832
11558TIP3    H134613   6.286   5.255   5.867
11558TIP3    H234614   6.382   5.230   5.753
11559TIP3   OH234615   7.130   4.524   5.448
11559TIP3    H134616   7.092   4.501   5.532
11559TIP3    H234617   7.184   4.602   5.466
11560TIP3   OH234618   6.132   4.521   5.827
11560TIP3    H134619   6.189   4.595   5.851
11560TIP3    H234620   6.178   4.479   5.754
11561TIP3   OH234621   6.183   5.387   5.935
11561TIP3    H134622   6.165   5.474   5.899
11561TIP3    H234623   6.106   5.366   5.987
11562TIP3   OH234624   5.563   5.088   5.180
11562TIP3    H134625   5.526   5.104   5.093
11562TIP3    H234626   5.588   5.174   5.212
11563TIP3   OH234627   6.992   5.578   5.411
11563TIP3    H134628   6.897   5.576   5.418
11563TIP3    H234629   7.011   5.657   5.361
11564TIP3   OH234630   7.316   4.490   5.779
11564TIP3    H134631   7.225   4.505   5.752
11564TIP3    H234632   7.369   4.516   5.704
11565TIP3   OH234633   6.590   4.112   5.779
11565TIP3    H134634   6.580   4.020   5.802
11565TIP3    H234635   6.514   4.156   5.818
11566TIP3   OH234636   6.710   5.625   5.105
11566TIP3    H134637   6.757   5.545   5.081
11566TIP3    H234638   6.761   5.695   5.066
11567TIP3   OH234639   6.857   5.409   5.022
11567TIP3    H134640   6.844   5.332   4.966
11567TIP3    H234641   6.895   5.374   5.102
11568TIP3   OH234642   7.218   5.504   5.762
11568TIP3    H134643   7.208   5.432   5.700
11568TIP3    H234644   7.194   5.582   5.711
11569TIP3   OH234645   6.524   4.893   5.031
11569TIP3    H134646   6.443   4.941   5.013
11569TIP3    H234647   6.568   4.889   4.946
11570TIP3   OH234648   6.495   4.685   4.738
11570TIP3    H134649   6.562   4.738   4.782
11570TIP3    H234650   6.545   4.621   4.688
11571TIP3   OH234651   7.422   5.147   5.627
11571TIP3    H134652   7.338   5.192   5.630
11571TIP3    H234653   7.454   5.162   5.538
11572TIP3   OH234654   6.880   4.984   4.994
11572TIP3    H134655   6.825   5.010   5.068
11572TIP3    H234656   6.962   4.955   5.034
11573TIP3   OH234657   7.106   5.012   5.926
11573TIP3    H134658   7.104   5.095   5.975
11573TIP3    H234659   7.023   5.009   5.879
11574TIP3   OH234660   6.106   4.962   5.408
11574TIP3    H134661   6.067   4.905   5.342
11574TIP3    H234662   6.180   4.912   5.442
11575TIP3   OH234663   6.243   5.398   5.543
11575TIP3    H134664   6.213   5.379   5.454
11575TIP3    H234665   6.328   5.355   5.550
11576TIP3   OH234666   6.223   4.948   5.775
11576TIP3    H134667   6.257   4.915   5.692
11576TIP3    H234668   6.270   5.030   5.790
11577TIP3   OH234669   6.389   5.494   6.084
11577TIP3    H134670   6.334   5.552   6.137
11577TIP3    H234671   6.326   5.444   6.032
11578TIP3   OH234672   6.714   4.839   4.829
11578TIP3    H134673   6.772   4.897   4.879
11578TIP3    H234674   6.741   4.851   4.738
11579TIP3   OH234675   6.138   5.042   6.225
11579TIP3    H134676   6.141   5.134   6.250
11579TIP3    H234677   6.044   5.022   6.220
11580TIP3   OH234678   6.458   5.514   5.095
11580TIP3    H134679   6.542   5.558   5.101
11580TIP3    H234680   6.404   5.572   5.041
11581TIP3   OH234681   6.174   5.647   6.184
11581TIP3    H134682   6.141   5.653   6.094
11581TIP3    H234683   6.096   5.630   6.237
11582TIP3   OH234684   7.227   4.068   4.880
11582TIP3    H134685   7.147   4.087   4.930
11582TIP3    H234686   7.240   4.146   4.826
11583TIP3   OH234687   5.978   4.807   5.208
11583TIP3    H134688   5.906   4.855   5.167
11583TIP3    H234689   5.946   4.718   5.219
11584TIP3   OH234690   7.043   5.444   4.430
11584TIP3    H134691   7.042   5.537   4.410
11584TIP3    H234692   7.132   5.416   4.410
11585TIP3   OH234693   5.762   5.202   6.127
11585TIP3    H134694   5.693   5.188   6.063
11585TIP3    H234695   5.796   5.115   6.146
11586TIP3   OH234696   5.603   5.402   5.772
11586TIP3    H134697   5.696   5.422   5.785
11586TIP3    H234698   5.557   5.479   5.805
11587TIP3   OH234699   7.463   5.827   5.812
11587TIP3    H134700   7.465   5.737   5.844
11587TIP3    H234701   7.393   5.869   5.862
11588TIP3   OH234702   6.533   5.668   5.921
11588TIP3    H134703   6.525   5.750   5.968
11588TIP3    H234704   6.487   5.604   5.976
11589TIP3   OH234705   6.354   5.739   4.909
11589TIP3    H134706   6.308   5.719   4.827
11589TIP3    H234707   6.318   5.824   4.935
11590TIP3   OH234708   5.781   5.593   5.281
11590TIP3    H134709   5.823   5.584   5.366
11590TIP3    H234710   5.732   5.511   5.270
11591TIP3   OH234711   6.550   5.664   4.535
11591TIP3    H134712   6.601   5.591   4.499
11591TIP3    H234713   6.585   5.676   4.623
11592TIP3   OH234714   6.607   5.711   4.803
11592TIP3    H134715   6.524   5.712   4.850
11592TIP3    H234716   6.673   5.691   4.870
11593TIP3   OH234717   7.368   4.970   6.088
11593TIP3    H134718   7.285   4.990   6.045
11593TIP3    H234719   7.382   4.877   6.069
11594TIP3   OH234720   5.965   5.387   6.102
11594TIP3    H134721   6.012   5.375   6.184
11594TIP3    H234722   5.892   5.325   6.107
11595TIP3   OH234723   6.354   4.205   5.906
11595TIP3    H134724   6.271   4.171   5.873
11595TIP3    H234725   6.330   4.283   5.955
11596TIP3   OH234726   6.892   4.320   6.103
11596TIP3    H134727   6.961   4.294   6.165
11596TIP3    H234728   6.810   4.302   6.149
11597TIP3   OH234729   7.127   4.752   6.028
11597TIP3    H134730   7.080   4.748   6.111
11597TIP3    H234731   7.105   4.838   5.992
11598TIP3   OH234732   6.804   4.860   4.575
11598TIP3    H134733   6.753   4.848   4.495
11598TIP3    H234734   6.885   4.900   4.546
11599TIP3   OH234735   6.507   4.238   4.876
11599TIP3    H134736   6.467   4.245   4.963
11599TIP3    H234737   6.465   4.160   4.838
11600TIP3   OH234738   6.293   4.726   5.923
11600TIP3    H134739   6.243   4.735   6.005
11600TIP3    H234740   6.272   4.806   5.874
11601TIP3   OH234741   6.172   4.613   5.435
11601TIP3    H134742   6.082   4.588   5.459
11601TIP3    H234743   6.183   4.578   5.346
11602TIP3   OH234744   6.655   4.691   5.164
11602TIP3    H134745   6.605   4.761   5.123
11602TIP3    H234746   6.712   4.658   5.095
11603TIP3   OH234747   6.833   4.957   6.240
11603TIP3    H134748   6.807   4.888   6.302
11603TIP3    H234749   6.925   4.973   6.260
11604TIP3   OH234750   6.819   4.706   5.391
11604TIP3    H134751   6.752   4.732   5.328
11604TIP3    H234752   6.863   4.631   5.350
11605TIP3   OH234753   6.119   4.746   6.136
11605TIP3    H134754   6.127   4.811   6.206
11605TIP3    H234755   6.100   4.664   6.182
11606TIP3   OH234756   6.167   4.227   4.844
11606TIP3    H134757   6.154   4.230   4.939
11606TIP3    H234758   6.089   4.270   4.808
11607TIP3   OH234759   5.708   4.269   5.716
11607TIP3    H134760   5.783   4.302   5.766
11607TIP3    H234761   5.745   4.243   5.632
11608TIP3   OH234762   5.638   4.248   5.225
11608TIP3    H134763   5.683   4.283   5.148
11608TIP3    H234764   5.575   4.316   5.248
11609TIP3   OH234765   6.850   4.951   5.818
11609TIP3    H134766   6.879   4.885   5.755
11609TIP3    H234767   6.812   4.900   5.890
11610TIP3   OH234768   6.531   4.411   5.493
11610TIP3    H134769   6.451   4.410   5.546
11610TIP3    H234770   6.602   4.403   5.556
11611TIP3   OH234771   5.934   4.487   5.497
11611TIP3    H134772   5.845   4.493   5.464
11611TIP3    H234773   5.961   4.396   5.479
11612TIP3   OH234774   6.191   4.488   5.191
11612TIP3    H134775   6.285   4.498   5.175
11612TIP3    H234776   6.150   4.506   5.106
11613TIP3   OH234777   6.998   4.494   5.702
11613TIP3    H134778   6.974   4.513   5.793
11613TIP3    H234779   6.929   4.433   5.672
11614TIP3   OH234780   6.062   4.515   4.951
11614TIP3    H134781   5.997   4.465   4.901
11614TIP3    H234782   6.116   4.557   4.884
11615TIP3   OH234783   7.180   6.196   5.909
11615TIP3    H134784   7.171   6.212   5.815
11615TIP3    H234785   7.249   6.257   5.936
11616TIP3   OH234786   6.123   5.303   6.333
11616TIP3    H134787   6.203   5.325   6.382
11616TIP3    H234788   6.053   5.308   6.398
11617TIP3   OH234789   6.586   4.771   5.597
11617TIP3    H134790   6.649   4.719   5.547
11617TIP3    H234791   6.583   4.729   5.683
11618TIP3   OH234792   6.084   4.239   5.483
11618TIP3    H134793   6.053   4.164   5.533
11618TIP3    H234794   6.111   4.201   5.399
11619TIP3   OH234795   6.558   4.672   5.863
11619TIP3    H134796   6.470   4.700   5.888
11619TIP3    H234797   6.616   4.723   5.920
11620TIP3   OH234798   6.287   5.036   4.978
11620TIP3    H134799   6.215   4.977   4.959
11620TIP3    H234800   6.266   5.073   5.064
11621TIP3   OH234801   7.189   5.288   5.589
11621TIP3    H134802   7.223   5.336   5.513
11621TIP3    H234803   7.109   5.245   5.556
11622TIP3   OH234804   6.757   4.344   4.874
11622TIP3    H134805   6.664   4.321   4.870
11622TIP3    H234806   6.758   4.439   4.883
11623TIP3   OH234807   6.705   5.395   6.007
11623TIP3    H134808   6.748   5.331   6.063
11623TIP3    H234809   6.622   5.415   6.052
11624TIP3   OH234810   6.817   4.609   4.949
11624TIP3    H134811   6.913   4.614   4.954
11624TIP3    H234812   6.792   4.684   4.895
11625TIP3   OH234813   5.994   5.068   5.638
11625TIP3    H134814   6.026   5.040   5.552
11625TIP3    H234815   6.046   5.017   5.701
11626TIP3   OH234816   6.444   5.194   4.820
11626TIP3    H134817   6.397   5.277   4.817
11626TIP3    H234818   6.388   5.137   4.872
11627TIP3   OH234819   5.868   4.970   6.258
11627TIP3    H134820   5.870   4.948   6.351
11627TIP3    H234821   5.793   4.922   6.223
11628TIP3   OH234822   6.598   5.109   6.276
11628TIP3    H134823   6.530   5.048   6.248
11628TIP3    H234824   6.680   5.068   6.249
11629TIP3   OH234825   6.825   5.610   5.893
11629TIP3    H134826   6.791   5.538   5.946
11629TIP3    H234827   6.876   5.663   5.954
11630TIP3   OH234828   7.244   4.697   4.770
11630TIP3    H134829   7.189   4.650   4.708
11630TIP3    H234830   7.246   4.787   4.737
11631TIP3   OH234831   7.470   5.538   5.859
11631TIP3    H134832   7.375   5.542   5.845
11631TIP3    H234833   7.505   5.521   5.771
11632TIP3   OH234834   6.975   5.513   4.695
11632TIP3    H134835   6.939   5.444   4.749
11632TIP3    H234836   6.988   5.472   4.609
11633TIP3   OH234837   6.964   5.146   5.483
11633TIP3    H134838   6.875   5.128   5.513
11633TIP3    H234839   6.994   5.064   5.446
11634TIP3   OH234840   6.103   5.384   5.296
11634TIP3    H134841   6.103   5.460   5.239
11634TIP3    H234842   6.010   5.364   5.308
11635TIP3   OH234843   5.667   4.671   4.996
11635TIP3    H134844   5.710   4.755   5.016
11635TIP3    H234845   5.587   4.672   5.047
11636TIP3   OH234846   6.207   5.138   5.217
11636TIP3    H134847   6.185   5.228   5.240
11636TIP3    H234848   6.173   5.085   5.288
11637TIP3   OH234849   6.018   5.610   5.139
11637TIP3    H134850   5.931   5.615   5.178
11637TIP3    H234851   6.050   5.700   5.139
11638TIP3   OH234852   6.731   5.248   4.589
11638TIP3    H134853   6.772   5.228   4.673
11638TIP3    H234854   6.645   5.205   4.594
11639TIP3   OH234855   7.051   5.718   4.396
11639TIP3    H134856   7.070   5.780   4.325
11639TIP3    H234857   6.979   5.758   4.445
11640TIP3   OH234858   6.070   4.494   6.263
11640TIP3    H134859   5.974   4.502   6.265
11640TIP3    H234860   6.091   4.433   6.333
11641TIP3   OH234861   6.896   5.194   4.813
11641TIP3    H134862   6.880   5.121   4.872
11641TIP3    H234863   6.990   5.190   4.793
11642TIP3   OH234864   5.812   5.584   5.903
11642TIP3    H134865   5.865   5.518   5.949
11642TIP3    H234866   5.818   5.662   5.959
11643TIP3   OH234867   6.084   5.215   4.595
11643TIP3    H134868   6.093   5.124   4.567
11643TIP3    H234869   6.065   5.210   4.688
11644TIP3   OH234870   6.027   5.232   4.867
11644TIP3    H134871   6.102   5.203   4.920
11644TIP3    H234872   6.029   5.327   4.874
11645TIP3   OH234873   5.763   4.923   5.077
11645TIP3    H134874   5.696   4.967   5.129
11645TIP3    H234875   5.781   4.983   5.005
11646TIP3   OH234876   6.930   4.556   5.963
11646TIP3    H134877   7.008   4.597   6.002
11646TIP3    H234878   6.916   4.477   6.015
11647TIP3   OH234879   6.811   4.298   5.143
11647TIP3    H134880   6.789   4.315   5.051
11647TIP3    H234881   6.852   4.379   5.173
11648TIP3   OH234882   6.300   5.423   4.815
11648TIP3    H134883   6.214   5.447   4.850
11648TIP3    H234884   6.321   5.494   4.754
11649TIP3   OH234885   6.474   4.493   5.232
11649TIP3    H134886   6.535   4.563   5.207
11649TIP3    H234887   6.491   4.478   5.325
11650TIP3   OH234888   6.760   4.789   6.019
11650TIP3    H134889   6.784   4.834   6.100
11650TIP3    H234890   6.813   4.709   6.021
11651TIP3   OH234891   6.626   4.200   5.327
11651TIP3    H134892   6.603   4.279   5.377
11651TIP3    H234893   6.693   4.231   5.265
11652TIP3   OH234894   6.046   5.505   4.886
11652TIP3    H134895   6.023   5.575   4.825
11652TIP3    H234896   6.034   5.544   4.973
11653TIP3   OH234897   6.139   4.216   5.124
11653TIP3    H134898   6.129   4.306   5.155
11653TIP3    H234899   6.234   4.200   5.129
11654TIP3   OH234900   7.388   4.695   5.991
11654TIP3    H134901   7.296   4.706   6.013
11654TIP3    H234902   7.388   4.649   5.907
11655TIP3   OH234903   7.042   4.889   5.390
11655TIP3    H134904   6.963   4.835   5.399
11655TIP3    H234905   7.108   4.844   5.444
11656TIP3   OH234906   5.775   5.109   4.865
11656TIP3    H134907   5.845   5.174   4.874
11656TIP3    H234908   5.809   5.045   4.803
11657TIP3   OH234909   5.701   4.395   5.003
11657TIP3    H134910   5.706   4.491   5.006
11657TIP3    H234911   5.646   4.377   4.926
11658TIP3   OH234912   7.033   5.826   5.310
11658TIP3    H134913   6.981   5.890   5.262
11658TIP3    H234914   7.122   5.861   5.309
11659TIP3   OH234915   6.093   4.118   5.868
11659TIP3    H134916   6.062   4.084   5.784
11659TIP3    H234917   6.081   4.044   5.929
11660TIP3   OH234918   5.617   5.361   5.257
11660TIP3    H134919   5.566   5.393   5.331
11660TIP3    H234920   5.577   5.402   5.180
11661TIP3   OH234921   5.801   5.900   6.327
11661TIP3    H134922   5.885   5.901   6.373
11661TIP3    H234923   5.777   5.807   6.322
11662TIP3   OH234924   6.275   5.823   6.372
11662TIP3    H134925   6.368   5.803   6.377
11662TIP3    H234926   6.242   5.766   6.303
11663TIP3   OH234927   6.243   5.418   4.495
11663TIP3    H134928   6.194   5.346   4.535
11663TIP3    H234929   6.317   5.376   4.452
11664TIP3   OH234930   6.930   5.751   6.103
11664TIP3    H134931   6.919   5.683   6.169
11664TIP3    H234932   7.005   5.802   6.134
11665TIP3   OH234933   6.683   5.456   4.414
11665TIP3    H134934   6.716   5.390   4.475
11665TIP3    H234935   6.741   5.450   4.338
11666TIP3   OH234936   5.917   5.297   6.520
11666TIP3    H134937   5.934   5.203   6.528
11666TIP3    H234938   5.831   5.302   6.478
11667TIP3   OH234939   5.904   4.917   4.724
11667TIP3    H134940   5.958   4.891   4.799
11667TIP3    H234941   5.967   4.926   4.652
11668TIP3   OH234942   6.531   5.383   6.293
11668TIP3    H134943   6.479   5.401   6.215
11668TIP3    H234944   6.560   5.292   6.283
11669TIP3   OH234945   6.472   5.135   4.552
11669TIP3    H134946   6.449   5.148   4.645
11669TIP3    H234947   6.458   5.042   4.537
11670TIP3   OH234948   7.021   5.395   5.919
11670TIP3    H134949   7.092   5.439   5.872
11670TIP3    H234950   6.942   5.441   5.891
11671TIP3   OH234951   6.036   5.042   6.523
11671TIP3    H134952   6.113   5.017   6.471
11671TIP3    H234953   6.070   5.064   6.609
11672TIP3   OH234954   6.087   4.849   4.931
11672TIP3    H134955   6.064   4.811   5.015
11672TIP3    H234956   6.132   4.779   4.884
11673TIP3   OH234957   6.391   4.930   6.185
11673TIP3    H134958   6.305   4.971   6.191
11673TIP3    H234959   6.426   4.958   6.100
11674TIP3   OH234960   6.216   4.658   4.774
11674TIP3    H134961   6.188   4.662   4.683
11674TIP3    H234962   6.312   4.662   4.769
11675TIP3   OH234963   6.894   5.299   6.279
11675TIP3    H134964   6.972   5.267   6.233
11675TIP3    H234965   6.889   5.247   6.359
11676TIP3   OH234966   7.028   4.963   4.446
11676TIP3    H134967   7.009   4.919   4.363
11676TIP3    H234968   6.999   5.053   4.432
11677TIP3   OH234969   6.500   4.700   6.290
11677TIP3    H134970   6.500   4.628   6.228
11677TIP3    H234971   6.462   4.774   6.242
11678TIP3   OH234972   6.504   4.496   6.092
11678TIP3    H134973   6.531   4.532   6.007
11678TIP3    H234974   6.413   4.471   6.080
11679TIP3   OH234975   6.519   5.025   5.966
11679TIP3    H134976   6.605   5.033   5.924
11679TIP3    H234977   6.463   5.087   5.919
11680TIP3   OH234978   7.101   4.986   6.338
11680TIP3    H134979   7.140   4.899   6.347
11680TIP3    H234980   7.174   5.043   6.313
11681TIP3   OH234981   7.154   5.239   6.090
11681TIP3    H134982   7.098   5.298   6.039
11681TIP3    H234983   7.242   5.253   6.054
11682TIP3   OH234984   6.380   4.791   6.530
11682TIP3    H134985   6.311   4.727   6.550
11682TIP3    H234986   6.409   4.768   6.442
11683TIP3   OH234987   6.628   4.261   6.183
11683TIP3    H134988   6.586   4.342   6.153
11683TIP3    H234989   6.562   4.193   6.171
11684TIP3   OH234990   6.755   4.742   6.390
11684TIP3    H134991   6.743   4.731   6.485
11684TIP3    H234992   6.669   4.721   6.353
11685TIP3   OH234993   6.999   4.699   6.260
11685TIP3    H134994   6.920   4.698   6.314
11685TIP3    H234995   7.069   4.667   6.317
11686TIP3   OH234996   7.249   4.657   6.396
11686TIP3    H134997   7.255   4.563   6.408
11686TIP3    H234998   7.237   4.692   6.484
11687TIP3   OH234999   6.216   4.571   6.595
11687TIP3    H135000   6.219   4.483   6.557
11687TIP3    H235001   6.254   4.561   6.682
11688TIP3   OH235002   6.704   4.249   6.447
11688TIP3    H135003   6.772   4.182   6.441
11688TIP3    H235004   6.669   4.257   6.358
11689TIP3   OH235005   6.789   4.466   6.593
11689TIP3    H135006   6.761   4.394   6.536
11689TIP3    H235007   6.716   4.527   6.593
11690TIP3   OH235008   6.034   5.712   4.701
11690TIP3    H135009   6.125   5.694   4.677
11690TIP3    H235010   5.998   5.758   4.624
11691TIP3   OH235011   5.503   5.088   4.896
11691TIP3    H135012   5.597   5.104   4.886
11691TIP3    H235013   5.489   5.002   4.857
11692TIP3   OH235014   5.410   5.688   5.339
11692TIP3    H135015   5.346   5.633   5.295
11692TIP3    H235016   5.456   5.629   5.399
11693TIP3   OH235017   5.551   5.524   5.512
11693TIP3    H135018   5.538   5.455   5.577
11693TIP3    H235019   5.603   5.590   5.557
11694TIP3   OH235020   7.292   5.921   5.323
11694TIP3    H135021   7.301   5.945   5.415
11694TIP3    H235022   7.326   5.997   5.275
11695TIP3   OH235023   7.297   5.951   5.600
11695TIP3    H135024   7.253   5.866   5.606
11695TIP3    H235025   7.372   5.944   5.659
11696TIP3   OH235026   7.355   5.646   6.178
11696TIP3    H135027   7.278   5.653   6.234
11696TIP3    H235028   7.395   5.733   6.181
11697TIP3   OH235029   7.175   5.164   4.784
11697TIP3    H135030   7.235   5.232   4.754
11697TIP3    H235031   7.219   5.124   4.859
11698TIP3   OH235032   7.302   5.020   4.984
11698TIP3    H135033   7.234   4.980   5.038
11698TIP3    H235034   7.365   5.056   5.047
11699TIP3   OH235035   7.359   5.426   5.415
11699TIP3    H135036   7.407   5.359   5.366
11699TIP3    H235037   7.359   5.502   5.357
11700TIP3   OH235038   7.134   5.721   5.609
11700TIP3    H135039   7.060   5.781   5.620
11700TIP3    H235040   7.109   5.667   5.533
11701TIP3   OH235041   7.226   4.938   4.633
11701TIP3    H135042   7.158   4.936   4.566
11701TIP3    H235043   7.205   5.014   4.686
11702TIP3   OH235044   7.094   4.589   4.570
11702TIP3    H135045   7.045   4.632   4.500
11702TIP3    H235046   7.078   4.496   4.558
11703TIP3   OH235047   7.107   4.879   5.122
11703TIP3    H135048   7.110   4.784   5.106
11703TIP3    H235049   7.088   4.887   5.215
11704TIP3   OH235050   5.733   4.946   5.887
11704TIP3    H135051   5.723   4.913   5.798
11704TIP3    H235052   5.828   4.947   5.901
11705TIP3   OH235053   7.405   5.290   5.979
11705TIP3    H135054   7.456   5.223   5.933
11705TIP3    H235055   7.421   5.370   5.929
11706TIP3   OH235056   7.603   5.071   5.972
11706TIP3    H135057   7.530   5.037   6.025
11706TIP3    H235058   7.656   5.121   6.034
11707TIP3   OH235059   7.045   4.319   4.546
11707TIP3    H135060   7.106   4.293   4.615
11707TIP3    H235061   6.961   4.281   4.572
11708TIP3   OH235062   7.109   4.605   5.010
11708TIP3    H135063   7.151   4.520   5.023
11708TIP3    H235064   7.153   4.642   4.933
11709TIP3   OH235065   7.257   4.760   5.520
11709TIP3    H135066   7.337   4.787   5.474
11709TIP3    H235067   7.262   4.805   5.605
11710TIP3   OH235068   7.303   4.916   5.740
11710TIP3    H135069   7.238   4.950   5.801
11710TIP3    H235070   7.352   4.993   5.712
11711TIP3   OH235071   5.951   4.630   6.550
11711TIP3    H135072   6.046   4.625   6.559
11711TIP3    H235073   5.918   4.548   6.585
11712TIP3   OH235074   7.781   4.519   6.296
11712TIP3    H135075   7.843   4.450   6.272
11712TIP3    H235076   7.747   4.551   6.212
11713TIP3   OH235077   7.217   4.352   5.060
11713TIP3    H135078   7.260   4.335   5.144
11713TIP3    H235079   7.153   4.281   5.051
11714TIP3   OH235080   5.921   4.336   5.885
11714TIP3    H135081   5.976   4.258   5.890
11714TIP3    H235082   5.982   4.408   5.870
11715TIP3   OH235083   5.709   4.603   5.950
11715TIP3    H135084   5.759   4.593   5.869
11715TIP3    H235085   5.731   4.691   5.980
11716TIP3   OH235086   7.658   4.640   6.078
11716TIP3    H135087   7.585   4.687   6.119
11716TIP3    H235088   7.616   4.565   6.035
11717TIP3   OH235089   7.279   4.273   4.703
11717TIP3    H135090   7.318   4.211   4.642
11717TIP3    H235091   7.336   4.350   4.700
11718TIP3   OH235092   5.697   4.115   5.456
11718TIP3    H135093   5.608   4.100   5.490
11718TIP3    H235094   5.683   4.168   5.378
11719TIP3   OH235095   6.843   5.815   4.964
11719TIP3    H135096   6.903   5.808   4.890
11719TIP3    H235097   6.883   5.880   5.021
11720TIP3   OH235098   5.922   4.194   6.280
11720TIP3    H135099   5.867   4.176   6.356
11720TIP3    H235100   5.862   4.229   6.215
11721TIP3   OH235101   5.951   5.615   6.351
11721TIP3    H135102   5.858   5.601   6.337
11721TIP3    H235103   5.963   5.605   6.445
11722TIP3   OH235104   6.157   5.662   5.900
11722TIP3    H135105   6.098   5.723   5.855
11722TIP3    H235106   6.244   5.699   5.887
11723TIP3   OH235107   6.571   5.916   6.030
11723TIP3    H135108   6.626   5.914   6.108
11723TIP3    H235109   6.628   5.949   5.961
11724TIP3   OH235110   7.557   4.389   5.995
11724TIP3    H135111   7.467   4.376   5.967
11724TIP3    H235112   7.597   4.302   5.988
11725TIP3   OH235113   5.817   5.920   5.934
11725TIP3    H135114   5.726   5.937   5.911
11725TIP3    H235115   5.837   5.983   6.003
11726TIP3   OH235116   6.043   5.883   5.780
11726TIP3    H135117   5.962   5.895   5.829
11726TIP3    H235118   6.023   5.913   5.691
11727TIP3   OH235119   6.462   5.839   5.545
11727TIP3    H135120   6.417   5.918   5.516
11727TIP3    H235121   6.537   5.871   5.595
11728TIP3   OH235122   5.728   5.697   5.659
11728TIP3    H135123   5.751   5.668   5.748
11728TIP3    H235124   5.797   5.661   5.604
11729TIP3   OH235125   5.923   5.575   5.516
11729TIP3    H135126   5.937   5.494   5.565
11729TIP3    H235127   6.010   5.616   5.514
11730TIP3   OH235128   6.189   5.675   5.525
11730TIP3    H135129   6.212   5.582   5.524
11730TIP3    H235130   6.260   5.717   5.575
11731TIP3   OH235131   6.765   4.318   5.630
11731TIP3    H135132   6.723   4.246   5.675
11731TIP3    H235133   6.832   4.277   5.575
11732TIP3   OH235134   7.265   4.225   5.523
11732TIP3    H135135   7.301   4.271   5.447
11732TIP3    H235136   7.171   4.240   5.518
11733TIP3   OH235137   7.376   4.298   5.283
11733TIP3    H135138   7.446   4.240   5.250
11733TIP3    H235139   7.410   4.386   5.269
11734TIP3   OH235140   6.003   4.015   5.627
11734TIP3    H135141   5.912   3.984   5.632
11734TIP3    H235142   6.055   3.935   5.619
11735TIP3   OH235143   5.817   3.916   5.282
11735TIP3    H135144   5.842   3.966   5.204
11735TIP3    H235145   5.782   3.982   5.342
11736TIP3   OH235146   6.472   4.055   5.517
11736TIP3    H135147   6.521   4.103   5.449
11736TIP3    H235148   6.511   4.084   5.599
11737TIP3   OH235149   6.981   4.205   5.494
11737TIP3    H135150   6.983   4.171   5.405
11737TIP3    H235151   6.981   4.127   5.550
11738TIP3   OH235152   7.031   4.142   5.062
11738TIP3    H135153   6.949   4.189   5.082
11738TIP3    H235154   7.019   4.055   5.101
11739TIP3   OH235155   5.502   5.485   5.042
11739TIP3    H135156   5.418   5.450   5.014
11739TIP3    H235157   5.502   5.576   5.011
11740TIP3   OH235158   5.923   4.049   5.044
11740TIP3    H135159   5.967   3.989   4.984
11740TIP3    H235160   5.993   4.106   5.076
11741TIP3   OH235161   6.415   4.243   5.138
11741TIP3    H135162   6.473   4.190   5.193
11741TIP3    H235163   6.433   4.333   5.164
11742TIP3   OH235164   6.294   5.645   4.637
11742TIP3    H135165   6.377   5.673   4.600
11742TIP3    H235166   6.265   5.573   4.581
11743TIP3   OH235167   7.004   5.782   4.737
11743TIP3    H135168   6.999   5.687   4.727
11743TIP3    H235169   6.959   5.816   4.659
11744TIP3   OH235170   6.222   4.296   6.515
11744TIP3    H135171   6.186   4.228   6.572
11744TIP3    H235172   6.314   4.303   6.541
11745TIP3   OH235173   6.474   4.303   6.633
11745TIP3    H135174   6.552   4.280   6.584
11745TIP3    H235175   6.464   4.233   6.698
11746TIP3   OH235176   5.597   5.488   4.692
11746TIP3    H135177   5.599   5.495   4.788
11746TIP3    H235178   5.678   5.443   4.670
11747TIP3   OH235179   7.294   4.384   6.422
11747TIP3    H135180   7.309   4.355   6.512
11747TIP3    H235181   7.380   4.377   6.380
11748TIP3   OH235182   7.232   5.926   5.927
11748TIP3    H135183   7.145   5.895   5.900
11748TIP3    H235184   7.224   6.022   5.925
11749TIP3   OH235185   8.480   5.322   4.677
11749TIP3    H135186   8.444   5.406   4.648
11749TIP3    H235187   8.418   5.257   4.647
11750TIP3   OH235188   8.447   5.303   5.075
11750TIP3    H135189   8.494   5.293   5.158
11750TIP3    H235190   8.410   5.217   5.058
11751TIP3   OH235191   7.791   5.193   5.424
11751TIP3    H135192   7.822   5.133   5.491
11751TIP3    H235193   7.870   5.219   5.377
11752TIP3   OH235194   0.235   5.603   4.755
11752TIP3    H135195   0.206   5.553   4.831
11752TIP3    H235196   0.275   5.682   4.790
11753TIP3   OH235197   7.777   5.596   5.134
11753TIP3    H135198   7.761   5.502   5.139
11753TIP3    H235199   7.872   5.604   5.124
11754TIP3   OH235200   7.467   4.800   4.916
11754TIP3    H135201   7.424   4.882   4.938
11754TIP3    H235202   7.400   4.747   4.874
11755TIP3   OH235203   7.532   5.094   5.124
11755TIP3    H135204   7.584   5.018   5.151
11755TIP3    H235205   7.595   5.151   5.080
11756TIP3   OH235206   8.377   6.102   4.752
11756TIP3    H135207   8.413   6.032   4.698
11756TIP3    H235208   8.368   6.063   4.839
11757TIP3   OH235209   8.275   5.523   5.086
11757TIP3    H135210   8.319   5.442   5.061
11757TIP3    H235211   8.345   5.580   5.117
11758TIP3   OH235212   0.172   5.034   5.108
11758TIP3    H135213   0.170   4.955   5.162
11758TIP3    H235214   0.103   5.020   5.043
11759TIP3   OH235215   8.038   4.675   5.100
11759TIP3    H135216   8.017   4.747   5.040
11759TIP3    H235217   7.993   4.599   5.063
11760TIP3   OH235218   0.187   4.777   4.705
11760TIP3    H135219   0.229   4.731   4.777
11760TIP3    H235220   0.216   4.868   4.714
11761TIP3   OH235221   7.677   4.878   5.221
11761TIP3    H135222   7.760   4.861   5.265
11761TIP3    H235223   7.681   4.827   5.140
11762TIP3   OH235224   8.101   5.083   5.023
11762TIP3    H135225   8.195   5.065   5.036
11762TIP3    H235226   8.066   5.001   4.989
11763TIP3   OH235227   8.019   4.672   5.560
11763TIP3    H135228   7.968   4.713   5.490
11763TIP3    H235229   7.955   4.620   5.609
11764TIP3   OH235230   8.380   5.528   4.524
11764TIP3    H135231   8.336   5.501   4.444
11764TIP3    H235232   8.326   5.599   4.559
11765TIP3   OH235233   8.133   5.451   5.311
11765TIP3    H135234   8.076   5.519   5.346
11765TIP3    H235235   8.176   5.492   5.236
11766TIP3   OH235236   7.918   4.775   5.324
11766TIP3    H135237   7.971   4.852   5.343
11766TIP3    H235238   7.961   4.734   5.249
11767TIP3   OH235239   7.970   5.644   5.413
11767TIP3    H135240   7.955   5.732   5.380
11767TIP3    H235241   7.893   5.626   5.468
11768TIP3   OH235242   7.357   5.345   4.667
11768TIP3    H135243   7.318   5.362   4.581
11768TIP3    H235244   7.380   5.432   4.700
11769TIP3   OH235245   0.258   5.864   4.869
11769TIP3    H135246   0.167   5.858   4.899
11769TIP3    H235247   0.264   5.950   4.827
11770TIP3   OH235248   8.304   4.355   5.231
11770TIP3    H135249   8.313   4.272   5.279
11770TIP3    H235250   8.248   4.408   5.287
11771TIP3   OH235251  -0.002   5.911   4.579
11771TIP3    H135252   0.038   5.825   4.579
11771TIP3    H235253   0.069   5.971   4.557
11772TIP3   OH235254   0.117   5.664   4.517
11772TIP3    H135255   0.039   5.609   4.515
11772TIP3    H235256   0.163   5.639   4.597
11773TIP3   OH235257   0.594   5.754   5.160
11773TIP3    H135258   0.649   5.680   5.189
11773TIP3    H235259   0.557   5.789   5.241
11774TIP3   OH235260   8.318   5.171   4.502
11774TIP3    H135261   8.233   5.213   4.491
11774TIP3    H235262   8.356   5.170   4.414
11775TIP3   OH235263   8.275   4.949   4.222
11775TIP3    H135264   8.343   4.996   4.271
11775TIP3    H235265   8.323   4.880   4.175
11776TIP3   OH235266   0.153   5.250   4.475
11776TIP3    H135267   0.096   5.297   4.536
11776TIP3    H235268   0.197   5.184   4.528
11777TIP3   OH235269   0.306   5.260   5.505
11777TIP3    H135270   0.356   5.335   5.537
11777TIP3    H235271   0.239   5.298   5.449
11778TIP3   OH235272   7.902   5.220   4.887
11778TIP3    H135273   7.864   5.162   4.821
11778TIP3    H235274   7.975   5.170   4.924
11779TIP3   OH235275   8.033   5.644   5.023
11779TIP3    H135276   8.010   5.625   4.932
11779TIP3    H235277   8.118   5.603   5.036
11780TIP3   OH235278   8.015   5.213   5.252
11780TIP3    H135279   8.050   5.181   5.169
11780TIP3    H235280   8.063   5.294   5.269
11781TIP3   OH235281   0.030   5.844   5.012
11781TIP3    H135282   0.023   5.923   5.064
11781TIP3    H235283   0.016   5.773   5.074
11782TIP3   OH235284   8.170   5.748   5.568
11782TIP3    H135285   8.114   5.809   5.616
11782TIP3    H235286   8.110   5.699   5.513
11783TIP3   OH235287   0.021   5.078   4.303
11783TIP3    H135288   0.069   5.142   4.355
11783TIP3    H235289   0.051   5.093   4.213
11784TIP3   OH235290   7.931   5.294   5.719
11784TIP3    H135291   7.944   5.386   5.743
11784TIP3    H235292   7.836   5.285   5.711
11785TIP3   OH235293   8.257   5.762   4.590
11785TIP3    H135294   8.324   5.829   4.602
11785TIP3    H235295   8.185   5.807   4.546
11786TIP3   OH235296   7.964   5.908   5.658
11786TIP3    H135297   7.934   5.916   5.568
11786TIP3    H235298   7.884   5.888   5.708
11787TIP3   OH235299   7.776   5.064   4.687
11787TIP3    H135300   7.702   5.112   4.651
11787TIP3    H235301   7.743   4.976   4.702
11788TIP3   OH235302   0.418   5.674   3.882
11788TIP3    H135303   0.350   5.721   3.833
11788TIP3    H235304   0.482   5.649   3.815
11789TIP3   OH235305   7.555   5.459   5.613
11789TIP3    H135306   7.487   5.448   5.547
11789TIP3    H235307   7.592   5.371   5.625
11790TIP3   OH235308   7.400   5.665   5.267
11790TIP3    H135309   7.493   5.686   5.278
11790TIP3    H235310   7.354   5.745   5.293
11791TIP3   OH235311   8.377   5.889   5.460
11791TIP3    H135312   8.386   5.956   5.528
11791TIP3    H235313   8.302   5.837   5.488
11792TIP3   OH235314   8.133   6.008   4.374
11792TIP3    H135315   8.090   5.987   4.291
11792TIP3    H235316   8.065   6.046   4.428
11793TIP3   OH235317   7.586   5.847   4.767
11793TIP3    H135318   7.625   5.841   4.854
11793TIP3    H235319   7.532   5.769   4.759
11794TIP3   OH235320   8.349   5.976   4.046
11794TIP3    H135321   8.359   5.892   4.000
11794TIP3    H235322   8.378   5.958   4.135
11795TIP3   OH235323   8.397   5.959   4.322
11795TIP3    H135324   8.302   5.966   4.336
11795TIP3    H235325   8.433   5.939   4.409
11796TIP3   OH235326   7.752   5.650   5.580
11796TIP3    H135327   7.778   5.673   5.669
11796TIP3    H235328   7.682   5.586   5.591
11797TIP3   OH235329   8.126   4.469   5.403
11797TIP3    H135330   8.042   4.438   5.372
11797TIP3    H235331   8.106   4.551   5.448
11798TIP3   OH235332   0.101   4.648   5.652
11798TIP3    H135333   0.152   4.612   5.725
11798TIP3    H235334   0.010   4.624   5.672
11799TIP3   OH235335   0.513   5.061   5.588
11799TIP3    H135336   0.438   5.058   5.647
11799TIP3    H235337   0.493   5.131   5.526
11800TIP3   OH235338   0.102   5.148   4.043
11800TIP3    H135339   0.103   5.155   3.947
11800TIP3    H235340   0.190   5.176   4.070
11801TIP3   OH235341   8.264   4.498   4.363
11801TIP3    H135342   8.235   4.501   4.455
11801TIP3    H235343   8.230   4.415   4.331
11802TIP3   OH235344   8.070   4.989   5.399
11802TIP3    H135345   8.028   5.006   5.484
11802TIP3    H235346   8.054   5.068   5.348
11803TIP3   OH235347   7.959   4.868   4.924
11803TIP3    H135348   7.869   4.844   4.947
11803TIP3    H235349   7.971   4.833   4.836
11804TIP3   OH235350   8.412   4.962   4.651
11804TIP3    H135351   8.374   5.036   4.604
11804TIP3    H235352   8.471   4.921   4.588
11805TIP3   OH235353   0.114   5.221   5.730
11805TIP3    H135354   0.106   5.145   5.788
11805TIP3    H235355   0.208   5.237   5.724
11806TIP3   OH235356   0.039   4.943   4.890
11806TIP3    H135357  -0.009   4.976   4.814
11806TIP3    H235358   0.057   4.851   4.869
11807TIP3   OH235359   7.910   5.031   5.618
11807TIP3    H135360   7.928   5.113   5.665
11807TIP3    H235361   7.879   4.971   5.685
11808TIP3   OH235362   7.947   4.486   4.328
11808TIP3    H135363   7.939   4.487   4.424
11808TIP3    H235364   7.871   4.537   4.298
11809TIP3   OH235365   7.500   4.524   5.205
11809TIP3    H135366   7.577   4.559   5.250
11809TIP3    H235367   7.533   4.499   5.118
11810TIP3   OH235368   7.439   4.505   4.711
11810TIP3    H135369   7.483   4.538   4.633
11810TIP3    H235370   7.375   4.572   4.733
11811TIP3   OH235371   0.093   5.234   5.297
11811TIP3    H135372   0.138   5.169   5.242
11811TIP3    H235373   0.056   5.183   5.369
11812TIP3   OH235374   8.284   4.745   4.990
11812TIP3    H135375   8.208   4.717   5.041
11812TIP3    H235376   8.356   4.690   5.022
11813TIP3   OH235377   7.725   4.738   4.990
11813TIP3    H135378   7.637   4.747   4.953
11813TIP3    H235379   7.752   4.650   4.965
11814TIP3   OH235380   7.973   4.742   4.682
11814TIP3    H135381   8.067   4.750   4.669
11814TIP3    H235382   7.935   4.761   4.596
11815TIP3   OH235383   0.149   4.769   5.188
11815TIP3    H135384   0.117   4.783   5.277
11815TIP3    H235385   0.242   4.749   5.198
11816TIP3   OH235386   7.851   4.770   4.440
11816TIP3    H135387   7.781   4.725   4.391
11816TIP3    H235388   7.904   4.812   4.373
11817TIP3   OH235389   7.933   5.542   5.836
11817TIP3    H135390   8.004   5.589   5.879
11817TIP3    H235391   7.856   5.559   5.890
11818TIP3   OH235392   8.363   5.029   5.093
11818TIP3    H135393   8.396   4.965   5.031
11818TIP3    H235394   8.358   4.981   5.176
11819TIP3   OH235395   7.880   4.491   4.966
11819TIP3    H135396   7.848   4.416   5.017
11819TIP3    H235397   7.911   4.454   4.884
11820TIP3   OH235398   8.331   4.928   5.353
11820TIP3    H135399   8.240   4.954   5.368
11820TIP3    H235400   8.382   4.991   5.403
11821TIP3   OH235401   8.076   5.301   4.460
11821TIP3    H135402   8.006   5.238   4.442
11821TIP3    H235403   8.057   5.335   4.548
11822TIP3   OH235404   0.409   5.492   5.174
11822TIP3    H135405   0.463   5.449   5.108
11822TIP3    H235406   0.350   5.549   5.123
11823TIP3   OH235407   8.492   4.634   4.326
11823TIP3    H135408   8.404   4.604   4.348
11823TIP3    H235409   8.504   4.714   4.377
11824TIP3   OH235410   8.461   5.603   5.470
11824TIP3    H135411   8.517   5.576   5.543
11824TIP3    H235412   8.438   5.694   5.489
11825TIP3   OH235413   0.065   4.861   4.449
11825TIP3    H135414   0.158   4.865   4.469
11825TIP3    H235415   0.050   4.934   4.389
11826TIP3   OH235416   7.779   5.312   5.117
11826TIP3    H135417   7.816   5.292   5.031
11826TIP3    H235418   7.842   5.274   5.178
11827TIP3   OH235419   8.225   5.468   4.301
11827TIP3    H135420   8.177   5.551   4.303
11827TIP3    H235421   8.169   5.407   4.350
11828TIP3   OH235422   7.664   5.219   5.741
11828TIP3    H135423   7.672   5.182   5.829
11828TIP3    H235424   7.585   5.178   5.705
11829TIP3   OH235425   8.378   5.349   5.761
11829TIP3    H135426   8.313   5.299   5.711
11829TIP3    H235427   8.462   5.315   5.731
11830TIP3   OH235428   0.166   5.850   5.394
11830TIP3    H135429   0.077   5.861   5.361
11830TIP3    H235430   0.165   5.896   5.478
11831TIP3   OH235431   0.299   5.603   4.136
11831TIP3    H135432   0.291   5.687   4.180
11831TIP3    H235433   0.352   5.621   4.058
11832TIP3   OH235434   0.167   5.475   5.007
11832TIP3    H135435   0.078   5.441   5.015
11832TIP3    H235436   0.220   5.397   4.987
11833TIP3   OH235437   7.890   5.642   4.771
11833TIP3    H135438   7.888   5.722   4.718
11833TIP3    H235439   7.801   5.631   4.802
11834TIP3   OH235440   7.462   4.928   4.491
11834TIP3    H135441   7.503   5.012   4.508
11834TIP3    H235442   7.381   4.930   4.542
11835TIP3   OH235443   8.004   5.399   4.701
11835TIP3    H135444   7.974   5.488   4.722
11835TIP3    H235445   7.972   5.344   4.772
11836TIP3   OH235446   8.182   5.968   5.236
11836TIP3    H135447   8.215   6.040   5.181
11836TIP3    H235448   8.258   5.942   5.288
11837TIP3   OH235449   7.819   5.885   4.624
11837TIP3    H135450   7.733   5.883   4.665
11837TIP3    H235451   7.843   5.978   4.624
11838TIP3   OH235452   0.002   5.632   5.197
11838TIP3    H135453  -0.008   5.612   5.290
11838TIP3    H235454   0.082   5.588   5.171
11839TIP3   OH235455   8.475   5.562   4.082
11839TIP3    H135456   8.531   5.547   4.158
11839TIP3    H235457   8.402   5.501   4.093
11840TIP3   OH235458   0.123   5.443   4.278
11840TIP3    H135459   0.156   5.377   4.339
11840TIP3    H235460   0.201   5.473   4.231
11841TIP3   OH235461   7.608   5.848   5.388
11841TIP3    H135462   7.661   5.789   5.442
11841TIP3    H235463   7.614   5.933   5.433
11842TIP3   OH235464   7.870   5.477   4.084
11842TIP3    H135465   7.888   5.388   4.055
11842TIP3    H235466   7.854   5.469   4.178
11843TIP3   OH235467   7.824   5.487   4.355
11843TIP3    H135468   7.890   5.457   4.417
11843TIP3    H235469   7.821   5.582   4.366
11844TIP3   OH235470   7.558   5.182   4.564
11844TIP3    H135471   7.491   5.225   4.617
11844TIP3    H235472   7.573   5.241   4.491
11845TIP3   OH235473   0.108   4.837   5.452
11845TIP3    H135474   0.195   4.875   5.448
11845TIP3    H235475   0.109   4.783   5.531
11846TIP3   OH235476   0.026   4.575   4.621
11846TIP3    H135477   0.071   4.538   4.545
11846TIP3    H235478   0.072   4.657   4.638
11847TIP3   OH235479   8.091   5.700   4.306
11847TIP3    H135480   8.002   5.715   4.339
11847TIP3    H235481   8.103   5.766   4.239
11848TIP3   OH235482   8.248   4.753   4.717
11848TIP3    H135483   8.305   4.824   4.687
11848TIP3    H235484   8.258   4.753   4.812
11849TIP3   OH235485   0.008   5.085   5.508
11849TIP3    H135486   0.044   5.128   5.586
11849TIP3    H235487   0.049   4.998   5.507
11850TIP3   OH235488   8.395   4.469   4.829
11850TIP3    H135489   8.419   4.527   4.901
11850TIP3    H235490   8.435   4.510   4.752
11851TIP3   OH235491   7.835   5.759   4.380
11851TIP3    H135492   7.813   5.827   4.316
11851TIP3    H235493   7.823   5.802   4.465
11852TIP3   OH235494   7.925   4.472   4.609
11852TIP3    H135495   7.912   4.561   4.641
11852TIP3    H235496   8.020   4.459   4.615
11853TIP3   OH235497   0.272   5.234   4.942
11853TIP3    H135498   0.213   5.215   4.869
11853TIP3    H235499   0.250   5.170   5.009
11854TIP3   OH235500   7.569   5.365   4.351
11854TIP3    H135501   7.638   5.431   4.359
11854TIP3    H235502   7.604   5.302   4.288
11855TIP3   OH235503   7.491   4.650   4.484
11855TIP3    H135504   7.496   4.746   4.490
11855TIP3    H235505   7.416   4.634   4.426
11856TIP3   OH235506   0.318   6.127   4.797
11856TIP3    H135507   0.275   6.181   4.731
11856TIP3    H235508   0.411   6.130   4.774
11857TIP3   OH235509   7.875   4.371   5.360
11857TIP3    H135510   7.851   4.339   5.273
11857TIP3    H235511   7.866   4.295   5.418
11858TIP3   OH235512   7.412   5.620   4.743
11858TIP3    H135513   7.363   5.654   4.818
11858TIP3    H235514   7.371   5.661   4.667
11859TIP3   OH235515   8.051   6.135   5.793
11859TIP3    H135516   8.132   6.103   5.831
11859TIP3    H235517   8.019   6.061   5.741
11860TIP3   OH235518   8.047   5.658   3.983
11860TIP3    H135519   7.976   5.605   4.020
11860TIP3    H235520   8.124   5.601   3.986
11861TIP3   OH235521   8.363   5.740   3.916
11861TIP3    H135522   8.412   5.679   3.971
11861TIP3    H235523   8.416   5.749   3.837
11862TIP3   OH235524   7.709   5.540   5.998
11862TIP3    H135525   7.714   5.450   6.029
11862TIP3    H235526   7.621   5.547   5.959
11863TIP3   OH235527   7.706   5.176   4.210
11863TIP3    H135528   7.758   5.152   4.287
11863TIP3    H235529   7.771   5.189   4.140
11864TIP3   OH235530   8.309   5.617   5.767
11864TIP3    H135531   8.267   5.637   5.683
11864TIP3    H235532   8.340   5.527   5.757
11865TIP3   OH235533   8.193   5.409   4.024
11865TIP3    H135534   8.209   5.416   4.118
11865TIP3    H235535   8.188   5.315   4.007
11866TIP3   OH235536   0.246   5.581   5.372
11866TIP3    H135537   0.293   5.565   5.291
11866TIP3    H235538   0.202   5.665   5.358
11867TIP3   OH235539   7.817   5.259   6.010
11867TIP3    H135540   7.881   5.287   5.944
11867TIP3    H235541   7.852   5.291   6.093
11868TIP3   OH235542   7.882   5.109   4.421
11868TIP3    H135543   7.855   5.077   4.508
11868TIP3    H235544   7.921   5.033   4.379
11869TIP3   OH235545   8.175   5.172   5.656
11869TIP3    H135546   8.097   5.226   5.672
11869TIP3    H235547   8.213   5.208   5.576
11870TIP3   OH235548   8.001   4.914   4.262
11870TIP3    H135549   7.970   4.920   4.171
11870TIP3    H235550   8.096   4.921   4.255
11871TIP3   OH235551   0.127   5.537   5.682
11871TIP3    H135552   0.221   5.538   5.665
11871TIP3    H235553   0.119   5.496   5.768
11872TIP3   OH235554   8.285   4.956   5.779
11872TIP3    H135555   8.288   4.882   5.718
11872TIP3    H235556   8.250   5.029   5.727
11873TIP3   OH235557   8.283   4.755   5.581
11873TIP3    H135558   8.312   4.793   5.498
11873TIP3    H235559   8.189   4.739   5.567
11874TIP3   OH235560   8.303   5.304   5.462
11874TIP3    H135561   8.393   5.331   5.439
11874TIP3    H235562   8.247   5.364   5.412
11875TIP3   OH235563   0.383   5.239   5.837
11875TIP3    H135564   0.369   5.145   5.822
11875TIP3    H235565   0.378   5.250   5.932
11876TIP3   OH235566   0.390   5.525   5.586
11876TIP3    H135567   0.332   5.544   5.512
11876TIP3    H235568   0.472   5.497   5.546
11877TIP3   OH235569   8.174   5.053   6.020
11877TIP3    H135570   8.079   5.041   6.019
11877TIP3    H235571   8.203   5.029   5.932
11878TIP3   OH235572   8.365   4.510   5.688
11878TIP3    H135573   8.318   4.586   5.654
11878TIP3    H235574   8.307   4.436   5.672
11879TIP3   OH235575   0.048   4.994   5.868
11879TIP3    H135576   0.041   4.977   5.962
11879TIP3    H235577  -0.040   4.978   5.833
11880TIP3   OH235578   0.307   4.983   5.766
11880TIP3    H135579   0.221   4.970   5.806
11880TIP3    H235580   0.349   4.897   5.770
11881TIP3   OH235581   0.548   4.863   5.977
11881TIP3    H135582   0.507   4.787   6.019
11881TIP3    H235583   0.482   4.932   5.983
11882TIP3   OH235584   7.963   4.831   6.086
11882TIP3    H135585   8.044   4.782   6.097
11882TIP3    H235586   7.968   4.902   6.150
11883TIP3   OH235587   8.473   4.508   5.944
11883TIP3    H135588   8.534   4.435   5.946
11883TIP3    H235589   8.431   4.503   5.858
11884TIP3   OH235590   0.083   4.728   6.082
11884TIP3    H135591   0.059   4.658   6.022
11884TIP3    H235592   0.009   4.789   6.079
11885TIP3   OH235593   7.834   5.965   4.197
11885TIP3    H135594   7.919   5.948   4.158
11885TIP3    H235595   7.784   6.008   4.128
11886TIP3   OH235596   7.297   5.345   4.380
11886TIP3    H135597   7.391   5.361   4.372
11886TIP3    H235598   7.284   5.259   4.340
11887TIP3   OH235599   7.210   5.941   4.822
11887TIP3    H135600   7.143   5.887   4.780
11887TIP3    H235601   7.254   5.882   4.884
11888TIP3   OH235602   7.351   5.778   4.997
11888TIP3    H135603   7.334   5.713   5.065
11888TIP3    H235604   7.402   5.846   5.040
11889TIP3   OH235605   0.423   6.022   5.060
11889TIP3    H135606   0.375   6.018   5.143
11889TIP3    H235607   0.370   5.970   4.999
11890TIP3   OH235608   0.493   5.074   4.646
11890TIP3    H135609   0.587   5.054   4.653
11890TIP3    H235610   0.490   5.165   4.616
11891TIP3   OH235611   7.523   5.196   5.378
11891TIP3    H135612   7.512   5.166   5.288
11891TIP3    H235613   7.618   5.206   5.389
11892TIP3   OH235614   7.712   4.590   5.382
11892TIP3    H135615   7.765   4.511   5.377
11892TIP3    H235616   7.772   4.661   5.359
11893TIP3   OH235617   7.506   4.862   5.448
11893TIP3    H135618   7.555   4.853   5.366
11893TIP3    H235619   7.508   4.956   5.467
11894TIP3   OH235620   7.492   4.377   4.947
11894TIP3    H135621   7.403   4.359   4.977
11894TIP3    H235622   7.480   4.427   4.866
11895TIP3   OH235623   0.196   6.074   4.486
11895TIP3    H135624   0.228   6.087   4.397
11895TIP3    H235625   0.199   6.161   4.526
11896TIP3   OH235626   7.707   4.495   5.779
11896TIP3    H135627   7.650   4.449   5.841
11896TIP3    H235628   7.647   4.530   5.713
11897TIP3   OH235629   7.741   5.850   5.814
11897TIP3    H135630   7.646   5.853   5.799
11897TIP3    H235631   7.752   5.891   5.900
11898TIP3   OH235632   7.948   5.915   5.374
11898TIP3    H135633   7.893   5.987   5.343
11898TIP3    H235634   8.034   5.932   5.334
11899TIP3   OH235635   7.605   6.162   5.423
11899TIP3    H135636   7.515   6.178   5.396
11899TIP3    H235637   7.623   6.228   5.490
11900TIP3   OH235638   7.835   6.143   5.274
11900TIP3    H135639   7.754   6.154   5.324
11900TIP3    H235640   7.814   6.180   5.188
11901TIP3   OH235641   8.258   6.170   5.052
11901TIP3    H135642   8.180   6.181   4.998
11901TIP3    H235643   8.269   6.254   5.097
11902TIP3   OH235644   0.013   6.090   5.127
11902TIP3    H135645  -0.072   6.122   5.101
11902TIP3    H235646   0.075   6.157   5.099
11903TIP3   OH235647   0.192   6.266   5.010
11903TIP3    H135648   0.193   6.354   4.973
11903TIP3    H235649   0.240   6.213   4.947
11904TIP3   OH235650   7.526   5.952   5.137
11904TIP3    H135651   7.542   5.928   5.229
11904TIP3    H235652   7.600   5.915   5.090
11905TIP3   OH235653   7.728   5.830   5.003
11905TIP3    H135654   7.736   5.748   5.052
11905TIP3    H235655   7.814   5.871   5.010
11906TIP3   OH235656   7.995   5.920   5.027
11906TIP3    H135657   8.013   5.827   5.015
11906TIP3    H235658   8.044   5.944   5.106
11907TIP3   OH235659  -0.002   4.588   5.050
11907TIP3    H135660   0.010   4.514   5.109
11907TIP3    H235661   0.053   4.657   5.086
11908TIP3   OH235662   7.799   4.272   5.115
11908TIP3    H135663   7.709   4.240   5.119
11908TIP3    H235664   7.852   4.193   5.104
11909TIP3   OH235665   7.614   4.174   4.771
11909TIP3    H135666   7.637   4.222   4.692
11909TIP3    H235667   7.578   4.240   4.830
11910TIP3   OH235668   8.225   4.310   4.976
11910TIP3    H135669   8.271   4.375   4.923
11910TIP3    H235670   8.250   4.330   5.066
11911TIP3   OH235671   0.456   4.419   4.975
11911TIP3    H135672   0.392   4.425   4.904
11911TIP3    H235673   0.417   4.357   5.037
11912TIP3   OH235674   7.298   5.742   4.526
11912TIP3    H135675   7.213   5.711   4.496
11912TIP3    H235676   7.300   5.834   4.498
11913TIP3   OH235677   7.716   4.304   4.532
11913TIP3    H135678   7.761   4.242   4.474
11913TIP3    H235679   7.785   4.362   4.564
11914TIP3   OH235680   8.196   4.499   4.630
11914TIP3    H135681   8.251   4.447   4.689
11914TIP3    H235682   8.217   4.590   4.651
11915TIP3   OH235683   8.086   5.899   4.112
11915TIP3    H135684   8.155   5.950   4.069
11915TIP3    H235685   8.069   5.826   4.051
11916TIP3   OH235686   0.290   6.088   4.228
11916TIP3    H135687   0.320   5.998   4.210
11916TIP3    H235688   0.229   6.107   4.157
11917TIP3   OH235689   7.986   4.550   6.024
11917TIP3    H135690   7.966   4.471   6.075
11917TIP3    H235691   8.081   4.563   6.036
11918TIP3   OH235692   8.253   4.560   6.116
11918TIP3    H135693   8.334   4.546   6.068
11918TIP3    H235694   8.254   4.493   6.185
11919TIP3   OH235695   7.389   5.741   4.178
11919TIP3    H135696   7.387   5.756   4.273
11919TIP3    H235697   7.472   5.697   4.162
11920TIP3   OH235698   0.939   6.082   6.354
11920TIP3    H135699   0.906   6.172   6.354
11920TIP3    H235700   0.864   6.029   6.325
11921TIP3   OH235701   0.968   6.066   6.736
11921TIP3    H135702   1.006   6.058   6.823
11921TIP3    H235703   0.920   5.984   6.723
11922TIP3   OH235704   1.210   6.386   6.444
11922TIP3    H135705   1.201   6.321   6.515
11922TIP3    H235706   1.232   6.467   6.489
11923TIP3   OH235707   0.878   6.877   6.430
11923TIP3    H135708   0.893   6.793   6.385
11923TIP3    H235709   0.887   6.856   6.523
11924TIP3   OH235710   0.780   6.256   6.828
11924TIP3    H135711   0.820   6.196   6.765
11924TIP3    H235712   0.827   6.338   6.816
11925TIP3   OH235713   1.783   5.636   6.794
11925TIP3    H135714   1.793   5.725   6.829
11925TIP3    H235715   1.804   5.645   6.701
11926TIP3   OH235716   1.181   5.803   6.820
11926TIP3    H135717   1.214   5.716   6.841
11926TIP3    H235718   1.129   5.790   6.741
11927TIP3   OH235719   1.210   5.559   6.411
11927TIP3    H135720   1.275   5.550   6.481
11927TIP3    H235721   1.259   5.595   6.337
11928TIP3   OH235722   7.505   1.845   0.019
11928TIP3    H135723   7.418   1.886   0.017
11928TIP3    H235724   7.546   1.879   0.098
11929TIP3   OH235725   0.821   6.305   6.229
11929TIP3    H135726   0.810   6.290   6.135
11929TIP3    H235727   0.898   6.362   6.235
11930TIP3   OH235728   1.383   5.572   6.620
11930TIP3    H135729   1.344   5.547   6.704
11930TIP3    H235730   1.437   5.648   6.641
11931TIP3   OH235731   1.254   6.635   6.583
11931TIP3    H135732   1.162   6.626   6.607
11931TIP3    H235733   1.261   6.721   6.542
11932TIP3   OH235734   1.570   5.528   6.957
11932TIP3    H135735   1.482   5.553   6.929
11932TIP3    H235736   1.627   5.556   6.887
11933TIP3   OH235737   0.890   5.140   6.923
11933TIP3    H135738   0.924   5.059   6.884
11933TIP3    H235739   0.823   5.110   6.985
11934TIP3   OH235740   0.951   6.663   6.264
11934TIP3    H135741   0.989   6.576   6.253
11934TIP3    H235742   1.015   6.722   6.225
11935TIP3   OH235743   1.072   6.417   6.208
11935TIP3    H135744   1.114   6.365   6.140
11935TIP3    H235745   1.125   6.404   6.286
11936TIP3   OH235746   1.538   6.536   6.888
11936TIP3    H135747   1.500   6.464   6.838
11936TIP3    H235748   1.503   6.615   6.846
11937TIP3   OH235749   0.761   5.923   6.203
11937TIP3    H135750   0.673   5.888   6.187
11937TIP3    H235751   0.803   5.922   6.118
11938TIP3   OH235752   0.776   5.724   5.907
11938TIP3    H135753   0.842   5.776   5.953
11938TIP3    H235754   0.826   5.663   5.854
11939TIP3   OH235755   1.680   6.194   6.800
11939TIP3    H135756   1.593   6.232   6.797
11939TIP3    H235757   1.716   6.207   6.712
11940TIP3   OH235758   1.135   6.030   6.173
11940TIP3    H135759   1.076   6.051   6.246
11940TIP3    H235760   1.215   6.000   6.215
11941TIP3   OH235761   7.014   2.008   0.111
11941TIP3    H135762   7.031   2.083   0.168
11941TIP3    H235763   6.925   2.021   0.079
11942TIP3   OH235764   0.994   6.637   6.658
11942TIP3    H135765   0.951   6.713   6.696
11942TIP3    H235766   0.964   6.563   6.709
11943TIP3   OH235767   0.972   5.885   6.010
11943TIP3    H135768   1.026   5.943   6.063
11943TIP3    H235769   1.000   5.902   5.920
11944TIP3   OH235770   1.473   5.110   6.055
11944TIP3    H135771   1.395   5.129   6.108
11944TIP3    H235772   1.486   5.189   6.003
11945TIP3   OH235773   1.294   6.489   5.599
11945TIP3    H135774   1.296   6.583   5.581
11945TIP3    H235775   1.384   6.461   5.584
11946TIP3   OH235776   7.397   2.915   0.014
11946TIP3    H135777   7.397   2.823   0.039
11946TIP3    H235778   7.314   2.949   0.047
11947TIP3   OH235779   0.794   6.707   5.719
11947TIP3    H135780   0.851   6.635   5.691
11947TIP3    H235781   0.816   6.720   5.811
11948TIP3   OH235782   0.859   6.765   5.992
11948TIP3    H135783   0.797   6.736   6.059
11948TIP3    H235784   0.943   6.771   6.038
11949TIP3   OH235785   7.292   1.995   0.340
11949TIP3    H135786   7.217   2.031   0.292
11949TIP3    H235787   7.296   1.903   0.313
11950TIP3   OH235788   6.820   1.355   0.337
11950TIP3    H135789   6.887   1.332   0.401
11950TIP3    H235790   6.737   1.336   0.382
11951TIP3   OH235791   7.044   1.765   0.236
11951TIP3    H135792   7.005   1.767   0.324
11951TIP3    H235793   7.022   1.850   0.198
11952TIP3   OH235794   1.051   5.910   5.754
11952TIP3    H135795   1.008   5.891   5.671
11952TIP3    H235796   1.134   5.950   5.730
11953TIP3   OH235797   0.728   5.289   6.028
11953TIP3    H135798   0.699   5.304   6.118
11953TIP3    H235799   0.761   5.199   6.029
11954TIP3   OH235800   0.922   5.744   6.340
11954TIP3    H135801   0.869   5.813   6.300
11954TIP3    H235802   0.973   5.708   6.267
11955TIP3   OH235803   6.754   1.908   0.437
11955TIP3    H135804   6.731   1.840   0.500
11955TIP3    H235805   6.848   1.920   0.448
11956TIP3   OH235806   1.076   5.749   6.569
11956TIP3    H135807   1.012   5.778   6.505
11956TIP3    H235808   1.118   5.673   6.529
11957TIP3   OH235809   6.748   1.990   0.039
11957TIP3    H135810   6.788   1.930  -0.024
11957TIP3    H235811   6.711   1.933   0.106
11958TIP3   OH235812   0.803   5.474   6.668
11958TIP3    H135813   0.728   5.475   6.728
11958TIP3    H235814   0.877   5.448   6.723
11959TIP3   OH235815   1.245   5.533   6.863
11959TIP3    H135816   1.226   5.548   6.955
11959TIP3    H235817   1.177   5.472   6.834
11960TIP3   OH235818   7.075   3.288   0.084
11960TIP3    H135819   7.077   3.281  -0.011
11960TIP3    H235820   7.163   3.317   0.108
11961TIP3   OH235821   0.870   5.805   6.771
11961TIP3    H135822   0.909   5.746   6.706
11961TIP3    H235823   0.845   5.748   6.844
11962TIP3   OH235824   6.453   1.694   0.091
11962TIP3    H135825   6.396   1.771   0.085
11962TIP3    H235826   6.532   1.727   0.132
11963TIP3   OH235827   1.442   6.315   6.753
11963TIP3    H135828   1.469   6.366   6.676
11963TIP3    H235829   1.355   6.281   6.731
11964TIP3   OH235830   0.988   5.401   6.037
11964TIP3    H135831   0.893   5.397   6.038
11964TIP3    H235832   1.009   5.492   6.057
11965TIP3   OH235833   6.577   2.367   0.174
11965TIP3    H135834   6.555   2.342   0.264
11965TIP3    H235835   6.505   2.424   0.147
11966TIP3   OH235836   1.074   5.650   6.118
11966TIP3    H135837   1.169   5.654   6.133
11966TIP3    H235838   1.054   5.731   6.071
11967TIP3   OH235839   0.668   6.237   5.990
11967TIP3    H135840   0.627   6.321   6.008
11967TIP3    H235841   0.638   6.180   6.060
11968TIP3   OH235842   6.625   2.157   0.600
11968TIP3    H135843   6.577   2.119   0.527
11968TIP3    H235844   6.717   2.152   0.573
11969TIP3   OH235845   6.799   2.569   0.221
11969TIP3    H135846   6.737   2.628   0.179
11969TIP3    H235847   6.861   2.627   0.265
11970TIP3   OH235848   1.491   5.743   5.949
11970TIP3    H135849   1.434   5.697   5.888
11970TIP3    H235850   1.496   5.832   5.916
11971TIP3   OH235851   7.419   2.635   0.073
11971TIP3    H135852   7.328   2.608   0.062
11971TIP3    H235853   7.464   2.601  -0.004
11972TIP3   OH235854   1.216   6.553   5.861
11972TIP3    H135855   1.181   6.477   5.907
11972TIP3    H235856   1.236   6.520   5.773
11973TIP3   OH235857   1.210   6.191   6.653
11973TIP3    H135858   1.119   6.169   6.676
11973TIP3    H235859   1.246   6.109   6.619
11974TIP3   OH235860   0.998   6.430   6.851
11974TIP3    H135861   0.969   6.402   6.938
11974TIP3    H235862   1.093   6.429   6.857
11975TIP3   OH235863   0.986   6.290   5.765
11975TIP3    H135864   1.025   6.267   5.849
11975TIP3    H235865   0.900   6.249   5.766
11976TIP3   OH235866   1.229   6.914   6.890
11976TIP3    H135867   1.150   6.862   6.904
11976TIP3    H235868   1.203   6.980   6.827
11977TIP3   OH235869   1.308   6.763   5.572
11977TIP3    H135870   1.347   6.831   5.517
11977TIP3    H235871   1.232   6.804   5.612
11978TIP3   OH235872   1.152   6.239   5.993
11978TIP3    H135873   1.138   6.166   6.053
11978TIP3    H235874   1.245   6.234   5.971
11979TIP3   OH235875   6.850   1.576   0.182
11979TIP3    H135876   6.924   1.623   0.219
11979TIP3    H235877   6.838   1.501   0.240
11980TIP3   OH235878   1.064   5.345   6.310
11980TIP3    H135879   1.035   5.371   6.223
11980TIP3    H235880   1.104   5.424   6.346
11981TIP3   OH235881   0.744   5.543   6.405
11981TIP3    H135882   0.800   5.618   6.384
11981TIP3    H235883   0.756   5.530   6.499
11982TIP3   OH235884   6.678   1.788   0.209
11982TIP3    H135885   6.704   1.823   0.295
11982TIP3    H235886   6.734   1.712   0.196
11983TIP3   OH235887   0.866   5.258   6.490
11983TIP3    H135888   0.851   5.333   6.547
11983TIP3    H235889   0.945   5.279   6.441
11984TIP3   OH235890   7.308   1.731   0.239
11984TIP3    H135891   7.213   1.729   0.248
11984TIP3    H235892   7.326   1.691   0.154
11985TIP3   OH235893   1.298   5.934   6.569
11985TIP3    H135894   1.218   5.884   6.583
11985TIP3    H235895   1.364   5.891   6.625
11986TIP3   OH235896   1.282   6.901   6.513
11986TIP3    H135897   1.237   6.939   6.438
11986TIP3    H235898   1.375   6.913   6.494
11987TIP3   OH235899   6.720   2.827   0.357
11987TIP3    H135900   6.775   2.794   0.429
11987TIP3    H235901   6.765   2.906   0.328
11988TIP3   OH235902   0.940   6.505   5.597
11988TIP3    H135903   0.970   6.437   5.657
11988TIP3    H235904   0.999   6.499   5.522
11989TIP3   OH235905   0.720   6.188   5.720
11989TIP3    H135906   0.691   6.203   5.810
11989TIP3    H235907   0.706   6.094   5.706
11990TIP3   OH235908   6.918   2.490  -0.008
11990TIP3    H135909   7.009   2.475   0.017
11990TIP3    H235910   6.875   2.519   0.072
11991TIP3   OH235911   0.525   5.706   6.028
11991TIP3    H135912   0.473   5.716   5.948
11991TIP3    H235913   0.615   5.697   5.998
11992TIP3   OH235914   6.727   2.453   0.468
11992TIP3    H135915   6.748   2.436   0.376
11992TIP3    H235916   6.767   2.379   0.515
11993TIP3   OH235917   1.275   6.011   5.627
11993TIP3    H135918   1.260   5.965   5.545
11993TIP3    H235919   1.248   6.101   5.610
11994TIP3   OH235920   6.395   1.495   0.285
11994TIP3    H135921   6.418   1.549   0.209
11994TIP3    H235922   6.337   1.550   0.337
11995TIP3   OH235923   6.485   2.081   0.109
11995TIP3    H135924   6.572   2.077   0.070
11995TIP3    H235925   6.435   2.138   0.050
11996TIP3   OH235926   7.025   1.967   0.463
11996TIP3    H135927   7.031   1.917   0.545
11996TIP3    H235928   7.112   2.004   0.452
11997TIP3   OH235929   7.107   2.202   0.271
11997TIP3    H135930   7.030   2.258   0.259
11997TIP3    H235931   7.180   2.254   0.237
11998TIP3   OH235932   6.548   1.286   0.375
11998TIP3    H135933   6.504   1.364   0.341
11998TIP3    H235934   6.487   1.214   0.359
11999TIP3   OH235935   6.685   1.707   0.606
11999TIP3    H135936   6.664   1.768   0.677
11999TIP3    H235937   6.621   1.637   0.614
12000TIP3   OH235938   6.935   1.670   0.469
12000TIP3    H135939   6.859   1.661   0.526
12000TIP3    H235940   7.010   1.659   0.527
12001TIP3   OH235941   7.176   1.661   0.622
12001TIP3    H135942   7.183   1.567   0.634
12001TIP3    H235943   7.174   1.697   0.711
12002TIP3   OH235944   6.621   1.246   0.633
12002TIP3    H135945   6.691   1.180   0.628
12002TIP3    H235946   6.589   1.252   0.543
12003TIP3   OH235947   6.726   1.452   0.763
12003TIP3    H135948   6.691   1.378   0.714
12003TIP3    H235949   6.649   1.505   0.785
12004TIP3   OH235950   1.543   6.961   6.466
12004TIP3    H135951   1.566   6.988   6.555
12004TIP3    H235952   1.597   7.016   6.409
12005TIP3   OH235953   1.579   6.992   6.732
12005TIP3    H135954   1.528   6.911   6.742
12005TIP3    H235955   1.653   6.981   6.791
12006TIP3   OH235956   7.322   2.622   0.350
12006TIP3    H135957   7.235   2.663   0.348
12006TIP3    H235958   7.372   2.668   0.282
12007TIP3   OH235959   1.427   6.208   5.960
12007TIP3    H135960   1.487   6.275   5.929
12007TIP3    H235961   1.471   6.168   6.036
12008TIP3   OH235962   1.554   6.065   6.161
12008TIP3    H135963   1.488   6.025   6.218
12008TIP3    H235964   1.619   6.101   6.221
12009TIP3   OH235965   1.614   6.468   6.592
12009TIP3    H135966   1.666   6.400   6.549
12009TIP3    H235967   1.614   6.541   6.530
12010TIP3   OH235968   1.425   6.760   6.769
12010TIP3    H135969   1.357   6.808   6.815
12010TIP3    H235970   1.379   6.711   6.701
12011TIP3   OH235971   1.477   5.982   5.809
12011TIP3    H135972   1.408   5.982   5.744
12011TIP3    H235973   1.459   6.059   5.864
12012TIP3   OH235974   1.334   5.637   5.753
12012TIP3    H135975   1.292   5.673   5.675
12012TIP3    H235976   1.322   5.542   5.744
12013TIP3   OH235977   1.358   5.923   6.301
12013TIP3    H135978   1.364   5.828   6.289
12013TIP3    H235979   1.341   5.934   6.395
12014TIP3   OH235980   7.329   2.334   0.156
12014TIP3    H135981   7.392   2.261   0.155
12014TIP3    H235982   7.330   2.367   0.066
12015TIP3   OH235983   7.494   2.121   0.205
12015TIP3    H135984   7.424   2.081   0.257
12015TIP3    H235985   7.572   2.068   0.226
12016TIP3   OH235986   1.291   5.367   5.728
12016TIP3    H135987   1.359   5.340   5.790
12016TIP3    H235988   1.213   5.319   5.756
12017TIP3   OH235989   1.356   5.645   6.184
12017TIP3    H135990   1.399   5.561   6.198
12017TIP3    H235991   1.404   5.685   6.111
12018TIP3   OH235992   1.513   5.805   6.702
12018TIP3    H135993   1.593   5.827   6.655
12018TIP3    H235994   1.524   5.844   6.789
12019TIP3   OH235995   1.586   5.960   6.926
12019TIP3    H135996   1.501   5.978   6.965
12019TIP3    H235997   1.611   6.043   6.884
12020TIP3   OH235998   7.702   1.551   0.533
12020TIP3    H135999   7.766   1.488   0.498
12020TIP3    H236000   7.670   1.598   0.456
12021TIP3   OH236001   1.466   5.393   6.236
12021TIP3    H136002   1.509   5.379   6.320
12021TIP3    H236003   1.402   5.322   6.229
12022TIP3   OH236004   7.564   1.669   0.333
12022TIP3    H136005   7.485   1.719   0.357
12022TIP3    H236006   7.530   1.594   0.283
12023TIP3   OH236007   1.523   5.317   5.877
12023TIP3    H136008   1.567   5.253   5.821
12023TIP3    H236009   1.582   5.392   5.878
12024TIP3   OH236010   1.104   6.840   6.127
12024TIP3    H136011   1.167   6.841   6.055
12024TIP3    H236012   1.135   6.907   6.187
12025TIP3   OH236013   6.663   3.058   0.043
12025TIP3    H136014   6.745   3.027   0.080
12025TIP3    H236015   6.632   3.124   0.105
12026TIP3   OH236016   7.469   1.422   0.228
12026TIP3    H136017   7.379   1.412   0.200
12026TIP3    H236018   7.507   1.334   0.223
12027TIP3   OH236019   0.945   6.919   6.735
12027TIP3    H136020   0.918   6.952   6.821
12027TIP3    H236021   1.006   6.985   6.702
12028TIP3   OH236022   1.193   7.097   6.687
12028TIP3    H136023   1.176   7.177   6.637
12028TIP3    H236024   1.219   7.033   6.621
12029TIP3   OH236025   1.025   5.355   6.793
12029TIP3    H136026   0.979   5.284   6.838
12029TIP3    H236027   1.090   5.310   6.738
12030TIP3   OH236028   1.511   5.231   6.683
12030TIP3    H136029   1.543   5.287   6.611
12030TIP3    H236030   1.417   5.248   6.685
12031TIP3   OH236031   1.623   5.347   6.458
12031TIP3    H136032   1.694   5.288   6.429
12031TIP3    H236033   1.659   5.435   6.446
12032TIP3   OH236034   0.722   5.100   6.683
12032TIP3    H136035   0.767   5.133   6.605
12032TIP3    H236036   0.785   5.113   6.753
12033TIP3   OH236037   1.231   5.226   6.652
12033TIP3    H136038   1.247   5.225   6.558
12033TIP3    H236039   1.184   5.144   6.669
12034TIP3   OH236040   1.275   5.185   6.233
12034TIP3    H136041   1.196   5.234   6.254
12034TIP3    H236042   1.269   5.106   6.286
12035TIP3   OH236043   0.682   5.303   6.292
12035TIP3    H136044   0.731   5.260   6.362
12035TIP3    H236045   0.680   5.395   6.317
12036TIP3   OH236046   1.259   6.822   5.900
12036TIP3    H136047   1.248   6.727   5.890
12036TIP3    H236048   1.214   6.859   5.825
12037TIP3   OH236049   7.219   1.395   0.665
12037TIP3    H136050   7.233   1.363   0.754
12037TIP3    H236051   7.306   1.394   0.625
12038TIP3   OH236052   7.123   3.012   0.061
12038TIP3    H136053   7.042   2.975   0.025
12038TIP3    H236054   7.101   3.102   0.084
12039TIP3   OH236055   2.740   6.347   5.847
12039TIP3    H136056   2.712   6.436   5.825
12039TIP3    H236057   2.668   6.291   5.819
12040TIP3   OH236058   2.737   6.343   6.258
12040TIP3    H136059   2.784   6.329   6.340
12040TIP3    H236060   2.696   6.259   6.238
12041TIP3   OH236061   2.044   6.238   6.603
12041TIP3    H136062   2.074   6.178   6.672
12041TIP3    H236063   2.124   6.261   6.556
12042TIP3   OH236064   3.001   6.650   5.938
12042TIP3    H136065   2.992   6.585   6.007
12042TIP3    H236066   3.026   6.731   5.983
12043TIP3   OH236067   2.026   6.637   6.311
12043TIP3    H136068   2.011   6.543   6.316
12043TIP3    H236069   2.121   6.646   6.300
12044TIP3   OH236070   1.718   5.842   6.092
12044TIP3    H136071   1.678   5.926   6.115
12044TIP3    H236072   1.647   5.792   6.052
12045TIP3   OH236073   1.787   6.142   6.296
12045TIP3    H136074   1.838   6.066   6.324
12045TIP3    H236075   1.852   6.203   6.262
12046TIP3   OH236076   2.654   7.092   5.945
12046TIP3    H136077   2.687   7.024   5.886
12046TIP3    H236078   2.650   7.050   6.031
12047TIP3   OH236079   2.545   6.566   6.278
12047TIP3    H136080   2.588   6.488   6.243
12047TIP3    H236081   2.617   6.622   6.308
12048TIP3   OH236082   3.573   5.892   6.281
12048TIP3    H136083   3.594   5.974   6.325
12048TIP3    H236084   3.604   5.905   6.191
12049TIP3   OH236085   2.951   6.059   6.310
12049TIP3    H136086   2.993   5.977   6.336
12049TIP3    H236087   2.917   6.042   6.223
12050TIP3   OH236088   2.312   5.707   6.289
12050TIP3    H136089   2.297   5.784   6.233
12050TIP3    H236090   2.258   5.639   6.250
12051TIP3   OH236091   3.004   5.817   5.902
12051TIP3    H136092   3.068   5.809   5.972
12051TIP3    H236093   3.053   5.853   5.828
12052TIP3   OH236094   1.932   5.928   6.395
12052TIP3    H136095   2.013   5.908   6.442
12052TIP3    H236096   1.938   5.877   6.314
12053TIP3   OH236097   2.361   6.123   6.203
12053TIP3    H136098   2.455   6.109   6.209
12053TIP3    H236099   2.326   6.041   6.170
12054TIP3   OH236100   3.635   6.104   6.455
12054TIP3    H136101   3.548   6.143   6.448
12054TIP3    H236102   3.672   6.141   6.535
12055TIP3   OH236103   2.631   6.563   5.712
12055TIP3    H136104   2.593   6.543   5.626
12055TIP3    H236105   2.584   6.642   5.740
12056TIP3   OH236106   2.389   6.489   6.493
12056TIP3    H136107   2.334   6.559   6.527
12056TIP3    H236108   2.437   6.529   6.421
12057TIP3   OH236109   3.174   5.833   6.115
12057TIP3    H136110   3.134   5.815   6.200
12057TIP3    H236111   3.232   5.907   6.130
12058TIP3   OH236112   2.168   5.821   6.500
12058TIP3    H136113   2.225   5.890   6.535
12058TIP3    H236114   2.219   5.782   6.429
12059TIP3   OH236115   2.230   6.692   6.594
12059TIP3    H136116   2.216   6.780   6.559
12059TIP3    H236117   2.152   6.674   6.647
12060TIP3   OH236118   1.606   6.389   5.844
12060TIP3    H136119   1.572   6.407   5.756
12060TIP3    H236120   1.631   6.474   5.879
12061TIP3   OH236121   3.047   6.896   6.078
12061TIP3    H136122   2.961   6.888   6.118
12061TIP3    H236123   3.045   6.980   6.034
12062TIP3   OH236124   3.364   5.789   6.439
12062TIP3    H136125   3.280   5.820   6.405
12062TIP3    H236126   3.428   5.818   6.374
12063TIP3   OH236127   2.637   5.408   6.433
12063TIP3    H136128   2.636   5.316   6.459
12063TIP3    H236129   2.560   5.447   6.474
12064TIP3   OH236130   2.753   6.929   5.741
12064TIP3    H136131   2.804   6.849   5.728
12064TIP3    H236132   2.810   6.999   5.710
12065TIP3   OH236133   2.902   6.707   5.685
12065TIP3    H136134   2.850   6.630   5.662
12065TIP3    H236135   2.945   6.683   5.768
12066TIP3   OH236136   3.277   6.794   6.425
12066TIP3    H136137   3.265   6.719   6.367
12066TIP3    H236138   3.263   6.871   6.369
12067TIP3   OH236139   2.568   6.191   5.691
12067TIP3    H136140   2.488   6.241   5.673
12067TIP3    H236141   2.617   6.194   5.609
12068TIP3   OH236142   2.536   5.992   5.394
12068TIP3    H136143   2.600   6.042   5.445
12068TIP3    H236144   2.588   5.931   5.343
12069TIP3   OH236145   3.469   6.444   6.285
12069TIP3    H136146   3.386   6.491   6.287
12069TIP3    H236147   3.505   6.461   6.198
12070TIP3   OH236148   2.925   6.277   5.658
12070TIP3    H136149   2.870   6.305   5.731
12070TIP3    H236150   3.008   6.253   5.697
12071TIP3   OH236151   3.155   6.311   6.592
12071TIP3    H136152   3.157   6.393   6.641
12071TIP3    H236153   3.072   6.313   6.545
12072TIP3   OH236154   2.156   6.262   6.068
12072TIP3    H136155   2.120   6.205   6.000
12072TIP3    H236156   2.231   6.214   6.103
12073TIP3   OH236157   2.287   6.683   6.207
12073TIP3    H136158   2.268   6.666   6.115
12073TIP3    H236159   2.375   6.646   6.220
12074TIP3   OH236160   2.270   6.247   6.436
12074TIP3    H136161   2.306   6.215   6.353
12074TIP3    H236162   2.318   6.329   6.452
12075TIP3   OH236163   2.810   6.887   6.211
12075TIP3    H136164   2.797   6.968   6.260
12075TIP3    H236165   2.795   6.817   6.275
12076TIP3   OH236166   2.429   6.796   6.757
12076TIP3    H136167   2.370   6.856   6.802
12076TIP3    H236168   2.372   6.743   6.701
12077TIP3   OH236169   2.759   6.140   5.487
12077TIP3    H136170   2.818   6.197   5.536
12077TIP3    H236171   2.785   6.150   5.396
12078TIP3   OH236172   2.189   6.340   6.886
12078TIP3    H136173   2.200   6.433   6.908
12078TIP3    H236174   2.094   6.327   6.886
12079TIP3   OH236175   2.504   6.811   5.750
12079TIP3    H136176   2.587   6.857   5.756
12079TIP3    H236177   2.445   6.871   5.705
12080TIP3   OH236178   2.220   6.956   6.839
12080TIP3    H136179   2.191   6.962   6.748
12080TIP3    H236180   2.141   6.936   6.889
12081TIP3   OH236181   3.267   5.369   5.538
12081TIP3    H136182   3.194   5.398   5.592
12081TIP3    H236183   3.286   5.445   5.482
12082TIP3   OH236184   2.029   6.108   5.864
12082TIP3    H136185   1.955   6.157   5.827
12082TIP3    H236186   1.993   6.022   5.883
12083TIP3   OH236187   3.087   6.742   5.092
12083TIP3    H136188   3.086   6.836   5.076
12083TIP3    H236189   3.177   6.715   5.074
12084TIP3   OH236190   1.824   6.501   6.787
12084TIP3    H136191   1.746   6.493   6.732
12084TIP3    H236192   1.856   6.412   6.798
12085TIP3   OH236193   1.662   6.695   6.430
12085TIP3    H136194   1.757   6.709   6.431
12085TIP3    H236195   1.626   6.778   6.463
12086TIP3   OH236196   3.515   7.151   6.488
12086TIP3    H136197   3.519   7.056   6.503
12086TIP3    H236198   3.435   7.178   6.534
12087TIP3   OH236199   2.618   6.934   6.613
12087TIP3    H136200   2.614   7.025   6.642
12087TIP3    H236201   2.551   6.889   6.665
12088TIP3   OH236202   2.394   7.043   5.572
12088TIP3    H136203   2.348   7.025   5.490
12088TIP3    H236204   2.361   7.128   5.601
12089TIP3   OH236205   1.828   6.894   5.949
12089TIP3    H136206   1.874   6.886   6.033
12089TIP3    H236207   1.780   6.811   5.941
12090TIP3   OH236208   2.596   6.964   5.199
12090TIP3    H136209   2.647   6.892   5.164
12090TIP3    H236210   2.630   6.978   5.288
12091TIP3   OH236211   2.647   7.011   5.469
12091TIP3    H136212   2.562   7.015   5.512
12091TIP3    H236213   2.707   6.980   5.537
12092TIP3   OH236214   3.402   6.270   6.764
12092TIP3    H136215   3.320   6.281   6.714
12092TIP3    H236216   3.421   6.177   6.758
12093TIP3   OH236217   2.015   6.695   6.764
12093TIP3    H136218   2.067   6.680   6.844
12093TIP3    H236219   1.947   6.628   6.767
12094TIP3   OH236220   2.395   5.518   6.534
12094TIP3    H136221   2.306   5.483   6.532
12094TIP3    H236222   2.393   5.593   6.474
12095TIP3   OH236223   2.945   5.621   6.771
12095TIP3    H136224   3.021   5.592   6.823
12095TIP3    H236225   2.869   5.600   6.826
12096TIP3   OH236226   3.160   6.045   6.677
12096TIP3    H136227   3.121   6.043   6.764
12096TIP3    H236228   3.147   6.135   6.647
12097TIP3   OH236229   2.835   6.140   5.224
12097TIP3    H136230   2.795   6.140   5.137
12097TIP3    H236231   2.919   6.186   5.212
12098TIP3   OH236232   2.554   5.539   5.543
12098TIP3    H136233   2.520   5.547   5.632
12098TIP3    H236234   2.510   5.462   5.506
12099TIP3   OH236235   2.334   6.023   6.594
12099TIP3    H136236   2.286   6.041   6.675
12099TIP3    H236237   2.318   6.100   6.539
12100TIP3   OH236238   2.226   5.899   6.110
12100TIP3    H136239   2.135   5.880   6.132
12100TIP3    H236240   2.235   5.867   6.020
12101TIP3   OH236241   2.700   5.990   5.825
12101TIP3    H136242   2.652   6.062   5.785
12101TIP3    H236243   2.760   5.960   5.757
12102TIP3   OH236244   2.885   6.261   6.905
12102TIP3    H136245   2.859   6.192   6.966
12102TIP3    H236246   2.977   6.277   6.926
12103TIP3   OH236247   2.860   6.005   6.057
12103TIP3    H136248   2.796   6.033   5.991
12103TIP3    H236249   2.906   5.932   6.017
12104TIP3   OH236250   2.156   6.072   6.801
12104TIP3    H136251   2.182   6.150   6.849
12104TIP3    H236252   2.088   6.032   6.855
12105TIP3   OH236253   2.214   5.528   5.511
12105TIP3    H136254   2.204   5.531   5.606
12105TIP3    H236255   2.136   5.574   5.478
12106TIP3   OH236256   1.755   5.569   6.380
12106TIP3    H136257   1.827   5.605   6.431
12106TIP3    H236258   1.794   5.548   6.295
12107TIP3   OH236259   1.683   5.548   5.888
12107TIP3    H136260   1.728   5.583   5.811
12107TIP3    H236261   1.621   5.616   5.912
12108TIP3   OH236262   2.887   6.259   6.483
12108TIP3    H136263   2.916   6.192   6.420
12108TIP3    H236264   2.852   6.209   6.556
12109TIP3   OH236265   2.573   5.711   6.150
12109TIP3    H136266   2.498   5.711   6.209
12109TIP3    H236267   2.649   5.700   6.207
12110TIP3   OH236268   1.979   5.787   6.164
12110TIP3    H136269   1.890   5.794   6.129
12110TIP3    H236270   2.006   5.697   6.144
12111TIP3   OH236271   2.235   5.786   5.858
12111TIP3    H136272   2.328   5.802   5.844
12111TIP3    H236273   2.194   5.807   5.774
12112TIP3   OH236274   3.039   5.797   6.357
12112TIP3    H136275   3.019   5.812   6.450
12112TIP3    H236276   2.975   5.732   6.328
12113TIP3   OH236277   2.109   5.813   5.616
12113TIP3    H136278   2.043   5.766   5.564
12113TIP3    H236279   2.162   5.859   5.551
12114TIP3   OH236280   3.221   7.496   6.585
12114TIP3    H136281   3.217   7.518   6.492
12114TIP3    H236282   3.298   7.541   6.618
12115TIP3   OH236283   7.847   2.594   0.047
12115TIP3    H136284   7.927   2.621   0.094
12115TIP3    H236285   7.779   2.594   0.114
12116TIP3   OH236286   2.632   6.066   6.254
12116TIP3    H136287   2.702   6.026   6.204
12116TIP3    H236288   2.638   6.027   6.341
12117TIP3   OH236289   2.135   5.540   6.151
12117TIP3    H136290   2.101   5.464   6.199
12117TIP3    H236291   2.163   5.505   6.067
12118TIP3   OH236292   2.609   5.975   6.533
12118TIP3    H136293   2.524   6.011   6.556
12118TIP3    H236294   2.672   6.026   6.583
12119TIP3   OH236295   2.335   6.336   5.637
12119TIP3    H136296   2.261   6.279   5.616
12119TIP3    H236297   2.313   6.375   5.722
12120TIP3   OH236298   3.232   6.584   6.250
12120TIP3    H136299   3.266   6.634   6.175
12120TIP3    H236300   3.151   6.546   6.218
12121TIP3   OH236301   2.797   5.663   5.511
12121TIP3    H136302   2.704   5.642   5.522
12121TIP3    H236303   2.804   5.755   5.537
12122TIP3   OH236304   2.737   6.663   6.653
12122TIP3    H136305   2.792   6.657   6.731
12122TIP3    H236306   2.701   6.752   6.656
12123TIP3   OH236307   2.865   5.911   5.612
12123TIP3    H136308   2.960   5.915   5.623
12123TIP3    H236309   2.844   5.989   5.560
12124TIP3   OH236310   2.028   6.349   6.297
12124TIP3    H136311   2.067   6.332   6.211
12124TIP3    H236312   2.092   6.312   6.359
12125TIP3   OH236313   2.487   6.495   5.474
12125TIP3    H136314   2.441   6.579   5.474
12125TIP3    H236315   2.433   6.438   5.529
12126TIP3   OH236316   1.924   6.264   6.918
12126TIP3    H136317   1.928   6.244   7.012
12126TIP3    H236318   1.845   6.219   6.888
12127TIP3   OH236319   2.651   6.411   6.944
12127TIP3    H136320   2.588   6.350   6.905
12127TIP3    H236321   2.736   6.376   6.917
12128TIP3   OH236322   2.889   6.940   6.538
12128TIP3    H136323   2.794   6.934   6.546
12128TIP3    H236324   2.917   6.987   6.617
12129TIP3   OH236325   3.285   6.001   5.437
12129TIP3    H136326   3.228   5.956   5.375
12129TIP3    H236327   3.291   6.091   5.403
12130TIP3   OH236328   3.526   6.863   6.518
12130TIP3    H136329   3.431   6.855   6.512
12130TIP3    H236330   3.558   6.836   6.432
12131TIP3   OH236331   3.014   6.817   5.358
12131TIP3    H136332   2.988   6.749   5.420
12131TIP3    H236333   3.029   6.770   5.276
12132TIP3   OH236334   2.997   6.453   6.151
12132TIP3    H136335   2.906   6.431   6.174
12132TIP3    H236336   3.033   6.372   6.114
12133TIP3   OH236337   2.147   6.684   5.952
12133TIP3    H136338   2.148   6.761   5.895
12133TIP3    H236339   2.055   6.672   5.975
12134TIP3   OH236340   1.710   5.974   5.661
12134TIP3    H136341   1.754   6.057   5.680
12134TIP3    H236342   1.631   5.975   5.715
12135TIP3   OH236343   2.248   6.439   5.871
12135TIP3    H136344   2.226   6.529   5.895
12135TIP3    H236345   2.219   6.387   5.946
12136TIP3   OH236346   2.427   7.010   6.410
12136TIP3    H136347   2.463   7.083   6.359
12136TIP3    H236348   2.502   6.977   6.459
12137TIP3   OH236349   2.061   6.912   5.800
12137TIP3    H136350   1.975   6.918   5.841
12137TIP3    H236351   2.096   7.002   5.804
12138TIP3   OH236352   2.786   6.663   6.381
12138TIP3    H136353   2.772   6.659   6.476
12138TIP3    H236354   2.870   6.620   6.367
12139TIP3   OH236355   2.774   6.550   5.258
12139TIP3    H136356   2.827   6.526   5.334
12139TIP3    H236357   2.687   6.516   5.279
12140TIP3   OH236358   3.038   7.175   6.419
12140TIP3    H136359   2.962   7.117   6.424
12140TIP3    H236360   3.016   7.235   6.348
12141TIP3   OH236361   3.097   7.017   5.064
12141TIP3    H136362   3.128   7.083   5.002
12141TIP3    H236363   3.022   7.058   5.107
12142TIP3   OH236364   2.944   6.471   5.459
12142TIP3    H136365   2.932   6.410   5.531
12142TIP3    H236366   3.039   6.478   5.449
12143TIP3   OH236367   1.854   6.902   6.565
12143TIP3    H136368   1.908   6.842   6.617
12143TIP3    H236369   1.867   6.988   6.606
12144TIP3   OH236370   2.132   6.517   5.259
12144TIP3    H136371   2.142   6.425   5.234
12144TIP3    H236372   2.112   6.514   5.353
12145TIP3   OH236373   2.073   6.532   5.531
12145TIP3    H136374   2.144   6.505   5.589
12145TIP3    H236375   2.071   6.628   5.538
12146TIP3   OH236376   1.807   6.224   5.741
12146TIP3    H136377   1.742   6.269   5.794
12146TIP3    H236378   1.826   6.285   5.669
12147TIP3   OH236379   2.972   5.849   6.619
12147TIP3    H136380   3.049   5.897   6.649
12147TIP3    H236381   2.966   5.774   6.677
12148TIP3   OH236382   2.856   5.607   5.795
12148TIP3    H136383   2.838   5.634   5.704
12148TIP3    H236384   2.900   5.683   5.833
12149TIP3   OH236385   2.341   6.723   5.475
12149TIP3    H136386   2.256   6.747   5.511
12149TIP3    H236387   2.366   6.798   5.420
12150TIP3   OH236388   2.514   5.798   5.892
12150TIP3    H136389   2.577   5.866   5.867
12150TIP3    H236390   2.533   5.781   5.984
12151TIP3   OH236391   2.810   6.091   6.688
12151TIP3    H136392   2.836   6.141   6.765
12151TIP3    H236393   2.866   6.013   6.691
12152TIP3   OH236394   2.677   5.503   5.985
12152TIP3    H136395   2.656   5.579   6.039
12152TIP3    H236396   2.744   5.534   5.924
12153TIP3   OH236397   2.088   6.804   5.549
12153TIP3    H136398   2.066   6.874   5.487
12153TIP3    H236399   2.077   6.845   5.635
12154TIP3   OH236400   2.188   5.515   5.790
12154TIP3    H136401   2.177   5.606   5.820
12154TIP3    H236402   2.282   5.499   5.796
12155TIP3   OH236403   3.428   6.001   6.674
12155TIP3    H136404   3.332   6.002   6.679
12155TIP3    H236405   3.447   5.950   6.594
12156TIP3   OH236406   3.089   6.196   6.059
12156TIP3    H136407   3.013   6.140   6.074
12156TIP3    H236408   3.159   6.155   6.111
12157TIP3   OH236409   1.820   6.410   5.529
12157TIP3    H136410   1.890   6.475   5.539
12157TIP3    H236411   1.855   6.347   5.465
12158TIP3   OH236412   1.741   5.697   5.664
12158TIP3    H136413   1.753   5.792   5.671
12158TIP3    H236414   1.676   5.686   5.595
12159TIP3   OH236415   3.067   7.164   5.997
12159TIP3    H136416   3.025   7.212   5.926
12159TIP3    H236417   3.161   7.177   5.983
12160TIP3   OH236418   2.138   5.417   6.538
12160TIP3    H136419   2.108   5.387   6.452
12160TIP3    H236420   2.127   5.340   6.595
12161TIP3   OH236421   1.660   6.658   5.926
12161TIP3    H136422   1.616   6.697   6.002
12161TIP3    H236423   1.621   6.703   5.851
12162TIP3   OH236424   7.533   3.191   0.026
12162TIP3    H136425   7.616   3.179   0.073
12162TIP3    H236426   7.495   3.104   0.022
12163TIP3   OH236427   8.002   3.117   0.082
12163TIP3    H136428   8.092   3.088   0.095
12163TIP3    H236429   7.968   3.061   0.012
12164TIP3   OH236430   2.289   6.719   5.155
12164TIP3    H136431   2.241   6.648   5.198
12164TIP3    H236432   2.364   6.677   5.114
12165TIP3   OH236433   2.946   7.062   6.777
12165TIP3    H136434   2.947   6.991   6.841
12165TIP3    H236435   3.023   7.115   6.799
12166TIP3   OH236436   2.728   6.756   5.078
12166TIP3    H136437   2.762   6.692   5.141
12166TIP3    H236438   2.789   6.751   5.004
12167TIP3   OH236439   7.641   2.572   0.230
12167TIP3    H136440   7.655   2.477   0.234
12167TIP3    H236441   7.557   2.582   0.185
12168TIP3   OH236442   1.952   6.218   5.386
12168TIP3    H136443   2.004   6.196   5.462
12168TIP3    H236444   2.016   6.230   5.315
12169TIP3   OH236445   2.579   6.688   6.963
12169TIP3    H136446   2.538   6.711   6.880
12169TIP3    H236447   2.617   6.601   6.948
12170TIP3   OH236448   2.492   6.438   5.205
12170TIP3    H136449   2.479   6.452   5.299
12170TIP3    H236450   2.482   6.344   5.193
12171TIP3   OH236451   3.055   6.715   6.569
12171TIP3    H136452   3.134   6.747   6.525
12171TIP3    H236453   2.991   6.785   6.557
12172TIP3   OH236454   7.754   2.316   0.233
12172TIP3    H136455   7.834   2.297   0.185
12172TIP3    H236456   7.784   2.343   0.320
12173TIP3   OH236457   2.130   6.153   5.594
12173TIP3    H136458   2.109   6.121   5.682
12173TIP3    H236459   2.175   6.079   5.552
12174TIP3   OH236460   2.439   6.220   6.837
12174TIP3    H136461   2.359   6.272   6.848
12174TIP3    H236462   2.478   6.252   6.756
12175TIP3   OH236463   2.261   5.959   5.440
12175TIP3    H136464   2.232   5.964   5.349
12175TIP3    H236465   2.357   5.967   5.436
12176TIP3   OH236466   0.102   2.598   0.007
12176TIP3    H136467   0.182   2.571  -0.038
12176TIP3    H236468   0.100   2.544   0.086
12177TIP3   OH236469   3.062   6.262   5.117
12177TIP3    H136470   3.049   6.219   5.033
12177TIP3    H236471   3.035   6.352   5.103
12178TIP3   OH236472   2.537   5.995   6.958
12178TIP3    H136473   2.541   5.924   6.895
12178TIP3    H236474   2.506   6.070   6.907
12179TIP3   OH236475   2.533   5.794   6.743
12179TIP3    H136476   2.591   5.833   6.677
12179TIP3    H236477   2.445   5.804   6.706
12180TIP3   OH236478   2.568   6.328   6.626
12180TIP3    H136479   2.657   6.359   6.608
12180TIP3    H236480   2.511   6.391   6.581
12181TIP3   OH236481   0.319   2.284   0.068
12181TIP3    H136482   0.364   2.200   0.072
12181TIP3    H236483   0.388   2.347   0.049
12182TIP3   OH236484   3.189   6.549   6.739
12182TIP3    H136485   3.132   6.607   6.688
12182TIP3    H236486   3.277   6.568   6.707
12183TIP3   OH236487   8.087   2.095   0.252
12183TIP3    H136488   8.017   2.034   0.275
12183TIP3    H236489   8.117   2.066   0.166
12184TIP3   OH236490   2.673   5.567   6.846
12184TIP3    H136491   2.625   5.642   6.811
12184TIP3    H236492   2.619   5.491   6.823
12185TIP3   OH236493   8.467   2.039   0.113
12185TIP3    H136494   8.466   2.029   0.208
12185TIP3    H236495   8.379   2.015   0.085
12186TIP3   OH236496   0.211   1.994  -0.024
12186TIP3    H136497   0.134   1.993   0.033
12186TIP3    H236498   0.283   1.967   0.033
12187TIP3   OH236499   0.443   1.949   0.130
12187TIP3    H136500   0.457   1.855   0.135
12187TIP3    H236501   0.438   1.978   0.221
12188TIP3   OH236502   7.931   1.868   0.324
12188TIP3    H136503   7.950   1.781   0.290
12188TIP3    H236504   7.970   1.869   0.412
12189TIP3   OH236505   8.398   1.555   0.175
12189TIP3    H136506   8.479   1.504   0.180
12189TIP3    H236507   8.376   1.555   0.081
12190TIP3   OH236508   8.496   1.765   0.323
12190TIP3    H136509   8.470   1.694   0.264
12190TIP3    H236510   8.422   1.826   0.321
12191TIP3   OH236511   2.076   7.006   5.359
12191TIP3    H136512   2.168   6.992   5.336
12191TIP3    H236513   2.041   7.056   5.286
12192TIP3   OH236514   1.549   6.389   5.558
12192TIP3    H136515   1.642   6.407   5.549
12192TIP3    H236516   1.537   6.303   5.517
12193TIP3   OH236517   1.460   6.981   5.998
12193TIP3    H136518   1.397   6.927   5.951
12193TIP3    H236519   1.504   6.920   6.058
12194TIP3   OH236520   1.601   6.815   6.170
12194TIP3    H136521   1.589   6.751   6.240
12194TIP3    H236522   1.652   6.886   6.211
12195TIP3   OH236523   3.336   7.224   5.984
12195TIP3    H136524   3.354   7.255   6.072
12195TIP3    H236525   3.389   7.280   5.927
12196TIP3   OH236526   3.352   7.258   6.265
12196TIP3    H136527   3.306   7.174   6.260
12196TIP3    H236528   3.423   7.242   6.327
12197TIP3   OH236529   3.399   6.948   6.837
12197TIP3    H136530   3.326   6.958   6.899
12197TIP3    H236531   3.443   7.033   6.838
12198TIP3   OH236532   3.224   6.464   5.447
12198TIP3    H136533   3.283   6.533   5.417
12198TIP3    H236534   3.268   6.426   5.523
12199TIP3   OH236535   3.351   6.322   5.649
12199TIP3    H136536   3.285   6.285   5.707
12199TIP3    H236537   3.417   6.359   5.708
12200TIP3   OH236538   3.402   6.722   6.079
12200TIP3    H136539   3.456   6.655   6.038
12200TIP3    H236540   3.402   6.795   6.016
12201TIP3   OH236541   3.214   7.014   6.271
12201TIP3    H136542   3.146   7.058   6.323
12201TIP3    H236543   3.166   6.972   6.200
12202TIP3   OH236544   3.271   6.239   5.295
12202TIP3    H136545   3.199   6.238   5.231
12202TIP3    H236546   3.253   6.316   5.349
12203TIP3   OH236547   3.126   5.898   5.241
12203TIP3    H136548   3.084   5.932   5.162
12203TIP3    H236549   3.111   5.803   5.237
12204TIP3   OH236550   3.152   6.184   5.790
12204TIP3    H136551   3.162   6.089   5.780
12204TIP3    H236552   3.135   6.197   5.883
12205TIP3   OH236553   1.778   6.244   6.551
12205TIP3    H136554   1.767   6.213   6.461
12205TIP3    H236555   1.873   6.253   6.561
12206TIP3   OH236556   3.444   6.606   6.647
12206TIP3    H136557   3.509   6.538   6.631
12206TIP3    H236558   3.468   6.677   6.588
12207TIP3   OH236559   3.615   6.392   6.643
12207TIP3    H136560   3.542   6.351   6.688
12207TIP3    H236561   3.690   6.335   6.662
12208TIP3   OH236562   3.079   5.629   5.233
12208TIP3    H136563   3.157   5.599   5.281
12208TIP3    H236564   3.012   5.564   5.253
12209TIP3   OH236565   3.150   5.905   5.673
12209TIP3    H136566   3.194   5.821   5.686
12209TIP3    H236567   3.196   5.945   5.599
12210TIP3   OH236568   3.304   6.069   6.190
12210TIP3    H136569   3.385   6.088   6.142
12210TIP3    H236570   3.318   6.108   6.276
12211TIP3   OH236571   3.377   6.219   6.418
12211TIP3    H136572   3.304   6.251   6.472
12211TIP3    H236573   3.410   6.297   6.374
12212TIP3   OH236574   7.669   1.915   0.252
12212TIP3    H136575   7.761   1.920   0.278
12212TIP3    H236576   7.638   1.833   0.290
12213TIP3   OH236577   3.837   5.821   6.962
12213TIP3    H136578   3.898   5.760   6.921
12213TIP3    H236579   3.798   5.869   6.889
12214TIP3   OH236580   3.259   5.653   5.723
12214TIP3    H136581   3.307   5.638   5.804
12214TIP3    H236582   3.197   5.580   5.718
12215TIP3   OH236583   1.965   5.636   6.551
12215TIP3    H136584   2.022   5.558   6.553
12215TIP3    H236585   2.026   5.709   6.542
12216TIP3   OH236586   1.753   5.905   6.611
12216TIP3    H136587   1.805   5.898   6.531
12216TIP3    H236588   1.765   5.996   6.639
12217TIP3   OH236589   3.687   5.934   6.764
12217TIP3    H136590   3.603   5.975   6.785
12217TIP3    H236591   3.663   5.857   6.711
12218TIP3   OH236592   3.323   5.573   5.360
12218TIP3    H136593   3.369   5.512   5.303
12218TIP3    H236594   3.380   5.650   5.363
12219TIP3   OH236595   1.741   5.410   6.117
12219TIP3    H136596   1.654   5.399   6.155
12219TIP3    H236597   1.726   5.466   6.040
12220TIP3   OH236598   2.895   7.125   5.625
12220TIP3    H136599   2.953   7.116   5.549
12220TIP3    H236600   2.936   7.193   5.678
12221TIP3   OH236601   7.633   1.542   0.040
12221TIP3    H136602   7.570   1.499   0.099
12221TIP3    H236603   7.579   1.577  -0.031
12222TIP3   OH236604   7.672   2.905   0.071
12222TIP3    H136605   7.580   2.900   0.044
12222TIP3    H236606   7.671   2.888   0.165
12223TIP3   OH236607   2.199   6.965   6.556
12223TIP3    H136608   2.146   7.038   6.522
12223TIP3    H236609   2.284   6.976   6.514
12224TIP3   OH236610   2.612   7.200   6.693
12224TIP3    H136611   2.649   7.194   6.781
12224TIP3    H236612   2.675   7.252   6.643
12225TIP3   OH236613   2.802   7.354   6.565
12225TIP3    H136614   2.868   7.303   6.519
12225TIP3    H236615   2.852   7.410   6.625
12226TIP3   OH236616   3.595   5.685   6.659
12226TIP3    H136617   3.504   5.668   6.634
12226TIP3    H236618   3.638   5.599   6.653
12227TIP3   OH236619   1.863   7.205   6.598
12227TIP3    H136620   1.776   7.225   6.566
12227TIP3    H236621   1.884   7.276   6.659
12228TIP3   OH236622   2.093   7.194   6.446
12228TIP3    H136623   2.010   7.201   6.494
12228TIP3    H236624   2.072   7.223   6.358
12229TIP3   OH236625   2.512   7.215   6.242
12229TIP3    H136626   2.443   7.231   6.178
12229TIP3    H236627   2.525   7.300   6.284
12230TIP3   OH236628   2.778   7.151   6.292
12230TIP3    H136629   2.686   7.172   6.274
12230TIP3    H236630   2.827   7.221   6.248
12231TIP3   OH236631   2.978   7.333   6.197
12231TIP3    H136632   2.973   7.420   6.157
12231TIP3    H236633   3.008   7.276   6.126
12232TIP3   OH236634   1.777   6.998   6.314
12232TIP3    H136635   1.799   6.974   6.404
12232TIP3    H236636   1.849   6.963   6.261
12233TIP3   OH236637   1.977   6.873   6.181
12233TIP3    H136638   1.988   6.791   6.228
12233TIP3    H236639   2.063   6.914   6.184
12234TIP3   OH236640   2.242   6.962   6.203
12234TIP3    H136641   2.263   6.870   6.191
12234TIP3    H236642   2.294   6.989   6.279
12235TIP3   OH236643   2.796   5.611   6.280
12235TIP3    H136644   2.762   5.537   6.331
12235TIP3    H236645   2.869   5.574   6.230
12236TIP3   OH236646   3.311   5.506   6.167
12236TIP3    H136647   3.354   5.558   6.098
12236TIP3    H236648   3.228   5.550   6.182
12237TIP3   OH236649   3.424   5.604   5.938
12237TIP3    H136650   3.494   5.544   5.911
12237TIP3    H236651   3.461   5.691   5.926
12238TIP3   OH236652   2.051   5.317   6.295
12238TIP3    H136653   1.960   5.287   6.300
12238TIP3    H236654   2.102   5.237   6.286
12239TIP3   OH236655   1.853   5.214   5.941
12239TIP3    H136656   1.882   5.266   5.866
12239TIP3    H236657   1.820   5.278   6.004
12240TIP3   OH236658   2.518   5.360   6.178
12240TIP3    H136659   2.567   5.408   6.111
12240TIP3    H236660   2.564   5.380   6.260
12241TIP3   OH236661   3.016   5.501   6.158
12241TIP3    H136662   3.049   5.466   6.075
12241TIP3    H236663   3.020   5.426   6.219
12242TIP3   OH236664   3.069   5.443   5.715
12242TIP3    H136665   2.993   5.494   5.742
12242TIP3    H236666   3.057   5.358   5.757
12243TIP3   OH236667   1.549   6.788   5.712
12243TIP3    H136668   1.464   6.754   5.682
12243TIP3    H236669   1.552   6.878   5.681
12244TIP3   OH236670   1.969   5.353   5.708
12244TIP3    H136671   2.014   5.292   5.650
12244TIP3    H236672   2.039   5.409   5.742
12245TIP3   OH236673   2.464   5.544   5.804
12245TIP3    H136674   2.525   5.497   5.861
12245TIP3    H236675   2.476   5.636   5.827
12246TIP3   OH236676   2.339   6.946   5.300
12246TIP3    H136677   2.423   6.974   5.264
12246TIP3    H236678   2.311   6.874   5.243
12247TIP3   OH236679   3.049   7.085   5.396
12247TIP3    H136680   3.042   6.990   5.387
12247TIP3    H236681   3.004   7.120   5.319
12248TIP3   OH236682   7.932   1.577   0.233
12248TIP3    H136683   7.906   1.517   0.303
12248TIP3    H236684   8.024   1.596   0.250
12249TIP3   OH236685   8.181   1.597   0.343
12249TIP3    H136686   8.260   1.583   0.291
12249TIP3    H236687   8.185   1.529   0.410
12250TIP3   OH236688   1.637   6.788   5.355
12250TIP3    H136689   1.642   6.810   5.448
12250TIP3    H236690   1.720   6.744   5.337
12251TIP3   OH236691   0.508   1.679   0.141
12251TIP3    H136692   0.523   1.649   0.230
12251TIP3    H236693   0.594   1.673   0.099
12252TIP3   OH236694   3.264   7.223   6.583
12252TIP3    H136695   3.187   7.193   6.534
12252TIP3    H236696   3.251   7.317   6.593
12253TIP3   OH236697   4.547   6.615   5.315
12253TIP3    H136698   4.511   6.702   5.297
12253TIP3    H236699   4.474   6.555   5.298
12254TIP3   OH236700   4.536   6.597   5.746
12254TIP3    H136701   4.585   6.582   5.828
12254TIP3    H236702   4.494   6.512   5.728
12255TIP3   OH236703   3.835   6.476   6.103
12255TIP3    H136704   3.867   6.417   6.171
12255TIP3    H236705   3.914   6.510   6.061
12256TIP3   OH236706   4.789   6.914   5.410
12256TIP3    H136707   4.778   6.848   5.479
12256TIP3    H236708   4.815   6.994   5.457
12257TIP3   OH236709   3.822   6.894   5.797
12257TIP3    H136710   3.807   6.800   5.803
12257TIP3    H236711   3.917   6.902   5.789
12258TIP3   OH236712   3.513   6.098   5.579
12258TIP3    H136713   3.474   6.182   5.603
12258TIP3    H236714   3.441   6.049   5.539
12259TIP3   OH236715   3.584   6.400   5.784
12259TIP3    H136716   3.633   6.323   5.813
12259TIP3    H236717   3.651   6.460   5.752
12260TIP3   OH236718   4.449   7.353   5.428
12260TIP3    H136719   4.485   7.282   5.374
12260TIP3    H236720   4.442   7.316   5.516
12261TIP3   OH236721   4.342   6.823   5.762
12261TIP3    H136722   4.383   6.742   5.731
12261TIP3    H236723   4.416   6.877   5.792
12262TIP3   OH236724   5.368   6.144   5.761
12262TIP3    H136725   5.387   6.226   5.806
12262TIP3    H236726   5.394   6.160   5.671
12263TIP3   OH236727   4.759   6.320   5.792
12263TIP3    H136728   4.797   6.235   5.818
12263TIP3    H236729   4.719   6.303   5.707
12264TIP3   OH236730   4.094   5.978   5.763
12264TIP3    H136731   4.080   6.049   5.702
12264TIP3    H236732   4.044   5.905   5.728
12265TIP3   OH236733   4.799   6.071   5.385
12265TIP3    H136734   4.863   6.061   5.456
12265TIP3    H236735   4.849   6.107   5.312
12266TIP3   OH236736   3.727   6.184   5.880
12266TIP3    H136737   3.809   6.168   5.926
12266TIP3    H236738   3.734   6.132   5.799
12267TIP3   OH236739   4.157   6.384   5.689
12267TIP3    H136740   4.250   6.367   5.699
12267TIP3    H236741   4.120   6.303   5.655
12268TIP3   OH236742   5.421   6.356   5.938
12268TIP3    H136743   5.342   6.405   5.916
12268TIP3    H236744   5.409   6.330   6.030
12269TIP3   OH236745   4.084   5.973   6.208
12269TIP3    H136746   4.032   6.008   6.136
12269TIP3    H236747   4.031   5.989   6.286
12270TIP3   OH236748   4.436   6.840   5.189
12270TIP3    H136749   4.391   6.806   5.112
12270TIP3    H236750   4.381   6.912   5.220
12271TIP3   OH236751   4.188   6.748   5.980
12271TIP3    H136752   4.132   6.818   6.015
12271TIP3    H236753   4.235   6.789   5.908
12272TIP3   OH236754   4.969   6.093   5.598
12272TIP3    H136755   4.933   6.069   5.683
12272TIP3    H236756   5.026   6.168   5.615
12273TIP3   OH236757   3.967   6.083   5.983
12273TIP3    H136758   4.024   6.157   6.006
12273TIP3    H236759   4.013   6.040   5.910
12274TIP3   OH236760   4.024   6.948   6.082
12274TIP3    H136761   4.008   7.036   6.050
12274TIP3    H236762   3.947   6.926   6.135
12275TIP3   OH236763   3.403   6.647   5.330
12275TIP3    H136764   3.366   6.666   5.243
12275TIP3    H236765   3.428   6.732   5.364
12276TIP3   OH236766   4.848   7.153   5.555
12276TIP3    H136767   4.764   7.146   5.600
12276TIP3    H236768   4.847   7.241   5.517
12277TIP3   OH236769   5.152   6.064   5.933
12277TIP3    H136770   5.064   6.076   5.896
12277TIP3    H236771   5.211   6.083   5.860
12278TIP3   OH236772   4.408   5.685   5.899
12278TIP3    H136773   4.436   5.604   5.942
12278TIP3    H236774   4.339   5.719   5.955
12279TIP3   OH236775   4.557   7.176   5.238
12279TIP3    H136776   4.613   7.099   5.243
12279TIP3    H236777   4.613   7.245   5.202
12280TIP3   OH236778   4.701   6.903   5.149
12280TIP3    H136779   4.610   6.880   5.162
12280TIP3    H236780   4.739   6.905   5.237
12281TIP3   OH236781   5.076   7.048   5.916
12281TIP3    H136782   5.060   6.973   5.859
12281TIP3    H236783   5.059   7.124   5.860
12282TIP3   OH236784   4.367   6.451   5.178
12282TIP3    H136785   4.283   6.495   5.160
12282TIP3    H236786   4.409   6.444   5.093
12283TIP3   OH236787   4.335   6.246   4.876
12283TIP3    H136788   4.401   6.294   4.925
12283TIP3    H236789   4.384   6.179   4.828
12284TIP3   OH236790   5.284   6.719   5.770
12284TIP3    H136791   5.197   6.759   5.777
12284TIP3    H236792   5.305   6.725   5.677
12285TIP3   OH236793   4.730   6.531   5.133
12285TIP3    H136794   4.672   6.563   5.202
12285TIP3    H236795   4.807   6.498   5.180
12286TIP3   OH236796   4.952   6.572   6.073
12286TIP3    H136797   4.949   6.654   6.123
12286TIP3    H236798   4.868   6.569   6.027
12287TIP3   OH236799   3.953   6.521   5.553
12287TIP3    H136800   3.916   6.463   5.487
12287TIP3    H236801   4.026   6.472   5.590
12288TIP3   OH236802   4.086   6.942   5.693
12288TIP3    H136803   4.064   6.921   5.602
12288TIP3    H236804   4.173   6.904   5.706
12289TIP3   OH236805   4.061   6.512   5.920
12289TIP3    H136806   4.099   6.477   5.839
12289TIP3    H236807   4.111   6.592   5.938
12290TIP3   OH236808   4.616   7.142   5.696
12290TIP3    H136809   4.600   7.223   5.745
12290TIP3    H236810   4.599   7.073   5.759
12291TIP3   OH236811   4.224   7.052   6.244
12291TIP3    H136812   4.165   7.111   6.292
12291TIP3    H236813   4.165   6.999   6.189
12292TIP3   OH236814   4.554   6.396   4.972
12292TIP3    H136815   4.614   6.448   5.025
12292TIP3    H236816   4.580   6.413   4.881
12293TIP3   OH236817   3.981   6.609   6.370
12293TIP3    H136818   3.984   6.700   6.397
12293TIP3    H236819   3.887   6.588   6.367
12294TIP3   OH236820   4.299   7.074   5.238
12294TIP3    H136821   4.382   7.122   5.245
12294TIP3    H236822   4.240   7.135   5.192
12295TIP3   OH236823   4.015   7.213   6.330
12295TIP3    H136824   3.986   7.219   6.239
12295TIP3    H236825   3.935   7.195   6.380
12296TIP3   OH236826   5.068   5.625   5.030
12296TIP3    H136827   4.989   5.644   5.081
12296TIP3    H236828   5.080   5.702   4.974
12297TIP3   OH236829   3.826   6.367   5.349
12297TIP3    H136830   3.749   6.412   5.314
12297TIP3    H236831   3.795   6.279   5.370
12298TIP3   OH236832   4.885   7.002   4.582
12298TIP3    H136833   4.889   7.096   4.563
12298TIP3    H236834   4.974   6.970   4.567
12299TIP3   OH236835   3.601   6.762   6.277
12299TIP3    H136836   3.533   6.743   6.212
12299TIP3    H236837   3.637   6.676   6.300
12300TIP3   OH236838   3.452   6.954   5.919
12300TIP3    H136839   3.547   6.965   5.923
12300TIP3    H236840   3.417   7.033   5.961
12301TIP3   OH236841   5.326   7.411   6.003
12301TIP3    H136842   5.320   7.316   6.012
12301TIP3    H236843   5.238   7.443   6.020
12302TIP3   OH236844   4.412   7.188   6.098
12302TIP3    H136845   4.410   7.279   6.127
12302TIP3    H236846   4.345   7.144   6.151
12303TIP3   OH236847   4.192   7.301   5.058
12303TIP3    H136848   4.144   7.281   4.977
12303TIP3    H236849   4.156   7.386   5.086
12304TIP3   OH236850   3.625   7.150   5.437
12304TIP3    H136851   3.669   7.143   5.521
12304TIP3    H236852   3.576   7.069   5.428
12305TIP3   OH236853   4.391   7.224   4.687
12305TIP3    H136854   4.442   7.151   4.651
12305TIP3    H236855   4.425   7.236   4.775
12306TIP3   OH236856   4.445   7.267   4.957
12306TIP3    H136857   4.359   7.271   4.999
12306TIP3    H236858   4.505   7.241   5.028
12307TIP3   OH236859   5.203   6.526   6.237
12307TIP3    H136860   5.119   6.537   6.194
12307TIP3    H236861   5.220   6.432   6.233
12308TIP3   OH236862   3.805   6.946   6.249
12308TIP3    H136863   3.853   6.937   6.332
12308TIP3    H236864   3.732   6.884   6.257
12309TIP3   OH236865   4.187   5.760   6.060
12309TIP3    H136866   4.102   5.729   6.028
12309TIP3    H236867   4.167   5.839   6.110
12310TIP3   OH236868   4.731   5.907   6.267
12310TIP3    H136869   4.800   5.857   6.311
12310TIP3    H236870   4.650   5.860   6.288
12311TIP3   OH236871   4.970   6.316   6.180
12311TIP3    H136872   4.922   6.311   6.263
12311TIP3    H236873   4.944   6.401   6.143
12312TIP3   OH236874   4.644   6.445   4.722
12312TIP3    H136875   4.606   6.423   4.637
12312TIP3    H236876   4.732   6.477   4.701
12313TIP3   OH236877   4.341   5.805   5.027
12313TIP3    H136878   4.309   5.809   5.117
12313TIP3    H236879   4.305   5.723   4.993
12314TIP3   OH236880   4.129   6.289   6.069
12314TIP3    H136881   4.083   6.299   6.153
12314TIP3    H236882   4.109   6.369   6.021
12315TIP3   OH236883   4.012   6.171   5.586
12315TIP3    H136884   3.923   6.145   5.610
12315TIP3    H236885   4.024   6.133   5.498
12316TIP3   OH236886   4.496   6.249   5.316
12316TIP3    H136887   4.447   6.320   5.273
12316TIP3    H236888   4.552   6.214   5.246
12317TIP3   OH236889   4.676   6.517   6.390
12317TIP3    H136890   4.650   6.447   6.450
12317TIP3    H236891   4.769   6.530   6.407
12318TIP3   OH236892   4.666   6.266   5.538
12318TIP3    H136893   4.595   6.286   5.477
12318TIP3    H236894   4.708   6.188   5.501
12319TIP3   OH236895   3.959   6.302   6.288
12319TIP3    H136896   3.992   6.362   6.355
12319TIP3    H236897   3.943   6.220   6.334
12320TIP3   OH236898   4.005   5.785   4.997
12320TIP3    H136899   3.998   5.786   5.092
12320TIP3    H236900   3.927   5.832   4.966
12321TIP3   OH236901   3.554   5.827   5.865
12321TIP3    H136902   3.622   5.864   5.922
12321TIP3    H236903   3.599   5.808   5.783
12322TIP3   OH236904   3.478   5.807   5.376
12322TIP3    H136905   3.525   5.841   5.300
12322TIP3    H236906   3.417   5.876   5.400
12323TIP3   OH236907   4.692   6.516   5.966
12323TIP3    H136908   4.721   6.450   5.903
12323TIP3    H236909   4.653   6.466   6.038
12324TIP3   OH236910   4.356   6.000   5.648
12324TIP3    H136911   4.283   5.983   5.708
12324TIP3    H236912   4.432   5.962   5.692
12325TIP3   OH236913   3.775   6.043   5.648
12325TIP3    H136914   3.686   6.047   5.614
12325TIP3    H236915   3.805   5.954   5.630
12326TIP3   OH236916   4.029   6.042   5.344
12326TIP3    H136917   4.123   6.054   5.332
12326TIP3    H236918   3.991   6.062   5.258
12327TIP3   OH236919   4.848   6.058   5.851
12327TIP3    H136920   4.821   6.076   5.941
12327TIP3    H236921   4.794   5.984   5.824
12328TIP3   OH236922   3.903   6.073   5.101
12328TIP3    H136923   3.838   6.025   5.050
12328TIP3    H236924   3.958   6.116   5.035
12329TIP3   OH236925   5.016   7.750   6.065
12329TIP3    H136926   5.015   7.762   5.970
12329TIP3    H236927   5.096   7.793   6.094
12330TIP3   OH236928   3.965   6.865   6.484
12330TIP3    H136929   4.045   6.888   6.531
12330TIP3    H236930   3.896   6.870   6.550
12331TIP3   OH236931   4.426   6.328   5.749
12331TIP3    H136932   4.480   6.267   5.699
12331TIP3    H236933   4.421   6.289   5.836
12332TIP3   OH236934   3.923   5.797   5.633
12332TIP3    H136935   3.892   5.721   5.683
12332TIP3    H236936   3.967   5.759   5.557
12333TIP3   OH236937   4.397   6.234   6.013
12333TIP3    H136938   4.309   6.262   6.039
12333TIP3    H236939   4.456   6.284   6.069
12334TIP3   OH236940   4.130   6.591   5.125
12334TIP3    H136941   4.057   6.533   5.105
12334TIP3    H236942   4.108   6.629   5.210
12335TIP3   OH236943   5.030   6.833   5.744
12335TIP3    H136944   5.061   6.883   5.669
12335TIP3    H236945   4.948   6.793   5.714
12336TIP3   OH236946   4.593   5.907   5.013
12336TIP3    H136947   4.500   5.884   5.016
12336TIP3    H236948   4.596   6.000   5.032
12337TIP3   OH236949   4.533   6.923   6.135
12337TIP3    H136950   4.580   6.913   6.218
12337TIP3    H236951   4.494   7.010   6.141
12338TIP3   OH236952   4.656   6.165   5.099
12338TIP3    H136953   4.751   6.167   5.108
12338TIP3    H236954   4.636   6.240   5.043
12339TIP3   OH236955   3.826   6.606   5.784
12339TIP3    H136956   3.864   6.589   5.698
12339TIP3    H236957   3.890   6.571   5.846
12340TIP3   OH236958   4.285   6.752   4.968
12340TIP3    H136959   4.237   6.835   4.965
12340TIP3    H236960   4.228   6.694   5.019
12341TIP3   OH236961   3.711   6.541   6.414
12341TIP3    H136962   3.726   6.523   6.507
12341TIP3    H236963   3.640   6.482   6.389
12342TIP3   OH236964   4.442   6.666   6.429
12342TIP3    H136965   4.376   6.607   6.391
12342TIP3    H236966   4.526   6.627   6.403
12343TIP3   OH236967   4.684   7.198   6.019
12343TIP3    H136968   4.590   7.189   6.028
12343TIP3    H236969   4.712   7.243   6.099
12344TIP3   OH236970   5.086   6.245   4.927
12344TIP3    H136971   5.023   6.213   4.862
12344TIP3    H236972   5.134   6.315   4.883
12345TIP3   OH236973   5.325   7.119   6.006
12345TIP3    H136974   5.230   7.115   6.003
12345TIP3    H236975   5.354   7.091   5.919
12346TIP3   OH236976   4.813   7.075   4.843
12346TIP3    H136977   4.752   7.014   4.884
12346TIP3    H236978   4.828   7.038   4.756
12347TIP3   OH236979   4.796   6.705   5.635
12347TIP3    H136980   4.707   6.682   5.661
12347TIP3    H236981   4.831   6.624   5.596
12348TIP3   OH236982   3.940   6.939   5.438
12348TIP3    H136983   3.937   7.017   5.382
12348TIP3    H236984   3.848   6.925   5.463
12349TIP3   OH236985   3.504   6.231   5.146
12349TIP3    H136986   3.548   6.313   5.167
12349TIP3    H236987   3.425   6.232   5.200
12350TIP3   OH236988   4.049   6.698   5.360
12350TIP3    H136989   4.023   6.787   5.384
12350TIP3    H236990   4.020   6.643   5.433
12351TIP3   OH236991   4.223   7.271   5.896
12351TIP3    H136992   4.261   7.343   5.847
12351TIP3    H236993   4.296   7.234   5.946
12352TIP3   OH236994   3.857   7.169   5.287
12352TIP3    H136995   3.771   7.174   5.328
12352TIP3    H236996   3.891   7.258   5.291
12353TIP3   OH236997   4.584   6.919   5.865
12353TIP3    H136998   4.568   6.917   5.960
12353TIP3    H236999   4.664   6.869   5.853
12354TIP3   OH237000   4.564   6.798   4.735
12354TIP3    H137001   4.589   6.762   4.820
12354TIP3    H237002   4.476   6.764   4.719
12355TIP3   OH237003   4.836   7.431   5.903
12355TIP3    H137004   4.761   7.371   5.908
12355TIP3    H237005   4.813   7.491   5.832
12356TIP3   OH237006   4.905   7.276   4.558
12356TIP3    H137007   4.946   7.345   4.506
12356TIP3    H237008   4.828   7.318   4.596
12357TIP3   OH237009   3.916   6.050   6.417
12357TIP3    H137010   3.821   6.054   6.424
12357TIP3    H237011   3.943   5.995   6.491
12358TIP3   OH237012   4.845   6.735   4.990
12358TIP3    H137013   4.800   6.656   5.020
12358TIP3    H237014   4.799   6.807   5.034
12359TIP3   OH237015   3.652   7.148   6.057
12359TIP3    H137016   3.702   7.082   6.106
12359TIP3    H237017   3.665   7.229   6.105
12360TIP3   OH237018   3.933   6.772   4.746
12360TIP3    H137019   3.939   6.680   4.720
12360TIP3    H237020   3.911   6.769   4.839
12361TIP3   OH237021   3.868   6.789   5.016
12361TIP3    H137022   3.935   6.760   5.077
12361TIP3    H237023   3.868   6.885   5.024
12362TIP3   OH237024   3.602   6.480   5.227
12362TIP3    H137025   3.537   6.525   5.281
12362TIP3    H237026   3.620   6.541   5.156
12363TIP3   OH237027   4.772   6.125   6.109
12363TIP3    H137028   4.851   6.162   6.146
12363TIP3    H237029   4.753   6.048   6.164
12364TIP3   OH237030   4.652   5.855   5.284
12364TIP3    H137031   4.634   5.875   5.192
12364TIP3    H237032   4.694   5.934   5.318
12365TIP3   OH237033   4.141   6.981   4.962
12365TIP3    H137034   4.055   7.003   4.999
12365TIP3    H237035   4.161   7.055   4.904
12366TIP3   OH237036   4.308   6.057   5.384
12366TIP3    H137037   4.373   6.124   5.360
12366TIP3    H237038   4.323   6.040   5.477
12367TIP3   OH237039   4.602   6.350   6.166
12367TIP3    H137040   4.628   6.392   6.249
12367TIP3    H237041   4.654   6.270   6.163
12368TIP3   OH237042   4.479   5.752   5.474
12368TIP3    H137043   4.496   5.809   5.549
12368TIP3    H237044   4.539   5.783   5.406
12369TIP3   OH237045   3.887   7.061   5.035
12369TIP3    H137046   3.863   7.131   4.974
12369TIP3    H237047   3.874   7.101   5.122
12370TIP3   OH237048   3.986   5.771   5.274
12370TIP3    H137049   3.975   5.860   5.308
12370TIP3    H237050   4.080   5.754   5.282
12371TIP3   OH237051   5.226   6.247   6.136
12371TIP3    H137052   5.136   6.265   6.160
12371TIP3    H237053   5.220   6.177   6.070
12372TIP3   OH237054   4.890   6.451   5.529
12372TIP3    H137055   4.812   6.397   5.541
12372TIP3    H237056   4.956   6.411   5.585
12373TIP3   OH237057   3.616   6.666   5.015
12373TIP3    H137058   3.685   6.731   5.024
12373TIP3    H237059   3.651   6.602   4.952
12374TIP3   OH237060   3.538   5.955   5.153
12374TIP3    H137061   3.549   6.050   5.158
12374TIP3    H237062   3.476   5.941   5.082
12375TIP3   OH237063   4.860   7.423   5.487
12375TIP3    H137064   4.815   7.469   5.416
12375TIP3    H237065   4.953   7.441   5.472
12376TIP3   OH237066   3.924   5.676   6.021
12376TIP3    H137067   3.898   5.643   5.935
12376TIP3    H237068   3.919   5.600   6.078
12377TIP3   OH237069   3.457   6.918   5.410
12377TIP3    H137070   3.409   6.953   5.485
12377TIP3    H237071   3.417   6.961   5.334
12378TIP3   OH237072   3.645   7.462   6.475
12378TIP3    H137073   3.726   7.469   6.526
12378TIP3    H237074   3.625   7.369   6.475
12379TIP3   OH237075   4.114   7.392   6.518
12379TIP3    H137076   4.206   7.371   6.532
12379TIP3    H237077   4.085   7.331   6.450
12380TIP3   OH237078   4.084   6.977   4.642
12380TIP3    H137079   4.037   6.905   4.685
12380TIP3    H237080   4.157   6.935   4.598
12381TIP3   OH237081   4.744   7.316   6.259
12381TIP3    H137082   4.750   7.245   6.323
12381TIP3    H237083   4.819   7.372   6.277
12382TIP3   OH237084   4.522   7.016   4.564
12382TIP3    H137085   4.560   6.949   4.621
12382TIP3    H237086   4.577   7.013   4.485
12383TIP3   OH237087   3.759   6.853   6.671
12383TIP3    H137088   3.777   6.759   6.679
12383TIP3    H237089   3.672   6.857   6.631
12384TIP3   OH237090   3.748   6.475   4.872
12384TIP3    H137091   3.800   6.451   4.949
12384TIP3    H237092   3.812   6.486   4.802
12385TIP3   OH237093   4.376   6.941   6.447
12385TIP3    H137094   4.331   6.963   6.365
12385TIP3    H237095   4.409   6.852   6.435
12386TIP3   OH237096   4.312   6.695   4.698
12386TIP3    H137097   4.288   6.708   4.790
12386TIP3    H237098   4.297   6.601   4.683
12387TIP3   OH237099   4.851   6.974   6.058
12387TIP3    H137100   4.930   7.007   6.015
12387TIP3    H237101   4.785   7.041   6.043
12388TIP3   OH237102   3.877   6.593   6.670
12388TIP3    H137103   3.957   6.575   6.620
12388TIP3    H237104   3.908   6.619   6.756
12389TIP3   OH237105   3.926   6.409   5.081
12389TIP3    H137106   3.904   6.377   5.168
12389TIP3    H237107   3.970   6.335   5.039
12390TIP3   OH237108   4.220   6.475   6.327
12390TIP3    H137109   4.141   6.530   6.336
12390TIP3    H237110   4.261   6.507   6.246
12391TIP3   OH237111   4.059   6.217   4.925
12391TIP3    H137112   4.030   6.221   4.834
12391TIP3    H237113   4.154   6.221   4.920
12392TIP3   OH237114   4.735   6.862   6.435
12392TIP3    H137115   4.806   6.825   6.383
12392TIP3    H237116   4.726   6.803   6.509
12393TIP3   OH237117   4.896   6.547   4.638
12393TIP3    H137118   4.887   6.489   4.562
12393TIP3    H237119   4.859   6.630   4.610
12394TIP3   OH237120   4.336   6.256   6.443
12394TIP3    H137121   4.342   6.183   6.382
12394TIP3    H237122   4.298   6.327   6.391
12395TIP3   OH237123   4.344   6.056   6.243
12395TIP3    H137124   4.374   6.088   6.158
12395TIP3    H237125   4.254   6.029   6.228
12396TIP3   OH237126   4.357   6.583   6.121
12396TIP3    H137127   4.448   6.605   6.097
12396TIP3    H237128   4.304   6.647   6.073
12397TIP3   OH237129   4.943   6.544   6.488
12397TIP3    H137130   4.975   6.454   6.492
12397TIP3    H237131   5.022   6.597   6.474
12398TIP3   OH237132   4.981   6.806   6.227
12398TIP3    H137133   4.925   6.865   6.177
12398TIP3    H237134   5.069   6.823   6.193
12399TIP3   OH237135   4.218   6.349   6.681
12399TIP3    H137136   4.150   6.285   6.700
12399TIP3    H237137   4.250   6.325   6.594
12400TIP3   OH237138   4.466   5.817   6.335
12400TIP3    H137139   4.425   5.897   6.302
12400TIP3    H237140   4.401   5.748   6.318
12401TIP3   OH237141   4.594   6.302   6.539
12401TIP3    H137142   4.584   6.289   6.634
12401TIP3    H237143   4.508   6.279   6.503
12402TIP3   OH237144   4.844   6.268   6.413
12402TIP3    H137145   4.764   6.257   6.464
12402TIP3    H237146   4.912   6.226   6.465
12403TIP3   OH237147   5.083   6.210   6.552
12403TIP3    H137148   5.092   6.115   6.559
12403TIP3    H237149   5.074   6.240   6.642
12404TIP3   OH237150   4.054   6.129   6.746
12404TIP3    H137151   4.061   6.041   6.709
12404TIP3    H237152   4.093   6.121   6.833
12405TIP3   OH237153   4.540   5.807   6.599
12405TIP3    H137154   4.609   5.741   6.595
12405TIP3    H237155   4.510   5.816   6.508
12406TIP3   OH237156   4.628   6.023   6.745
12406TIP3    H137157   4.603   5.952   6.687
12406TIP3    H237158   4.555   6.084   6.743
12407TIP3   OH237159   3.872   7.265   4.848
12407TIP3    H137160   3.964   7.250   4.824
12407TIP3    H237161   3.836   7.314   4.774
12408TIP3   OH237162   3.343   6.646   5.042
12408TIP3    H137163   3.437   6.663   5.035
12408TIP3    H237164   3.331   6.560   5.003
12409TIP3   OH237165   3.255   7.241   5.488
12409TIP3    H137166   3.190   7.187   5.444
12409TIP3    H237167   3.299   7.181   5.548
12410TIP3   OH237168   3.395   7.077   5.662
12410TIP3    H137169   3.383   7.009   5.729
12410TIP3    H237170   3.446   7.145   5.705
12411TIP3   OH237171   5.117   7.493   5.439
12411TIP3    H137172   5.186   7.525   5.497
12411TIP3    H237173   5.162   7.471   5.358
12412TIP3   OH237174   5.157   7.516   5.747
12412TIP3    H137175   5.112   7.432   5.749
12412TIP3    H237176   5.246   7.496   5.718
12413TIP3   OH237177   5.199   7.204   6.314
12413TIP3    H137178   5.123   7.212   6.371
12413TIP3    H237179   5.243   7.289   6.321
12414TIP3   OH237180   5.109   6.628   5.097
12414TIP3    H137181   5.058   6.568   5.152
12414TIP3    H237182   5.191   6.640   5.145
12415TIP3   OH237183   5.196   6.973   5.570
12415TIP3    H137184   5.248   6.909   5.521
12415TIP3    H237185   5.172   7.039   5.506
12416TIP3   OH237186   5.012   7.265   5.761
12416TIP3    H137187   4.947   7.317   5.810
12416TIP3    H237188   4.963   7.232   5.686
12417TIP3   OH237189   4.923   6.164   4.724
12417TIP3    H137190   4.885   6.194   4.641
12417TIP3    H237191   4.910   6.069   4.724
12418TIP3   OH237192   4.963   6.442   5.258
12418TIP3    H137193   4.965   6.347   5.247
12418TIP3    H237194   4.946   6.455   5.351
12419TIP3   OH237195   3.572   6.507   6.037
12419TIP3    H137196   3.564   6.473   5.948
12419TIP3    H237197   3.666   6.506   6.055
12420TIP3   OH237198   5.235   6.859   6.132
12420TIP3    H137199   5.304   6.794   6.114
12420TIP3    H237200   5.254   6.930   6.071
12421TIP3   OH237201   5.417   6.653   6.121
12421TIP3    H137202   5.342   6.608   6.161
12421TIP3    H237203   5.492   6.600   6.147
12422TIP3   OH237204   4.877   5.896   4.716
12422TIP3    H137205   4.947   5.858   4.769
12422TIP3    H237206   4.801   5.841   4.734
12423TIP3   OH237207   4.947   6.160   5.158
12423TIP3    H137208   4.987   6.074   5.176
12423TIP3    H237209   4.991   6.191   5.079
12424TIP3   OH237210   5.100   6.328   5.672
12424TIP3    H137211   5.183   6.345   5.628
12424TIP3    H237212   5.110   6.368   5.759
12425TIP3   OH237213   5.174   6.487   5.894
12425TIP3    H137214   5.101   6.513   5.950
12425TIP3    H237215   5.208   6.570   5.860
12426TIP3   OH237216   3.789   6.182   6.688
12426TIP3    H137217   3.883   6.180   6.703
12426TIP3    H237218   3.757   6.100   6.727
12427TIP3   OH237219   5.629   6.080   6.444
12427TIP3    H137220   5.691   6.017   6.406
12427TIP3    H237221   5.597   6.130   6.369
12428TIP3   OH237222   5.055   5.909   5.212
12428TIP3    H137223   5.100   5.895   5.294
12428TIP3    H237224   4.994   5.836   5.204
12429TIP3   OH237225   3.757   5.898   6.043
12429TIP3    H137226   3.812   5.819   6.046
12429TIP3    H237227   3.819   5.969   6.027
12430TIP3   OH237228   3.547   6.163   6.096
12430TIP3    H137229   3.599   6.156   6.016
12430TIP3    H237230   3.576   6.244   6.138
12431TIP3   OH237231   5.491   6.206   6.244
12431TIP3    H137232   5.414   6.240   6.289
12431TIP3    H237233   5.459   6.131   6.195
12432TIP3   OH237234   5.116   5.827   4.849
12432TIP3    H137235   5.155   5.762   4.790
12432TIP3    H237236   5.179   5.899   4.849
12433TIP3   OH237237   3.535   5.662   5.601
12433TIP3    H137238   3.448   5.657   5.640
12433TIP3    H237239   3.525   5.721   5.526
12434TIP3   OH237240   4.698   7.368   5.116
12434TIP3    H137241   4.757   7.366   5.040
12434TIP3    H237242   4.732   7.439   5.171
12435TIP3   OH237243   3.753   5.735   6.425
12435TIP3    H137244   3.700   5.725   6.504
12435TIP3    H237245   3.696   5.781   6.364
12436TIP3   OH237246   3.793   7.175   6.496
12436TIP3    H137247   3.699   7.159   6.486
12436TIP3    H237248   3.808   7.172   6.590
12437TIP3   OH237249   3.994   7.222   6.045
12437TIP3    H137250   3.940   7.293   6.011
12437TIP3    H237251   4.079   7.234   6.001
12438TIP3   OH237252   4.411   7.454   6.173
12438TIP3    H137253   4.449   7.445   6.260
12438TIP3    H237254   4.474   7.506   6.124
12439TIP3   OH237255   4.595   7.609   6.040
12439TIP3    H137256   4.660   7.555   5.995
12439TIP3    H237257   4.646   7.666   6.097
12440TIP3   OH237258   5.410   5.943   6.147
12440TIP3    H137259   5.323   5.921   6.116
12440TIP3    H237260   5.459   5.861   6.143
12441TIP3   OH237261   3.657   7.473   6.086
12441TIP3    H137262   3.566   7.491   6.064
12441TIP3    H237263   3.678   7.536   6.156
12442TIP3   OH237264   3.886   7.451   5.935
12442TIP3    H137265   3.804   7.459   5.983
12442TIP3    H237266   3.864   7.478   5.846
12443TIP3   OH237267   4.311   7.477   5.728
12443TIP3    H137268   4.238   7.488   5.666
12443TIP3    H237269   4.321   7.564   5.767
12444TIP3   OH237270   4.576   7.408   5.774
12444TIP3    H137271   4.484   7.430   5.757
12444TIP3    H237272   4.625   7.478   5.731
12445TIP3   OH237273   4.775   7.594   5.685
12445TIP3    H137274   4.767   7.681   5.645
12445TIP3    H237275   4.808   7.538   5.615
12446TIP3   OH237276   3.570   7.252   5.809
12446TIP3    H137277   3.592   7.225   5.898
12446TIP3    H237278   3.642   7.217   5.756
12447TIP3   OH237279   3.771   7.132   5.670
12447TIP3    H137280   3.782   7.049   5.716
12447TIP3    H237281   3.858   7.172   5.673
12448TIP3   OH237282   4.039   7.220   5.690
12448TIP3    H137283   4.059   7.128   5.677
12448TIP3    H237284   4.091   7.245   5.766
12449TIP3   OH237285   4.574   5.855   5.735
12449TIP3    H137286   4.541   5.797   5.804
12449TIP3    H237287   4.661   5.821   5.714
12450TIP3   OH237288   5.113   5.770   5.663
12450TIP3    H137289   5.147   5.822   5.591
12450TIP3    H237290   5.021   5.793   5.668
12451TIP3   OH237291   5.219   5.868   5.429
12451TIP3    H137292   5.289   5.808   5.401
12451TIP3    H237293   5.255   5.956   5.415
12452TIP3   OH237294   3.842   5.573   5.777
12452TIP3    H137295   3.752   5.539   5.783
12452TIP3    H237296   3.896   5.494   5.772
12453TIP3   OH237297   3.659   5.470   5.431
12453TIP3    H137298   3.685   5.520   5.354
12453TIP3    H237299   3.624   5.535   5.492
12454TIP3   OH237300   4.299   5.619   5.651
12454TIP3    H137301   4.354   5.664   5.587
12454TIP3    H237302   4.334   5.645   5.736
12455TIP3   OH237303   4.825   5.759   5.656
12455TIP3    H137304   4.837   5.714   5.573
12455TIP3    H237305   4.828   5.689   5.722
12456TIP3   OH237306   4.871   5.698   5.210
12456TIP3    H137307   4.790   5.744   5.233
12456TIP3    H237308   4.862   5.612   5.251
12457TIP3   OH237309   3.342   7.043   5.195
12457TIP3    H137310   3.257   7.010   5.166
12457TIP3    H237311   3.344   7.134   5.164
12458TIP3   OH237312   3.768   5.608   5.191
12458TIP3    H137313   3.812   5.547   5.132
12458TIP3    H237314   3.838   5.663   5.226
12459TIP3   OH237315   4.263   5.802   5.294
12459TIP3    H137316   4.322   5.752   5.350
12459TIP3    H237317   4.276   5.893   5.320
12460TIP3   OH237318   4.134   7.203   4.787
12460TIP3    H137319   4.217   7.232   4.750
12460TIP3    H237320   4.106   7.132   4.730
12461TIP3   OH237321   4.856   7.342   4.890
12461TIP3    H137322   4.849   7.247   4.877
12461TIP3    H237323   4.814   7.380   4.813
12462TIP3   OH237324   4.062   5.856   6.660
12462TIP3    H137325   4.027   5.788   6.718
12462TIP3    H237326   4.155   5.862   6.683
12463TIP3   OH237327   4.314   5.861   6.777
12463TIP3    H137328   4.392   5.841   6.725
12463TIP3    H237329   4.310   5.791   6.842
12464TIP3   OH237330   3.434   7.045   4.843
12464TIP3    H137331   3.437   7.061   4.937
12464TIP3    H237332   3.517   7.000   4.824
12465TIP3   OH237333   5.137   5.938   6.561
12465TIP3    H137334   5.151   5.908   6.651
12465TIP3    H237335   5.223   5.932   6.520
12466TIP3   OH237336   5.062   7.477   6.067
12466TIP3    H137337   4.988   7.447   6.013
12466TIP3    H237338   5.049   7.571   6.075
12467TIP3   OH237339   6.333   6.859   4.821
12467TIP3    H137340   6.303   6.947   4.800
12467TIP3    H237341   6.262   6.802   4.792
12468TIP3   OH237342   6.334   6.853   5.231
12468TIP3    H137343   6.383   6.839   5.312
12468TIP3    H237344   6.295   6.768   5.211
12469TIP3   OH237345   5.624   6.729   5.569
12469TIP3    H137346   5.657   6.665   5.632
12469TIP3    H237347   5.678   6.807   5.584
12470TIP3   OH237348   6.596   7.160   4.909
12470TIP3    H137349   6.583   7.094   4.977
12470TIP3    H237350   6.620   7.239   4.956
12471TIP3   OH237351   5.694   7.097   5.357
12471TIP3    H137352   5.620   7.058   5.310
12471TIP3    H237353   5.749   7.135   5.290
12472TIP3   OH237354   5.317   6.352   5.071
12472TIP3    H137355   5.290   6.430   5.119
12472TIP3    H237356   5.238   6.297   5.068
12473TIP3   OH237357   5.359   6.638   5.238
12473TIP3    H137358   5.407   6.566   5.278
12473TIP3    H237359   5.424   6.707   5.225
12474TIP3   OH237360   6.242   7.609   4.916
12474TIP3    H137361   6.277   7.541   4.859
12474TIP3    H237362   6.227   7.566   5.000
12475TIP3   OH237363   6.124   7.057   5.250
12475TIP3    H137364   6.177   6.984   5.217
12475TIP3    H237365   6.189   7.118   5.287
12476TIP3   OH237366   7.177   6.405   5.250
12476TIP3    H137367   7.195   6.487   5.295
12476TIP3    H237368   7.200   6.422   5.159
12477TIP3   OH237369   6.542   6.570   5.282
12477TIP3    H137370   6.581   6.486   5.308
12477TIP3    H237371   6.507   6.554   5.194
12478TIP3   OH237372   5.896   6.234   5.250
12478TIP3    H137373   5.879   6.304   5.186
12478TIP3    H237374   5.846   6.160   5.216
12479TIP3   OH237375   6.594   6.331   4.874
12479TIP3    H137376   6.658   6.322   4.945
12479TIP3    H237377   6.645   6.365   4.801
12480TIP3   OH237378   5.518   6.444   5.361
12480TIP3    H137379   5.600   6.436   5.409
12480TIP3    H237380   5.530   6.389   5.284
12481TIP3   OH237381   5.951   6.631   5.189
12481TIP3    H137382   6.046   6.614   5.192
12481TIP3    H237383   5.914   6.552   5.149
12482TIP3   OH237384   7.229   6.615   5.431
12482TIP3    H137385   7.140   6.650   5.425
12482TIP3    H237386   7.262   6.647   5.515
12483TIP3   OH237387   5.879   6.232   5.692
12483TIP3    H137388   5.829   6.269   5.618
12483TIP3    H237389   5.822   6.245   5.768
12484TIP3   OH237390   6.209   7.070   4.696
12484TIP3    H137391   6.182   7.056   4.606
12484TIP3    H237392   6.168   7.153   4.721
12485TIP3   OH237393   6.761   6.347   5.090
12485TIP3    H137394   6.723   6.324   5.175
12485TIP3    H237395   6.820   6.421   5.110
12486TIP3   OH237396   5.769   6.352   5.467
12486TIP3    H137397   5.826   6.426   5.488
12486TIP3    H237398   5.813   6.307   5.395
12487TIP3   OH237399   5.814   7.166   5.588
12487TIP3    H137400   5.783   7.158   5.498
12487TIP3    H237401   5.740   7.204   5.635
12488TIP3   OH237402   5.125   6.849   4.832
12488TIP3    H137403   5.118   6.854   4.736
12488TIP3    H237404   5.157   6.935   4.858
12489TIP3   OH237405   6.642   7.400   5.057
12489TIP3    H137406   6.556   7.389   5.097
12489TIP3    H237407   6.636   7.484   5.011
12490TIP3   OH237408   6.999   6.316   5.447
12490TIP3    H137409   6.910   6.299   5.417
12490TIP3    H237410   7.046   6.340   5.367
12491TIP3   OH237411   6.213   5.938   5.393
12491TIP3    H137412   6.213   5.845   5.419
12491TIP3    H237413   6.142   5.977   5.444
12492TIP3   OH237414   6.343   7.443   4.716
12492TIP3    H137415   6.394   7.362   4.703
12492TIP3    H237416   6.402   7.513   4.687
12493TIP3   OH237417   6.494   7.224   4.658
12493TIP3    H137418   6.483   7.143   4.607
12493TIP3    H237419   6.533   7.195   4.741
12494TIP3   OH237420   6.853   7.308   5.396
12494TIP3    H137421   6.844   7.233   5.337
12494TIP3    H237422   6.840   7.384   5.341
12495TIP3   OH237423   6.160   6.704   4.663
12495TIP3    H137424   6.081   6.755   4.645
12495TIP3    H237425   6.209   6.705   4.581
12496TIP3   OH237426   6.131   6.503   4.366
12496TIP3    H137427   6.196   6.553   4.415
12496TIP3    H237428   6.182   6.438   4.317
12497TIP3   OH237429   7.056   6.957   5.248
12497TIP3    H137430   6.972   7.003   5.254
12497TIP3    H237431   7.085   6.973   5.158
12498TIP3   OH237432   6.517   6.793   4.629
12498TIP3    H137433   6.462   6.819   4.703
12498TIP3    H237434   6.600   6.766   4.669
12499TIP3   OH237435   6.750   6.813   5.552
12499TIP3    H137436   6.750   6.896   5.601
12499TIP3    H237437   6.666   6.814   5.506
12500TIP3   OH237438   5.750   6.772   5.048
12500TIP3    H137439   5.716   6.716   4.979
12500TIP3    H237440   5.825   6.725   5.084
12501TIP3   OH237441   5.877   7.186   5.175
12501TIP3    H137442   5.865   7.181   5.080
12501TIP3    H237443   5.964   7.149   5.190
12502TIP3   OH237444   5.904   6.801   5.402
12502TIP3    H137445   5.917   6.741   5.329
12502TIP3    H237446   5.936   6.885   5.369
12503TIP3   OH237447   6.406   7.389   5.187
12503TIP3    H137448   6.386   7.472   5.231
12503TIP3    H237449   6.382   7.322   5.252
12504TIP3   OH237450   6.010   7.306   5.728
12504TIP3    H137451   5.963   7.368   5.783
12504TIP3    H237452   5.952   7.291   5.653
12505TIP3   OH237453   6.351   6.653   4.459
12505TIP3    H137454   6.411   6.710   4.508
12505TIP3    H237455   6.377   6.664   4.368
12506TIP3   OH237456   5.773   6.918   5.806
12506TIP3    H137457   5.771   6.973   5.884
12506TIP3    H237458   5.701   6.855   5.819
12507TIP3   OH237459   6.094   7.325   4.727
12507TIP3    H137460   6.179   7.369   4.732
12507TIP3    H237461   6.038   7.386   4.678
12508TIP3   OH237462   5.813   7.473   5.824
12508TIP3    H137463   5.790   7.487   5.732
12508TIP3    H237464   5.731   7.445   5.865
12509TIP3   OH237465   6.866   5.883   4.518
12509TIP3    H137466   6.787   5.903   4.568
12509TIP3    H237467   6.880   5.961   4.463
12510TIP3   OH237468   5.624   6.622   4.840
12510TIP3    H137469   5.549   6.667   4.801
12510TIP3    H237470   5.594   6.532   4.854
12511TIP3   OH237471   6.670   7.254   4.067
12511TIP3    H137472   6.670   7.347   4.043
12511TIP3    H237473   6.759   7.225   4.048
12512TIP3   OH237474   5.395   7.011   5.766
12512TIP3    H137475   5.323   7.012   5.702
12512TIP3    H237476   5.420   6.919   5.773
12513TIP3   OH237477   6.206   7.449   5.591
12513TIP3    H137478   6.205   7.540   5.619
12513TIP3    H237479   6.139   7.407   5.645
12514TIP3   OH237480   5.986   7.555   4.545
12514TIP3    H137481   5.941   7.536   4.463
12514TIP3    H237482   5.950   7.639   4.573
12515TIP3   OH237483   5.418   7.413   4.907
12515TIP3    H137484   5.395   7.414   5.000
12515TIP3    H237485   5.353   7.354   4.868
12516TIP3   OH237486   6.187   7.477   4.175
12516TIP3    H137487   6.237   7.405   4.136
12516TIP3    H237488   6.223   7.486   4.263
12517TIP3   OH237489   6.239   7.517   4.447
12517TIP3    H137490   6.153   7.523   4.488
12517TIP3    H237491   6.296   7.481   4.515
12518TIP3   OH237492   7.009   6.784   5.710
12518TIP3    H137493   6.925   6.798   5.665
12518TIP3    H237494   7.023   6.689   5.706
12519TIP3   OH237495   5.615   7.190   5.767
12519TIP3    H137496   5.609   7.245   5.845
12519TIP3    H237497   5.533   7.142   5.764
12520TIP3   OH237498   5.987   6.017   5.545
12520TIP3    H137499   5.903   5.985   5.512
12520TIP3    H237500   5.965   6.097   5.593
12521TIP3   OH237501   6.516   6.158   5.732
12521TIP3    H137502   6.586   6.093   5.734
12521TIP3    H237503   6.440   6.112   5.769
12522TIP3   OH237504   6.751   6.557   5.656
12522TIP3    H137505   6.713   6.562   5.744
12522TIP3    H237506   6.742   6.646   5.621
12523TIP3   OH237507   6.427   6.660   4.196
12523TIP3    H137508   6.382   6.660   4.112
12523TIP3    H237509   6.511   6.702   4.179
12524TIP3   OH237510   6.138   6.060   4.511
12524TIP3    H137511   6.104   6.065   4.600
12524TIP3    H237512   6.102   5.978   4.476
12525TIP3   OH237513   5.926   6.569   5.562
12525TIP3    H137514   5.869   6.577   5.639
12525TIP3    H237515   5.914   6.651   5.515
12526TIP3   OH237516   5.811   6.425   5.071
12526TIP3    H137517   5.723   6.398   5.095
12526TIP3    H237518   5.823   6.391   4.982
12527TIP3   OH237519   6.291   6.502   4.798
12527TIP3    H137520   6.243   6.574   4.756
12527TIP3    H237521   6.350   6.470   4.730
12528TIP3   OH237522   6.477   6.777   5.875
12528TIP3    H137523   6.456   6.706   5.936
12528TIP3    H237524   6.571   6.793   5.887
12529TIP3   OH237525   6.450   6.519   5.029
12529TIP3    H137526   6.388   6.544   4.961
12529TIP3    H237527   6.497   6.444   4.991
12530TIP3   OH237528   5.742   6.571   5.774
12530TIP3    H137529   5.688   6.624   5.833
12530TIP3    H237530   5.740   6.483   5.812
12531TIP3   OH237531   5.802   6.040   4.484
12531TIP3    H137532   5.793   6.042   4.579
12531TIP3    H237533   5.724   6.086   4.452
12532TIP3   OH237534   5.347   6.092   5.342
12532TIP3    H137535   5.422   6.120   5.394
12532TIP3    H237536   5.385   6.050   5.265
12533TIP3   OH237537   5.281   6.052   4.866
12533TIP3    H137538   5.323   6.093   4.790
12533TIP3    H237539   5.214   6.114   4.893
12534TIP3   OH237540   6.488   6.772   5.452
12534TIP3    H137541   6.513   6.701   5.393
12534TIP3    H237542   6.440   6.728   5.523
12535TIP3   OH237543   6.164   6.225   5.127
12535TIP3    H137544   6.088   6.224   5.186
12535TIP3    H237545   6.239   6.214   5.184
12536TIP3   OH237546   5.578   6.296   5.137
12536TIP3    H137547   5.491   6.296   5.099
12536TIP3    H237548   5.610   6.207   5.122
12537TIP3   OH237549   5.826   6.302   4.826
12537TIP3    H137550   5.920   6.312   4.814
12537TIP3    H237551   5.788   6.321   4.741
12538TIP3   OH237552   6.616   6.309   5.334
12538TIP3    H137553   6.594   6.326   5.426
12538TIP3    H237554   6.550   6.246   5.305
12539TIP3   OH237555   5.698   6.332   4.585
12539TIP3    H137556   5.636   6.281   4.532
12539TIP3    H237557   5.755   6.375   4.521
12540TIP3   OH237558   5.798   7.101   5.999
12540TIP3    H137559   5.868   7.136   6.054
12540TIP3    H237560   5.718   7.114   6.050
12541TIP3   OH237561   6.224   6.575   5.227
12541TIP3    H137562   6.292   6.536   5.171
12541TIP3    H237563   6.231   6.527   5.310
12542TIP3   OH237564   5.722   6.053   5.120
12542TIP3    H137565   5.691   5.978   5.170
12542TIP3    H237566   5.759   6.015   5.040
12543TIP3   OH237567   6.185   6.471   5.509
12543TIP3    H137568   6.100   6.512   5.524
12543TIP3    H237569   6.248   6.527   5.556
12544TIP3   OH237570   5.925   6.850   4.611
12544TIP3    H137571   5.852   6.792   4.590
12544TIP3    H237572   5.903   6.887   4.696
12545TIP3   OH237573   6.816   7.095   5.224
12545TIP3    H137574   6.850   7.144   5.149
12545TIP3    H237575   6.735   7.055   5.192
12546TIP3   OH237576   6.392   6.160   4.506
12546TIP3    H137577   6.298   6.141   4.504
12546TIP3    H237578   6.396   6.255   4.519
12547TIP3   OH237579   6.311   7.179   5.635
12547TIP3    H137580   6.388   7.175   5.692
12547TIP3    H237581   6.293   7.272   5.626
12548TIP3   OH237582   6.455   6.423   4.583
12548TIP3    H137583   6.550   6.427   4.594
12548TIP3    H237584   6.433   6.500   4.531
12549TIP3   OH237585   5.580   6.808   5.264
12549TIP3    H137586   5.638   6.808   5.188
12549TIP3    H237587   5.638   6.794   5.339
12550TIP3   OH237588   6.080   7.008   4.450
12550TIP3    H137589   6.034   7.091   4.449
12550TIP3    H237590   6.026   6.951   4.505
12551TIP3   OH237591   5.557   6.756   5.887
12551TIP3    H137592   5.561   6.766   5.982
12551TIP3    H237593   5.469   6.721   5.870
12552TIP3   OH237594   6.246   6.922   5.911
12552TIP3    H137595   6.200   6.840   5.898
12552TIP3    H237596   6.336   6.904   5.884
12553TIP3   OH237597   6.471   7.446   5.510
12553TIP3    H137598   6.375   7.447   5.517
12553TIP3    H237599   6.501   7.493   5.588
12554TIP3   OH237600   6.879   6.512   4.409
12554TIP3    H137601   6.823   6.466   4.347
12554TIP3    H237602   6.883   6.602   4.376
12555TIP3   OH237603   7.104   7.342   5.501
12555TIP3    H137604   7.010   7.344   5.480
12555TIP3    H237605   7.147   7.325   5.417
12556TIP3   OH237606   6.603   7.316   4.331
12556TIP3    H137607   6.578   7.242   4.386
12556TIP3    H237608   6.620   7.277   4.245
12557TIP3   OH237609   6.587   6.962   5.122
12557TIP3    H137610   6.497   6.940   5.145
12557TIP3    H237611   6.624   6.882   5.086
12558TIP3   OH237612   5.741   7.201   4.921
12558TIP3    H137613   5.748   7.275   4.862
12558TIP3    H237614   5.650   7.203   4.952
12559TIP3   OH237615   5.288   6.501   4.623
12559TIP3    H137616   5.341   6.574   4.653
12559TIP3    H237617   5.201   6.538   4.611
12560TIP3   OH237618   5.833   6.950   4.845
12560TIP3    H137619   5.814   7.041   4.868
12560TIP3    H237620   5.810   6.900   4.924
12561TIP3   OH237621   6.016   7.518   5.386
12561TIP3    H137622   6.049   7.591   5.335
12561TIP3    H237623   6.092   7.488   5.436
12562TIP3   OH237624   5.658   7.428   4.772
12562TIP3    H137625   5.575   7.431   4.820
12562TIP3    H237626   5.692   7.517   4.776
12563TIP3   OH237627   6.361   7.170   5.359
12563TIP3    H137628   6.348   7.161   5.454
12563TIP3    H237629   6.442   7.122   5.341
12564TIP3   OH237630   6.365   7.064   4.234
12564TIP3    H137631   6.413   7.044   4.315
12564TIP3    H237632   6.278   7.027   4.248
12565TIP3   OH237633   6.605   7.694   5.397
12565TIP3    H137634   6.532   7.632   5.385
12565TIP3    H237635   6.599   7.753   5.322
12566TIP3   OH237636   6.684   7.526   4.031
12566TIP3    H137637   6.727   7.597   3.985
12566TIP3    H237638   6.606   7.566   4.070
12567TIP3   OH237639   5.702   6.317   5.896
12567TIP3    H137640   5.608   6.328   5.906
12567TIP3    H237641   5.728   6.263   5.971
12568TIP3   OH237642   6.533   7.005   4.450
12568TIP3    H137643   6.519   6.932   4.511
12568TIP3    H237644   6.627   7.001   4.431
12569TIP3   OH237645   5.388   7.428   5.616
12569TIP3    H137646   5.395   7.373   5.538
12569TIP3    H237647   5.464   7.486   5.611
12570TIP3   OH237648   5.721   7.031   4.234
12570TIP3    H137649   5.732   6.940   4.207
12570TIP3    H237650   5.702   7.026   4.328
12571TIP3   OH237651   5.661   7.045   4.507
12571TIP3    H137652   5.735   7.017   4.560
12571TIP3    H237653   5.662   7.141   4.512
12572TIP3   OH237654   5.399   6.739   4.717
12572TIP3    H137655   5.345   6.792   4.776
12572TIP3    H237656   5.419   6.797   4.644
12573TIP3   OH237657   6.543   6.389   5.592
12573TIP3    H137658   6.627   6.426   5.619
12573TIP3    H237659   6.534   6.310   5.645
12574TIP3   OH237660   6.449   6.114   4.777
12574TIP3    H137661   6.429   6.132   4.685
12574TIP3    H237662   6.491   6.193   4.809
12575TIP3   OH237663   5.933   7.235   4.449
12575TIP3    H137664   5.847   7.261   4.484
12575TIP3    H237665   5.957   7.308   4.391
12576TIP3   OH237666   6.105   6.311   4.869
12576TIP3    H137667   6.169   6.378   4.844
12576TIP3    H237668   6.125   6.293   4.961
12577TIP3   OH237669   6.381   6.610   5.656
12577TIP3    H137670   6.419   6.656   5.730
12577TIP3    H237671   6.436   6.533   5.644
12578TIP3   OH237672   6.266   6.012   4.959
12578TIP3    H137673   6.245   6.089   5.013
12578TIP3    H237674   6.334   6.042   4.899
12579TIP3   OH237675   5.679   7.318   4.521
12579TIP3    H137676   5.658   7.388   4.459
12579TIP3    H237677   5.670   7.359   4.607
12580TIP3   OH237678   5.779   6.030   4.762
12580TIP3    H137679   5.770   6.119   4.794
12580TIP3    H237680   5.873   6.012   4.767
12581TIP3   OH237681   7.016   6.510   5.649
12581TIP3    H137682   6.921   6.516   5.660
12581TIP3    H237683   7.027   6.449   5.576
12582TIP3   OH237684   6.681   6.707   5.032
12582TIP3    H137685   6.604   6.651   5.046
12582TIP3    H237686   6.750   6.666   5.083
12583TIP3   OH237687   5.406   6.922   4.504
12583TIP3    H137688   5.474   6.989   4.514
12583TIP3    H237689   5.442   6.861   4.440
12584TIP3   OH237690   5.316   6.224   4.654
12584TIP3    H137691   5.321   6.320   4.649
12584TIP3    H237692   5.282   6.197   4.569
12585TIP3   OH237693   6.645   7.664   4.977
12585TIP3    H137694   6.600   7.718   4.912
12585TIP3    H237695   6.738   7.686   4.965
12586TIP3   OH237696   5.725   5.933   5.505
12586TIP3    H137697   5.697   5.898   5.420
12586TIP3    H237698   5.717   5.858   5.565
12587TIP3   OH237699   5.216   7.101   4.887
12587TIP3    H137700   5.224   7.152   4.968
12587TIP3    H237701   5.197   7.166   4.819
12588TIP3   OH237702   5.438   7.704   5.961
12588TIP3    H137703   5.519   7.702   6.011
12588TIP3    H237704   5.408   7.613   5.960
12589TIP3   OH237705   5.911   7.631   6.026
12589TIP3    H137706   6.007   7.633   6.016
12589TIP3    H237707   5.880   7.580   5.951
12590TIP3   OH237708   5.876   7.236   4.131
12590TIP3    H137709   5.830   7.162   4.172
12590TIP3    H237710   5.951   7.196   4.088
12591TIP3   OH237711   6.541   7.553   5.755
12591TIP3    H137712   6.530   7.485   5.822
12591TIP3    H237713   6.631   7.582   5.765
12592TIP3   OH237714   6.319   7.270   4.053
12592TIP3    H137715   6.355   7.205   4.113
12592TIP3    H237716   6.377   7.267   3.977
12593TIP3   OH237717   5.561   7.103   6.152
12593TIP3    H137718   5.574   7.009   6.162
12593TIP3    H237719   5.474   7.112   6.112
12594TIP3   OH237720   5.541   6.732   4.361
12594TIP3    H137721   5.594   6.708   4.436
12594TIP3    H237722   5.603   6.743   4.289
12595TIP3   OH237723   6.170   7.194   5.928
12595TIP3    H137724   6.138   7.219   5.841
12595TIP3    H237725   6.213   7.109   5.915
12596TIP3   OH237726   6.093   6.948   4.183
12596TIP3    H137727   6.076   6.961   4.276
12596TIP3    H237728   6.082   6.854   4.168
12597TIP3   OH237729   6.635   7.226   5.542
12597TIP3    H137730   6.714   7.254   5.496
12597TIP3    H237731   6.572   7.296   5.524
12598TIP3   OH237732   5.686   6.838   6.149
12598TIP3    H137733   5.762   6.784   6.130
12598TIP3    H237734   5.703   6.873   6.236
12599TIP3   OH237735   5.721   6.665   4.566
12599TIP3    H137736   5.708   6.631   4.655
12599TIP3    H237737   5.769   6.595   4.521
12600TIP3   OH237738   5.855   6.476   4.411
12600TIP3    H137739   5.827   6.478   4.320
12600TIP3    H237740   5.951   6.480   4.407
12601TIP3   OH237741   6.534   7.113   5.929
12601TIP3    H137742   6.625   7.111   5.900
12601TIP3    H237743   6.531   7.051   6.002
12602TIP3   OH237744   6.660   6.770   4.092
12602TIP3    H137745   6.644   6.726   4.009
12602TIP3    H237746   6.632   6.860   4.078
12603TIP3   OH237747   6.132   6.506   5.916
12603TIP3    H137748   6.147   6.416   5.886
12603TIP3    H237749   6.103   6.553   5.838
12604TIP3   OH237750   6.144   6.293   5.733
12604TIP3    H137751   6.174   6.331   5.650
12604TIP3    H237752   6.052   6.272   5.717
12605TIP3   OH237753   6.778   6.789   6.022
12605TIP3    H137754   6.793   6.704   5.979
12605TIP3    H237755   6.857   6.839   6.004
12606TIP3   OH237756   6.772   7.046   5.693
12606TIP3    H137757   6.715   7.108   5.647
12606TIP3    H237758   6.861   7.071   5.667
12607TIP3   OH237759   6.005   6.608   6.147
12607TIP3    H137760   5.945   6.540   6.177
12607TIP3    H237761   6.042   6.572   6.066
12608TIP3   OH237762   6.262   6.057   5.820
12608TIP3    H137763   6.226   6.140   5.788
12608TIP3    H237764   6.192   5.994   5.805
12609TIP3   OH237765   6.388   6.565   6.027
12609TIP3    H137766   6.382   6.550   6.121
12609TIP3    H237767   6.303   6.538   5.992
12610TIP3   OH237768   6.644   6.539   5.903
12610TIP3    H137769   6.564   6.522   5.953
12610TIP3    H237770   6.714   6.500   5.955
12611TIP3   OH237771   6.864   6.477   6.051
12611TIP3    H137772   6.886   6.384   6.053
12611TIP3    H237773   6.871   6.505   6.142
12612TIP3   OH237774   5.862   6.382   6.230
12612TIP3    H137775   5.860   6.293   6.195
12612TIP3    H237776   5.899   6.373   6.318
12613TIP3   OH237777   6.340   6.064   6.083
12613TIP3    H137778   6.419   6.009   6.080
12613TIP3    H237779   6.308   6.066   5.993
12614TIP3   OH237780   6.419   6.287   6.221
12614TIP3    H137781   6.394   6.214   6.164
12614TIP3    H237782   6.343   6.344   6.222
12615TIP3   OH237783   5.669   7.523   4.333
12615TIP3    H137784   5.760   7.507   4.311
12615TIP3    H237785   5.634   7.571   4.258
12616TIP3   OH237786   5.136   6.877   4.552
12616TIP3    H137787   5.226   6.906   4.535
12616TIP3    H237788   5.125   6.800   4.497
12617TIP3   OH237789   5.057   7.513   4.980
12617TIP3    H137790   5.002   7.441   4.949
12617TIP3    H237791   5.113   7.474   5.047
12618TIP3   OH237792   6.902   7.744   4.964
12618TIP3    H137793   6.934   7.774   5.050
12618TIP3    H237794   6.951   7.797   4.901
12619TIP3   OH237795   6.954   7.759   5.240
12619TIP3    H137796   6.904   7.678   5.238
12619TIP3    H237797   7.007   7.754   5.320
12620TIP3   OH237798   6.808   6.975   4.422
12620TIP3    H137799   6.870   7.040   4.389
12620TIP3    H237800   6.853   6.936   4.497
12621TIP3   OH237801   6.936   6.832   4.621
12621TIP3    H137802   6.870   6.793   4.678
12621TIP3    H237803   7.002   6.868   4.681
12622TIP3   OH237804   6.986   7.229   5.054
12622TIP3    H137805   7.040   7.165   5.007
12622TIP3    H237806   6.981   7.304   4.995
12623TIP3   OH237807   6.795   7.535   5.252
12623TIP3    H137808   6.727   7.576   5.305
12623TIP3    H237809   6.748   7.492   5.181
12624TIP3   OH237810   6.865   6.751   4.271
12624TIP3    H137811   6.796   6.748   4.205
12624TIP3    H237812   6.845   6.828   4.324
12625TIP3   OH237813   6.727   6.407   4.210
12625TIP3    H137814   6.681   6.448   4.136
12625TIP3    H237815   6.711   6.313   4.199
12626TIP3   OH237816   6.742   6.694   4.763
12626TIP3    H137817   6.750   6.599   4.752
12626TIP3    H237818   6.725   6.706   4.856
12627TIP3   OH237819   5.358   6.751   5.503
12627TIP3    H137820   5.344   6.716   5.415
12627TIP3    H237821   5.453   6.749   5.515
12628TIP3   OH237822   7.028   7.113   5.635
12628TIP3    H137823   7.105   7.056   5.638
12628TIP3    H237824   7.060   7.195   5.598
12629TIP3   OH237825   7.232   6.921   5.638
12629TIP3    H137826   7.152   6.876   5.667
12629TIP3    H237827   7.302   6.857   5.653
12630TIP3   OH237828   6.678   6.138   4.189
12630TIP3    H137829   6.742   6.109   4.253
12630TIP3    H237830   6.597   6.093   4.214
12631TIP3   OH237831   6.743   6.417   4.647
12631TIP3    H137832   6.787   6.334   4.660
12631TIP3    H237833   6.789   6.457   4.572
12632TIP3   OH237834   6.897   6.581   5.161
12632TIP3    H137835   6.979   6.599   5.114
12632TIP3    H237836   6.912   6.617   5.248
12633TIP3   OH237837   6.972   6.731   5.387
12633TIP3    H137838   6.896   6.759   5.439
12633TIP3    H237839   7.001   6.810   5.342
12634TIP3   OH237840   5.601   6.466   6.210
12634TIP3    H137841   5.695   6.450   6.214
12634TIP3    H237842   5.561   6.381   6.228
12635TIP3   OH237843   6.857   6.166   4.696
12635TIP3    H137844   6.900   6.151   4.780
12635TIP3    H237845   6.793   6.095   4.689
12636TIP3   OH237846   5.558   6.155   5.513
12636TIP3    H137847   5.613   6.077   5.522
12636TIP3    H237848   5.621   6.227   5.503
12637TIP3   OH237849   5.345   6.418   5.582
12637TIP3    H137850   5.396   6.409   5.502
12637TIP3    H237851   5.370   6.503   5.617
12638TIP3   OH237852   7.266   6.455   5.743
12638TIP3    H137853   7.175   6.484   5.731
12638TIP3    H237854   7.269   6.369   5.702
12639TIP3   OH237855   6.914   6.087   4.338
12639TIP3    H137856   6.957   6.025   4.278
12639TIP3    H237857   6.970   6.164   4.337
12640TIP3   OH237858   5.336   5.923   5.100
12640TIP3    H137859   5.247   5.908   5.131
12640TIP3    H237860   5.324   5.974   5.019
12641TIP3   OH237861   6.488   7.640   4.601
12641TIP3    H137862   6.532   7.614   4.520
12641TIP3    H237863   6.536   7.717   4.631
12642TIP3   OH237864   5.552   5.991   5.905
12642TIP3    H137865   5.502   5.983   5.987
12642TIP3    H237866   5.492   6.035   5.845
12643TIP3   OH237867   5.595   7.390   5.974
12643TIP3    H137868   5.500   7.402   5.972
12643TIP3    H237869   5.620   7.407   6.065
12644TIP3   OH237870   5.791   7.491   5.549
12644TIP3    H137871   5.741   7.563   5.510
12644TIP3    H237872   5.870   7.486   5.495
12645TIP3   OH237873   6.215   7.714   5.662
12645TIP3    H137874   6.249   7.712   5.751
12645TIP3    H237875   6.280   7.764   5.613
12646TIP3   OH237876   6.402   7.861   5.522
12646TIP3    H137877   6.468   7.801   5.487
12646TIP3    H237878   6.452   7.934   5.558
12647TIP3   OH237879   7.191   6.212   5.624
12647TIP3    H137880   7.113   6.228   5.571
12647TIP3    H237881   7.211   6.120   5.610
12648TIP3   OH237882   5.458   7.744   5.566
12648TIP3    H137883   5.366   7.762   5.546
12648TIP3    H237884   5.478   7.802   5.639
12649TIP3   OH237885   5.686   7.711   5.420
12649TIP3    H137886   5.603   7.723   5.465
12649TIP3    H237887   5.666   7.729   5.328
12650TIP3   OH237888   6.099   7.725   5.215
12650TIP3    H137889   6.028   7.737   5.152
12650TIP3    H237890   6.110   7.811   5.256
12651TIP3   OH237891   6.362   7.655   5.257
12651TIP3    H137892   6.270   7.676   5.240
12651TIP3    H237893   6.411   7.724   5.213
12652TIP3   OH237894   6.569   7.845   5.172
12652TIP3    H137895   6.552   7.929   5.130
12652TIP3    H237896   6.596   7.787   5.101
12653TIP3   OH237897   5.856   7.500   5.156
12653TIP3    H137898   5.839   7.408   5.138
12653TIP3    H237899   5.899   7.501   5.241
12654TIP3   OH237900   6.393   6.133   5.256
12654TIP3    H137901   6.353   6.060   5.302
12654TIP3    H237902   6.464   6.094   5.204
12655TIP3   OH237903   6.905   6.016   5.150
12655TIP3    H137904   6.945   6.068   5.080
12655TIP3    H237905   6.817   6.053   5.160
12656TIP3   OH237906   7.015   6.114   4.919
12656TIP3    H137907   7.085   6.057   4.888
12656TIP3    H237908   7.049   6.203   4.906
12657TIP3   OH237909   5.639   5.830   5.262
12657TIP3    H137910   5.549   5.798   5.270
12657TIP3    H237911   5.692   5.750   5.255
12658TIP3   OH237912   5.446   5.726   4.916
12658TIP3    H137913   5.476   5.778   4.841
12658TIP3    H237914   5.418   5.791   4.980
12659TIP3   OH237915   6.102   5.872   5.143
12659TIP3    H137916   6.154   5.916   5.076
12659TIP3    H237917   6.140   5.902   5.226
12660TIP3   OH237918   6.615   6.032   5.121
12660TIP3    H137919   6.631   5.998   5.033
12660TIP3    H237920   6.611   5.954   5.177
12661TIP3   OH237921   6.668   5.958   4.696
12661TIP3    H137922   6.588   6.006   4.718
12661TIP3    H237923   6.656   5.871   4.734
12662TIP3   OH237924   5.149   7.298   4.703
12662TIP3    H137925   5.063   7.267   4.673
12662TIP3    H237926   5.153   7.388   4.670
12663TIP3   OH237927   5.563   5.866   4.680
12663TIP3    H137928   5.608   5.803   4.623
12663TIP3    H237929   5.634   5.920   4.715
12664TIP3   OH237930   6.054   6.058   4.775
12664TIP3    H137931   6.114   6.006   4.829
12664TIP3    H237932   6.071   6.149   4.802
12665TIP3   OH237933   5.931   7.461   4.275
12665TIP3    H137934   6.015   7.487   4.238
12665TIP3    H237935   5.902   7.389   4.218
12666TIP3   OH237936   6.621   7.583   4.366
12666TIP3    H137937   6.619   7.488   4.357
12666TIP3    H237938   6.581   7.616   4.286
12667TIP3   OH237939   5.861   6.109   6.150
12667TIP3    H137940   5.824   6.042   6.207
12667TIP3    H237941   5.953   6.115   6.175
12668TIP3   OH237942   6.113   6.116   6.266
12668TIP3    H137943   6.193   6.093   6.218
12668TIP3    H237944   6.104   6.046   6.331
12669TIP3   OH237945   5.229   7.295   4.330
12669TIP3    H137946   5.239   7.325   4.420
12669TIP3    H237947   5.313   7.254   4.309
12670TIP3   OH237948   6.947   6.222   6.069
12670TIP3    H137949   6.959   6.174   6.151
12670TIP3    H237950   7.023   6.198   6.016
12671TIP3   OH237951   8.111   7.086   4.348
12671TIP3    H137952   8.089   7.174   4.316
12671TIP3    H237953   8.048   7.029   4.304
12672TIP3   OH237954   8.075   7.107   4.695
12672TIP3    H137955   8.134   7.046   4.741
12672TIP3    H237956   8.077   7.078   4.604
12673TIP3   OH237957   7.422   6.972   5.063
12673TIP3    H137958   7.448   6.894   5.112
12673TIP3    H237959   7.471   7.043   5.104
12674TIP3   OH237960   7.411   7.399   4.808
12674TIP3    H137961   7.398   7.304   4.809
12674TIP3    H237962   7.504   7.410   4.786
12675TIP3   OH237963   7.104   6.614   4.551
12675TIP3    H137964   7.062   6.697   4.575
12675TIP3    H237965   7.034   6.562   4.511
12676TIP3   OH237966   7.169   6.905   4.751
12676TIP3    H137967   7.220   6.831   4.784
12676TIP3    H237968   7.232   6.958   4.702
12677TIP3   OH237969   7.939   7.336   4.754
12677TIP3    H137970   7.967   7.246   4.736
12677TIP3    H237971   8.018   7.389   4.739
12678TIP3   OH237972   8.326   6.835   4.766
12678TIP3    H137973   8.355   6.750   4.799
12678TIP3    H237974   8.303   6.819   4.674
12679TIP3   OH237975   7.677   6.488   4.729
12679TIP3    H137976   7.658   6.563   4.674
12679TIP3    H237977   7.622   6.417   4.695
12680TIP3   OH237978   8.396   6.555   4.357
12680TIP3    H137979   8.454   6.566   4.432
12680TIP3    H237980   8.401   6.639   4.310
12681TIP3   OH237981   7.318   6.697   4.852
12681TIP3    H137982   7.400   6.680   4.899
12681TIP3    H237983   7.325   6.644   4.772
12682TIP3   OH237984   7.760   6.888   4.635
12682TIP3    H137985   7.849   6.857   4.652
12682TIP3    H237986   7.713   6.809   4.607
12683TIP3   OH237987   7.669   6.480   5.185
12683TIP3    H137988   7.615   6.517   5.115
12683TIP3    H237989   7.618   6.492   5.265
12684TIP3   OH237990   8.001   7.285   4.192
12684TIP3    H137991   7.979   7.276   4.099
12684TIP3    H237992   7.977   7.376   4.213
12685TIP3   OH237993   7.764   7.239   4.950
12685TIP3    H137994   7.708   7.310   4.981
12685TIP3    H237995   7.829   7.282   4.895
12686TIP3   OH237996   0.061   6.596   4.576
12686TIP3    H137997   0.007   6.583   4.654
12686TIP3    H237998   0.070   6.691   4.568
12687TIP3   OH237999   7.556   6.590   4.955
12687TIP3    H138000   7.613   6.662   4.981
12687TIP3    H238001   7.601   6.549   4.882
12688TIP3   OH238002   6.990   7.144   4.301
12688TIP3    H138003   6.952   7.161   4.214
12688TIP3    H238004   7.004   7.231   4.338
12689TIP3   OH238005   8.008   6.175   4.903
12689TIP3    H138006   8.001   6.085   4.934
12689TIP3    H238007   7.937   6.222   4.946
12690TIP3   OH238008   8.272   7.448   4.143
12690TIP3    H138009   8.242   7.378   4.085
12690TIP3    H238010   8.364   7.460   4.122
12691TIP3   OH238011   7.957   6.945   4.164
12691TIP3    H138012   7.876   6.994   4.148
12691TIP3    H238013   8.003   6.948   4.080
12692TIP3   OH238014   7.919   6.758   3.862
12692TIP3    H138015   7.980   6.820   3.900
12692TIP3    H238016   7.972   6.681   3.842
12693TIP3   OH238017   8.291   7.019   4.141
12693TIP3    H138018   8.238   7.048   4.215
12693TIP3    H238019   8.373   6.989   4.180
12694TIP3   OH238020   7.537   7.024   4.539
12694TIP3    H138021   7.496   6.970   4.472
12694TIP3    H238022   7.614   6.974   4.567
12695TIP3   OH238023   7.667   7.405   4.693
12695TIP3    H138024   7.622   7.378   4.613
12695TIP3    H238025   7.747   7.351   4.695
12696TIP3   OH238026   7.680   6.990   4.879
12696TIP3    H138027   7.713   6.972   4.791
12696TIP3    H238028   7.712   7.077   4.900
12697TIP3   OH238029   8.119   6.931   3.943
12697TIP3    H138030   8.187   6.963   4.002
12697TIP3    H238031   8.160   6.935   3.856
12698TIP3   OH238032   7.529   7.121   5.281
12698TIP3    H138033   7.513   7.214   5.266
12698TIP3    H238034   7.450   7.090   5.326
12699TIP3   OH238035   7.916   7.547   4.198
12699TIP3    H138036   7.980   7.613   4.223
12699TIP3    H238037   7.882   7.577   4.113
12700TIP3   OH238038   0.119   6.180   4.033
12700TIP3    H138039   0.052   6.139   3.978
12700TIP3    H238040   0.188   6.205   3.972
12701TIP3   OH238041   7.414   6.879   4.330
12701TIP3    H138042   7.342   6.928   4.290
12701TIP3    H238043   7.378   6.791   4.343
12702TIP3   OH238044   7.185   7.267   5.247
12702TIP3    H138045   7.112   7.255   5.185
12702TIP3    H238046   7.204   7.178   5.278
12703TIP3   OH238047   7.014   7.459   4.906
12703TIP3    H138048   7.105   7.481   4.884
12703TIP3    H238049   6.975   7.542   4.932
12704TIP3   OH238050   7.747   7.766   4.080
12704TIP3    H138051   7.772   7.726   3.997
12704TIP3    H238052   7.811   7.836   4.094
12705TIP3   OH238053   7.159   7.654   4.419
12705TIP3    H138054   7.193   7.625   4.504
12705TIP3    H238055   7.164   7.576   4.364
12706TIP3   OH238056   7.433   7.379   5.241
12706TIP3    H138057   7.430   7.436   5.318
12706TIP3    H238058   7.344   7.344   5.234
12707TIP3   OH238059   7.782   6.275   5.034
12707TIP3    H138060   7.697   6.243   5.003
12707TIP3    H238061   7.760   6.353   5.085
12708TIP3   OH238062   8.309   6.389   5.218
12708TIP3    H138063   8.362   6.379   5.297
12708TIP3    H238064   8.219   6.371   5.246
12709TIP3   OH238065   8.236   6.947   3.693
12709TIP3    H138066   8.187   6.896   3.628
12709TIP3    H238067   8.276   7.018   3.642
12710TIP3   OH238068   7.977   6.226   4.025
12710TIP3    H138069   7.932   6.271   4.097
12710TIP3    H238070   7.909   6.174   3.983
12711TIP3   OH238071   7.729   6.782   5.043
12711TIP3    H138072   7.683   6.796   5.125
12711TIP3    H238073   7.708   6.858   4.989
12712TIP3   OH238074   7.600   6.681   4.553
12712TIP3    H138075   7.510   6.658   4.576
12712TIP3    H238076   7.612   6.645   4.466
12713TIP3   OH238077   8.098   6.740   4.277
12713TIP3    H138078   8.044   6.810   4.240
12713TIP3    H238079   8.146   6.704   4.203
12714TIP3   OH238080   8.243   6.773   4.514
12714TIP3    H138081   8.185   6.808   4.445
12714TIP3    H238082   8.253   6.681   4.491
12715TIP3   OH238083   7.537   6.789   5.246
12715TIP3    H138084   7.579   6.853   5.305
12715TIP3    H238085   7.522   6.712   5.301
12716TIP3   OH238086   7.595   6.298   3.968
12716TIP3    H138087   7.586   6.302   4.063
12716TIP3    H238088   7.518   6.344   3.934
12717TIP3   OH238089   7.139   6.339   4.836
12717TIP3    H138090   7.211   6.373   4.889
12717TIP3    H238091   7.180   6.315   4.753
12718TIP3   OH238092   7.072   6.319   4.348
12718TIP3    H138093   7.116   6.354   4.270
12718TIP3    H238094   7.009   6.387   4.372
12719TIP3   OH238095   7.929   6.449   4.623
12719TIP3    H138096   7.846   6.465   4.667
12719TIP3    H238097   7.994   6.492   4.679
12720TIP3   OH238098   7.364   6.557   4.619
12720TIP3    H138099   7.274   6.565   4.587
12720TIP3    H238100   7.388   6.466   4.602
12721TIP3   OH238101   7.628   6.557   4.312
12721TIP3    H138102   7.722   6.564   4.296
12721TIP3    H238103   7.587   6.576   4.228
12722TIP3   OH238104   8.390   6.550   4.786
12722TIP3    H138105   8.388   6.565   4.880
12722TIP3    H238106   8.328   6.479   4.772
12723TIP3   OH238107   7.495   6.581   4.074
12723TIP3    H138108   7.428   6.535   4.024
12723TIP3    H238109   7.548   6.626   4.008
12724TIP3   OH238110   8.004   6.776   4.710
12724TIP3    H138111   8.095   6.781   4.681
12724TIP3    H238112   8.011   6.761   4.805
12725TIP3   OH238113   7.509   6.308   4.599
12725TIP3    H138114   7.481   6.232   4.651
12725TIP3    H238115   7.526   6.273   4.512
12726TIP3   OH238116   7.992   6.728   4.991
12726TIP3    H138117   7.898   6.744   5.000
12726TIP3    H238118   8.032   6.783   5.058
12727TIP3   OH238119   7.732   7.090   4.092
12727TIP3    H138120   7.653   7.038   4.073
12727TIP3    H238121   7.715   7.126   4.180
12728TIP3   OH238122   8.261   6.623   4.072
12728TIP3    H138123   8.312   6.697   4.039
12728TIP3    H238124   8.211   6.592   3.997
12729TIP3   OH238125   7.427   7.123   4.778
12729TIP3    H138126   7.465   7.095   4.694
12729TIP3    H238127   7.467   7.066   4.843
12730TIP3   OH238128   7.873   7.249   3.923
12730TIP3    H138129   7.801   7.311   3.926
12730TIP3    H238130   7.844   7.175   3.977
12731TIP3   OH238131   7.284   7.035   5.387
12731TIP3    H138132   7.282   7.007   5.479
12731TIP3    H238133   7.211   6.988   5.346
12732TIP3   OH238134   7.545   7.397   4.443
12732TIP3    H138135   7.545   7.464   4.375
12732TIP3    H238136   7.455   7.364   4.444
12733TIP3   OH238137   7.101   6.742   4.129
12733TIP3    H138138   7.143   6.826   4.147
12733TIP3    H238139   7.020   6.745   4.180
12734TIP3   OH238140   7.668   7.172   4.341
12734TIP3    H138141   7.639   7.261   4.364
12734TIP3    H238142   7.629   7.117   4.409
12735TIP3   OH238143   7.396   7.740   4.139
12735TIP3    H138144   7.344   7.797   4.196
12735TIP3    H238145   7.461   7.701   4.197
12736TIP3   OH238146   8.125   7.230   3.611
12736TIP3    H138147   8.167   7.255   3.694
12736TIP3    H238148   8.048   7.180   3.637
12737TIP3   OH238149   7.509   6.549   5.398
12737TIP3    H138150   7.415   6.561   5.415
12737TIP3    H238151   7.540   6.499   5.473
12738TIP3   OH238152   8.350   7.221   3.964
12738TIP3    H138153   8.322   7.152   4.023
12738TIP3    H238154   8.436   7.194   3.933
12739TIP3   OH238155   7.243   7.643   5.057
12739TIP3    H138156   7.251   7.566   5.113
12739TIP3    H238157   7.243   7.717   5.118
12740TIP3   OH238158   7.493   7.283   3.717
12740TIP3    H138159   7.500   7.192   3.688
12740TIP3    H238160   7.536   7.284   3.803
12741TIP3   OH238161   7.425   7.295   4.042
12741TIP3    H138162   7.519   7.279   4.049
12741TIP3    H238163   7.418   7.380   3.998
12742TIP3   OH238164   7.198   6.992   4.202
12742TIP3    H138165   7.131   7.036   4.255
12742TIP3    H238166   7.210   7.050   4.126
12743TIP3   OH238167   8.367   6.601   5.052
12743TIP3    H138168   8.332   6.676   5.101
12743TIP3    H238169   8.346   6.525   5.106
12744TIP3   OH238170   7.660   7.416   3.915
12744TIP3    H138171   7.579   7.465   3.930
12744TIP3    H238172   7.726   7.484   3.902
12745TIP3   OH238173   7.912   6.548   4.355
12745TIP3    H138174   7.975   6.616   4.334
12745TIP3    H238175   7.925   6.532   4.449
12746TIP3   OH238176   7.424   7.549   3.949
12746TIP3    H138177   7.406   7.597   3.869
12746TIP3    H238178   7.408   7.612   4.019
12747TIP3   OH238179   7.568   6.288   4.248
12747TIP3    H138180   7.558   6.379   4.277
12747TIP3    H238181   7.663   6.272   4.250
12748TIP3   OH238182   8.521   6.873   4.541
12748TIP3    H138183   8.430   6.874   4.510
12748TIP3    H238184   8.523   6.937   4.613
12749TIP3   OH238185   7.189   7.170   3.985
12749TIP3    H138186   7.260   7.228   4.013
12749TIP3    H238187   7.229   7.112   3.920
12750TIP3   OH238188   7.129   6.466   4.123
12750TIP3    H138189   7.139   6.561   4.132
12750TIP3    H238190   7.059   6.455   4.059
12751TIP3   OH238191   7.524   6.187   4.988
12751TIP3    H138192   7.493   6.155   4.903
12751TIP3    H238193   7.514   6.113   5.047
12752TIP3   OH238194   7.004   7.405   4.382
12752TIP3    H138195   6.983   7.460   4.458
12752TIP3    H238196   6.990   7.463   4.307
12753TIP3   OH238197   7.670   7.459   3.600
12753TIP3    H138198   7.598   7.412   3.643
12753TIP3    H238199   7.740   7.394   3.594
12754TIP3   OH238200   7.338   6.987   3.849
12754TIP3    H138201   7.390   6.965   3.926
12754TIP3    H238202   7.402   6.995   3.778
12755TIP3   OH238203   7.828   7.199   3.652
12755TIP3    H138204   7.835   7.209   3.747
12755TIP3    H238205   7.830   7.104   3.639
12756TIP3   OH238206   7.516   6.920   4.055
12756TIP3    H138207   7.495   6.888   4.142
12756TIP3    H238208   7.559   6.846   4.012
12757TIP3   OH238209   7.762   6.974   5.284
12757TIP3    H138210   7.687   7.034   5.295
12757TIP3    H238211   7.823   7.022   5.228
12758TIP3   OH238212   7.645   6.729   3.898
12758TIP3    H138213   7.617   6.732   3.807
12758TIP3    H238214   7.740   6.735   3.895
12759TIP3   OH238215   7.955   6.789   5.389
12759TIP3    H138216   7.932   6.703   5.356
12759TIP3    H238217   7.877   6.842   5.372
12760TIP3   OH238218   7.929   6.555   5.222
12760TIP3    H138219   7.952   6.590   5.136
12760TIP3    H238220   7.836   6.533   5.214
12761TIP3   OH238221   8.059   6.318   5.286
12761TIP3    H138222   8.011   6.401   5.283
12761TIP3    H238223   7.991   6.252   5.301
12762TIP3   OH238224   7.639   6.633   5.744
12762TIP3    H138225   7.687   6.585   5.675
12762TIP3    H238226   7.641   6.574   5.819
12763TIP3   OH238227   7.424   7.763   3.783
12763TIP3    H138228   7.482   7.821   3.833
12763TIP3    H238229   7.414   7.807   3.698
12764TIP3   OH238230   6.921   7.153   4.021
12764TIP3    H138231   7.015   7.170   4.010
12764TIP3    H238232   6.908   7.067   3.981
12765TIP3   OH238233   6.826   7.730   4.464
12765TIP3    H138234   6.762   7.676   4.418
12765TIP3    H238235   6.871   7.670   4.523
12766TIP3   OH238236   6.957   7.567   4.639
12766TIP3    H138237   6.937   7.496   4.700
12766TIP3    H238238   7.009   7.629   4.691
12767TIP3   OH238239   8.530   6.675   3.694
12767TIP3    H138240   8.450   6.718   3.662
12767TIP3    H238241   8.509   6.582   3.692
12768TIP3   OH238242   0.014   6.920   4.260
12768TIP3    H138243   0.051   6.840   4.221
12768TIP3    H238244   0.060   6.929   4.344
12769TIP3   OH238245   7.159   7.018   5.000
12769TIP3    H138246   7.147   6.984   4.912
12769TIP3    H238247   7.253   7.012   5.016
12770TIP3   OH238248   8.489   6.406   3.712
12770TIP3    H138249   8.506   6.368   3.799
12770TIP3    H238250   8.399   6.382   3.693
12771TIP3   OH238251   0.070   6.671   4.149
12771TIP3    H138252   0.104   6.582   4.163
12771TIP3    H238253   0.095   6.692   4.059
12772TIP3   OH238254   7.381   6.690   5.666
12772TIP3    H138255   7.474   6.691   5.689
12772TIP3    H238256   7.347   6.611   5.708
12773TIP3   OH238257   0.097   6.389   4.218
12773TIP3    H138258   0.170   6.392   4.280
12773TIP3    H238259   0.116   6.315   4.161
12774TIP3   OH238260   7.350   6.405   5.004
12774TIP3    H138261   7.407   6.328   5.012
12774TIP3    H238262   7.411   6.479   4.993
12775TIP3   OH238263   7.142   6.671   5.070
12775TIP3    H138264   7.192   6.670   4.989
12775TIP3    H238265   7.172   6.750   5.116
12776TIP3   OH238266   7.130   6.182   4.576
12776TIP3    H138267   7.043   6.170   4.614
12776TIP3    H238268   7.116   6.237   4.499
12777TIP3   OH238269   7.341   6.223   5.379
12777TIP3    H138270   7.306   6.236   5.467
12777TIP3    H238271   7.289   6.281   5.324
12778TIP3   OH238272   7.136   7.702   4.810
12778TIP3    H138273   7.174   7.698   4.898
12778TIP3    H238274   7.208   7.676   4.752
12779TIP3   OH238275   7.310   7.588   4.644
12779TIP3    H138276   7.327   7.508   4.693
12779TIP3    H238277   7.396   7.631   4.638
12780TIP3   OH238278   7.566   7.690   4.642
12780TIP3    H138279   7.648   7.642   4.650
12780TIP3    H238280   7.547   7.720   4.731
12781TIP3   OH238281   8.220   6.331   4.763
12781TIP3    H138282   8.140   6.294   4.799
12781TIP3    H238283   8.277   6.255   4.748
12782TIP3   OH238284   0.195   6.316   4.635
12782TIP3    H138285   0.213   6.370   4.558
12782TIP3    H238286   0.108   6.342   4.664
12783TIP3   OH238287   0.313   6.407   4.404
12783TIP3    H138288   0.378   6.340   4.425
12783TIP3    H238289   0.364   6.487   4.394
12784TIP3   OH238290   7.438   6.083   4.745
12784TIP3    H138291   7.347   6.054   4.754
12784TIP3    H238292   7.489   6.003   4.739
12785TIP3   OH238293   7.257   5.988   4.407
12785TIP3    H138294   7.277   6.039   4.328
12785TIP3    H238295   7.217   6.051   4.467
12786TIP3   OH238296   7.912   6.159   4.631
12786TIP3    H138297   7.908   6.252   4.611
12786TIP3    H238298   7.944   6.155   4.721
12787TIP3   OH238299   8.351   6.226   4.205
12787TIP3    H138300   8.314   6.194   4.123
12787TIP3    H238301   8.371   6.147   4.255
12788TIP3   OH238302   6.935   7.560   4.160
12788TIP3    H138303   6.858   7.504   4.147
12788TIP3    H238304   6.914   7.641   4.114
12789TIP3   OH238305   7.355   6.122   4.167
12789TIP3    H138306   7.400   6.062   4.108
12789TIP3    H238307   7.424   6.180   4.200
12790TIP3   OH238308   7.844   6.300   4.263
12790TIP3    H138309   7.880   6.245   4.332
12790TIP3    H238310   7.870   6.389   4.288
12791TIP3   OH238311   7.750   7.718   3.649
12791TIP3    H138312   7.720   7.763   3.570
12791TIP3    H238313   7.716   7.629   3.640
12792TIP3   OH238314   7.636   6.375   5.601
12792TIP3    H138315   7.592   6.365   5.686
12792TIP3    H238316   7.729   6.367   5.622
12793TIP3   OH238317   7.873   6.346   5.737
12793TIP3    H138318   7.940   6.283   5.761
12793TIP3    H238319   7.811   6.345   5.810
12794TIP3   OH238320   7.031   7.550   3.811
12794TIP3    H138321   7.026   7.552   3.907
12794TIP3    H238322   7.113   7.505   3.792
12795TIP3   OH238323   1.413   7.431   6.410
12795TIP3    H138324   1.438   7.511   6.456
12795TIP3    H238325   1.452   7.440   6.323
12796TIP3   OH238326   0.845   7.323   6.045
12796TIP3    H138327   0.887   7.361   6.122
12796TIP3    H238328   0.876   7.376   5.972
12797TIP3   OH238329   1.484   7.632   6.590
12797TIP3    H138330   1.465   7.721   6.561
12797TIP3    H238331   1.415   7.614   6.655
12798TIP3   OH238332   1.003   7.415   6.256
12798TIP3    H138333   1.041   7.328   6.260
12798TIP3    H238334   1.077   7.474   6.270
12799TIP3   OH238335   1.198   7.354   6.570
12799TIP3    H138336   1.120   7.378   6.521
12799TIP3    H238337   1.271   7.371   6.510
12800TIP3   OH238338   1.118   6.927   5.686
12800TIP3    H138339   1.039   6.946   5.736
12800TIP3    H238340   1.135   7.006   5.635
12801TIP3   OH238341   1.137   7.557   5.584
12801TIP3    H138342   1.080   7.509   5.524
12801TIP3    H238343   1.135   7.648   5.552
12802TIP3   OH238344   1.291   7.538   6.765
12802TIP3    H138345   1.223   7.551   6.831
12802TIP3    H238346   1.258   7.466   6.711
12803TIP3   OH238347   0.920   7.699   6.217
12803TIP3    H138348   0.877   7.614   6.230
12803TIP3    H238349   1.008   7.686   6.254
12804TIP3   OH238350   0.895   7.827   5.247
12804TIP3    H138351   0.840   7.774   5.189
12804TIP3    H238352   0.843   7.906   5.263
12805TIP3   OH238353   1.026   7.996   5.617
12805TIP3    H138354   1.095   8.052   5.582
12805TIP3    H238355   1.067   7.949   5.689
12806TIP3   OH238356   1.190   7.864   5.800
12806TIP3    H138357   1.130   7.822   5.862
12806TIP3    H238358   1.253   7.911   5.855
12807TIP3   OH238359   1.103   7.794   5.431
12807TIP3    H138360   1.035   7.798   5.364
12807TIP3    H238361   1.080   7.862   5.494
12808TIP3   OH238362   0.990   7.446   5.386
12808TIP3    H138363   0.939   7.502   5.327
12808TIP3    H238364   0.967   7.356   5.360
12809TIP3   OH238365   1.024   7.722   5.961
12809TIP3    H138366   1.007   7.632   5.933
12809TIP3    H238367   0.977   7.730   6.044
12810TIP3   OH238368   0.948   7.169   5.356
12810TIP3    H138369   1.015   7.162   5.424
12810TIP3    H238370   0.869   7.134   5.396
12811TIP3   OH238371   1.007   7.461   5.848
12811TIP3    H138372   1.051   7.376   5.852
12811TIP3    H238373   1.035   7.499   5.765
12812TIP3   OH238374   1.165   7.632   6.338
12812TIP3    H138375   1.242   7.666   6.292
12812TIP3    H238376   1.160   7.685   6.418
12813TIP3   OH238377   7.392   3.389   0.153
12813TIP3    H138378   7.443   3.321   0.109
12813TIP3    H238379   7.354   3.441   0.082
12814TIP3   OH238380   1.117   7.202   5.866
12814TIP3    H138381   1.156   7.189   5.953
12814TIP3    H238382   1.046   7.138   5.862
12815TIP3   OH238383   1.583   7.462   6.866
12815TIP3    H138384   1.532   7.541   6.848
12815TIP3    H238385   1.545   7.395   6.808
12816TIP3   OH238386   1.173   7.134   5.512
12816TIP3    H138387   1.219   7.072   5.455
12816TIP3    H238388   1.231   7.210   5.516
12817TIP3   OH238389   1.442   7.230   6.757
12817TIP3    H138390   1.354   7.204   6.731
12817TIP3    H238391   1.492   7.148   6.758
12818TIP3   OH238392   1.179   7.044   6.311
12818TIP3    H138393   1.218   7.095   6.241
12818TIP3    H238394   1.087   7.072   6.313
12819TIP3   OH238395   1.274   7.162   6.090
12819TIP3    H138396   1.341   7.102   6.057
12819TIP3    H238397   1.311   7.249   6.075
12820TIP3   OH238398   0.920   7.116   6.299
12820TIP3    H138399   0.850   7.138   6.238
12820TIP3    H238400   0.890   7.037   6.343
12821TIP3   OH238401   0.916   7.003   5.857
12821TIP3    H138402   0.837   7.056   5.867
12821TIP3    H238403   0.896   6.922   5.904
12822TIP3   OH238404   5.217   0.048   5.563
12822TIP3    H138405   5.219   0.141   5.542
12822TIP3    H238406   5.155   0.010   5.500
12823TIP3   OH238407   5.206   0.144   5.897
12823TIP3    H138408   5.248   0.117   5.978
12823TIP3    H238409   5.169   0.064   5.861
12824TIP3   OH238410   4.521   0.006   6.247
12824TIP3    H138411   4.554  -0.045   6.321
12824TIP3    H238412   4.600   0.036   6.202
12825TIP3   OH238413   5.483   0.427   5.609
12825TIP3    H138414   5.460   0.366   5.679
12825TIP3    H238415   5.511   0.507   5.655
12826TIP3   OH238416   4.606   0.393   6.060
12826TIP3    H138417   4.520   0.350   6.065
12826TIP3    H238418   4.642   0.365   5.976
12827TIP3   OH238419   1.358   7.649   5.732
12827TIP3    H138420   1.318   7.732   5.758
12827TIP3    H238421   1.287   7.602   5.688
12828TIP3   OH238422   1.417   7.947   5.941
12828TIP3    H138423   1.465   7.869   5.969
12828TIP3    H238424   1.483   8.002   5.900
12829TIP3   OH238425   5.027   0.358   5.972
12829TIP3    H138426   5.060   0.283   5.923
12829TIP3    H238427   5.106   0.401   6.006
12830TIP3   OH238428   3.209   7.704   5.923
12830TIP3    H138429   3.230   7.788   5.966
12830TIP3    H238430   3.230   7.718   5.831
12831TIP3   OH238431   2.597   7.874   5.953
12831TIP3    H138432   2.635   7.790   5.978
12831TIP3    H238433   2.562   7.860   5.865
12832TIP3   OH238434   1.944   7.532   5.910
12832TIP3    H138435   1.924   7.606   5.851
12832TIP3    H238436   1.890   7.460   5.876
12833TIP3   OH238437   2.637   7.632   5.537
12833TIP3    H138438   2.699   7.625   5.610
12833TIP3    H238439   2.690   7.665   5.464
12834TIP3   OH238440   1.564   7.733   6.039
12834TIP3    H138441   1.648   7.722   6.082
12834TIP3    H238442   1.572   7.686   5.956
12835TIP3   OH238443   2.007   7.934   5.847
12835TIP3    H138444   2.102   7.917   5.854
12835TIP3    H238445   1.971   7.851   5.814
12836TIP3   OH238446   3.276   7.922   6.090
12836TIP3    H138447   3.185   7.952   6.087
12836TIP3    H238448   3.308   7.952   6.176
12837TIP3   OH238449   1.928   7.527   6.356
12837TIP3    H138450   1.875   7.563   6.285
12837TIP3    H238451   1.876   7.542   6.435
12838TIP3   OH238452   5.200   0.251   5.365
12838TIP3    H138453   5.123   0.259   5.309
12838TIP3    H238454   5.215   0.339   5.398
12839TIP3   OH238455   4.863   0.277   6.172
12839TIP3    H138456   4.802   0.344   6.204
12839TIP3    H238457   4.912   0.322   6.103
12840TIP3   OH238458   2.811   7.645   5.750
12840TIP3    H138459   2.769   7.625   5.833
12840TIP3    H238460   2.867   7.720   5.769
12841TIP3   OH238461   1.812   7.638   6.131
12841TIP3    H138462   1.867   7.712   6.154
12841TIP3    H238463   1.857   7.596   6.058
12842TIP3   OH238464   4.105   0.066   5.513
12842TIP3    H138465   4.057   0.073   5.430
12842TIP3    H238466   4.142   0.154   5.526
12843TIP3   OH238467   3.007   7.594   6.090
12843TIP3    H138468   2.920   7.619   6.058
12843TIP3    H238469   3.067   7.623   6.021
12844TIP3   OH238470   2.270   7.227   6.078
12844TIP3    H138471   2.262   7.135   6.102
12844TIP3    H238472   2.195   7.270   6.119
12845TIP3   OH238473   5.510   0.362   5.339
12845TIP3    H138474   5.459   0.415   5.277
12845TIP3    H238475   5.479   0.389   5.425
12846TIP3   OH238476   5.829   0.623   5.999
12846TIP3    H138477   5.789   0.547   5.956
12846TIP3    H238478   5.853   0.682   5.928
12847TIP3   OH238479   2.228   7.976   5.351
12847TIP3    H138480   2.142   8.018   5.340
12847TIP3    H238481   2.265   7.976   5.263
12848TIP3   OH238482   2.173   7.778   5.047
12848TIP3    H138483   2.235   7.838   5.088
12848TIP3    H238484   2.227   7.722   4.991
12849TIP3   OH238485   5.954   0.230   5.923
12849TIP3    H138486   5.869   0.273   5.932
12849TIP3    H238487   5.976   0.240   5.830
12850TIP3   OH238488   5.393   0.040   5.308
12850TIP3    H138489   5.342   0.095   5.366
12850TIP3    H238490   5.476   0.027   5.353
12851TIP3   OH238491   5.620   0.100   6.212
12851TIP3    H138492   5.624   0.173   6.273
12851TIP3    H238493   5.533   0.106   6.173
12852TIP3   OH238494   1.802   8.047   5.699
12852TIP3    H138495   1.761   7.988   5.636
12852TIP3    H238496   1.872   7.996   5.739
12853TIP3   OH238497   4.743   0.368   5.830
12853TIP3    H138498   4.712   0.415   5.752
12853TIP3    H238499   4.834   0.345   5.810
12854TIP3   OH238500   4.743   0.049   6.073
12854TIP3    H138501   4.786   0.022   5.992
12854TIP3    H238502   4.787   0.130   6.099
12855TIP3   OH238503   2.392   7.934   5.132
12855TIP3    H138504   2.454   7.985   5.184
12855TIP3    H238505   2.425   7.940   5.042
12856TIP3   OH238506   2.907   7.184   5.179
12856TIP3    H138507   2.830   7.204   5.231
12856TIP3    H238508   2.921   7.261   5.124
12857TIP3   OH238509   1.675   7.884   5.517
12857TIP3    H138510   1.613   7.938   5.468
12857TIP3    H238511   1.623   7.810   5.549
12858TIP3   OH238512   5.880   0.062   6.400
12858TIP3    H138513   5.787   0.079   6.383
12858TIP3    H238514   5.891  -0.032   6.386
12859TIP3   OH238515   2.034   7.317   6.206
12859TIP3    H138516   1.950   7.287   6.172
12859TIP3    H238517   2.013   7.397   6.255
12860TIP3   OH238518   2.579   7.429   6.406
12860TIP3    H138519   2.649   7.409   6.467
12860TIP3    H238520   2.499   7.413   6.456
12861TIP3   OH238521   2.801   7.858   6.314
12861TIP3    H138522   2.756   7.855   6.398
12861TIP3    H238523   2.782   7.946   6.280
12862TIP3   OH238524   2.457   7.935   4.869
12862TIP3    H138525   2.451   7.914   4.776
12862TIP3    H238526   2.435   8.028   4.874
12863TIP3   OH238527   2.181   7.360   5.175
12863TIP3    H138528   2.148   7.365   5.265
12863TIP3    H238529   2.144   7.278   5.140
12864TIP3   OH238530   1.977   7.840   6.218
12864TIP3    H138531   1.932   7.852   6.302
12864TIP3    H238532   1.956   7.920   6.169
12865TIP3   OH238533   1.857   7.728   5.740
12865TIP3    H138534   1.767   7.707   5.766
12865TIP3    H238535   1.865   7.694   5.651
12866TIP3   OH238536   2.350   7.761   5.461
12866TIP3    H138537   2.305   7.837   5.424
12866TIP3    H238538   2.415   7.737   5.395
12867TIP3   OH238539   5.367   0.049   6.524
12867TIP3    H138540   5.339  -0.011   6.593
12867TIP3    H238541   5.454   0.078   6.550
12868TIP3   OH238542   2.505   7.838   5.699
12868TIP3    H138543   2.452   7.897   5.645
12868TIP3    H238544   2.520   7.762   5.642
12869TIP3   OH238545   1.814   7.858   6.441
12869TIP3    H138546   1.876   7.910   6.491
12869TIP3    H238547   1.797   7.781   6.496
12870TIP3   OH238548   1.843   7.342   5.147
12870TIP3    H138549   1.835   7.345   5.242
12870TIP3    H238550   1.768   7.391   5.114
12871TIP3   OH238551   1.399   7.389   6.023
12871TIP3    H138552   1.469   7.428   6.075
12871TIP3    H238553   1.429   7.396   5.932
12872TIP3   OH238554   1.330   7.364   5.529
12872TIP3    H138555   1.372   7.398   5.450
12872TIP3    H238556   1.266   7.431   5.553
12873TIP3   OH238557   5.353   0.059   6.118
12873TIP3    H138558   5.387  -0.007   6.058
12873TIP3    H238559   5.320   0.008   6.192
12874TIP3   OH238560   2.208   7.520   5.793
12874TIP3    H138561   2.131   7.523   5.850
12874TIP3    H238562   2.282   7.515   5.853
12875TIP3   OH238563   1.618   7.603   5.802
12875TIP3    H138564   1.530   7.608   5.767
12875TIP3    H238565   1.648   7.515   5.780
12876TIP3   OH238566   1.867   7.596   5.500
12876TIP3    H138567   1.961   7.610   5.485
12876TIP3    H238568   1.827   7.617   5.416
12877TIP3   OH238569   2.675   7.608   5.993
12877TIP3    H138570   2.656   7.623   6.086
12877TIP3    H238571   2.605   7.550   5.963
12878TIP3   OH238572   1.737   7.618   5.260
12878TIP3    H138573   1.668   7.576   5.208
12878TIP3    H238574   1.795   7.657   5.196
12879TIP3   OH238575   2.274   7.879   5.895
12879TIP3    H138576   2.342   7.834   5.845
12879TIP3    H238577   2.275   7.836   5.981
12880TIP3   OH238578   1.766   7.356   5.782
12880TIP3    H138579   1.734   7.280   5.832
12880TIP3    H238580   1.797   7.320   5.700
12881TIP3   OH238581   2.243   7.782   6.161
12881TIP3    H138582   2.155   7.813   6.185
12881TIP3    H238583   2.302   7.833   6.217
12882TIP3   OH238584   4.823   0.091   5.335
12882TIP3    H138585   4.746   0.038   5.317
12882TIP3    H238586   4.808   0.127   5.422
12883TIP3   OH238587   5.708   0.351   5.899
12883TIP3    H138588   5.731   0.400   5.821
12883TIP3    H238589   5.622   0.314   5.880
12884TIP3   OH238590   2.437   7.457   5.164
12884TIP3    H138591   2.342   7.441   5.166
12884TIP3    H238592   2.446   7.550   5.181
12885TIP3   OH238593   5.234   0.398   6.304
12885TIP3    H138594   5.261   0.377   6.393
12885TIP3    H238595   5.152   0.447   6.315
12886TIP3   OH238596   2.514   7.709   5.244
12886TIP3    H138597   2.607   7.722   5.257
12886TIP3    H238598   2.484   7.788   5.199
12887TIP3   OH238599   4.500   0.065   5.931
12887TIP3    H138600   4.535   0.067   5.843
12887TIP3    H238601   4.575   0.046   5.987
12888TIP3   OH238602   4.852   0.278   5.144
12888TIP3    H138603   4.906   0.353   5.169
12888TIP3    H238604   4.851   0.222   5.222
12889TIP3   OH238605   5.099   0.178   6.559
12889TIP3    H138606   5.090   0.165   6.465
12889TIP3    H238607   5.194   0.175   6.575
12890TIP3   OH238608   2.927   7.803   5.081
12890TIP3    H138609   2.870   7.758   5.019
12890TIP3    H238610   2.935   7.892   5.047
12891TIP3   OH238611   6.044   0.555   6.147
12891TIP3    H138612   5.964   0.600   6.119
12891TIP3    H238613   6.087   0.529   6.066
12892TIP3   OH238614   5.465   0.235   5.812
12892TIP3    H138615   5.373   0.214   5.830
12892TIP3    H238616   5.501   0.156   5.773
12893TIP3   OH238617   1.345   7.772   5.295
12893TIP3    H138618   1.398   7.850   5.313
12893TIP3    H238619   1.264   7.785   5.344
12894TIP3   OH238620   4.780   0.221   5.572
12894TIP3    H138621   4.712   0.277   5.537
12894TIP3    H238622   4.733   0.159   5.628
12895TIP3   OH238623   5.288   0.416   6.035
12895TIP3    H138624   5.270   0.422   6.129
12895TIP3    H238625   5.364   0.357   6.029
12896TIP3   OH238626   5.205   0.173   4.917
12896TIP3    H138627   5.244   0.193   5.002
12896TIP3    H238628   5.114   0.200   4.925
12897TIP3   OH238629   1.766   7.597   6.570
12897TIP3    H138630   1.671   7.600   6.580
12897TIP3    H238631   1.797   7.550   6.647
12898TIP3   OH238632   5.405   0.211   5.096
12898TIP3    H138633   5.400   0.163   5.178
12898TIP3    H238634   5.499   0.222   5.081
12899TIP3   OH238635   4.586   0.219   5.087
12899TIP3    H138636   4.543   0.208   5.002
12899TIP3    H238637   4.671   0.257   5.066
12900TIP3   OH238638   4.316  -0.014   5.367
12900TIP3    H138639   4.249   0.007   5.433
12900TIP3    H238640   4.305   0.054   5.300
12901TIP3   OH238641   2.614   7.658   6.254
12901TIP3    H138642   2.685   7.708   6.293
12901TIP3    H238643   2.602   7.583   6.313
12902TIP3   OH238644   2.493   7.414   5.439
12902TIP3    H138645   2.474   7.433   5.347
12902TIP3    H238646   2.533   7.494   5.472
12903TIP3   OH238647   2.144   7.603   5.537
12903TIP3    H138648   2.215   7.661   5.508
12903TIP3    H238649   2.163   7.587   5.629
12904TIP3   OH238650   2.442   7.901   6.318
12904TIP3    H138651   2.465   7.955   6.394
12904TIP3    H238652   2.495   7.822   6.327
12905TIP3   OH238653   2.311   7.314   5.625
12905TIP3    H138654   2.288   7.391   5.677
12905TIP3    H238655   2.378   7.346   5.564
12906TIP3   OH238656   1.823   7.328   5.426
12906TIP3    H138657   1.812   7.417   5.458
12906TIP3    H238658   1.917   7.312   5.431
12907TIP3   OH238659   3.064   7.808   6.298
12907TIP3    H138660   2.969   7.817   6.310
12907TIP3    H238661   3.074   7.750   6.224
12908TIP3   OH238662   2.728   8.009   5.707
12908TIP3    H138663   2.652   7.951   5.711
12908TIP3    H238664   2.796   7.964   5.756
12909TIP3   OH238665   4.254   0.171   5.168
12909TIP3    H138666   4.286   0.256   5.137
12909TIP3    H238667   4.301   0.107   5.115
12910TIP3   OH238668   1.385   7.500   5.299
12910TIP3    H138669   1.393   7.594   5.312
12910TIP3    H238670   1.310   7.490   5.240
12911TIP3   OH238671   1.770   7.237   6.166
12911TIP3    H138672   1.741   7.205   6.080
12911TIP3    H238673   1.764   7.161   6.224
12912TIP3   OH238674   1.581   7.983   5.070
12912TIP3    H138675   1.630   7.972   5.151
12912TIP3    H238676   1.648   7.983   5.001
12913TIP3   OH238677   4.937   0.215   4.888
12913TIP3    H138678   4.916   0.275   4.960
12913TIP3    H238679   4.896   0.133   4.912
12914TIP3   OH238680   5.497   0.460   6.252
12914TIP3    H138681   5.500   0.536   6.311
12914TIP3    H238682   5.411   0.421   6.267
12915TIP3   OH238683   1.786   7.938   5.260
12915TIP3    H138684   1.754   7.894   5.339
12915TIP3    H238685   1.825   7.868   5.208
12916TIP3   OH238686   4.886  -0.003   6.478
12916TIP3    H138687   4.906   0.057   6.549
12916TIP3    H238688   4.934   0.032   6.403
12917TIP3   OH238689   1.900   7.747   5.088
12917TIP3    H138690   1.875   7.736   4.996
12917TIP3    H238691   1.994   7.765   5.085
12918TIP3   OH238692   5.361   0.365   6.545
12918TIP3    H138693   5.427   0.433   6.536
12918TIP3    H238694   5.384   0.320   6.626
12919TIP3   OH238695   5.591   0.049   4.730
12919TIP3    H138696   5.543   0.001   4.662
12919TIP3    H238697   5.665   0.089   4.683
12920TIP3   OH238698   2.197   7.796   6.572
12920TIP3    H138699   2.200   7.723   6.510
12920TIP3    H238700   2.154   7.866   6.524
12921TIP3   OH238701   2.193   7.597   6.377
12921TIP3    H138702   2.217   7.638   6.294
12921TIP3    H238703   2.099   7.577   6.368
12922TIP3   OH238704   5.052   0.122   6.291
12922TIP3    H138705   5.133   0.141   6.244
12922TIP3    H238706   4.987   0.180   6.250
12923TIP3   OH238707   5.639   0.074   6.628
12923TIP3    H138708   5.690  -0.004   6.645
12923TIP3    H238709   5.702   0.146   6.636
12924TIP3   OH238710   5.672   0.304   6.391
12924TIP3    H138711   5.610   0.363   6.346
12924TIP3    H238712   5.758   0.333   6.362
12925TIP3   OH238713   2.063   7.890   6.797
12925TIP3    H138714   1.987   7.835   6.817
12925TIP3    H238715   2.095   7.856   6.713
12926TIP3   OH238716   2.312   7.371   6.485
12926TIP3    H138717   2.273   7.450   6.449
12926TIP3    H238718   2.245   7.303   6.472
12927TIP3   OH238719   2.445   7.856   6.683
12927TIP3    H138720   2.428   7.855   6.777
12927TIP3    H238721   2.361   7.835   6.643
12928TIP3   OH238722   2.677   7.790   6.542
12928TIP3    H138723   2.602   7.805   6.601
12928TIP3    H238724   2.751   7.773   6.602
12929TIP3   OH238725   2.919   7.759   6.690
12929TIP3    H138726   2.932   7.666   6.704
12929TIP3    H238727   2.911   7.796   6.778
12930TIP3   OH238728   1.885   7.691   6.869
12930TIP3    H138729   1.875   7.600   6.840
12930TIP3    H238730   1.936   7.685   6.950
12931TIP3   OH238731   2.387   7.365   6.747
12931TIP3    H138732   2.458   7.300   6.744
12931TIP3    H238733   2.356   7.370   6.656
12932TIP3   OH238734   2.464   7.586   6.897
12932TIP3    H138735   2.441   7.516   6.836
12932TIP3    H238736   2.393   7.650   6.888
12933TIP3   OH238737   4.012   0.077   5.257
12933TIP3    H138738   4.083   0.125   5.215
12933TIP3    H238739   3.982   0.016   5.190
12934TIP3   OH238740   5.675   0.234   5.097
12934TIP3    H138741   5.746   0.290   5.065
12934TIP3    H238742   5.708   0.196   5.178
12935TIP3   OH238743   5.813   0.107   5.293
12935TIP3    H138744   5.751   0.070   5.355
12935TIP3    H238745   5.881   0.147   5.347
12936TIP3   OH238746   5.876   0.498   5.733
12936TIP3    H138747   5.912   0.421   5.690
12936TIP3    H238748   5.839   0.550   5.662
12937TIP3   OH238749   5.761   0.024   4.943
12937TIP3    H138750   5.691   0.026   4.878
12937TIP3    H238751   5.741   0.098   5.001
12938TIP3   OH238752   2.773   7.703   4.880
12938TIP3    H138753   2.721   7.751   4.815
12938TIP3    H238754   2.758   7.611   4.859
12939TIP3   OH238755   2.793   7.987   5.441
12939TIP3    H138756   2.801   7.892   5.429
12939TIP3    H238757   2.777   7.998   5.534
12940TIP3   OH238758   4.255   0.042   6.194
12940TIP3    H138759   4.243   0.009   6.105
12940TIP3    H238760   4.349   0.030   6.211
12941TIP3   OH238761   5.915   0.384   6.310
12941TIP3    H138762   5.976   0.311   6.299
12941TIP3    H238763   5.944   0.449   6.246
12942TIP3   OH238764   6.096   0.185   6.295
12942TIP3    H138765   6.022   0.138   6.334
12942TIP3    H238766   6.172   0.129   6.312
12943TIP3   OH238767   2.726   7.432   4.844
12943TIP3    H138768   2.789   7.409   4.913
12943TIP3    H238769   2.644   7.393   4.874
12944TIP3   OH238770   2.793   7.717   5.316
12944TIP3    H138771   2.835   7.632   5.328
12944TIP3    H238772   2.839   7.757   5.242
12945TIP3   OH238773   2.942   7.879   5.828
12945TIP3    H138774   3.023   7.899   5.781
12945TIP3    H238775   2.955   7.916   5.916
12946TIP3   OH238776   5.847   0.011   6.056
12946TIP3    H138777   5.773   0.040   6.110
12946TIP3    H238778   5.880   0.091   6.016
12947TIP3   OH238779   3.466   7.634   6.595
12947TIP3    H138780   3.532   7.573   6.562
12947TIP3    H238781   3.436   7.682   6.518
12948TIP3   OH238782   2.902   7.465   5.359
12948TIP3    H138783   2.946   7.450   5.443
12948TIP3    H238784   2.838   7.394   5.353
12949TIP3   OH238785   1.603   7.455   6.201
12949TIP3    H138786   1.660   7.378   6.198
12949TIP3    H238787   1.661   7.529   6.183
12950TIP3   OH238788   1.388   7.773   6.258
12950TIP3    H138789   1.443   7.748   6.184
12950TIP3    H238790   1.384   7.868   6.254
12951TIP3   OH238791   3.329   7.761   6.400
12951TIP3    H138792   3.256   7.801   6.448
12951TIP3    H238793   3.289   7.692   6.348
12952TIP3   OH238794   2.955   7.387   5.000
12952TIP3    H138795   3.001   7.325   4.943
12952TIP3    H238796   3.014   7.463   5.003
12953TIP3   OH238797   1.378   7.212   5.749
12953TIP3    H138798   1.291   7.206   5.788
12953TIP3    H238799   1.369   7.275   5.677
12954TIP3   OH238800   1.608   7.278   6.537
12954TIP3    H138801   1.552   7.268   6.614
12954TIP3    H238802   1.554   7.327   6.475
12955TIP3   OH238803   3.234   7.513   6.292
12955TIP3    H138804   3.146   7.506   6.254
12955TIP3    H238805   3.269   7.424   6.287
12956TIP3   OH238806   2.442   7.433   5.924
12956TIP3    H138807   2.404   7.361   5.973
12956TIP3    H238808   2.512   7.393   5.871
12957TIP3   OH238809   2.948   7.329   5.813
12957TIP3    H138810   2.987   7.380   5.742
12957TIP3    H238811   2.857   7.359   5.817
12958TIP3   OH238812   3.061   7.416   5.580
12958TIP3    H138813   3.131   7.358   5.550
12958TIP3    H238814   3.096   7.504   5.567
12959TIP3   OH238815   1.686   7.131   5.924
12959TIP3    H138816   1.595   7.102   5.930
12959TIP3    H238817   1.737   7.051   5.919
12960TIP3   OH238818   1.492   7.022   5.573
12960TIP3    H138819   1.523   7.076   5.501
12960TIP3    H238820   1.458   7.085   5.637
12961TIP3   OH238821   2.155   7.170   5.817
12961TIP3    H138822   2.202   7.219   5.749
12961TIP3    H238823   2.193   7.201   5.899
12962TIP3   OH238824   2.659   7.319   5.795
12962TIP3    H138825   2.673   7.285   5.707
12962TIP3    H238826   2.660   7.241   5.851
12963TIP3   OH238827   2.713   7.258   5.361
12963TIP3    H138828   2.633   7.306   5.383
12963TIP3    H238829   2.701   7.172   5.401
12964TIP3   OH238830   1.609   7.163   5.346
12964TIP3    H138831   1.655   7.105   5.285
12964TIP3    H238832   1.677   7.221   5.380
12965TIP3   OH238833   2.099   7.353   5.439
12965TIP3    H138834   2.160   7.305   5.494
12965TIP3    H238835   2.110   7.445   5.466
12966TIP3   OH238836   1.905   7.417   6.787
12966TIP3    H138837   1.870   7.352   6.848
12966TIP3    H238838   1.997   7.426   6.812
12967TIP3   OH238839   2.160   7.403   6.907
12967TIP3    H138840   2.239   7.394   6.853
12967TIP3    H238841   2.158   7.323   6.959
12968TIP3   OH238842   2.982   7.491   6.731
12968TIP3    H138843   3.001   7.466   6.821
12968TIP3    H238844   3.068   7.488   6.688
12969TIP3   OH238845   7.011   0.307   5.049
12969TIP3    H138846   7.013   0.399   5.022
12969TIP3    H238847   6.948   0.266   4.990
12970TIP3   OH238848   7.004   0.395   5.375
12970TIP3    H138849   7.034   0.361   5.459
12970TIP3    H238850   6.968   0.318   5.330
12971TIP3   OH238851   6.301   0.285   5.748
12971TIP3    H138852   6.346   0.222   5.803
12971TIP3    H238853   6.361   0.359   5.742
12972TIP3   OH238854   7.273   0.678   5.093
12972TIP3    H138855   7.251   0.620   5.166
12972TIP3    H238856   7.305   0.758   5.135
12973TIP3   OH238857   6.422   0.569   5.545
12973TIP3    H138858   6.327   0.570   5.547
12973TIP3    H238859   6.444   0.583   5.453
12974TIP3   OH238860   3.154   7.911   5.216
12974TIP3    H138861   3.112   7.994   5.240
12974TIP3    H238862   3.083   7.857   5.181
12975TIP3   OH238863   6.042   0.184   5.420
12975TIP3    H138864   6.096   0.110   5.449
12975TIP3    H238865   6.104   0.244   5.378
12976TIP3   OH238866   6.825   0.609   5.458
12976TIP3    H138867   6.847   0.540   5.396
12976TIP3    H238868   6.909   0.642   5.488
12977TIP3   OH238869   4.995   7.954   5.408
12977TIP3    H138870   5.023   8.036   5.450
12977TIP3    H238871   5.027   7.961   5.318
12978TIP3   OH238872   7.223   0.118   5.445
12978TIP3    H138873   7.264   0.035   5.468
12978TIP3    H238874   7.191   0.106   5.356
12979TIP3   OH238875   3.741   7.789   5.396
12979TIP3    H138876   3.721   7.861   5.337
12979TIP3    H238877   3.688   7.716   5.363
12980TIP3   OH238878   4.431   7.892   5.023
12980TIP3    H138879   4.496   7.885   5.093
12980TIP3    H238880   4.481   7.924   4.947
12981TIP3   OH238881   3.363   7.993   5.521
12981TIP3    H138882   3.447   7.977   5.565
12981TIP3    H238883   3.370   7.944   5.439
12982TIP3   OH238884   6.643   0.175   5.313
12982TIP3    H138885   6.736   0.156   5.322
12982TIP3    H238886   6.604   0.093   5.283
12983TIP3   OH238887   7.906   0.154   5.573
12983TIP3    H138888   7.817   0.189   5.573
12983TIP3    H238889   7.946   0.190   5.652
12984TIP3   OH238890   3.725   7.785   5.846
12984TIP3    H138891   3.671   7.817   5.773
12984TIP3    H238892   3.670   7.798   5.923
12985TIP3   OH238893   6.995   0.511   4.856
12985TIP3    H138894   6.936   0.510   4.781
12985TIP3    H238895   6.993   0.602   4.887
12986TIP3   OH238896   6.686   0.499   5.660
12986TIP3    H138897   6.605   0.549   5.672
12986TIP3    H238898   6.732   0.544   5.589
12987TIP3   OH238899   4.612   7.905   5.228
12987TIP3    H138900   4.583   7.875   5.314
12987TIP3    H238901   4.670   7.979   5.247
12988TIP3   OH238902   3.607   7.890   5.617
12988TIP3    H138903   3.662   7.965   5.642
12988TIP3    H238904   3.654   7.850   5.544
12989TIP3   OH238905   6.550   0.756   5.689
12989TIP3    H138906   6.485   0.696   5.651
12989TIP3    H238907   6.505   0.796   5.763
12990TIP3   OH238908   5.902   0.335   4.994
12990TIP3    H138909   5.853   0.349   4.913
12990TIP3    H238910   5.944   0.420   5.012
12991TIP3   OH238911   4.789   7.855   5.576
12991TIP3    H138912   4.703   7.875   5.539
12991TIP3    H238913   4.851   7.880   5.508
12992TIP3   OH238914   4.067   7.483   5.567
12992TIP3    H138915   4.058   7.390   5.591
12992TIP3    H238916   3.991   7.525   5.607
12993TIP3   OH238917   7.307   0.636   4.818
12993TIP3    H138918   7.238   0.667   4.759
12993TIP3    H238919   7.271   0.651   4.906
12994TIP3   OH238920   7.612   0.873   5.469
12994TIP3    H138921   7.605   0.787   5.428
12994TIP3    H238922   7.665   0.924   5.408
12995TIP3   OH238923   6.853   0.221   4.837
12995TIP3    H138924   6.769   0.266   4.824
12995TIP3    H238925   6.892   0.218   4.749
12996TIP3   OH238926   6.801   0.021   4.528
12996TIP3    H138927   6.862   0.081   4.572
12996TIP3    H238928   6.857  -0.038   4.478
12997TIP3   OH238929   7.740   0.486   5.421
12997TIP3    H138930   7.654   0.530   5.419
12997TIP3    H238931   7.772   0.493   5.331
12998TIP3   OH238932   7.189   0.298   4.793
12998TIP3    H138933   7.138   0.349   4.857
12998TIP3    H238934   7.273   0.284   4.836
12999TIP3   OH238935   7.431   0.345   5.710
12999TIP3    H138936   7.429   0.420   5.770
12999TIP3    H238937   7.364   0.365   5.644
13000TIP3   OH238938   6.425   0.292   5.191
13000TIP3    H138939   6.385   0.233   5.127
13000TIP3    H238940   6.499   0.243   5.226
13001TIP3   OH238941   6.520   0.632   5.303
13001TIP3    H138942   6.533   0.726   5.286
13001TIP3    H238943   6.603   0.592   5.277
13002TIP3   OH238944   6.544   0.284   5.545
13002TIP3    H138945   6.584   0.260   5.462
13002TIP3    H238946   6.584   0.367   5.568
13003TIP3   OH238947   6.732   0.744   5.903
13003TIP3    H138948   6.776   0.826   5.878
13003TIP3    H238949   6.684   0.718   5.825
13004TIP3   OH238950   7.018   0.178   4.619
13004TIP3    H138951   7.081   0.230   4.668
13004TIP3    H238952   7.050   0.180   4.529
13005TIP3   OH238953   6.464   0.395   6.004
13005TIP3    H138954   6.467   0.480   6.049
13005TIP3    H238955   6.373   0.366   6.015
13006TIP3   OH238956   4.711   7.440   4.671
13006TIP3    H138957   4.633   7.460   4.722
13006TIP3    H238958   4.723   7.517   4.615
13007TIP3   OH238959   6.307   0.127   5.005
13007TIP3    H138960   6.241   0.178   4.957
13007TIP3    H238961   6.260   0.048   5.033
13008TIP3   OH238962   6.100   0.484   5.897
13008TIP3    H138963   6.014   0.487   5.856
13008TIP3    H238964   6.120   0.390   5.905
13009TIP3   OH238965   7.665   0.317   5.886
13009TIP3    H138966   7.588   0.325   5.829
13009TIP3    H238967   7.688   0.225   5.882
13010TIP3   OH238968   6.301   0.633   5.806
13010TIP3    H138969   6.343   0.681   5.878
13010TIP3    H238970   6.231   0.582   5.848
13011TIP3   OH238971   3.831   7.575   5.694
13011TIP3    H138972   3.747   7.542   5.661
13011TIP3    H238973   3.808   7.654   5.743
13012TIP3   OH238974   4.370   7.696   5.893
13012TIP3    H138975   4.443   7.668   5.948
13012TIP3    H238976   4.292   7.668   5.941
13013TIP3   OH238977   7.407   0.101   5.850
13013TIP3    H138978   7.428   0.126   5.940
13013TIP3    H238979   7.413   0.183   5.800
13014TIP3   OH238980   7.092   0.160   4.359
13014TIP3    H138981   7.068   0.129   4.272
13014TIP3    H238982   7.118   0.251   4.346
13015TIP3   OH238983   3.977   7.616   4.661
13015TIP3    H138984   3.944   7.621   4.751
13015TIP3    H238985   3.940   7.535   4.626
13016TIP3   OH238986   6.597   0.081   5.715
13016TIP3    H138987   6.547   0.093   5.796
13016TIP3    H238988   6.573   0.156   5.661
13017TIP3   OH238989   3.653   7.981   5.224
13017TIP3    H138990   3.564   7.960   5.250
13017TIP3    H238991   3.661   7.947   5.135
13018TIP3   OH238992   6.978   0.007   4.948
13018TIP3    H138993   6.932   0.082   4.909
13018TIP3    H238994   7.043  -0.018   4.883
13019TIP3   OH238995   7.135   0.079   5.187
13019TIP3    H138996   7.083   0.137   5.131
13019TIP3    H238997   7.154   0.003   5.133
13020TIP3   OH238998   6.422   0.100   5.929
13020TIP3    H138999   6.379   0.159   5.991
13020TIP3    H239000   6.414   0.013   5.969
13021TIP3   OH239001   3.639   7.600   4.632
13021TIP3    H139002   3.630   7.601   4.728
13021TIP3    H239003   3.563   7.649   4.601
13022TIP3   OH239004   3.187   7.641   5.503
13022TIP3    H139005   3.259   7.675   5.556
13022TIP3    H239006   3.228   7.619   5.419
13023TIP3   OH239007   3.119   7.613   5.016
13023TIP3    H139008   3.163   7.647   4.938
13023TIP3    H239009   3.057   7.681   5.041
13024TIP3   OH239010   7.128   0.302   5.618
13024TIP3    H139011   7.163   0.240   5.553
13024TIP3    H239012   7.150   0.263   5.703
13025TIP3   OH239013   4.005   7.779   5.281
13025TIP3    H139014   3.928   7.779   5.337
13025TIP3    H239015   4.079   7.770   5.341
13026TIP3   OH239016   3.414   7.860   5.286
13026TIP3    H139017   3.325   7.865   5.252
13026TIP3    H239018   3.442   7.770   5.268
13027TIP3   OH239019   3.664   7.853   4.983
13027TIP3    H139020   3.758   7.867   4.968
13027TIP3    H239021   3.623   7.874   4.899
13028TIP3   OH239022   4.477   7.870   5.491
13028TIP3    H139023   4.451   7.887   5.581
13028TIP3    H239024   4.410   7.810   5.458
13029TIP3   OH239025   3.529   7.877   4.746
13029TIP3    H139026   3.462   7.833   4.694
13029TIP3    H239027   3.588   7.915   4.681
13030TIP3   OH239028   6.452   0.622   6.164
13030TIP3    H139029   6.523   0.632   6.228
13030TIP3    H239030   6.372   0.634   6.216
13031TIP3   OH239031   6.905   0.113   5.371
13031TIP3    H139032   6.974   0.072   5.319
13031TIP3    H239033   6.903   0.063   5.453
13032TIP3   OH239034   3.562   7.612   5.271
13032TIP3    H139035   3.531   7.536   5.321
13032TIP3    H239036   3.593   7.575   5.188
13033TIP3   OH239037   6.855   0.019   5.645
13033TIP3    H139038   6.763   0.037   5.661
13033TIP3    H239039   6.902   0.091   5.686
13034TIP3   OH239040   6.618   0.357   4.814
13034TIP3    H139041   6.542   0.301   4.800
13034TIP3    H239042   6.606   0.392   4.903
13035TIP3   OH239043   7.494   0.607   5.385
13035TIP3    H139044   7.527   0.649   5.306
13035TIP3    H239045   7.411   0.567   5.359
13036TIP3   OH239046   4.234   7.711   4.657
13036TIP3    H139047   4.139   7.696   4.655
13036TIP3    H239048   4.243   7.805   4.670
13037TIP3   OH239049   7.041   0.658   5.790
13037TIP3    H139050   7.074   0.647   5.879
13037TIP3    H239051   6.955   0.697   5.802
13038TIP3   OH239052   4.308   7.966   4.731
13038TIP3    H139053   4.402   7.978   4.742
13038TIP3    H239054   4.280   8.045   4.685
13039TIP3   OH239055   6.290   0.317   5.426
13039TIP3    H139056   6.328   0.319   5.339
13039TIP3    H239057   6.364   0.300   5.484
13040TIP3   OH239058   6.675   0.543   4.624
13040TIP3    H139059   6.715   0.617   4.671
13040TIP3    H239060   6.661   0.477   4.692
13041TIP3   OH239061   6.216   0.266   6.055
13041TIP3    H139062   6.208   0.270   6.151
13041TIP3    H239063   6.132   0.230   6.026
13042TIP3   OH239064   6.924   0.413   6.065
13042TIP3    H139065   6.849   0.360   6.036
13042TIP3    H239066   6.981   0.417   5.988
13043TIP3   OH239067   7.554   0.044   4.568
13043TIP3    H139068   7.496   0.001   4.506
13043TIP3    H239069   7.567   0.132   4.533
13044TIP3   OH239070   7.823   0.854   5.648
13044TIP3    H139071   7.737   0.885   5.618
13044TIP3    H239072   7.869   0.829   5.568
13045TIP3   OH239073   7.258   0.489   5.300
13045TIP3    H139074   7.166   0.466   5.316
13045TIP3    H239075   7.295   0.411   5.259
13046TIP3   OH239076   5.984   0.008   4.781
13046TIP3    H139077   6.037   0.086   4.797
13046TIP3    H239078   5.909   0.017   4.838
13047TIP3   OH239079   6.576   0.473   5.058
13047TIP3    H139080   6.514   0.542   5.033
13047TIP3    H239081   6.524   0.414   5.113
13048TIP3   OH239082   7.084   0.664   5.517
13048TIP3    H139083   7.071   0.671   5.611
13048TIP3    H239084   7.166   0.615   5.507
13049TIP3   OH239085   6.970   0.518   4.467
13049TIP3    H139086   7.055   0.481   4.490
13049TIP3    H239087   6.935   0.460   4.400
13050TIP3   OH239088   3.553   7.861   6.052
13050TIP3    H139089   3.458   7.871   6.059
13050TIP3    H239090   3.577   7.810   6.129
13051TIP3   OH239091   7.213   0.448   4.568
13051TIP3    H139092   7.203   0.402   4.652
13051TIP3    H239093   7.307   0.462   4.560
13052TIP3   OH239094   6.402   0.473   4.570
13052TIP3    H139095   6.354   0.452   4.490
13052TIP3    H239096   6.480   0.519   4.540
13053TIP3   OH239097   6.111   0.239   4.856
13053TIP3    H139098   6.044   0.262   4.920
13053TIP3    H239099   6.107   0.308   4.790
13054TIP3   OH239100   4.396   7.930   5.744
13054TIP3    H139101   4.456   7.987   5.792
13054TIP3    H239102   4.384   7.855   5.801
13055TIP3   OH239103   4.290   7.670   4.929
13055TIP3    H139104   4.270   7.686   4.836
13055TIP3    H239105   4.330   7.751   4.959
13056TIP3   OH239106   3.942   7.860   5.024
13056TIP3    H139107   4.012   7.918   4.995
13056TIP3    H239108   3.960   7.844   5.116
13057TIP3   OH239109   4.106   7.572   5.112
13057TIP3    H139110   4.083   7.649   5.164
13057TIP3    H239111   4.173   7.603   5.051
13058TIP3   OH239112   3.619   7.585   4.912
13058TIP3    H139113   3.608   7.674   4.944
13058TIP3    H239114   3.713   7.568   4.917
13059TIP3   OH239115   7.681   0.053   5.791
13059TIP3    H139116   7.588   0.034   5.808
13059TIP3    H239117   7.700   0.004   5.711
13060TIP3   OH239118   7.357   0.252   5.193
13060TIP3    H139119   7.284   0.190   5.196
13060TIP3    H239120   7.428   0.208   5.239
13061TIP3   OH239121   6.057   0.428   4.659
13061TIP3    H139122   6.094   0.513   4.635
13061TIP3    H239123   6.104   0.364   4.606
13062TIP3   OH239124   3.182   7.750   4.790
13062TIP3    H139125   3.191   7.845   4.802
13062TIP3    H239126   3.118   7.740   4.719
13063TIP3   OH239127   3.570   7.488   5.655
13063TIP3    H139128   3.540   7.456   5.570
13063TIP3    H239129   3.560   7.414   5.714
13064TIP3   OH239130   6.232   0.588   6.334
13064TIP3    H139131   6.276   0.504   6.328
13064TIP3    H239132   6.164   0.585   6.266
13065TIP3   OH239133   6.216   0.229   4.558
13065TIP3    H139134   6.266   0.215   4.638
13065TIP3    H239135   6.281   0.227   4.488
13066TIP3   OH239136   6.832   0.658   6.136
13066TIP3    H139137   6.799   0.693   6.052
13066TIP3    H239138   6.866   0.572   6.114
13067TIP3   OH239139   6.715   0.458   4.364
13067TIP3    H139140   6.714   0.507   4.446
13067TIP3    H239141   6.683   0.370   4.388
13068TIP3   OH239142   7.307   0.689   5.699
13068TIP3    H139143   7.338   0.776   5.725
13068TIP3    H239144   7.221   0.681   5.738
13069TIP3   OH239145   6.379   0.360   6.319
13069TIP3    H139146   6.458   0.318   6.283
13069TIP3    H239147   6.406   0.392   6.405
13070TIP3   OH239148   6.416   0.183   4.749
13070TIP3    H139149   6.387   0.141   4.830
13070TIP3    H239150   6.456   0.113   4.698
13071TIP3   OH239151   6.711   0.262   5.976
13071TIP3    H139152   6.624   0.304   5.981
13071TIP3    H239153   6.743   0.284   5.889
13072TIP3   OH239154   3.694   8.002   4.573
13072TIP3    H139155   3.669   7.990   4.481
13072TIP3    H239156   3.787   8.022   4.570
13073TIP3   OH239157   7.178   0.597   6.035
13073TIP3    H139158   7.272   0.587   6.021
13073TIP3    H239159   7.165   0.571   6.126
13074TIP3   OH239160   7.399   0.317   4.226
13074TIP3    H139161   7.343   0.272   4.163
13074TIP3    H239162   7.470   0.354   4.174
13075TIP3   OH239163   6.869   0.048   6.075
13075TIP3    H139164   6.853  -0.023   6.013
13075TIP3    H239165   6.817   0.121   6.042
13076TIP3   OH239166   3.986   7.865   5.881
13076TIP3    H139167   4.012   7.897   5.794
13076TIP3    H239168   3.894   7.841   5.871
13077TIP3   OH239169   6.885   0.346   5.766
13077TIP3    H139170   6.961   0.359   5.709
13077TIP3    H239171   6.818   0.403   5.730
13078TIP3   OH239172   7.443   0.322   6.151
13078TIP3    H139173   7.473   0.246   6.201
13078TIP3    H239174   7.523   0.374   6.137
13079TIP3   OH239175   7.462   0.561   5.875
13079TIP3    H139176   7.404   0.609   5.816
13079TIP3    H239177   7.550   0.587   5.849
13080TIP3   OH239178   6.650   0.180   6.306
13080TIP3    H139179   6.601   0.104   6.337
13080TIP3    H239180   6.656   0.167   6.211
13081TIP3   OH239181   4.106   7.624   5.968
13081TIP3    H139182   4.064   7.705   5.937
13081TIP3    H239183   4.039   7.557   5.956
13082TIP3   OH239184   4.729   8.025   6.164
13082TIP3    H139185   4.731   7.930   6.175
13082TIP3    H239186   4.709   8.059   6.251
13083TIP3   OH239187   3.706   7.944   6.372
13083TIP3    H139188   3.705   7.855   6.338
13083TIP3    H239189   3.737   7.936   6.462
13084TIP3   OH239190   4.190   7.614   6.228
13084TIP3    H139191   4.259   7.548   6.226
13084TIP3    H239192   4.151   7.611   6.140
13085TIP3   OH239193   4.234   7.874   6.289
13085TIP3    H139194   4.231   7.784   6.255
13085TIP3    H239195   4.231   7.864   6.384
13086TIP3   OH239196   5.804   0.369   4.741
13086TIP3    H139197   5.892   0.394   4.712
13086TIP3    H239198   5.754   0.358   4.660
13087TIP3   OH239199   7.717   1.083   5.922
13087TIP3    H139200   7.659   1.028   5.975
13087TIP3    H239201   7.737   1.158   5.978
13088TIP3   OH239202   7.475   0.488   4.580
13088TIP3    H139203   7.531   0.558   4.544
13088TIP3    H239204   7.522   0.457   4.657
13089TIP3   OH239205   7.616   0.369   4.780
13089TIP3    H139206   7.553   0.333   4.841
13089TIP3    H239207   7.683   0.409   4.836
13090TIP3   OH239208   7.665   0.741   5.220
13090TIP3    H139209   7.715   0.673   5.175
13090TIP3    H239210   7.640   0.802   5.152
13091TIP3   OH239211   7.571   0.278   4.432
13091TIP3    H139212   7.502   0.281   4.366
13091TIP3    H239213   7.554   0.354   4.488
13092TIP3   OH239214   4.564   7.963   4.367
13092TIP3    H139215   4.517   8.006   4.295
13092TIP3    H239216   4.551   7.869   4.351
13093TIP3   OH239217   7.423   0.233   4.925
13093TIP3    H139218   7.434   0.138   4.912
13093TIP3    H239219   7.408   0.243   5.019
13094TIP3   OH239220   6.042   0.290   5.669
13094TIP3    H139221   6.029   0.252   5.582
13094TIP3    H239222   6.136   0.283   5.684
13095TIP3   OH239223   7.704   0.652   5.793
13095TIP3    H139224   7.766   0.580   5.780
13095TIP3    H239225   7.736   0.722   5.735
13096TIP3   OH239226   7.882   0.449   5.795
13096TIP3    H139227   7.810   0.396   5.830
13096TIP3    H239228   7.958   0.392   5.800
13097TIP3   OH239229   4.520   7.693   4.335
13097TIP3    H139230   4.585   7.666   4.400
13097TIP3    H239231   4.439   7.650   4.363
13098TIP3   OH239232   4.587   7.974   4.802
13098TIP3    H139233   4.630   7.890   4.816
13098TIP3    H239234   4.633   8.013   4.727
13099TIP3   OH239235   7.574   0.126   5.311
13099TIP3    H139236   7.654   0.146   5.263
13099TIP3    H239237   7.591   0.157   5.400
13100TIP3   OH239238   7.649   0.261   5.545
13100TIP3    H139239   7.576   0.291   5.599
13100TIP3    H239240   7.682   0.340   5.503
13101TIP3   OH239241   3.441   7.998   6.325
13101TIP3    H139242   3.535   7.995   6.342
13101TIP3    H239243   3.407   7.917   6.363
13102TIP3   OH239244   5.265   7.881   6.074
13102TIP3    H139245   5.327   7.819   6.037
13102TIP3    H239246   5.233   7.930   5.998
13103TIP3   OH239247   4.696   7.723   4.847
13103TIP3    H139248   4.742   7.709   4.930
13103TIP3    H239249   4.634   7.651   4.841
13104TIP3   OH239250   3.398   7.707   5.673
13104TIP3    H139251   3.453   7.629   5.679
13104TIP3    H239252   3.459   7.779   5.658
13105TIP3   OH239253   3.185   7.970   5.738
13105TIP3    H139254   3.235   7.966   5.656
13105TIP3    H239255   3.221   8.046   5.783
13106TIP3   OH239256   5.119   8.009   5.884
13106TIP3    H139257   5.043   8.050   5.925
13106TIP3    H239258   5.083   7.937   5.833
13107TIP3   OH239259   4.751   7.642   4.488
13107TIP3    H139260   4.794   7.580   4.429
13107TIP3    H239261   4.809   7.718   4.490
13108TIP3   OH239262   3.174   7.476   5.244
13108TIP3    H139263   3.086   7.467   5.281
13108TIP3    H239264   3.162   7.532   5.167
13109TIP3   OH239265   3.394   7.545   6.057
13109TIP3    H139266   3.347   7.543   6.141
13109TIP3    H239267   3.336   7.592   5.998
13110TIP3   OH239268   5.031   7.759   5.781
13110TIP3    H139269   4.945   7.742   5.742
13110TIP3    H239270   5.077   7.675   5.774
13111TIP3   OH239271   4.234   7.690   5.415
13111TIP3    H139272   4.197   7.615   5.463
13111TIP3    H239273   4.305   7.652   5.364
13112TIP3   OH239274   4.738   7.579   5.297
13112TIP3    H139275   4.782   7.630   5.228
13112TIP3    H239276   4.648   7.610   5.297
13113TIP3   OH239277   4.854   7.676   5.069
13113TIP3    H139278   4.925   7.618   5.041
13113TIP3    H239279   4.889   7.764   5.058
13114TIP3   OH239280   3.482   7.387   5.413
13114TIP3    H139281   3.392   7.356   5.420
13114TIP3    H239282   3.534   7.307   5.407
13115TIP3   OH239283   3.290   7.283   5.065
13115TIP3    H139284   3.317   7.336   4.990
13115TIP3    H239285   3.256   7.347   5.128
13116TIP3   OH239286   3.951   7.427   5.304
13116TIP3    H139287   3.999   7.476   5.237
13116TIP3    H239288   3.990   7.456   5.387
13117TIP3   OH239289   4.452   7.583   5.283
13117TIP3    H139290   4.455   7.551   5.192
13117TIP3    H239291   4.455   7.503   5.336
13118TIP3   OH239292   4.510   7.513   4.849
13118TIP3    H139293   4.430   7.561   4.869
13118TIP3    H239294   4.497   7.427   4.888
13119TIP3   OH239295   3.403   7.421   4.831
13119TIP3    H139296   3.449   7.361   4.773
13119TIP3    H239297   3.472   7.478   4.866
13120TIP3   OH239298   3.894   7.611   4.925
13120TIP3    H139299   3.954   7.560   4.980
13120TIP3    H239300   3.907   7.701   4.953
13121TIP3   OH239301   3.702   7.670   6.296
13121TIP3    H139302   3.663   7.605   6.354
13121TIP3    H239303   3.794   7.673   6.321
13122TIP3   OH239304   3.953   7.670   6.414
13122TIP3    H139305   4.035   7.641   6.372
13122TIP3    H239306   3.938   7.605   6.483
13123TIP3   OH239307   4.771   7.753   6.197
13123TIP3    H139308   4.785   7.724   6.287
13123TIP3    H239309   4.858   7.748   6.157
13124TIP3   OH239310   0.273   0.642   4.484
13124TIP3    H139311   0.230   0.727   4.499
13124TIP3    H239312   0.206   0.588   4.443
13125TIP3   OH239313   0.238   0.621   4.870
13125TIP3    H139314   0.283   0.613   4.955
13125TIP3    H239315   0.210   0.531   4.850
13126TIP3   OH239316   8.101   0.525   5.228
13126TIP3    H139317   8.135   0.467   5.296
13126TIP3    H239318   8.178   0.573   5.196
13127TIP3   OH239319   0.442   0.989   4.665
13127TIP3    H139320   0.453   0.903   4.704
13127TIP3    H239321   0.517   1.040   4.695
13128TIP3   OH239322   8.171   0.850   4.985
13128TIP3    H139323   8.163   0.764   4.944
13128TIP3    H239324   8.240   0.894   4.935
13129TIP3   OH239325   7.781   0.152   4.704
13129TIP3    H139326   7.741   0.236   4.725
13129TIP3    H239327   7.710   0.099   4.669
13130TIP3   OH239328   7.847   0.444   4.913
13130TIP3    H139329   7.897   0.367   4.936
13130TIP3    H239330   7.911   0.504   4.875
13131TIP3   OH239331   0.122   0.874   4.879
13131TIP3    H139332   0.150   0.786   4.854
13131TIP3    H239333   0.202   0.918   4.907
13132TIP3   OH239334   1.068   0.225   4.921
13132TIP3    H139335   1.101   0.312   4.945
13132TIP3    H239336   1.127   0.196   4.852
13133TIP3   OH239337   0.510   0.381   4.926
13133TIP3    H139338   0.550   0.298   4.953
13133TIP3    H239339   0.473   0.363   4.840
13134TIP3   OH239340   8.372   0.035   4.880
13134TIP3    H139341   8.351   0.108   4.823
13134TIP3    H239342   8.320  -0.038   4.846
13135TIP3   OH239343   0.570   0.129   4.519
13135TIP3    H139344   0.640   0.126   4.585
13135TIP3    H239345   0.615   0.155   4.438
13136TIP3   OH239346   7.994   0.232   5.005
13136TIP3    H139347   8.076   0.213   5.051
13136TIP3    H239348   8.000   0.184   4.923
13137TIP3   OH239349   8.429   0.432   4.806
13137TIP3    H139350   8.520   0.404   4.818
13137TIP3    H239351   8.384   0.354   4.774
13138TIP3   OH239352   8.352   0.025   5.328
13138TIP3    H139353   8.299   0.061   5.257
13138TIP3    H239354   8.299   0.039   5.407
13139TIP3   OH239355   0.107   0.863   4.370
13139TIP3    H139356   0.082   0.789   4.314
13139TIP3    H239357   0.125   0.934   4.308
13140TIP3   OH239358   8.483   0.780   5.097
13140TIP3    H139359   8.441   0.852   5.144
13140TIP3    H239360   8.531   0.823   5.026
13141TIP3   OH239361   0.747   0.170   4.732
13141TIP3    H139362   0.704   0.128   4.806
13141TIP3    H239363   0.771   0.257   4.764
13142TIP3   OH239364   8.234   0.131   5.102
13142TIP3    H139365   8.287   0.207   5.128
13142TIP3    H239366   8.283   0.090   5.031
13143TIP3   OH239367   8.333   0.984   5.207
13143TIP3    H139368   8.324   1.061   5.152
13143TIP3    H239369   8.253   0.934   5.192
13144TIP3   OH239370   7.718   0.567   4.469
13144TIP3    H139371   7.678   0.603   4.390
13144TIP3    H239372   7.747   0.645   4.518
13145TIP3   OH239373   0.874   0.078   5.060
13145TIP3    H139374   0.792   0.097   5.014
13145TIP3    H239375   0.941   0.125   5.011
13146TIP3   OH239376   5.862   7.754   5.044
13146TIP3    H139377   5.859   7.662   5.070
13146TIP3    H239378   5.785   7.793   5.086
13147TIP3   OH239379   0.510   0.982   4.115
13147TIP3    H139380   0.457   0.931   4.176
13147TIP3    H239381   0.600   0.972   4.148
13148TIP3   OH239382   0.123   0.494   4.303
13148TIP3    H139383   0.040   0.537   4.284
13148TIP3    H239384   0.164   0.482   4.217
13149TIP3   OH239385   0.092   0.283   3.999
13149TIP3    H139386   0.157   0.339   4.042
13149TIP3    H239387   0.144   0.218   3.952
13150TIP3   OH239388   0.439   0.534   4.296
13150TIP3    H139389   0.395   0.557   4.379
13150TIP3    H239390   0.524   0.499   4.323
13151TIP3   OH239391   8.237   0.574   4.667
13151TIP3    H139392   8.198   0.511   4.606
13151TIP3    H239393   8.311   0.527   4.704
13152TIP3   OH239394   8.368   0.968   4.829
13152TIP3    H139395   8.365   0.947   4.736
13152TIP3    H239396   8.458   0.948   4.856
13153TIP3   OH239397   8.333   0.560   5.031
13153TIP3    H139398   8.376   0.525   4.953
13153TIP3    H239399   8.386   0.636   5.055
13154TIP3   OH239400   8.533   1.118   5.473
13154TIP3    H139401   8.459   1.178   5.464
13154TIP3    H239402   8.493   1.033   5.495
13155TIP3   OH239403   0.295   0.443   4.086
13155TIP3    H139404   0.353   0.490   4.145
13155TIP3    H239405   0.330   0.461   3.999
13156TIP3   OH239406   8.251   0.661   5.489
13156TIP3    H139407   8.266   0.725   5.559
13156TIP3    H239408   8.162   0.631   5.503
13157TIP3   OH239409   6.491   7.689   4.147
13157TIP3    H139410   6.411   7.707   4.196
13157TIP3    H239411   6.503   7.767   4.092
13158TIP3   OH239412   8.112   0.405   4.487
13158TIP3    H139413   8.045   0.448   4.433
13158TIP3    H239414   8.071   0.324   4.516
13159TIP3   OH239415   7.887   0.755   5.398
13159TIP3    H139416   7.817   0.723   5.341
13159TIP3    H239417   7.925   0.676   5.436
13160TIP3   OH239418   8.079   0.904   5.285
13160TIP3    H139419   8.127   0.915   5.368
13160TIP3    H239420   8.006   0.847   5.307
13161TIP3   OH239421   5.621   7.828   5.176
13161TIP3    H139422   5.538   7.787   5.151
13161TIP3    H239423   5.596   7.905   5.227
13162TIP3   OH239424   6.166   7.945   5.374
13162TIP3    H139425   6.233   7.911   5.433
13162TIP3    H239426   6.083   7.927   5.420
13163TIP3   OH239427   0.395   0.460   3.835
13163TIP3    H139428   0.362   0.441   3.747
13163TIP3    H239429   0.470   0.517   3.820
13164TIP3   OH239430   5.772   7.876   4.149
13164TIP3    H139431   5.739   7.879   4.238
13164TIP3    H239432   5.737   7.794   4.114
13165TIP3   OH239433   8.394   0.338   5.182
13165TIP3    H139434   8.369   0.359   5.272
13165TIP3    H239435   8.373   0.418   5.133
13166TIP3   OH239436   8.278   0.226   4.709
13166TIP3    H139437   8.189   0.200   4.735
13166TIP3    H239438   8.289   0.190   4.621
13167TIP3   OH239439   0.264   0.299   4.439
13167TIP3    H139440   0.213   0.367   4.396
13167TIP3    H239441   0.324   0.267   4.372
13168TIP3   OH239442   0.422   0.315   4.672
13168TIP3    H139443   0.356   0.339   4.607
13168TIP3    H239444   0.470   0.243   4.631
13169TIP3   OH239445   8.216   0.350   5.411
13169TIP3    H139446   8.281   0.401   5.461
13169TIP3    H239447   8.207   0.268   5.460
13170TIP3   OH239448   5.435   7.856   4.120
13170TIP3    H139449   5.427   7.857   4.215
13170TIP3    H239450   5.358   7.904   4.088
13171TIP3   OH239451   4.986   7.899   4.991
13171TIP3    H139452   5.058   7.927   5.047
13171TIP3    H239453   5.028   7.869   4.911
13172TIP3   OH239454   4.914   7.869   4.501
13172TIP3    H139455   4.957   7.905   4.423
13172TIP3    H239456   4.852   7.938   4.527
13173TIP3   OH239457   0.378   0.555   5.098
13173TIP3    H139458   0.437   0.508   5.039
13173TIP3    H239459   0.381   0.504   5.180
13174TIP3   OH239460   0.137   0.023   4.766
13174TIP3    H139461   0.058   0.024   4.821
13174TIP3    H239462   0.209   0.015   4.828
13175TIP3   OH239463   8.043   0.101   4.770
13175TIP3    H139464   7.953   0.104   4.737
13175TIP3    H239465   8.072   0.012   4.751
13176TIP3   OH239466   8.296   0.098   4.468
13176TIP3    H139467   8.389   0.111   4.454
13176TIP3    H239468   8.255   0.118   4.384
13177TIP3   OH239469   0.596   0.116   4.973
13177TIP3    H139470   0.578   0.130   5.066
13177TIP3    H239471   0.527   0.056   4.943
13178TIP3   OH239472   8.164   0.125   4.229
13178TIP3    H139473   8.098   0.079   4.178
13178TIP3    H239474   8.221   0.166   4.164
13179TIP3   OH239475   8.281   0.841   5.698
13179TIP3    H139476   8.284   0.909   5.632
13179TIP3    H239477   8.218   0.873   5.763
13180TIP3   OH239478   0.184   0.348   4.865
13180TIP3    H139479   0.256   0.302   4.821
13180TIP3    H239480   0.186   0.315   4.955
13181TIP3   OH239481   5.362   7.875   4.748
13181TIP3    H139482   5.329   7.801   4.798
13181TIP3    H239483   5.399   7.837   4.669
13182TIP3   OH239484   0.162   0.278   5.137
13182TIP3    H139485   0.073   0.310   5.155
13182TIP3    H239486   0.218   0.331   5.194
13183TIP3   OH239487   8.399   0.649   4.260
13183TIP3    H139488   8.330   0.587   4.238
13183TIP3    H239489   8.369   0.692   4.340
13184TIP3   OH239490   6.027   7.972   4.144
13184TIP3    H139491   5.934   7.952   4.142
13184TIP3    H239492   6.031   8.067   4.158
13185TIP3   OH239493   0.425   0.218   4.223
13185TIP3    H139494   0.520   0.218   4.234
13185TIP3    H239495   0.407   0.293   4.166
13186TIP3   OH239496   8.090   0.591   4.899
13186TIP3    H139497   8.127   0.588   4.811
13186TIP3    H239498   8.159   0.557   4.955
13187TIP3   OH239499   8.493   0.815   4.067
13187TIP3    H139500   8.480   0.900   4.109
13187TIP3    H239501   8.463   0.752   4.133
13188TIP3   OH239502   7.996   0.564   5.556
13188TIP3    H139503   8.025   0.548   5.646
13188TIP3    H239504   7.926   0.501   5.542
13189TIP3   OH239505   0.826   0.300   4.052
13189TIP3    H139506   0.771   0.257   3.987
13189TIP3    H239507   0.878   0.362   4.001
13190TIP3   OH239508   0.472   0.751   4.790
13190TIP3    H139509   0.399   0.688   4.795
13190TIP3    H239510   0.549   0.697   4.771
13191TIP3   OH239511   7.790   0.270   4.265
13191TIP3    H139512   7.843   0.350   4.274
13191TIP3    H239513   7.720   0.281   4.329
13192TIP3   OH239514   8.304   0.766   4.485
13192TIP3    H139515   8.254   0.844   4.511
13192TIP3    H239516   8.283   0.701   4.552
13193TIP3   OH239517   0.372   0.937   4.973
13193TIP3    H139518   0.420   0.927   5.055
13193TIP3    H239519   0.418   0.880   4.911
13194TIP3   OH239520   0.329   0.835   3.817
13194TIP3    H139521   0.368   0.771   3.878
13194TIP3    H239522   0.237   0.810   3.812
13195TIP3   OH239523   8.186   0.098   5.538
13195TIP3    H139524   8.090   0.100   5.541
13195TIP3    H239525   8.210   0.039   5.610
13196TIP3   OH239526   0.493   0.701   4.006
13196TIP3    H139527   0.444   0.743   4.076
13196TIP3    H239528   0.564   0.762   3.985
13197TIP3   OH239529   8.174   0.788   3.940
13197TIP3    H139530   8.193   0.713   3.884
13197TIP3    H239531   8.242   0.785   4.008
13198TIP3   OH239532   7.927   0.505   4.317
13198TIP3    H139533   7.853   0.523   4.375
13198TIP3    H239534   7.935   0.584   4.264
13199TIP3   OH239535   0.544   0.167   5.243
13199TIP3    H139536   0.622   0.194   5.292
13199TIP3    H239537   0.518   0.085   5.284
13200TIP3   OH239538   6.084   7.928   4.416
13200TIP3    H139539   6.066   7.946   4.323
13200TIP3    H239540   6.128   8.006   4.448
13201TIP3   OH239541   0.076   0.108   4.508
13201TIP3    H139542   0.141   0.175   4.483
13201TIP3    H239543   0.094   0.091   4.600
13202TIP3   OH239544   0.363   0.379   5.308
13202TIP3    H139545   0.361   0.388   5.404
13202TIP3    H239546   0.420   0.304   5.292
13203TIP3   OH239547   5.903   7.828   4.599
13203TIP3    H139548   5.880   7.905   4.651
13203TIP3    H239549   5.970   7.858   4.538
13204TIP3   OH239550   5.415   7.841   4.398
13204TIP3    H139551   5.404   7.931   4.431
13204TIP3    H239552   5.510   7.825   4.404
13205TIP3   OH239553   0.628   0.517   4.672
13205TIP3    H139554   0.554   0.458   4.682
13205TIP3    H239555   0.692   0.488   4.737
13206TIP3   OH239556   7.936   0.751   4.175
13206TIP3    H139557   7.938   0.836   4.132
13206TIP3    H239558   7.958   0.688   4.106
13207TIP3   OH239559   7.808  -0.004   4.276
13207TIP3    H139560   7.822   0.090   4.286
13207TIP3    H239561   7.747  -0.012   4.204
13208TIP3   OH239562   5.360   7.728   5.142
13208TIP3    H139563   5.336   7.715   5.051
13208TIP3    H239564   5.344   7.644   5.184
13209TIP3   OH239565   8.030   0.818   5.833
13209TIP3    H139566   8.075   0.736   5.814
13209TIP3    H239567   7.973   0.832   5.758
13210TIP3   OH239568   8.020   0.529   4.022
13210TIP3    H139569   8.073   0.501   4.097
13210TIP3    H239570   8.083   0.540   3.951
13211TIP3   OH239571   0.048   0.741   3.808
13211TIP3    H139572   0.018   0.765   3.896
13211TIP3    H239573   0.030   0.647   3.801
13212TIP3   OH239574   8.166   0.579   5.791
13212TIP3    H139575   8.253   0.604   5.759
13212TIP3    H239576   8.183   0.517   5.862
13213TIP3   OH239577   8.212   0.455   4.211
13213TIP3    H139578   8.181   0.416   4.293
13213TIP3    H239579   8.250   0.382   4.162
13214TIP3   OH239580   8.460   0.500   5.420
13214TIP3    H139581   8.400   0.572   5.443
13214TIP3    H239582   8.527   0.542   5.366
13215TIP3   OH239583   8.323   0.259   4.054
13215TIP3    H139584   8.294   0.258   3.963
13215TIP3    H239585   8.419   0.262   4.048
13216TIP3   OH239586   0.601   0.588   3.696
13216TIP3    H139587   0.585   0.541   3.613
13216TIP3    H239588   0.589   0.680   3.673
13217TIP3   OH239589   0.079   0.302   5.561
13217TIP3    H139590   0.094   0.227   5.503
13217TIP3    H239591   0.043   0.370   5.504
13218TIP3   OH239592   0.111   0.105   5.363
13218TIP3    H139593   0.137   0.144   5.279
13218TIP3    H239594   0.021   0.078   5.349
13219TIP3   OH239595   0.136   0.610   5.244
13219TIP3    H139596   0.223   0.608   5.204
13219TIP3    H239597   0.087   0.675   5.194
13220TIP3   OH239598   8.462   0.405   5.789
13220TIP3    H139599   8.400   0.336   5.811
13220TIP3    H239600   8.499   0.378   5.705
13221TIP3   OH239601   5.903   7.885   5.448
13221TIP3    H139602   5.860   7.966   5.422
13221TIP3    H239603   5.835   7.818   5.439
13222TIP3   OH239604   0.348   0.366   5.588
13222TIP3    H139605   0.374   0.374   5.679
13222TIP3    H239606   0.255   0.343   5.590
13223TIP3   OH239607   8.314   0.180   5.858
13223TIP3    H139608   8.318   0.092   5.822
13223TIP3    H239609   8.355   0.173   5.945
13224TIP3   OH239610   6.001   7.883   5.704
13224TIP3    H139611   6.067   7.815   5.697
13224TIP3    H239612   5.956   7.882   5.619
13225TIP3   OH239613   0.309   0.046   5.910
13225TIP3    H139614   0.336  -0.008   5.835
13225TIP3    H239615   0.297   0.134   5.873
13226TIP3   OH239616   7.649   0.624   4.202
13226TIP3    H139617   7.685   0.687   4.141
13226TIP3    H239618   7.620   0.551   4.147
13227TIP3   OH239619   0.781   0.897   4.163
13227TIP3    H139620   0.874   0.918   4.157
13227TIP3    H239621   0.775   0.837   4.238
13228TIP3   OH239622   0.789   0.693   4.353
13228TIP3    H139623   0.737   0.627   4.307
13228TIP3    H239624   0.836   0.644   4.420
13229TIP3   OH239625   0.798   0.521   3.867
13229TIP3    H139626   0.727   0.528   3.803
13229TIP3    H239627   0.788   0.599   3.922
13230TIP3   OH239628   0.669   0.202   3.850
13230TIP3    H139629   0.643   0.238   3.765
13230TIP3    H239630   0.663   0.107   3.839
13231TIP3   OH239631   0.659   0.439   4.407
13231TIP3    H139632   0.708   0.356   4.399
13231TIP3    H239633   0.675   0.466   4.497
13232TIP3   OH239634   7.840   0.537   5.168
13232TIP3    H139635   7.827   0.497   5.082
13232TIP3    H239636   7.933   0.529   5.184
13233TIP3   OH239637   6.305   7.946   3.813
13233TIP3    H139638   6.374   7.917   3.873
13233TIP3    H239639   6.227   7.900   3.841
13234TIP3   OH239640   0.710   0.188   4.281
13234TIP3    H139641   0.751   0.102   4.289
13234TIP3    H239642   0.748   0.225   4.201
13235TIP3   OH239643   0.835   0.424   4.830
13235TIP3    H139644   0.895   0.492   4.801
13235TIP3    H239645   0.843   0.425   4.926
13236TIP3   OH239646   8.051   0.237   5.801
13236TIP3    H139647   8.146   0.240   5.817
13236TIP3    H239648   8.023   0.154   5.840
13237TIP3   OH239649   6.485   7.954   4.324
13237TIP3    H139650   6.530   7.940   4.407
13237TIP3    H239651   6.419   7.885   4.320
13238TIP3   OH239652   5.194   7.954   5.169
13238TIP3    H139653   5.246   7.875   5.177
13238TIP3    H239654   5.258   8.024   5.152
13239TIP3   OH239655   7.815   0.219   5.219
13239TIP3    H139656   7.862   0.208   5.137
13239TIP3    H239657   7.869   0.280   5.270
13240TIP3   OH239658   6.531   7.894   3.964
13240TIP3    H139659   6.575   7.830   3.907
13240TIP3    H239660   6.586   7.972   3.958
13241TIP3   OH239661   4.969   7.728   4.727
13241TIP3    H139662   4.882   7.723   4.766
13241TIP3    H239663   4.958   7.786   4.651
13242TIP3   OH239664   5.196   7.826   5.556
13242TIP3    H139665   5.144   7.806   5.634
13242TIP3    H239666   5.131   7.853   5.491
13243TIP3   OH239667   6.821   8.004   5.238
13243TIP3    H139668   6.728   7.982   5.229
13243TIP3    H239669   6.864   7.919   5.246
13244TIP3   OH239670   6.037   7.950   4.900
13244TIP3    H139671   5.993   7.879   4.948
13244TIP3    H239672   6.103   7.906   4.848
13245TIP3   OH239673   6.529   7.852   4.819
13245TIP3    H139674   6.569   7.884   4.738
13245TIP3    H239675   6.434   7.861   4.804
13246TIP3   OH239676   6.633   7.889   4.570
13246TIP3    H139677   6.703   7.831   4.540
13246TIP3    H239678   6.658   7.976   4.539
13247TIP3   OH239679   5.279   7.656   4.887
13247TIP3    H139680   5.191   7.621   4.905
13247TIP3    H239681   5.335   7.578   4.886
13248TIP3   OH239682   5.086   7.532   4.553
13248TIP3    H139683   5.114   7.585   4.479
13248TIP3    H239684   5.053   7.595   4.617
13249TIP3   OH239685   5.746   7.687   4.788
13249TIP3    H139686   5.798   7.734   4.723
13249TIP3    H239687   5.782   7.715   4.872
13250TIP3   OH239688   6.252   7.833   4.764
13250TIP3    H139689   6.261   7.797   4.676
13250TIP3    H239690   6.250   7.756   4.822
13251TIP3   OH239691   6.294   7.759   4.331
13251TIP3    H139692   6.214   7.807   4.355
13251TIP3    H239693   6.284   7.674   4.373
13252TIP3   OH239694   5.201   7.674   4.317
13252TIP3    H139695   5.247   7.616   4.257
13252TIP3    H239696   5.269   7.731   4.352
13253TIP3   OH239697   5.691   7.870   4.414
13253TIP3    H139698   5.750   7.818   4.468
13253TIP3    H239699   5.707   7.961   4.441
13254TIP3   OH239700   5.492   7.920   5.787
13254TIP3    H139701   5.455   7.849   5.840
13254TIP3    H239702   5.583   7.927   5.815
13255TIP3   OH239703   5.727   7.933   5.926
13255TIP3    H139704   5.819   7.956   5.910
13255TIP3    H239705   5.731   7.854   5.980
13256TIP3   OH239706   0.978   0.427   4.252
13256TIP3    H139707   0.977   0.508   4.202
13256TIP3    H239708   0.920   0.368   4.204
13257TIP3   OH239709   1.114   0.756   4.354
13257TIP3    H139710   1.126   0.678   4.409
13257TIP3    H239711   1.202   0.792   4.344
13258TIP3   OH239712   1.621   0.253   4.355
13258TIP3    H139713   1.669   0.263   4.273
13258TIP3    H239714   1.552   0.189   4.335
13259TIP3   OH239715   1.207   0.521   4.455
13259TIP3    H139716   1.277   0.563   4.506
13259TIP3    H239717   1.253   0.459   4.399
13260TIP3   OH239718   0.952   0.992   3.937
13260TIP3    H139719   0.951   0.976   3.842
13260TIP3    H239720   0.870   1.039   3.954
13261TIP3   OH239721   1.332   0.566   3.870
13261TIP3    H139722   1.262   0.630   3.876
13261TIP3    H239723   1.326   0.516   3.951
13262TIP3   OH239724   1.618   0.433   4.127
13262TIP3    H139725   1.533   0.403   4.161
13262TIP3    H239726   1.600   0.518   4.087
13263TIP3   OH239727   1.555   0.080   3.570
13263TIP3    H139728   1.547   0.070   3.665
13263TIP3    H239729   1.485   0.140   3.547
13264TIP3   OH239730   1.033   0.097   4.443
13264TIP3    H139731   1.014   0.173   4.499
13264TIP3    H239732   1.050   0.135   4.357
13265TIP3   OH239733   1.027   0.107   3.934
13265TIP3    H139734   1.117   0.088   3.959
13265TIP3    H239735   1.000   0.178   3.991
13266TIP3   OH239736   1.380   0.395   4.296
13266TIP3    H139737   1.357   0.367   4.207
13266TIP3    H239738   1.397   0.314   4.344
13267TIP3   OH239739   1.434   0.320   3.768
13267TIP3    H139740   1.361   0.294   3.713
13267TIP3    H239741   1.434   0.416   3.766
13268TIP3   OH239742   1.481   0.090   4.202
13268TIP3    H139743   1.450   0.004   4.173
13268TIP3    H239744   1.556   0.109   4.146
13269TIP3   OH239745   1.016   0.501   3.708
13269TIP3    H139746   1.066   0.569   3.753
13269TIP3    H239747   0.936   0.491   3.761
13270TIP3   OH239748   1.522   0.083   3.855
13270TIP3    H139749   1.503   0.172   3.826
13270TIP3    H239750   1.618   0.079   3.860
13271TIP3   OH239751   1.147   0.260   3.729
13271TIP3    H139752   1.094   0.339   3.730
13271TIP3    H239753   1.093   0.194   3.773
13272TIP3   OH239754   7.005   7.912   4.702
13272TIP3    H139755   7.029   7.914   4.609
13272TIP3    H239756   7.069   7.853   4.741
13273TIP3   OH239757   0.919   0.874   3.682
13273TIP3    H139758   0.950   0.951   3.634
13273TIP3    H239759   0.900   0.809   3.614
13274TIP3   OH239760   1.261   0.149   4.747
13274TIP3    H139761   1.270   0.055   4.730
13274TIP3    H239762   1.350   0.178   4.768
13275TIP3   OH239763   1.167   0.459   4.722
13275TIP3    H139764   1.148   0.497   4.636
13275TIP3    H239765   1.215   0.527   4.769
13276TIP3   OH239766   6.747   7.946   4.182
13276TIP3    H139767   6.662   7.941   4.226
13276TIP3    H239768   6.770   8.038   4.185
13277TIP3   OH239769   1.316   0.070   5.032
13277TIP3    H139770   1.269   0.048   5.112
13277TIP3    H239771   1.248   0.083   4.966
13278TIP3   OH239772   7.032   7.900   4.426
13278TIP3    H139773   6.946   7.858   4.429
13278TIP3    H239774   7.094   7.827   4.425
13279TIP3   OH239775   6.842   7.764   4.000
13279TIP3    H139776   6.864   7.813   3.921
13279TIP3    H239777   6.804   7.829   4.059
13280TIP3   OH239778   1.863   0.036   4.319
13280TIP3    H139779   1.875   0.043   4.224
13280TIP3    H239780   1.909  -0.044   4.343
13281TIP3   OH239781   6.967   7.896   3.763
13281TIP3    H139782   7.018   7.836   3.709
13281TIP3    H239783   7.031   7.952   3.806
13282TIP3   OH239784   1.795   0.113   3.813
13282TIP3    H139785   1.859   0.045   3.795
13282TIP3    H239786   1.846   0.186   3.849
13283TIP3   OH239787   7.393   5.738   1.109
13283TIP3    H139788   7.430   5.779   1.030
13283TIP3    H239789   7.468   5.695   1.150
13284TIP3   OH239790   7.033   6.017   1.032
13284TIP3    H139791   7.057   5.928   1.008
13284TIP3    H239792   7.092   6.040   1.104
13285TIP3   OH239793   7.187   5.154   1.206
13285TIP3    H139794   7.141   5.091   1.150
13285TIP3    H239795   7.276   5.119   1.213
13286TIP3   OH239796   7.221   5.660   1.305
13286TIP3    H139797   7.224   5.700   1.392
13286TIP3    H239798   7.309   5.673   1.270
13287TIP3   OH239799   7.426   6.093   0.952
13287TIP3    H139800   7.416   6.151   0.877
13287TIP3    H239801   7.362   6.127   1.016
13288TIP3   OH239802   6.592   5.691   1.080
13288TIP3    H139803   6.615   5.712   1.171
13288TIP3    H239804   6.665   5.637   1.049
13289TIP3   OH239805   7.101   5.746   1.021
13289TIP3    H139806   7.136   5.710   1.102
13289TIP3    H239807   7.176   5.790   0.980
13290TIP3   OH239808   7.394   5.224   0.966
13290TIP3    H139809   7.489   5.213   0.975
13290TIP3    H239810   7.381   5.318   0.961
13291TIP3   OH239811   7.733   5.256   1.245
13291TIP3    H139812   7.656   5.212   1.210
13291TIP3    H239813   7.709   5.278   1.335
13292TIP3   OH239814   7.524   6.210   1.334
13292TIP3    H139815   7.497   6.123   1.302
13292TIP3    H239816   7.497   6.270   1.264
13293TIP3   OH239817   0.384   5.646   1.265
13293TIP3    H139818   0.351   5.725   1.223
13293TIP3    H239819   0.322   5.578   1.241
13294TIP3   OH239820   0.631   5.806   1.299
13294TIP3    H139821   0.545   5.780   1.332
13294TIP3    H239822   0.650   5.889   1.342
13295TIP3   OH239823   0.306   6.358   1.344
13295TIP3    H139824   0.341   6.286   1.292
13295TIP3    H239825   0.304   6.324   1.433
13296TIP3   OH239826   0.287   5.844   1.112
13296TIP3    H139827   0.254   5.817   1.026
13296TIP3    H239828   0.238   5.924   1.131
13297TIP3   OH239829   7.785   5.605   1.202
13297TIP3    H139830   7.696   5.573   1.215
13297TIP3    H239831   7.779   5.700   1.212
13298TIP3   OH239832   0.686   6.069   1.377
13298TIP3    H139833   0.639   6.110   1.450
13298TIP3    H239834   0.731   6.142   1.334
13299TIP3   OH239835   0.421   6.192   1.147
13299TIP3    H139836   0.472   6.112   1.134
13299TIP3    H239837   0.480   6.263   1.123
13300TIP3   OH239838   0.570   5.972   1.078
13300TIP3    H139839   0.538   5.909   1.014
13300TIP3    H239840   0.592   5.919   1.155
13301TIP3   OH239841   0.224   5.478   1.102
13301TIP3    H139842   0.141   5.520   1.078
13301TIP3    H239843   0.271   5.468   1.019
13302TIP3   OH239844   0.196   5.256   0.800
13302TIP3    H139845   0.263   5.313   0.839
13302TIP3    H239846   0.245   5.182   0.765
13303TIP3   OH239847   0.553   5.570   1.056
13303TIP3    H139848   0.510   5.589   1.139
13303TIP3    H239849   0.614   5.499   1.075
13304TIP3   OH239850   0.393   6.153   1.566
13304TIP3    H139851   0.464   6.217   1.559
13304TIP3    H239852   0.432   6.079   1.611
13305TIP3   OH239853   0.400   5.423   0.886
13305TIP3    H139854   0.456   5.483   0.935
13305TIP3    H239855   0.429   5.433   0.795
13306TIP3   OH239856   0.165   6.087   1.162
13306TIP3    H139857   0.251   6.128   1.168
13306TIP3    H239858   0.109   6.154   1.123
13307TIP3   OH239859   8.234   5.333   1.259
13307TIP3    H139860   8.168   5.401   1.245
13307TIP3    H239861   8.247   5.332   1.354
13308TIP3   OH239862   0.736   6.016   0.507
13308TIP3    H139863   0.740   6.109   0.488
13308TIP3    H239864   0.822   5.982   0.480
13309TIP3   OH239865   0.071   6.320   0.998
13309TIP3    H139866  -0.003   6.268   0.967
13309TIP3    H239867   0.034   6.407   1.013
13310TIP3   OH239868   8.058   6.167   1.435
13310TIP3    H139869   8.068   6.080   1.476
13310TIP3    H239870   8.143   6.183   1.393
13311TIP3   OH239871   0.265   6.232   0.611
13311TIP3    H139872   0.317   6.160   0.576
13311TIP3    H239873   0.295   6.241   0.702
13312TIP3   OH239874   0.313   6.272   0.883
13312TIP3    H139875   0.225   6.286   0.918
13312TIP3    H239876   0.361   6.232   0.956
13313TIP3   OH239877   0.488   5.446   0.634
13313TIP3    H139878   0.449   5.416   0.551
13313TIP3    H239879   0.578   5.467   0.612
13314TIP3   OH239880   0.336   5.265   1.233
13314TIP3    H139881   0.291   5.344   1.203
13314TIP3    H239882   0.392   5.240   1.160
13315TIP3   OH239883   8.461   5.039   1.266
13315TIP3    H139884   8.456   5.022   1.173
13315TIP3    H239885   8.375   5.073   1.290
13316TIP3   OH239886   8.289   5.059   1.037
13316TIP3    H139887   8.213   5.027   0.989
13316TIP3    H239888   8.338   5.110   0.972
13317TIP3   OH239889   8.479   5.609   1.038
13317TIP3    H139890   8.416   5.539   1.023
13317TIP3    H239891   8.460   5.639   1.127
13318TIP3   OH239892   0.369   4.985   0.845
13318TIP3    H139893   0.413   4.907   0.879
13318TIP3    H239894   0.381   5.051   0.913
13319TIP3   OH239895   0.463   5.183   1.009
13319TIP3    H139896   0.548   5.142   0.993
13319TIP3    H239897   0.464   5.263   0.956
13320TIP3   OH239898   0.159   5.743   0.882
13320TIP3    H139899   0.125   5.832   0.875
13320TIP3    H239900   0.094   5.696   0.934
13321TIP3   OH239901   0.692   6.070   0.777
13321TIP3    H139902   0.648   6.001   0.827
13321TIP3    H239903   0.697   6.036   0.688
13322TIP3   OH239904   8.296   5.936   1.343
13322TIP3    H139905   8.335   6.016   1.376
13322TIP3    H239906   8.255   5.961   1.261
13323TIP3   OH239907   7.941   5.164   1.064
13323TIP3    H139908   7.967   5.251   1.035
13323TIP3    H239909   7.855   5.177   1.104
13324TIP3   OH239910   8.429   5.705   1.286
13324TIP3    H139911   8.381   5.786   1.303
13324TIP3    H239912   8.492   5.698   1.357
13325TIP3   OH239913   8.288   6.216   1.292
13325TIP3    H139914   8.252   6.169   1.216
13325TIP3    H239915   8.293   6.307   1.264
13326TIP3   OH239916   0.425   5.813   0.656
13326TIP3    H139917   0.471   5.795   0.738
13326TIP3    H239918   0.343   5.764   0.663
13327TIP3   OH239919   0.766   6.288   0.480
13327TIP3    H139920   0.795   6.350   0.412
13327TIP3    H239921   0.689   6.330   0.519
13328TIP3   OH239922   0.590   5.771   0.876
13328TIP3    H139923   0.562   5.702   0.937
13328TIP3    H239924   0.684   5.757   0.865
13329TIP3   OH239925   8.291   5.777   0.647
13329TIP3    H139926   8.305   5.684   0.626
13329TIP3    H239927   8.284   5.779   0.742
13330TIP3   OH239928   8.271   5.787   0.919
13330TIP3    H139929   8.341   5.748   0.971
13330TIP3    H239930   8.246   5.866   0.967
13331TIP3   OH239931   8.042   5.515   1.204
13331TIP3    H139932   7.947   5.527   1.207
13331TIP3    H239933   8.076   5.600   1.174
13332TIP3   OH239934   0.069   5.995   0.860
13332TIP3    H139935  -0.005   6.041   0.898
13332TIP3    H239936   0.098   6.050   0.787
13333TIP3   OH239937   0.231   5.011   1.206
13333TIP3    H139938   0.255   5.102   1.186
13333TIP3    H239939   0.138   5.016   1.229
13334TIP3   OH239940   8.363   6.160   0.930
13334TIP3    H139941   8.312   6.203   0.861
13334TIP3    H239942   8.297   6.115   0.983
13335TIP3   OH239943   7.998   5.678   0.944
13335TIP3    H139944   8.043   5.763   0.953
13335TIP3    H239945   8.057   5.626   0.890
13336TIP3   OH239946   7.977   4.896   0.999
13336TIP3    H139947   7.969   4.982   1.042
13336TIP3    H239948   7.907   4.844   1.037
13337TIP3   OH239949   0.770   6.351   1.328
13337TIP3    H139950   0.698   6.399   1.289
13337TIP3    H239951   0.847   6.406   1.313
13338TIP3   OH239952   7.794   5.865   1.308
13338TIP3    H139953   7.782   5.957   1.334
13338TIP3    H239954   7.888   5.856   1.294
13339TIP3   OH239955   8.461   5.982   0.567
13339TIP3    H139956   8.409   5.911   0.606
13339TIP3    H239957   8.532   5.938   0.521
13340TIP3   OH239958   0.392   6.026   0.487
13340TIP3    H139959   0.421   5.956   0.546
13340TIP3    H239960   0.450   6.018   0.411
13341TIP3   OH239961   8.142   5.499   0.798
13341TIP3    H139962   8.191   5.463   0.871
13341TIP3    H239963   8.203   5.499   0.725
13342TIP3   OH239964   0.164   5.697   0.614
13342TIP3    H139965   0.151   5.706   0.708
13342TIP3    H239966   0.156   5.603   0.597
13343TIP3   OH239967   8.302   5.403   1.001
13343TIP3    H139968   8.280   5.366   1.086
13343TIP3    H239969   8.346   5.331   0.955
13344TIP3   OH239970   8.431   5.210   0.857
13344TIP3    H139971   8.396   5.208   0.768
13344TIP3    H239972   8.525   5.222   0.846
13345TIP3   OH239973   0.723   5.529   0.512
13345TIP3    H139974   0.707   5.482   0.430
13345TIP3    H239975   0.694   5.619   0.494
13346TIP3   OH239976   8.241   6.292   0.727
13346TIP3    H139977   8.332   6.282   0.701
13346TIP3    H239978   8.201   6.342   0.655
13347TIP3   OH239979   7.747   5.653   0.850
13347TIP3    H139980   7.834   5.663   0.889
13347TIP3    H239981   7.736   5.559   0.836
13348TIP3   OH239982   6.248   3.633   0.248
13348TIP3    H139983   6.200   3.714   0.234
13348TIP3    H239984   6.338   3.660   0.268
13349TIP3   OH239985   0.932   6.578   1.294
13349TIP3    H139986   0.907   6.640   1.362
13349TIP3    H239987   0.895   6.614   1.214
13350TIP3   OH239988   0.865   5.720   0.879
13350TIP3    H139989   0.914   5.784   0.828
13350TIP3    H239990   0.928   5.688   0.944
13351TIP3   OH239991   0.905   5.500   0.711
13351TIP3    H139992   0.841   5.499   0.640
13351TIP3    H239993   0.877   5.573   0.767
13352TIP3   OH239994   0.716   5.178   0.657
13352TIP3    H139995   0.786   5.222   0.609
13352TIP3    H239996   0.755   5.096   0.688
13353TIP3   OH239997   0.578   6.391   1.049
13353TIP3    H139998   0.620   6.370   0.966
13353TIP3    H239999   0.617   6.474   1.075
13354TIP3   OH240000   0.208   6.482   1.613
13354TIP3    H140001   0.142   6.485   1.543
13354TIP3    H240002   0.159   6.463   1.692
13355TIP3   OH240003   0.458   6.510   1.727
13355TIP3    H140004   0.379   6.488   1.678
13355TIP3    H240005   0.522   6.537   1.661
13356TIP3   OH240006   0.631   6.632   1.546
13356TIP3    H140007   0.632   6.727   1.537
13356TIP3    H240008   0.625   6.599   1.457
13357TIP3   OH240009   7.666   6.104   1.117
13357TIP3    H140010   7.586   6.050   1.123
13357TIP3    H240011   7.696   6.112   1.207
13358TIP3   OH240012  -0.004   6.236   0.660
13358TIP3    H140013   0.088   6.251   0.639
13358TIP3    H240014  -0.023   6.149   0.624
13359TIP3   OH240015   0.705   6.341   0.809
13359TIP3    H140016   0.704   6.246   0.801
13359TIP3    H240017   0.660   6.372   0.731
13360TIP3   OH240018   7.910   6.068   0.741
13360TIP3    H140019   7.815   6.062   0.751
13360TIP3    H240020   7.944   6.050   0.829
13361TIP3   OH240021   1.012   5.898   0.728
13361TIP3    H140022   0.983   5.904   0.637
13361TIP3    H240023   1.025   5.989   0.755
13362TIP3   OH240024   1.831   6.590   0.480
13362TIP3    H140025   1.812   6.564   0.390
13362TIP3    H240026   1.801   6.681   0.486
13363TIP3   OH240027   1.241   6.441   0.756
13363TIP3    H140028   1.261   6.396   0.839
13363TIP3    H240029   1.156   6.407   0.730
13364TIP3   OH240030   2.027   6.498   0.091
13364TIP3    H140031   2.062   6.430   0.032
13364TIP3    H240032   2.045   6.464   0.179
13365TIP3   OH240033   1.120   5.481   0.543
13365TIP3    H140034   1.161   5.567   0.547
13365TIP3    H240035   1.048   5.486   0.606
13366TIP3   OH240036   1.506   6.448   0.680
13366TIP3    H140037   1.412   6.448   0.699
13366TIP3    H240038   1.531   6.541   0.685
13367TIP3   OH240039   1.591   6.049   0.154
13367TIP3    H140040   1.592   5.958   0.125
13367TIP3    H240041   1.543   6.047   0.237
13368TIP3   OH240042   1.490   6.082   0.416
13368TIP3    H140043   1.464   6.063   0.506
13368TIP3    H240044   1.505   6.177   0.415
13369TIP3   OH240045   1.197   5.739   0.585
13369TIP3    H140046   1.135   5.785   0.641
13369TIP3    H240047   1.283   5.770   0.614
13370TIP3   OH240048   1.803   6.226   0.361
13370TIP3    H140049   1.718   6.270   0.370
13370TIP3    H240050   1.858   6.289   0.315
13371TIP3   OH240051   1.556   6.346   0.429
13371TIP3    H140052   1.527   6.415   0.369
13371TIP3    H240053   1.542   6.383   0.516
13372TIP3   OH240054   1.233   5.974   0.373
13372TIP3    H140055   1.305   6.037   0.368
13372TIP3    H240056   1.270   5.893   0.340
13373TIP3   OH240057   1.082   5.213   0.615
13373TIP3    H140058   1.096   5.305   0.595
13373TIP3    H240059   1.156   5.168   0.573
13374TIP3   OH240060   1.098   6.142   0.808
13374TIP3    H140061   1.044   6.212   0.770
13374TIP3    H240062   1.187   6.177   0.807
13375TIP3   OH240063   1.730   6.265   0.061
13375TIP3    H140064   1.678   6.193   0.096
13375TIP3    H240065   1.804   6.222   0.018
13376TIP3   OH240066   7.792   2.291   6.877
13376TIP3    H140067   7.841   2.233   6.935
13376TIP3    H240068   7.846   2.299   6.799
13377TIP3   OH240069   1.386   5.772   0.262
13377TIP3    H140070   1.419   5.727   0.339
13377TIP3    H240071   1.459   5.772   0.200
13378TIP3   OH240072   1.904   6.020   0.094
13378TIP3    H140073   1.843   6.046   0.163
13378TIP3    H240074   1.902   5.924   0.096
13379TIP3   OH240075   1.519   6.553   0.256
13379TIP3    H140076   1.613   6.544   0.241
13379TIP3    H240077   1.486   6.595   0.176
13380TIP3   OH240078   0.982   5.908   0.452
13380TIP3    H140079   1.072   5.936   0.436
13380TIP3    H240080   0.975   5.821   0.413
13381TIP3   OH240081   0.896   6.520   0.890
13381TIP3    H140082   0.839   6.457   0.846
13381TIP3    H240083   0.950   6.466   0.948
13382TIP3   OH240084   1.051   6.372   1.058
13382TIP3    H140085   1.092   6.296   1.099
13382TIP3    H240086   1.118   6.440   1.060
13383TIP3   OH240087   0.998   6.337   0.638
13383TIP3    H140088   0.920   6.290   0.608
13383TIP3    H240089   0.996   6.420   0.591
13384TIP3   OH240090   1.780   6.493   0.209
13384TIP3    H140091   1.860   6.523   0.165
13384TIP3    H240092   1.749   6.419   0.156
13385TIP3   OH240093   1.095   6.316   0.253
13385TIP3    H140094   1.095   6.332   0.347
13385TIP3    H240095   1.174   6.266   0.236
13386TIP3   OH240096   5.288   7.247   1.223
13386TIP3    H140097   5.365   7.284   1.180
13386TIP3    H240098   5.303   7.153   1.223
13387TIP3   OH240099   5.256   7.651   1.157
13387TIP3    H140100   5.254   7.697   1.073
13387TIP3    H240101   5.165   7.654   1.187
13388TIP3   OH240102   6.775   7.135   1.526
13388TIP3    H140103   6.704   7.197   1.507
13388TIP3    H240104   6.730   7.056   1.554
13389TIP3   OH240105   6.970   7.564   1.513
13389TIP3    H140106   6.954   7.471   1.526
13389TIP3    H240107   7.048   7.583   1.566
13390TIP3   OH240108   6.624   7.947   1.471
13390TIP3    H140109   6.677   7.875   1.436
13390TIP3    H240110   6.615   7.925   1.564
13391TIP3   OH240111   6.584   7.325   1.440
13391TIP3    H140112   6.625   7.332   1.354
13391TIP3    H240113   6.558   7.414   1.462
13392TIP3   OH240114   6.768   7.780   1.296
13392TIP3    H140115   6.827   7.706   1.279
13392TIP3    H240116   6.821   7.857   1.275
13393TIP3   OH240117   6.964   7.606   1.223
13393TIP3    H140118   6.957   7.525   1.171
13393TIP3    H240119   6.976   7.576   1.313
13394TIP3   OH240120   6.607   6.946   1.185
13394TIP3    H140121   6.558   6.982   1.260
13394TIP3    H240122   6.689   6.996   1.185
13395TIP3   OH240123   6.587   6.896   0.901
13395TIP3    H140124   6.596   6.922   0.993
13395TIP3    H240125   6.627   6.809   0.897
13396TIP3   OH240126   6.819   7.104   1.250
13396TIP3    H140127   6.836   7.086   1.342
13396TIP3    H240128   6.905   7.104   1.209
13397TIP3   OH240129   6.852   6.920   1.007
13397TIP3    H140130   6.893   6.999   1.043
13397TIP3    H240131   6.838   6.941   0.914
13398TIP3   OH240132   6.566   7.615   1.429
13398TIP3    H140133   6.622   7.653   1.361
13398TIP3    H240134   6.477   7.637   1.402
13399TIP3   OH240135   7.191   6.228   0.884
13399TIP3    H140136   7.141   6.217   0.964
13399TIP3    H240137   7.230   6.315   0.892
13400TIP3   OH240138   7.090   7.580   0.638
13400TIP3    H140139   7.091   7.675   0.621
13400TIP3    H240140   7.181   7.553   0.622
13401TIP3   OH240141   6.483   7.976   1.069
13401TIP3    H140142   6.405   7.951   1.018
13401TIP3    H240143   6.461   8.060   1.109
13402TIP3   OH240144   6.599   7.800   0.756
13402TIP3    H140145   6.652   7.734   0.710
13402TIP3    H240146   6.640   7.807   0.843
13403TIP3   OH240147   6.695   7.815   1.021
13403TIP3    H140148   6.617   7.862   1.050
13403TIP3    H240149   6.740   7.791   1.102
13404TIP3   OH240150   6.834   7.001   0.751
13404TIP3    H140151   6.797   6.984   0.665
13404TIP3    H240152   6.924   7.030   0.733
13405TIP3   OH240153   6.552   6.410   1.047
13405TIP3    H140154   6.530   6.432   1.137
13405TIP3    H240155   6.576   6.318   1.051
13406TIP3   OH240156   6.713   6.738   1.361
13406TIP3    H140157   6.800   6.777   1.356
13406TIP3    H240158   6.667   6.771   1.284
13407TIP3   OH240159   6.216   6.353   1.092
13407TIP3    H140160   6.221   6.337   1.186
13407TIP3    H240161   6.134   6.402   1.080
13408TIP3   OH240162   6.010   6.494   1.224
13408TIP3    H140163   5.940   6.559   1.222
13408TIP3    H240164   6.077   6.532   1.281
13409TIP3   OH240165   6.254   7.171   1.288
13409TIP3    H140166   6.282   7.080   1.298
13409TIP3    H240167   6.212   7.193   1.371
13410TIP3   OH240168   6.774   6.492   0.912
13410TIP3    H140169   6.704   6.440   0.951
13410TIP3    H240170   6.769   6.576   0.957
13411TIP3   OH240171   7.016   6.725   1.091
13411TIP3    H140172   6.998   6.778   1.169
13411TIP3    H240173   6.993   6.781   1.018
13412TIP3   OH240174   6.542   7.358   0.912
13412TIP3    H140175   6.534   7.452   0.924
13412TIP3    H240176   6.548   7.323   1.000
13413TIP3   OH240177   7.309   6.821   0.832
13413TIP3    H140178   7.313   6.787   0.921
13413TIP3    H240179   7.305   6.916   0.842
13414TIP3   OH240180   7.025   7.651   0.902
13414TIP3    H140181   7.001   7.582   0.964
13414TIP3    H240182   7.035   7.606   0.818
13415TIP3   OH240183   6.042   7.729   1.349
13415TIP3    H140184   6.017   7.671   1.421
13415TIP3    H240185   6.112   7.783   1.384
13416TIP3   OH240186   6.789   7.423   0.805
13416TIP3    H140187   6.848   7.417   0.880
13416TIP3    H240188   6.708   7.381   0.835
13417TIP3   OH240189   7.100   7.865   0.621
13417TIP3    H140190   7.161   7.936   0.602
13417TIP3    H240191   7.019   7.910   0.646
13418TIP3   OH240192   6.965   7.397   1.022
13418TIP3    H140193   6.911   7.319   1.027
13418TIP3    H240194   7.055   7.364   1.026
13419TIP3   OH240195   6.165   7.344   0.758
13419TIP3    H140196   6.183   7.262   0.714
13419TIP3    H240197   6.117   7.319   0.838
13420TIP3   OH240198   6.011   7.437   1.186
13420TIP3    H140199   6.041   7.366   1.129
13420TIP3    H240200   6.065   7.512   1.161
13421TIP3   OH240201   6.968   6.562   1.433
13421TIP3    H140202   6.925   6.551   1.348
13421TIP3    H240203   7.048   6.610   1.414
13422TIP3   OH240204   6.485   7.614   0.952
13422TIP3    H140205   6.469   7.660   1.034
13422TIP3    H240206   6.458   7.676   0.884
13423TIP3   OH240207   6.147   7.666   1.108
13423TIP3    H140208   6.186   7.747   1.075
13423TIP3    H240209   6.123   7.686   1.198
13424TIP3   OH240210   5.824   7.216   1.134
13424TIP3    H140211   5.844   7.305   1.105
13424TIP3    H240212   5.908   7.183   1.167
13425TIP3   OH240213   1.400  -0.000   1.594
13425TIP3    H140214   1.359   0.062   1.534
13425TIP3    H240215   1.490  -0.009   1.562
13426TIP3   OH240216   6.328   7.551   0.687
13426TIP3    H140217   6.286   7.471   0.716
13426TIP3    H240218   6.401   7.522   0.633
13427TIP3   OH240219   6.741   7.611   0.621
13427TIP3    H140220   6.771   7.551   0.690
13427TIP3    H240221   6.801   7.596   0.549
13428TIP3   OH240222   5.961   7.115   0.865
13428TIP3    H140223   6.015   7.120   0.944
13428TIP3    H240224   6.023   7.097   0.795
13429TIP3   OH240225   6.452   7.258   0.677
13429TIP3    H140226   6.474   7.278   0.768
13429TIP3    H240227   6.462   7.163   0.670
13430TIP3   OH240228   6.062   6.977   1.156
13430TIP3    H140229   6.126   6.947   1.220
13430TIP3    H240230   6.111   6.982   1.074
13431TIP3   OH240231   6.197   6.695   1.056
13431TIP3    H140232   6.202   6.627   0.989
13431TIP3    H240233   6.282   6.691   1.101
13432TIP3   OH240234   7.076   7.105   0.667
13432TIP3    H140235   7.063   7.053   0.588
13432TIP3    H240236   7.041   7.191   0.645
13433TIP3   OH240237   6.001   7.891   0.870
13433TIP3    H140238   6.059   7.815   0.868
13433TIP3    H240239   6.006   7.928   0.782
13434TIP3   OH240240   5.552   7.191   1.124
13434TIP3    H140241   5.647   7.201   1.115
13434TIP3    H240242   5.533   7.107   1.081
13435TIP3   OH240243   1.678   0.044   1.535
13435TIP3    H140244   1.657   0.124   1.583
13435TIP3    H240245   1.731   0.073   1.462
13436TIP3   OH240246   7.230   7.308   1.006
13436TIP3    H140247   7.289   7.374   0.972
13436TIP3    H240248   7.275   7.272   1.083
13437TIP3   OH240249   7.363   7.161   1.197
13437TIP3    H140250   7.302   7.108   1.247
13437TIP3    H240251   7.428   7.191   1.260
13438TIP3   OH240252   7.366   7.554   1.613
13438TIP3    H140253   7.440   7.495   1.602
13438TIP3    H240254   7.384   7.627   1.553
13439TIP3   OH240255   7.281   7.092   0.842
13439TIP3    H140256   7.208   7.097   0.780
13439TIP3    H240257   7.269   7.168   0.899
13440TIP3   OH240258   7.046   6.763   0.777
13440TIP3    H140259   7.137   6.790   0.786
13440TIP3    H240260   7.051   6.681   0.728
13441TIP3   OH240261   7.203   6.985   1.332
13441TIP3    H140262   7.222   6.894   1.353
13441TIP3    H240263   7.180   7.025   1.416
13442TIP3   OH240264   7.073   6.484   0.813
13442TIP3    H140265   7.164   6.466   0.791
13442TIP3    H240266   7.077   6.538   0.891
13443TIP3   OH240267   7.174   6.693   1.311
13443TIP3    H140268   7.258   6.650   1.330
13443TIP3    H240269   7.152   6.664   1.222
13444TIP3   OH240270   7.210   6.368   1.356
13444TIP3    H140271   7.263   6.377   1.435
13444TIP3    H240272   7.140   6.308   1.382
13445TIP3   OH240273   7.351   6.450   0.833
13445TIP3    H140274   7.409   6.381   0.800
13445TIP3    H240275   7.411   6.516   0.869
13446TIP3   OH240276   6.915   7.982   1.184
13446TIP3    H140277   6.949   7.947   1.102
13446TIP3    H240278   6.967   8.060   1.200
13447TIP3   OH240279   6.980   6.222   1.266
13447TIP3    H140280   6.928   6.292   1.305
13447TIP3    H240281   6.968   6.233   1.172
13448TIP3   OH240282   5.529   7.681   1.318
13448TIP3    H140283   5.449   7.635   1.346
13448TIP3    H240284   5.510   7.774   1.334
13449TIP3   OH240285   6.324   7.804   0.802
13449TIP3    H140286   6.410   7.827   0.765
13449TIP3    H240287   6.300   7.723   0.757
13450TIP3   OH240288   7.048   7.919   0.942
13450TIP3    H140289   7.040   7.824   0.933
13450TIP3    H240290   6.999   7.955   0.868
13451TIP3   OH240291   5.699   7.653   0.928
13451TIP3    H140292   5.753   7.670   1.005
13451TIP3    H240293   5.755   7.599   0.871
13452TIP3   OH240294   0.049   7.449   0.898
13452TIP3    H140295   0.011   7.530   0.862
13452TIP3    H240296  -0.016   7.381   0.876
13453TIP3   OH240297   0.051   7.436   1.321
13453TIP3    H140298   0.093   7.400   1.399
13453TIP3    H240299   0.005   7.361   1.283
13454TIP3   OH240300   7.847   7.349   1.618
13454TIP3    H140301   7.843   7.282   1.686
13454TIP3    H240302   7.935   7.339   1.580
13455TIP3   OH240303   0.232   7.733   1.023
13455TIP3    H140304   0.234   7.640   1.001
13455TIP3    H240305   0.229   7.778   0.938
13456TIP3   OH240306   7.836   7.748   1.396
13456TIP3    H140307   7.815   7.656   1.383
13456TIP3    H240308   7.926   7.756   1.365
13457TIP3   OH240309   7.546   6.961   1.135
13457TIP3    H140310   7.477   7.027   1.139
13457TIP3    H240311   7.523   6.899   1.203
13458TIP3   OH240312   7.590   7.217   1.346
13458TIP3    H140313   7.632   7.142   1.389
13458TIP3    H240314   7.642   7.230   1.266
13459TIP3   OH240315   2.780   0.164   0.990
13459TIP3    H140316   2.818   0.094   0.938
13459TIP3    H240317   2.750   0.122   1.071
13460TIP3   OH240318   8.332   7.652   1.323
13460TIP3    H140319   8.363   7.569   1.287
13460TIP3    H240320   8.412   7.701   1.343
13461TIP3   OH240321   0.839   6.981   1.307
13461TIP3    H140322   0.862   7.060   1.356
13461TIP3    H240323   0.880   6.994   1.221
13462TIP3   OH240324   0.255   7.134   1.360
13462TIP3    H140325   0.293   7.048   1.381
13462TIP3    H240326   0.220   7.124   1.271
13463TIP3   OH240327   8.136   6.802   1.314
13463TIP3    H140328   8.104   6.881   1.272
13463TIP3    H240329   8.079   6.732   1.281
13464TIP3   OH240330   0.306   6.900   0.946
13464TIP3    H140331   0.373   6.886   1.013
13464TIP3    H240332   0.354   6.932   0.870
13465TIP3   OH240333   7.729   7.009   1.447
13465TIP3    H140334   7.810   6.982   1.491
13465TIP3    H240335   7.693   6.929   1.409
13466TIP3   OH240336   8.166   7.223   1.248
13466TIP3    H140337   8.261   7.208   1.249
13466TIP3    H240338   8.129   7.141   1.216
13467TIP3   OH240339   0.901   7.175   1.495
13467TIP3    H140340   0.815   7.217   1.493
13467TIP3    H240341   0.912   7.148   1.586
13468TIP3   OH240342   8.442   7.659   0.754
13468TIP3    H140343   8.398   7.625   0.676
13468TIP3    H240344   8.385   7.729   0.785
13469TIP3   OH240345   8.206   7.572   1.558
13469TIP3    H140346   8.144   7.635   1.594
13469TIP3    H240347   8.239   7.614   1.478
13470TIP3   OH240348   0.481   6.908   1.153
13470TIP3    H140349   0.440   6.884   1.236
13470TIP3    H240350   0.531   6.987   1.173
13471TIP3   OH240351   7.966   6.910   1.544
13471TIP3    H140352   8.055   6.946   1.540
13471TIP3    H240353   7.976   6.820   1.514
13472TIP3   OH240354   8.025   7.757   1.660
13472TIP3    H140355   7.996   7.841   1.624
13472TIP3    H240356   7.944   7.707   1.669
13473TIP3   OH240357   7.412   7.478   0.885
13473TIP3    H140358   7.377   7.498   0.798
13473TIP3    H240359   7.438   7.563   0.921
13474TIP3   OH240360   0.616   6.914   1.480
13474TIP3    H140361   0.527   6.904   1.446
13474TIP3    H240362   0.667   6.941   1.404
13475TIP3   OH240363   8.463   6.500   1.475
13475TIP3    H140364   8.445   6.417   1.432
13475TIP3    H240365   8.384   6.518   1.527
13476TIP3   OH240366   0.057   8.004   0.802
13476TIP3    H140367   0.108   7.925   0.791
13476TIP3    H240368   0.113   8.074   0.768
13477TIP3   OH240369   0.200   7.773   0.752
13477TIP3    H140370   0.121   7.724   0.733
13477TIP3    H240371   0.262   7.745   0.685
13478TIP3   OH240372   8.378   7.282   0.747
13478TIP3    H140373   8.293   7.322   0.729
13478TIP3    H240374   8.417   7.271   0.660
13479TIP3   OH240375   8.339   7.069   0.442
13479TIP3    H140376   8.406   7.119   0.489
13479TIP3    H240377   8.388   7.003   0.393
13480TIP3   OH240378   0.746   7.516   1.329
13480TIP3    H140379   0.676   7.580   1.343
13480TIP3    H240380   0.782   7.538   1.243
13481TIP3   OH240381   0.225   7.368   0.702
13481TIP3    H140382   0.171   7.393   0.777
13481TIP3    H240383   0.306   7.334   0.741
13482TIP3   OH240384   0.451   7.375   1.626
13482TIP3    H140385   0.464   7.460   1.667
13482TIP3    H240386   0.364   7.380   1.586
13483TIP3   OH240387   7.949   7.344   1.116
13483TIP3    H140388   7.911   7.284   1.052
13483TIP3    H240389   8.023   7.296   1.153
13484TIP3   OH240390   8.080   7.774   1.255
13484TIP3    H140391   8.049   7.748   1.168
13484TIP3    H240392   8.163   7.728   1.266
13485TIP3   OH240393   8.090   7.327   1.492
13485TIP3    H140394   8.110   7.305   1.401
13485TIP3    H240395   8.130   7.414   1.505
13486TIP3   OH240396   0.190   7.931   1.268
13486TIP3    H140397   0.178   8.024   1.250
13486TIP3    H240398   0.148   7.917   1.353
13487TIP3   OH240399   8.231   7.903   1.773
13487TIP3    H140400   8.181   7.951   1.839
13487TIP3    H240401   8.169   7.840   1.736
13488TIP3   OH240402   0.060   7.219   0.538
13488TIP3    H140403   0.119   7.277   0.586
13488TIP3    H240404   0.084   7.231   0.446
13489TIP3   OH240405   8.304   7.893   0.811
13489TIP3    H140406   8.385   7.944   0.809
13489TIP3    H240407   8.243   7.944   0.757
13490TIP3   OH240408   0.570   6.447   0.592
13490TIP3    H140409   0.492   6.467   0.643
13490TIP3    H240410   0.584   6.525   0.538
13491TIP3   OH240411   7.828   7.185   0.919
13491TIP3    H140412   7.750   7.225   0.881
13491TIP3    H240413   7.801   7.097   0.945
13492TIP3   OH240414   0.391   7.826   0.146
13492TIP3    H140415   0.391   7.918   0.120
13492TIP3    H240416   0.479   7.796   0.125
13493TIP3   OH240417   7.447   7.783   1.463
13493TIP3    H140418   7.542   7.786   1.476
13493TIP3    H240419   7.413   7.857   1.513
13494TIP3   OH240420   3.608   0.216   1.585
13494TIP3    H140421   3.633   0.125   1.567
13494TIP3    H240422   3.515   0.211   1.606
13495TIP3   OH240423   2.770  -0.003   1.636
13495TIP3    H140424   2.775   0.086   1.671
13495TIP3    H240425   2.698  -0.044   1.684
13496TIP3   OH240426   2.530   0.111   0.620
13496TIP3    H140427   2.482   0.088   0.541
13496TIP3    H240428   2.492   0.195   0.648
13497TIP3   OH240429   7.630   7.973   0.996
13497TIP3    H140430   7.673   7.965   1.082
13497TIP3    H240431   7.579   7.893   0.988
13498TIP3   OH240432   2.729   0.032   0.249
13498TIP3    H140433   2.779  -0.041   0.212
13498TIP3    H240434   2.764   0.043   0.337
13499TIP3   OH240435   2.783   0.077   0.519
13499TIP3    H140436   2.697   0.082   0.560
13499TIP3    H240437   2.841   0.048   0.590
13500TIP3   OH240438   0.726   7.338   1.742
13500TIP3    H140439   0.635   7.368   1.748
13500TIP3    H240440   0.719   7.242   1.739
13501TIP3   OH240441   0.431   7.142   1.773
13501TIP3    H140442   0.375   7.167   1.847
13501TIP3    H240443   0.431   7.219   1.715
13502TIP3   OH240444   0.140   7.243   0.281
13502TIP3    H140445   0.093   7.229   0.199
13502TIP3    H240446   0.225   7.279   0.253
13503TIP3   OH240447   8.349   6.629   0.582
13503TIP3    H140448   8.313   6.628   0.671
13503TIP3    H240449   8.309   6.553   0.539
13504TIP3   OH240450   8.169   7.096   1.614
13504TIP3    H140451   8.104   7.080   1.683
13504TIP3    H240452   8.135   7.173   1.567
13505TIP3   OH240453   8.048   7.003   1.144
13505TIP3    H140454   7.958   6.980   1.166
13505TIP3    H240455   8.063   6.965   1.057
13506TIP3   OH240456   0.008   7.080   0.880
13506TIP3    H140457  -0.044   7.148   0.837
13506TIP3    H240458   0.061   7.042   0.809
13507TIP3   OH240459   0.174   7.094   1.099
13507TIP3    H140460   0.106   7.113   1.035
13507TIP3    H240461   0.220   7.018   1.064
13508TIP3   OH240462   8.013   6.616   0.557
13508TIP3    H140463   8.008   6.617   0.653
13508TIP3    H240464   7.932   6.659   0.528
13509TIP3   OH240465   7.614   6.778   1.355
13509TIP3    H140466   7.533   6.767   1.405
13509TIP3    H240467   7.623   6.696   1.306
13510TIP3   OH240468   7.543   6.642   0.914
13510TIP3    H140469   7.571   6.683   0.832
13510TIP3    H240470   7.486   6.706   0.955
13511TIP3   OH240471   0.194   7.335   1.530
13511TIP3    H140472   0.215   7.259   1.476
13511TIP3    H240473   0.171   7.299   1.615
13512TIP3   OH240474   8.385   6.802   1.196
13512TIP3    H140475   8.303   6.802   1.245
13512TIP3    H240476   8.453   6.790   1.263
13513TIP3   OH240477   7.809   6.892   1.156
13513TIP3    H140478   7.715   6.908   1.152
13513TIP3    H240479   7.816   6.797   1.169
13514TIP3   OH240480   8.047   6.878   0.900
13514TIP3    H140481   8.139   6.881   0.872
13514TIP3    H240482   7.997   6.889   0.819
13515TIP3   OH240483   0.345   6.872   1.399
13515TIP3    H140484   0.327   6.882   1.492
13515TIP3    H240485   0.278   6.811   1.368
13516TIP3   OH240486   7.905   6.898   0.665
13516TIP3    H140487   7.840   6.848   0.616
13516TIP3    H240488   7.960   6.938   0.597
13517TIP3   OH240489   3.348   0.595   1.671
13517TIP3    H140490   3.378   0.661   1.610
13517TIP3    H240491   3.371   0.630   1.758
13518TIP3   OH240492   8.441   7.179   1.284
13518TIP3    H140493   8.493   7.117   1.234
13518TIP3    H240494   8.442   7.145   1.374
13519TIP3   OH240495   7.961   6.630   1.192
13519TIP3    H140496   7.912   6.585   1.261
13519TIP3    H240497   7.996   6.560   1.137
13520TIP3   OH240498   8.431   7.083   1.544
13520TIP3    H140499   8.338   7.086   1.567
13520TIP3    H240500   8.462   7.000   1.578
13521TIP3   OH240501   8.135   7.413   0.693
13521TIP3    H140502   8.063   7.354   0.673
13521TIP3    H240503   8.113   7.450   0.778
13522TIP3   OH240504   0.100   6.729   0.580
13522TIP3    H140505   0.008   6.705   0.579
13522TIP3    H240506   0.100   6.824   0.594
13523TIP3   OH240507   0.068   7.741   1.668
13523TIP3    H140508   0.025   7.668   1.713
13523TIP3    H240509   0.014   7.817   1.689
13524TIP3   OH240510   0.162   6.991   0.663
13524TIP3    H140511   0.258   6.993   0.666
13524TIP3    H240512   0.138   7.064   0.606
13525TIP3   OH240513   7.843   7.480   1.338
13525TIP3    H140514   7.873   7.432   1.261
13525TIP3    H240515   7.832   7.413   1.406
13526TIP3   OH240516   8.288   7.575   0.535
13526TIP3    H140517   8.240   7.658   0.531
13526TIP3    H240518   8.230   7.517   0.584
13527TIP3   OH240519   3.039   0.022   1.577
13527TIP3    H140520   2.944   0.008   1.582
13527TIP3    H240521   3.064   0.051   1.664
13528TIP3   OH240522   0.587   7.080   0.484
13528TIP3    H140523   0.530   7.034   0.423
13528TIP3    H240524   0.591   7.170   0.450
13529TIP3   OH240525   0.807   7.965   1.517
13529TIP3    H140526   0.748   7.906   1.564
13529TIP3    H240527   0.838   7.914   1.442
13530TIP3   OH240528   0.312   7.879   0.407
13530TIP3    H140529   0.273   7.798   0.441
13530TIP3    H240530   0.338   7.858   0.317
13531TIP3   OH240531   0.283   7.548   1.221
13531TIP3    H140532   0.205   7.498   1.246
13531TIP3    H240533   0.343   7.482   1.185
13532TIP3   OH240534   7.940   7.761   1.006
13532TIP3    H140535   7.937   7.838   0.950
13532TIP3    H240536   7.848   7.737   1.018
13533TIP3   OH240537   7.515   7.066   0.701
13533TIP3    H140538   7.564   7.145   0.724
13533TIP3    H240539   7.435   7.071   0.754
13534TIP3   OH240540   8.058   7.521   0.930
13534TIP3    H140541   8.029   7.609   0.953
13534TIP3    H240542   8.021   7.464   0.997
13535TIP3   OH240543   2.555   0.076   1.459
13535TIP3    H140544   2.590   0.148   1.406
13535TIP3    H240545   2.631   0.041   1.505
13536TIP3   OH240546   2.196  -0.025   0.852
13536TIP3    H140547   2.109  -0.020   0.891
13536TIP3    H240548   2.228   0.066   0.854
13537TIP3   OH240549   0.109   7.700   1.396
13537TIP3    H140550   0.103   7.721   1.489
13537TIP3    H240551   0.098   7.605   1.391
13538TIP3   OH240552   0.075   7.631   0.306
13538TIP3    H140553   0.115   7.608   0.389
13538TIP3    H240554  -0.011   7.587   0.307
13539TIP3   OH240555   3.147   0.262   1.485
13539TIP3    H140556   3.104   0.177   1.488
13539TIP3    H240557   3.123   0.299   1.400
13540TIP3   OH240558   3.230   0.085   0.108
13540TIP3    H140559   3.252   0.145   0.037
13540TIP3    H240560   3.157   0.128   0.154
13541TIP3   OH240561   0.249   7.585   0.527
13541TIP3    H140562   0.228   7.510   0.582
13541TIP3    H240563   0.341   7.573   0.504
13542TIP3   OH240564   7.657   7.957   1.585
13542TIP3    H140565   7.743   7.916   1.576
13542TIP3    H240566   7.646   7.968   1.680
13543TIP3   OH240567   7.932   7.596   0.310
13543TIP3    H140568   7.940   7.504   0.282
13543TIP3    H240569   7.910   7.590   0.403
13544TIP3   OH240570   7.871   7.613   0.580
13544TIP3    H140571   7.939   7.582   0.640
13544TIP3    H240572   7.873   7.708   0.588
13545TIP3   OH240573   7.613   7.309   0.792
13545TIP3    H140574   7.546   7.353   0.843
13545TIP3    H240575   7.630   7.368   0.718
13546TIP3   OH240576   0.295   6.926   1.661
13546TIP3    H140577   0.345   6.999   1.698
13546TIP3    H240578   0.275   6.871   1.736
13547TIP3   OH240579   0.164   6.682   0.846
13547TIP3    H140580   0.141   6.699   0.755
13547TIP3    H240581   0.203   6.764   0.876
13548TIP3   OH240582   8.148   7.808   0.532
13548TIP3    H140583   8.061   7.829   0.564
13548TIP3    H240584   8.166   7.876   0.467
13549TIP3   OH240585   8.330   6.875   0.935
13549TIP3    H140586   8.390   6.947   0.916
13549TIP3    H240587   8.339   6.861   1.029
13550TIP3   OH240588   0.146   7.238   1.785
13550TIP3    H140589   0.093   7.306   1.828
13550TIP3    H240590   0.098   7.157   1.800
13551TIP3   OH240591   8.483   6.593   1.029
13551TIP3    H140592   8.461   6.675   1.075
13551TIP3    H240593   8.548   6.619   0.964
13552TIP3   OH240594   7.893   7.885   0.599
13552TIP3    H140595   7.869   7.954   0.537
13552TIP3    H240596   7.879   7.924   0.685
13553TIP3   OH240597   7.992   6.601   0.834
13553TIP3    H140598   7.975   6.681   0.883
13553TIP3    H240599   8.086   6.586   0.844
13554TIP3   OH240600   0.680   7.055   1.714
13554TIP3    H140601   0.589   7.077   1.734
13554TIP3    H240602   0.676   7.003   1.634
13555TIP3   OH240603   0.385   7.292   1.111
13555TIP3    H140604   0.309   7.234   1.115
13555TIP3    H240605   0.454   7.244   1.156
13556TIP3   OH240606   7.620   7.490   0.576
13556TIP3    H140607   7.691   7.554   0.584
13556TIP3    H240608   7.653   7.425   0.514
13557TIP3   OH240609   7.544   6.791   0.681
13557TIP3    H140610   7.566   6.884   0.689
13557TIP3    H240611   7.452   6.785   0.707
13558TIP3   OH240612   3.203   0.245   1.057
13558TIP3    H140613   3.158   0.283   0.982
13558TIP3    H240614   3.294   0.236   1.029
13559TIP3   OH240615   7.467   7.743   0.974
13559TIP3    H140616   7.418   7.775   1.049
13559TIP3    H240617   7.424   7.783   0.898
13560TIP3   OH240618   8.089   7.797   0.208
13560TIP3    H140619   8.040   7.726   0.248
13560TIP3    H240620   8.162   7.755   0.163
13561TIP3   OH240621   3.126   0.098   1.828
13561TIP3    H140622   3.139   0.038   1.901
13561TIP3    H240623   3.214   0.113   1.793
13562TIP3   OH240624   0.026   7.837   0.128
13562TIP3    H140625   0.060   7.771   0.188
13562TIP3    H240626   0.082   7.831   0.050
13563TIP3   OH240627   7.753   7.299   0.436
13563TIP3    H140628   7.805   7.271   0.513
13563TIP3    H240629   7.818   7.308   0.366
13564TIP3   OH240630   8.317   7.517   0.265
13564TIP3    H140631   8.292   7.529   0.357
13564TIP3    H240632   8.302   7.424   0.248
13565TIP3   OH240633   0.338   7.789   1.623
13565TIP3    H140634   0.327   7.879   1.593
13565TIP3    H240635   0.250   7.762   1.650
13566TIP3   OH240636   7.932   7.230   0.648
13566TIP3    H140637   7.906   7.196   0.734
13566TIP3    H240638   7.974   7.156   0.605
13567TIP3   OH240639   8.062   7.040   0.488
13567TIP3    H140640   8.032   7.042   0.397
13567TIP3    H240641   8.157   7.044   0.482
13568TIP3   OH240642   0.370   7.342   0.159
13568TIP3    H140643   0.354   7.298   0.075
13568TIP3    H240644   0.343   7.432   0.144
13569TIP3   OH240645   8.420   7.457   1.696
13569TIP3    H140646   8.426   7.374   1.649
13569TIP3    H240647   8.339   7.497   1.665
13570TIP3   OH240648   0.514   7.612   1.736
13570TIP3    H140649   0.451   7.678   1.707
13570TIP3    H240650   0.599   7.657   1.731
13571TIP3   OH240651   2.214   0.079   0.415
13571TIP3    H140652   2.304   0.061   0.388
13571TIP3    H240653   2.175   0.124   0.340
13572TIP3   OH240654   7.347   7.477   0.599
13572TIP3    H140655   7.442   7.490   0.593
13572TIP3    H240656   7.333   7.389   0.563
13573TIP3   OH240657   1.594   0.048   1.036
13573TIP3    H140658   1.523  -0.002   0.994
13573TIP3    H240659   1.634  -0.014   1.096
13574TIP3   OH240660   7.398   7.900   1.212
13574TIP3    H140661   7.385   7.835   1.281
13574TIP3    H240662   7.447   7.971   1.253
13575TIP3   OH240663   3.473   0.273   1.012
13575TIP3    H140664   3.505   0.278   1.102
13575TIP3    H240665   3.476   0.364   0.980
13576TIP3   OH240666   3.523   0.280   1.280
13576TIP3    H140667   3.441   0.235   1.296
13576TIP3    H240668   3.544   0.323   1.363
13577TIP3   OH240669   0.521   7.545   0.499
13577TIP3    H140670   0.583   7.611   0.466
13577TIP3    H240671   0.567   7.504   0.572
13578TIP3   OH240672   0.646   7.403   0.701
13578TIP3    H140673   0.580   7.361   0.756
13578TIP3    H240674   0.708   7.440   0.764
13579TIP3   OH240675   0.571   7.320   0.345
13579TIP3    H140676   0.504   7.316   0.277
13579TIP3    H240677   0.549   7.397   0.397
13580TIP3   OH240678   0.432   6.976   0.287
13580TIP3    H140679   0.389   7.013   0.210
13580TIP3    H240680   0.416   6.882   0.280
13581TIP3   OH240681   0.446   7.261   0.837
13581TIP3    H140682   0.455   7.166   0.824
13581TIP3    H240683   0.432   7.270   0.932
13582TIP3   OH240684   7.581   7.393   1.560
13582TIP3    H140685   7.573   7.334   1.485
13582TIP3    H240686   7.672   7.385   1.588
13583TIP3   OH240687   0.763   7.731   1.690
13583TIP3    H140688   0.814   7.651   1.698
13583TIP3    H240689   0.817   7.798   1.733
13584TIP3   OH240690   0.929   7.513   1.722
13584TIP3    H140691   0.859   7.448   1.720
13584TIP3    H240692   0.976   7.496   1.804
13585TIP3   OH240693   0.383   6.709   0.271
13585TIP3    H140694   0.448   6.674   0.332
13585TIP3    H240695   0.303   6.660   0.292
13586TIP3   OH240696   0.454   6.986   0.721
13586TIP3    H140697   0.497   6.901   0.736
13586TIP3    H240698   0.499   7.023   0.645
13587TIP3   OH240699   0.596   7.150   1.224
13587TIP3    H140700   0.680   7.166   1.182
13587TIP3    H240701   0.605   7.186   1.312
13588TIP3   OH240702   0.652   7.289   1.453
13588TIP3    H140703   0.585   7.317   1.515
13588TIP3    H240704   0.684   7.370   1.414
13589TIP3   OH240705   0.561   6.732   0.779
13589TIP3    H140706   0.601   6.718   0.865
13589TIP3    H240707   0.499   6.660   0.770
13590TIP3   OH240708   0.621   6.652   0.415
13590TIP3    H140709   0.662   6.590   0.354
13590TIP3    H240710   0.678   6.729   0.411
13591TIP3   OH240711   7.631   6.578   1.163
13591TIP3    H140712   7.549   6.541   1.196
13591TIP3    H240713   7.613   6.601   1.072
13592TIP3   OH240714   3.035   0.179   0.680
13592TIP3    H140715   3.090   0.172   0.602
13592TIP3    H240716   3.072   0.252   0.729
13593TIP3   OH240717   2.312   0.005   1.580
13593TIP3    H140718   2.265   0.086   1.560
13593TIP3    H240719   2.401   0.020   1.549
13594TIP3   OH240720   2.791   0.249   1.739
13594TIP3    H140721   2.825   0.254   1.829
13594TIP3    H240722   2.843   0.313   1.690
13595TIP3   OH240723   2.951   0.427   1.607
13595TIP3    H140724   3.017   0.369   1.570
13595TIP3    H240725   2.983   0.515   1.588
13596TIP3   OH240726   1.990   0.300   1.629
13596TIP3    H140727   1.900   0.318   1.603
13596TIP3    H240728   1.986   0.289   1.724
13597TIP3   OH240729   2.227   0.258   1.496
13597TIP3    H140730   2.145   0.274   1.543
13597TIP3    H240731   2.209   0.286   1.406
13598TIP3   OH240732   2.651   0.273   1.288
13598TIP3    H140733   2.578   0.291   1.229
13598TIP3    H240734   2.667   0.356   1.333
13599TIP3   OH240735   2.919   0.185   1.295
13599TIP3    H140736   2.826   0.207   1.296
13599TIP3    H240737   2.963   0.262   1.260
13600TIP3   OH240738   3.109   0.406   1.248
13600TIP3    H140739   3.086   0.484   1.198
13600TIP3    H240740   3.144   0.345   1.183
13601TIP3   OH240741   1.899   0.070   1.360
13601TIP3    H140742   1.921   0.040   1.448
13601TIP3    H240743   1.970   0.036   1.305
13602TIP3   OH240744   7.772   7.961   1.232
13602TIP3    H140745   7.783   7.884   1.287
13602TIP3    H240746   7.859   8.001   1.230
13603TIP3   OH240747   2.374   0.036   1.246
13603TIP3    H140748   2.392  -0.058   1.232
13603TIP3    H240749   2.421   0.057   1.327
13604TIP3   OH240750   0.115   6.704   1.333
13604TIP3    H140751   0.075   6.632   1.383
13604TIP3    H240752   0.180   6.661   1.278
13605TIP3   OH240753   0.610   6.603   1.257
13605TIP3    H140754   0.644   6.650   1.181
13605TIP3    H240755   0.515   6.605   1.247
13606TIP3   OH240756   0.719   6.682   1.014
13606TIP3    H140757   0.781   6.626   0.968
13606TIP3    H240758   0.747   6.771   0.994
13607TIP3   OH240759   7.867   6.453   1.381
13607TIP3    H140760   7.779   6.425   1.358
13607TIP3    H240761   7.925   6.393   1.333
13608TIP3   OH240762   7.617   6.334   0.882
13608TIP3    H140763   7.658   6.379   0.809
13608TIP3    H240764   7.687   6.323   0.947
13609TIP3   OH240765   8.331   6.474   1.224
13609TIP3    H140766   8.371   6.509   1.144
13609TIP3    H240767   8.341   6.543   1.289
13610TIP3   OH240768   0.332   6.586   1.201
13610TIP3    H140769   0.330   6.556   1.110
13610TIP3    H240770   0.322   6.506   1.252
13611TIP3   OH240771   0.379   6.520   0.778
13611TIP3    H140772   0.297   6.567   0.795
13611TIP3    H240773   0.364   6.432   0.815
13612TIP3   OH240774   7.347   7.859   0.758
13612TIP3    H140775   7.260   7.825   0.738
13612TIP3    H240776   7.345   7.950   0.729
13613TIP3   OH240777   7.790   6.456   0.710
13613TIP3    H140778   7.842   6.398   0.655
13613TIP3    H240779   7.854   6.504   0.763
13614TIP3   OH240780   8.267   6.624   0.846
13614TIP3    H140781   8.325   6.570   0.900
13614TIP3    H240782   8.285   6.714   0.873
13615TIP3   OH240783   8.139   8.025   0.349
13615TIP3    H140784   8.222   8.053   0.311
13615TIP3    H240785   8.110   7.953   0.293
13616TIP3   OH240786   3.180   0.138   0.446
13616TIP3    H140787   3.172   0.044   0.437
13616TIP3    H240788   3.136   0.174   0.369
13617TIP3   OH240789   7.451   7.871   0.411
13617TIP3    H140790   7.449   7.869   0.506
13617TIP3    H240791   7.532   7.825   0.387
13618TIP3   OH240792   3.345   0.166   1.671
13618TIP3    H140793   3.280   0.203   1.611
13618TIP3    H240794   3.366   0.238   1.731
13619TIP3   OH240795   1.829   7.677   0.391
13619TIP3    H140796   1.809   7.768   0.371
13619TIP3    H240797   1.760   7.627   0.348
13620TIP3   OH240798   1.821   7.670   0.760
13620TIP3    H140799   1.854   7.617   0.833
13620TIP3    H240800   1.770   7.609   0.707
13621TIP3   OH240801   1.134   7.552   1.122
13621TIP3    H140802   1.173   7.498   1.191
13621TIP3    H240803   1.208   7.584   1.072
13622TIP3   OH240804   2.100   7.980   0.461
13622TIP3    H140805   2.074   7.923   0.533
13622TIP3    H240806   2.118   8.065   0.502
13623TIP3   OH240807   1.150   7.972   0.878
13623TIP3    H140808   1.114   7.884   0.867
13623TIP3    H240809   1.234   7.969   0.830
13624TIP3   OH240810   0.810   7.183   0.629
13624TIP3    H140811   0.766   7.266   0.650
13624TIP3    H240812   0.742   7.130   0.587
13625TIP3   OH240813   0.867   7.492   0.848
13625TIP3    H140814   0.919   7.415   0.872
13625TIP3    H240815   0.931   7.553   0.811
13626TIP3   OH240816   4.583   0.398   0.464
13626TIP3    H140817   4.618   0.325   0.413
13626TIP3    H240818   4.571   0.363   0.552
13627TIP3   OH240819   1.647   7.895   0.805
13627TIP3    H140820   1.692   7.817   0.773
13627TIP3    H240821   1.718   7.957   0.825
13628TIP3   OH240822   1.378   7.065   0.796
13628TIP3    H140823   1.356   7.142   0.744
13628TIP3    H240824   1.327   6.994   0.758
13629TIP3   OH240825   2.015   7.164   0.410
13629TIP3    H140826   2.088   7.110   0.441
13629TIP3    H240827   2.056   7.225   0.348
13630TIP3   OH240828   1.017   7.271   0.924
13630TIP3    H140829   1.098   7.251   0.970
13630TIP3    H240830   1.022   7.220   0.843
13631TIP3   OH240831   1.448   7.467   0.735
13631TIP3    H140832   1.539   7.443   0.751
13631TIP3    H240833   1.409   7.388   0.697
13632TIP3   OH240834   1.394   7.034   1.254
13632TIP3    H140835   1.363   7.074   1.173
13632TIP3    H240836   1.334   7.066   1.321
13633TIP3   OH240837   1.742   7.902   0.246
13633TIP3    H140838   1.699   7.875   0.165
13633TIP3    H240839   1.689   7.975   0.277
13634TIP3   OH240840   1.486   7.831   1.022
13634TIP3    H140841   1.428   7.899   1.056
13634TIP3    H240842   1.529   7.871   0.947
13635TIP3   OH240843   1.253   7.157   1.028
13635TIP3    H140844   1.311   7.231   1.044
13635TIP3    H240845   1.288   7.115   0.949
13636TIP3   OH240846   1.303   8.013   1.115
13636TIP3    H140847   1.252   8.025   1.035
13636TIP3    H240848   1.237   7.991   1.182
13637TIP3   OH240849   0.700   7.724   0.379
13637TIP3    H140850   0.665   7.739   0.292
13637TIP3    H240851   0.724   7.811   0.411
13638TIP3   OH240852   4.995   0.201   0.596
13638TIP3    H140853   4.909   0.191   0.638
13638TIP3    H240854   4.990   0.287   0.553
13639TIP3   OH240855   4.685   0.240   0.261
13639TIP3    H140856   4.739   0.162   0.247
13639TIP3    H240857   4.740   0.313   0.235
13640TIP3   OH240858   1.999   8.031   0.208
13640TIP3    H140859   1.927   7.968   0.202
13640TIP3    H240860   2.044   8.009   0.290
13641TIP3   OH240861   1.657   7.552   0.213
13641TIP3    H140862   1.574   7.596   0.197
13641TIP3    H240863   1.701   7.553   0.128
13642TIP3   OH240864   7.301   3.317   6.870
13642TIP3    H140865   7.366   3.373   6.913
13642TIP3    H240866   7.353   3.253   6.822
13643TIP3   OH240867   2.015   7.618   0.197
13643TIP3    H140868   1.959   7.642   0.270
13643TIP3    H240869   2.098   7.593   0.237
13644TIP3   OH240870   1.243   7.602   0.599
13644TIP3    H140871   1.205   7.542   0.535
13644TIP3    H240872   1.317   7.553   0.636
13645TIP3   OH240873   1.384   7.966   0.736
13645TIP3    H140874   1.369   7.955   0.642
13645TIP3    H240875   1.478   7.950   0.748
13646TIP3   OH240876   1.352   7.601   0.956
13646TIP3    H140877   1.389   7.567   0.875
13646TIP3    H240878   1.402   7.681   0.973
13647TIP3   OH240879   4.750   0.187   0.706
13647TIP3    H140880   4.725   0.267   0.754
13647TIP3    H240881   4.734   0.117   0.769
13648TIP3   OH240882   4.311   0.125   1.297
13648TIP3    H140883   4.269   0.202   1.334
13648TIP3    H240884   4.247   0.091   1.234
13649TIP3   OH240885   1.849   7.488   0.016
13649TIP3    H140886   1.908   7.544   0.067
13649TIP3    H240887   1.877   7.499  -0.074
13650TIP3   OH240888   1.235   7.681   1.374
13650TIP3    H140889   1.233   7.727   1.457
13650TIP3    H240890   1.147   7.643   1.365
13651TIP3   OH240891   4.435   0.127   0.291
13651TIP3    H140892   4.518   0.174   0.287
13651TIP3    H240893   4.374   0.180   0.241
13652TIP3   OH240894   4.138   0.327   1.418
13652TIP3    H140895   4.088   0.297   1.342
13652TIP3    H240896   4.111   0.269   1.490
13653TIP3   OH240897   2.270   6.701  -0.004
13653TIP3    H140898   2.218   6.732   0.070
13653TIP3    H240899   2.335   6.770  -0.019
13654TIP3   OH240900   1.119   7.443   0.401
13654TIP3    H140901   1.047   7.492   0.363
13654TIP3    H240902   1.084   7.354   0.413
13655TIP3   OH240903   7.828   4.084   6.567
13655TIP3    H140904   7.838   4.177   6.549
13655TIP3    H240905   7.915   4.047   6.554
13656TIP3   OH240906   0.900   7.795   1.316
13656TIP3    H140907   0.877   7.760   1.230
13656TIP3    H240908   0.930   7.719   1.366
13657TIP3   OH240909   3.560   0.019   0.942
13657TIP3    H140910   3.643   0.021   0.989
13657TIP3    H240911   3.513   0.097   0.972
13658TIP3   OH240912   4.561   0.278   1.067
13658TIP3    H140913   4.586   0.336   1.138
13658TIP3    H240914   4.558   0.191   1.107
13659TIP3   OH240915   4.322   0.353   0.104
13659TIP3    H140916   4.277   0.333   0.022
13659TIP3    H240917   4.288   0.440   0.129
13660TIP3   OH240918   3.754   0.207   0.481
13660TIP3    H140919   3.791   0.195   0.568
13660TIP3    H240920   3.703   0.128   0.465
13661TIP3   OH240921   7.359   4.295   6.676
13661TIP3    H140922   7.409   4.222   6.640
13661TIP3    H240923   7.391   4.305   6.766
13662TIP3   OH240924   4.575   0.327   0.006
13662TIP3    H140925   4.488   0.332   0.045
13662TIP3    H240926   4.630   0.292   0.075
13663TIP3   OH240927   1.111   7.971   1.308
13663TIP3    H140928   1.153   7.952   1.392
13663TIP3    H240929   1.040   7.907   1.302
13664TIP3   OH240930   0.619   6.297   1.556
13664TIP3    H140931   0.692   6.316   1.497
13664TIP3    H240932   0.656   6.309   1.643
13665TIP3   OH240933   7.605   3.482   6.702
13665TIP3    H140934   7.560   3.472   6.618
13665TIP3    H240935   7.687   3.526   6.680
13666TIP3   OH240936   1.642   6.881   0.069
13666TIP3    H140937   1.603   6.886   0.157
13666TIP3    H240938   1.603   6.803   0.030
13667TIP3   OH240939   1.418   7.362   1.081
13667TIP3    H140940   1.381   7.376   1.168
13667TIP3    H240941   1.404   7.445   1.036
13668TIP3   OH240942   1.301   7.260   0.625
13668TIP3    H140943   1.210   7.237   0.647
13668TIP3    H240944   1.314   7.224   0.538
13669TIP3   OH240945   1.767   7.328   0.323
13669TIP3    H140946   1.725   7.404   0.283
13669TIP3    H240947   1.831   7.298   0.259
13670TIP3   OH240948   1.871   7.322   0.586
13670TIP3    H140949   1.829   7.374   0.517
13670TIP3    H240950   1.907   7.246   0.539
13671TIP3   OH240951   1.264   7.390   1.308
13671TIP3    H140952   1.259   7.435   1.393
13671TIP3    H240953   1.231   7.302   1.325
13672TIP3   OH240954   1.306   6.866   0.049
13672TIP3    H140955   1.292   6.866   0.143
13672TIP3    H240956   1.229   6.909   0.013
13673TIP3   OH240957   0.841   6.902   0.913
13673TIP3    H140958   0.915   6.943   0.959
13673TIP3    H240959   0.879   6.872   0.830
13674TIP3   OH240960   0.780   6.885   0.425
13674TIP3    H140961   0.824   6.919   0.347
13674TIP3    H240962   0.716   6.953   0.446
13675TIP3   OH240963   1.633   7.052   0.680
13675TIP3    H140964   1.543   7.054   0.714
13675TIP3    H240965   1.687   7.073   0.756
13676TIP3   OH240966   1.069   7.127   0.694
13676TIP3    H140967   0.980   7.134   0.662
13676TIP3    H240968   1.098   7.039   0.667
13677TIP3   OH240969   1.325   7.126   0.388
13677TIP3    H140970   1.419   7.133   0.371
13677TIP3    H240971   1.284   7.143   0.304
13678TIP3   OH240972   1.199   7.153   0.149
13678TIP3    H140973   1.135   7.103   0.098
13678TIP3    H240974   1.254   7.195   0.083
13679TIP3   OH240975   1.201   7.823   1.600
13679TIP3    H140976   1.262   7.893   1.577
13679TIP3    H240977   1.148   7.860   1.671
13680TIP3   OH240978   1.710   7.401   0.795
13680TIP3    H140979   1.772   7.362   0.733
13680TIP3    H240980   1.730   7.357   0.878
13681TIP3   OH240981   1.227   6.889   0.651
13681TIP3    H140982   1.182   6.821   0.701
13681TIP3    H240983   1.248   6.848   0.568
13682TIP3   OH240984   1.415   7.683   0.170
13682TIP3    H140985   1.346   7.619   0.153
13682TIP3    H240986   1.398   7.715   0.258
13683TIP3   OH240987   1.889   6.990   0.051
13683TIP3    H140988   1.796   6.970   0.051
13683TIP3    H240989   1.893   7.085   0.065
13684TIP3   OH240990   1.871   7.899   1.137
13684TIP3    H140991   1.843   7.832   1.199
13684TIP3    H240992   1.834   7.981   1.172
13685TIP3   OH240993   1.955   7.256   0.120
13685TIP3    H140994   2.050   7.261   0.114
13685TIP3    H240995   1.924   7.332   0.072
13686TIP3   OH240996   1.112   7.692   0.825
13686TIP3    H140997   1.147   7.674   0.738
13686TIP3    H240998   1.177   7.656   0.885
13687TIP3   OH240999   1.585   7.832   0.019
13687TIP3    H141000   1.542   7.918   0.014
13687TIP3    H241001   1.523   7.778   0.068
13688TIP3   OH241002   0.987   7.572   1.460
13688TIP3    H141003   0.970   7.562   1.554
13688TIP3    H241004   0.913   7.526   1.418
13689TIP3   OH241005   4.849   0.267   1.061
13689TIP3    H141006   4.758   0.270   1.035
13689TIP3    H241007   4.859   0.337   1.125
13690TIP3   OH241008   8.054   3.333   6.908
13690TIP3    H141009   8.001   3.282   6.847
13690TIP3    H241010   8.054   3.421   6.872
13691TIP3   OH241011   7.781   4.145   6.842
13691TIP3    H141012   7.748   4.078   6.902
13691TIP3    H241013   7.783   4.101   6.756
13692TIP3   OH241014   2.053   7.812   0.682
13692TIP3    H141015   1.971   7.763   0.687
13692TIP3    H241016   2.118   7.747   0.653
13693TIP3   OH241017   4.072   0.002   0.483
13693TIP3    H141018   4.072   0.081   0.430
13693TIP3    H241019   3.979  -0.013   0.503
13694TIP3   OH241020   0.811   7.308   0.206
13694TIP3    H141021   0.851   7.394   0.223
13694TIP3    H241022   0.729   7.310   0.255
13695TIP3   OH241023   1.354   7.776   0.415
13695TIP3    H141024   1.323   7.864   0.433
13695TIP3    H241025   1.316   7.722   0.485
13696TIP3   OH241026   4.418   0.285   0.832
13696TIP3    H141027   4.436   0.378   0.815
13696TIP3    H241028   4.476   0.261   0.904
13697TIP3   OH241029   3.985   0.230   0.333
13697TIP3    H141030   3.900   0.232   0.377
13697TIP3    H241031   4.000   0.320   0.305
13698TIP3   OH241032   1.902   7.984   0.874
13698TIP3    H141033   1.908   7.955   0.965
13698TIP3    H241034   1.968   7.932   0.828
13699TIP3   OH241035   7.532   3.879   6.728
13699TIP3    H141036   7.581   3.851   6.805
13699TIP3    H241037   7.447   3.837   6.737
13700TIP3   OH241038   7.868   4.358   6.539
13700TIP3    H141039   7.915   4.435   6.508
13700TIP3    H241040   7.786   4.392   6.575
13701TIP3   OH241041   2.034   7.800  -0.014
13701TIP3    H141042   2.021   7.747   0.065
13701TIP3    H241043   2.129   7.809  -0.022
13702TIP3   OH241044   3.759   0.127   1.100
13702TIP3    H141045   3.841   0.096   1.139
13702TIP3    H241046   3.750   0.217   1.131
13703TIP3   OH241047   6.895   3.845   6.736
13703TIP3    H141048   6.902   3.754   6.708
13703TIP3    H241049   6.873   3.840   6.829
13704TIP3   OH241050   1.169   7.866   0.067
13704TIP3    H141051   1.245   7.838   0.117
13704TIP3    H241052   1.170   7.961   0.073
13705TIP3   OH241053   0.903   7.563   0.278
13705TIP3    H141054   0.836   7.607   0.330
13705TIP3    H241055   0.919   7.622   0.205
13706TIP3   OH241056   1.913   6.928   0.319
13706TIP3    H141057   1.900   6.937   0.224
13706TIP3    H241058   1.941   7.015   0.347
13707TIP3   OH241059   4.276   0.048   0.013
13707TIP3    H141060   4.189   0.069   0.047
13707TIP3    H241061   4.296   0.119  -0.048
13708TIP3   OH241062   1.604   7.130   0.416
13708TIP3    H141063   1.662   7.200   0.385
13708TIP3    H241064   1.621   7.124   0.510
13709TIP3   OH241065   1.752   6.852   0.528
13709TIP3    H141066   1.723   6.931   0.574
13709TIP3    H241067   1.812   6.884   0.461
13710TIP3   OH241068   4.021   0.124   0.082
13710TIP3    H141069   3.997   0.194   0.021
13710TIP3    H241070   4.006   0.162   0.168
13711TIP3   OH241071   1.275   6.853   0.330
13711TIP3    H141072   1.266   6.944   0.357
13711TIP3    H241073   1.369   6.837   0.330
13712TIP3   OH241074   2.246   7.609   0.622
13712TIP3    H141075   2.205   7.523   0.612
13712TIP3    H241076   2.300   7.601   0.700
13713TIP3   OH241077   0.915   7.745   0.066
13713TIP3    H141078   0.985   7.810   0.074
13713TIP3    H241079   0.949   7.682   0.002
13714TIP3   OH241080   0.838   7.032   0.201
13714TIP3    H141081   0.846   7.127   0.206
13714TIP3    H241082   0.774   7.017   0.131
13715TIP3   OH241083   5.003   0.461   0.506
13715TIP3    H141084   4.962   0.513   0.437
13715TIP3    H241085   5.097   0.475   0.494
13716TIP3   OH241086   1.231   6.583   1.032
13716TIP3    H141087   1.241   6.678   1.021
13716TIP3    H241088   1.291   6.561   1.102
13717TIP3   OH241089   3.586  -0.019   0.454
13717TIP3    H141090   3.541   0.018   0.530
13717TIP3    H241091   3.545   0.024   0.379
13718TIP3   OH241092   3.686   0.479   1.596
13718TIP3    H141093   3.774   0.473   1.634
13718TIP3    H241094   3.659   0.388   1.584
13719TIP3   OH241095   7.053   4.047   6.633
13719TIP3    H141096   7.004   3.976   6.675
13719TIP3    H241097   7.126   4.003   6.590
13720TIP3   OH241098   7.491   4.088   6.555
13720TIP3    H141099   7.520   4.022   6.618
13720TIP3    H241100   7.554   4.081   6.483
13721TIP3   OH241101   6.714   3.547   6.863
13721TIP3    H141102   6.767   3.522   6.939
13721TIP3    H241103   6.777   3.558   6.792
13722TIP3   OH241104   7.271   3.768   6.690
13722TIP3    H141105   7.249   3.780   6.782
13722TIP3    H241106   7.257   3.674   6.674
13723TIP3   OH241107   1.226   7.486   0.132
13723TIP3    H141108   1.202   7.450   0.217
13723TIP3    H241109   1.271   7.414   0.087
13724TIP3   OH241110   1.498   7.612   1.371
13724TIP3    H141111   1.408   7.629   1.345
13724TIP3    H241112   1.550   7.635   1.294
13725TIP3   OH241113   7.026   3.288   6.917
13725TIP3    H141114   6.995   3.292   6.827
13725TIP3    H241115   7.121   3.293   6.911
13726TIP3   OH241116   7.833   3.593   6.588
13726TIP3    H141117   7.816   3.550   6.504
13726TIP3    H241118   7.805   3.683   6.575
13727TIP3   OH241119   1.669   7.690   1.160
13727TIP3    H141120   1.742   7.700   1.098
13727TIP3    H241121   1.599   7.744   1.123
13728TIP3   OH241122   6.841   4.337   6.837
13728TIP3    H141123   6.932   4.323   6.812
13728TIP3    H241124   6.803   4.387   6.764
13729TIP3   OH241125   0.643   7.722   0.096
13729TIP3    H141126   0.737   7.739   0.085
13729TIP3    H241127   0.628   7.638   0.053
13730TIP3   OH241128   3.380   0.305   0.532
13730TIP3    H141129   3.317   0.249   0.489
13730TIP3    H241130   3.428   0.247   0.592
13731TIP3   OH241131   3.527   0.145   0.699
13731TIP3    H141132   3.522   0.077   0.766
13731TIP3    H241133   3.577   0.215   0.740
13732TIP3   OH241134   7.981   3.793   6.923
13732TIP3    H141135   8.035   3.866   6.892
13732TIP3    H241136   8.024   3.764   7.003
13733TIP3   OH241137   2.427   7.688   0.211
13733TIP3    H141138   2.359   7.632   0.249
13733TIP3    H241139   2.442   7.756   0.277
13734TIP3   OH241140   5.284   0.031   0.520
13734TIP3    H141141   5.300  -0.007   0.607
13734TIP3    H241142   5.190   0.048   0.519
13735TIP3   OH241143   5.182   0.344   0.744
13735TIP3    H141144   5.148   0.354   0.833
13735TIP3    H241145   5.119   0.287   0.700
13736TIP3   OH241146   8.033   3.570   6.773
13736TIP3    H141147   7.964   3.567   6.706
13736TIP3    H241148   8.014   3.648   6.824
13737TIP3   OH241149   7.894   3.224   6.719
13737TIP3    H141150   7.851   3.262   6.643
13737TIP3    H241151   7.883   3.129   6.708
13738TIP3   OH241152   2.244   7.515   0.326
13738TIP3    H141153   2.239   7.422   0.306
13738TIP3    H241154   2.226   7.520   0.420
13739TIP3   OH241155   0.869   7.605   1.104
13739TIP3    H141156   0.843   7.584   1.014
13739TIP3    H241157   0.964   7.594   1.105
13740TIP3   OH241158   7.854   2.955   6.700
13740TIP3    H141159   7.911   2.910   6.763
13740TIP3    H241160   7.769   2.914   6.713
13741TIP3   OH241161   2.256   7.252   0.203
13741TIP3    H141162   2.273   7.157   0.200
13741TIP3    H241163   2.297   7.285   0.123
13742TIP3   OH241164   1.045   6.985   1.096
13742TIP3    H141165   1.093   6.902   1.097
13742TIP3    H241166   1.111   7.049   1.068
13743TIP3   OH241167   0.845   7.243   1.144
13743TIP3    H141168   0.892   7.240   1.060
13743TIP3    H241169   0.874   7.326   1.184
13744TIP3   OH241170   8.110   2.898   6.872
13744TIP3    H141171   8.140   2.836   6.806
13744TIP3    H241172   8.163   2.977   6.857
13745TIP3   OH241173   0.826   6.747   0.655
13745TIP3    H141174   0.737   6.734   0.688
13745TIP3    H241175   0.815   6.802   0.577
13746TIP3   OH241176   4.821   0.446   0.155
13746TIP3    H141177   4.879   0.437   0.079
13746TIP3    H241178   4.863   0.512   0.210
13747TIP3   OH241179   0.887   6.775   1.476
13747TIP3    H141180   0.968   6.815   1.507
13747TIP3    H241181   0.850   6.840   1.416
13748TIP3   OH241182   3.920   0.247   1.659
13748TIP3    H141183   3.896   0.221   1.570
13748TIP3    H241184   3.846   0.218   1.713
13749TIP3   OH241185   4.123   0.276   0.945
13749TIP3    H141186   4.070   0.356   0.949
13749TIP3    H241187   4.209   0.302   0.979
13750TIP3   OH241188   3.779   0.398   1.135
13750TIP3    H141189   3.746   0.457   1.068
13750TIP3    H241190   3.797   0.455   1.210
13751TIP3   OH241191   3.994   0.517   0.972
13751TIP3    H141192   3.924   0.546   1.030
13751TIP3    H241193   3.965   0.541   0.884
13752TIP3   OH241194   4.495   0.564   0.700
13752TIP3    H141195   4.404   0.539   0.689
13752TIP3    H241196   4.491   0.650   0.742
13753TIP3   OH241197   4.703   0.434   0.813
13753TIP3    H141198   4.644   0.483   0.757
13753TIP3    H241199   4.782   0.488   0.818
13754TIP3   OH241200   4.935   0.680   0.669
13754TIP3    H141201   4.981   0.640   0.743
13754TIP3    H241202   4.942   0.615   0.599
13755TIP3   OH241203   3.706   0.318   0.840
13755TIP3    H141204   3.699   0.282   0.928
13755TIP3    H241205   3.777   0.269   0.799
13756TIP3   OH241206   3.890   0.164   0.716
13756TIP3    H141207   3.907   0.093   0.778
13756TIP3    H241208   3.976   0.196   0.692
13757TIP3   OH241209   4.152   0.234   0.679
13757TIP3    H141210   4.200   0.156   0.648
13757TIP3    H241211   4.154   0.226   0.774
13758TIP3   OH241212   1.100   6.695   0.788
13758TIP3    H141213   1.011   6.661   0.796
13758TIP3    H241214   1.156   6.621   0.810
13759TIP3   OH241215   0.955   6.556   0.479
13759TIP3    H141216   0.981   6.605   0.401
13759TIP3    H241217   0.918   6.622   0.538
13760TIP3   OH241218   1.577   6.713   0.706
13760TIP3    H141219   1.638   6.756   0.645
13760TIP3    H241220   1.565   6.777   0.776
13761TIP3   OH241221   2.144   6.792   0.229
13761TIP3    H141222   2.066   6.832   0.266
13761TIP3    H241223   2.146   6.703   0.266
13762TIP3   OH241224   3.473   0.111   0.242
13762TIP3    H141225   3.390   0.079   0.209
13762TIP3    H241226   3.477   0.202   0.212
13763TIP3   OH241227   1.063   6.687   0.244
13763TIP3    H141228   1.109   6.627   0.185
13763TIP3    H241229   1.132   6.743   0.279
13764TIP3   OH241230   1.549   6.878   0.329
13764TIP3    H141231   1.603   6.825   0.387
13764TIP3    H241232   1.568   6.968   0.355
13765TIP3   OH241233   7.101   4.274   6.775
13765TIP3    H141234   7.185   4.303   6.737
13765TIP3    H241235   7.073   4.202   6.718
13766TIP3   OH241236   7.811   4.414   6.869
13766TIP3    H141237   7.806   4.318   6.863
13766TIP3    H241238   7.764   4.445   6.791
13767TIP3   OH241239   6.403   4.116   6.832
13767TIP3    H141240   6.406   4.129   6.927
13767TIP3    H241241   6.485   4.070   6.812
13768TIP3   OH241242   2.572   7.452   0.159
13768TIP3    H141243   2.545   7.543   0.169
13768TIP3    H241244   2.533   7.425   0.076
13769TIP3   OH241245   8.148   3.985   6.813
13769TIP3    H141246   8.107   4.004   6.729
13769TIP3    H241247   8.179   4.070   6.844
13770TIP3   OH241248   0.042   3.683   6.825
13770TIP3    H141249  -0.035   3.729   6.792
13770TIP3    H241250   0.030   3.681   6.920
13771TIP3   OH241251   5.353   0.321   0.462
13771TIP3    H141252   5.397   0.235   0.461
13771TIP3    H241253   5.319   0.330   0.551
13772TIP3   OH241254   0.338   4.738   6.585
13772TIP3    H141255   0.357   4.668   6.522
13772TIP3    H241256   0.424   4.764   6.618
13773TIP3   OH241257   5.552   0.472  -0.016
13773TIP3    H141258   5.548   0.465   0.080
13773TIP3    H241259   5.511   0.392  -0.047
13774TIP3   OH241260   0.205   3.139   6.504
13774TIP3    H141261   0.261   3.061   6.496
13774TIP3    H241262   0.185   3.164   6.414
13775TIP3   OH241263   8.249   3.135   6.852
13775TIP3    H141264   8.288   3.174   6.773
13775TIP3    H241265   8.193   3.204   6.887
13776TIP3   OH241266   0.090   3.415   6.612
13776TIP3    H141267   0.054   3.330   6.639
13776TIP3    H241268   0.185   3.403   6.617
13777TIP3   OH241269   0.385   3.847   6.706
13777TIP3    H141270   0.308   3.796   6.682
13777TIP3    H241271   0.358   3.897   6.782
13778TIP3   OH241272   0.513   4.020   6.413
13778TIP3    H141273   0.456   4.082   6.458
13778TIP3    H241274   0.540   3.958   6.481
13779TIP3   OH241275   0.188   4.260   6.847
13779TIP3    H141276   0.166   4.347   6.812
13779TIP3    H241277   0.156   4.262   6.937
13780TIP3   OH241278   8.260   3.557   6.614
13780TIP3    H141279   8.302   3.641   6.631
13780TIP3    H241280   8.181   3.558   6.669
13781TIP3   OH241281   0.260   3.985   6.904
13781TIP3    H141282   0.230   4.070   6.870
13781TIP3    H241283   0.293   4.005   6.992
13782TIP3   OH241284   0.112   4.521   6.771
13782TIP3    H141285   0.030   4.522   6.819
13782TIP3    H241286   0.149   4.608   6.783
13783TIP3   OH241287   0.130   4.083   6.248
13783TIP3    H141288   0.084   3.999   6.244
13783TIP3    H241289   0.134   4.103   6.342
13784TIP3   OH241290   0.050   4.176   6.505
13784TIP3    H141291   0.119   4.118   6.537
13784TIP3    H241292   0.084   4.264   6.519
13785TIP3   OH241293   8.334   3.817   6.695
13785TIP3    H141294   8.271   3.861   6.752
13785TIP3    H241295   8.349   3.879   6.623
13786TIP3   OH241296   0.383   4.269   6.460
13786TIP3    H141297   0.316   4.336   6.470
13786TIP3    H241298   0.444   4.305   6.395
13787TIP3   OH241299   0.162   4.420   6.520
13787TIP3    H141300   0.132   4.482   6.453
13787TIP3    H241301   0.144   4.465   6.603
13788TIP3   OH241302   8.327   4.026   6.487
13788TIP3    H141303   8.392   4.095   6.499
13788TIP3    H241304   8.374   3.956   6.442
13789TIP3   OH241305   8.316   3.284   6.632
13789TIP3    H141306   8.321   3.379   6.633
13789TIP3    H241307   8.252   3.265   6.563
13790TIP3   OH241308   8.219   4.250   6.888
13790TIP3    H141309   8.172   4.287   6.963
13790TIP3    H241310   8.180   4.292   6.812
13791TIP3   OH241311   0.350   4.402   6.152
13791TIP3    H141312   0.275   4.342   6.153
13791TIP3    H241313   0.426   4.346   6.163
13792TIP3   OH241314   8.463   3.812   6.400
13792TIP3    H141315   8.508   3.769   6.473
13792TIP3    H241316   8.511   3.784   6.322
13793TIP3   OH241317   0.508   3.922   6.153
13793TIP3    H141318   0.542   3.963   6.232
13793TIP3    H241319   0.447   3.855   6.184
13794TIP3   OH241320   0.153   3.717   6.581
13794TIP3    H141321   0.112   3.686   6.662
13794TIP3    H241322   0.182   3.637   6.537
13795TIP3   OH241323   0.293   3.544   6.418
13795TIP3    H141324   0.316   3.616   6.360
13795TIP3    H241325   0.344   3.470   6.387
13796TIP3   OH241326   0.117   4.598   6.320
13796TIP3    H141327   0.193   4.647   6.351
13796TIP3    H241328   0.093   4.639   6.237
13797TIP3   OH241329   8.071   3.967   6.533
13797TIP3    H141330   8.161   3.995   6.519
13797TIP3    H241331   8.065   3.881   6.492
13798TIP3   OH241332   5.191   0.558   0.008
13798TIP3    H141333   5.121   0.507  -0.033
13798TIP3    H241334   5.234   0.496   0.068
13799TIP3   OH241335   5.325   0.405   0.195
13799TIP3    H141336   5.318   0.343   0.267
13799TIP3    H241337   5.349   0.487   0.236
13800TIP3   OH241338   8.111   4.373   6.672
13800TIP3    H141339   8.027   4.337   6.642
13800TIP3    H241340   8.108   4.465   6.646
13801TIP3   OH241341   0.004   2.973   6.656
13801TIP3    H141342   0.096   2.992   6.636
13801TIP3    H241343  -0.014   3.024   6.735
13802TIP3   OH241344   0.501   4.659   6.137
13802TIP3    H141345   0.484   4.656   6.231
13802TIP3    H241346   0.435   4.601   6.099
13803TIP3   OH241347   8.189   4.376   6.327
13803TIP3    H141348   8.196   4.382   6.422
13803TIP3    H241349   8.271   4.334   6.300
13804TIP3   OH241350   7.501   1.101   1.357
13804TIP3    H141351   7.546   1.041   1.298
13804TIP3    H241352   7.553   1.181   1.355
13805TIP3   OH241353   7.210   0.352   1.100
13805TIP3    H141354   7.266   0.409   1.153
13805TIP3    H241355   7.271   0.294   1.054
13806TIP3   OH241356   7.414   0.507   1.193
13806TIP3    H141357   7.472   0.556   1.250
13806TIP3    H241358   7.453   0.514   1.106
13807TIP3   OH241359   7.769   1.112   0.799
13807TIP3    H141360   7.773   1.204   0.775
13807TIP3    H241361   7.858   1.079   0.782
13808TIP3   OH241362   7.043   1.389   1.269
13808TIP3    H141363   7.031   1.400   1.174
13808TIP3    H241364   7.051   1.478   1.303
13809TIP3   OH241365   7.276   1.285   0.918
13809TIP3    H141366   7.333   1.222   0.874
13809TIP3    H241367   7.317   1.301   1.002
13810TIP3   OH241368   7.350   1.360   1.196
13810TIP3    H141369   7.295   1.304   1.251
13810TIP3    H241370   7.433   1.366   1.243
13811TIP3   OH241371   7.521   0.530   0.945
13811TIP3    H141372   7.473   0.525   0.861
13811TIP3    H241373   7.608   0.560   0.920
13812TIP3   OH241374   7.200   0.874   1.121
13812TIP3    H141375   7.157   0.957   1.141
13812TIP3    H241376   7.177   0.817   1.194
13813TIP3   OH241377   7.999   0.409   1.148
13813TIP3    H141378   7.927   0.346   1.146
13813TIP3    H241379   7.979   0.470   1.077
13814TIP3   OH241380   7.683   1.168   1.056
13814TIP3    H141381   7.661   1.086   1.099
13814TIP3    H241382   7.711   1.143   0.968
13815TIP3   OH241383   7.445   0.915   0.975
13815TIP3    H141384   7.503   0.908   1.051
13815TIP3    H241385   7.358   0.895   1.010
13816TIP3   OH241386   7.793   1.385   0.767
13816TIP3    H141387   7.839   1.456   0.721
13816TIP3    H241388   7.719   1.429   0.810
13817TIP3   OH241389   7.628   0.904   1.185
13817TIP3    H141390   7.604   0.832   1.243
13817TIP3    H241391   7.721   0.891   1.167
13818TIP3   OH241392   6.830   0.882   0.965
13818TIP3    H141393   6.834   0.788   0.948
13818TIP3    H241394   6.777   0.890   1.044
13819TIP3   OH241395   7.075   1.104   1.194
13819TIP3    H141396   7.115   1.149   1.268
13819TIP3    H241397   7.045   1.175   1.137
13820TIP3   OH241398   6.698   1.123   1.148
13820TIP3    H141399   6.718   1.199   1.094
13820TIP3    H241400   6.746   1.139   1.230
13821TIP3   OH241401   6.969   1.085   0.858
13821TIP3    H141402   6.923   1.013   0.901
13821TIP3    H241403   7.045   1.043   0.816
13822TIP3   OH241404   7.421   1.107   0.780
13822TIP3    H141405   7.446   1.039   0.843
13822TIP3    H241406   7.480   1.094   0.706
13823TIP3   OH241407   6.583   0.629   1.036
13823TIP3    H141408   6.603   0.653   1.126
13823TIP3    H241409   6.668   0.621   0.994
13824TIP3   OH241410   7.139   0.792   0.867
13824TIP3    H141411   7.147   0.818   0.959
13824TIP3    H241412   7.145   0.697   0.868
13825TIP3   OH241413   6.927   0.317   1.136
13825TIP3    H141414   6.894   0.342   1.050
13825TIP3    H241415   7.019   0.343   1.134
13826TIP3   OH241416   7.741   0.640   0.817
13826TIP3    H141417   7.724   0.592   0.736
13826TIP3    H241418   7.710   0.729   0.799
13827TIP3   OH241419   6.755   1.354   1.015
13827TIP3    H141420   6.851   1.356   1.018
13827TIP3    H241421   6.734   1.376   0.924
13828TIP3   OH241422   7.894   0.854   1.154
13828TIP3    H141423   7.965   0.912   1.128
13828TIP3    H241424   7.932   0.798   1.222
13829TIP3   OH241425   7.964   0.642   1.319
13829TIP3    H141426   7.970   0.615   1.411
13829TIP3    H241427   7.959   0.560   1.270
13830TIP3   OH241428   7.948   0.630   0.992
13830TIP3    H141429   7.876   0.620   0.931
13830TIP3    H241430   7.924   0.707   1.044
13831TIP3   OH241431   7.801   0.332   0.944
13831TIP3    H141432   7.765   0.327   0.855
13831TIP3    H241433   7.776   0.249   0.984
13832TIP3   OH241434   7.746   0.089   1.055
13832TIP3    H141435   7.826   0.060   1.100
13832TIP3    H241436   7.680   0.025   1.080
13833TIP3   OH241437   5.145   7.977   1.127
13833TIP3    H141438   5.170   7.893   1.087
13833TIP3    H241439   5.209   8.040   1.093
13834TIP3   OH241440   7.591   1.387   1.335
13834TIP3    H141441   7.641   1.414   1.257
13834TIP3    H241442   7.614   1.452   1.401
13835TIP3   OH241443   7.020   1.311   0.992
13835TIP3    H141444   7.112   1.323   0.966
13835TIP3    H241445   6.991   1.235   0.941
13836TIP3   OH241446   7.736   1.434   1.099
13836TIP3    H141447   7.721   1.341   1.086
13836TIP3    H241448   7.691   1.476   1.025
13837TIP3   OH241449   0.719   0.979   1.048
13837TIP3    H141450   0.681   1.063   1.024
13837TIP3    H241451   0.653   0.915   1.023
13838TIP3   OH241452   0.707   0.985   1.439
13838TIP3    H141453   0.754   0.961   1.519
13838TIP3    H241454   0.667   0.904   1.409
13839TIP3   OH241455   0.962   1.275   1.152
13839TIP3    H141456   0.919   1.200   1.194
13839TIP3    H241457   1.055   1.257   1.161
13840TIP3   OH241458   0.008   1.272   1.497
13840TIP3    H141459  -0.010   1.179   1.507
13840TIP3    H241460   0.104   1.278   1.494
13841TIP3   OH241461   8.235   0.511   1.255
13841TIP3    H141462   8.218   0.587   1.310
13841TIP3    H241463   8.147   0.481   1.229
13842TIP3   OH241464   8.325   0.737   1.434
13842TIP3    H141465   8.358   0.725   1.523
13842TIP3    H241466   8.362   0.820   1.405
13843TIP3   OH241467   0.664   1.696   1.175
13843TIP3    H141468   0.704   1.645   1.105
13843TIP3    H241469   0.583   1.649   1.196
13844TIP3   OH241470   0.531   1.209   1.468
13844TIP3    H141471   0.568   1.127   1.437
13844TIP3    H241472   0.601   1.250   1.518
13845TIP3   OH241473   1.547   0.510   1.451
13845TIP3    H141474   1.559   0.592   1.499
13845TIP3    H241475   1.591   0.525   1.367
13846TIP3   OH241476   0.899   0.666   1.522
13846TIP3    H141477   0.957   0.596   1.553
13846TIP3    H241478   0.886   0.646   1.429
13847TIP3   OH241479   0.345   0.439   1.466
13847TIP3    H141480   0.289   0.492   1.409
13847TIP3    H241481   0.354   0.356   1.419
13848TIP3   OH241482   0.994   0.452   1.105
13848TIP3    H141483   1.057   0.441   1.176
13848TIP3    H241484   1.045   0.486   1.032
13849TIP3   OH241485   0.347   0.766   1.389
13849TIP3    H141486   0.440   0.743   1.394
13849TIP3    H241487   0.305   0.690   1.350
13850TIP3   OH241488   1.596   0.694   1.660
13850TIP3    H141489   1.597   0.782   1.621
13850TIP3    H241490   1.506   0.684   1.692
13851TIP3   OH241491   0.590   1.191   0.935
13851TIP3    H141492   0.563   1.171   0.845
13851TIP3    H241493   0.544   1.272   0.956
13852TIP3   OH241494   1.169   0.469   1.311
13852TIP3    H141495   1.207   0.396   1.360
13852TIP3    H241496   1.221   0.545   1.336
13853TIP3   OH241497   8.087   1.019   1.039
13853TIP3    H141498   8.054   1.037   0.951
13853TIP3    H241499   8.114   1.105   1.073
13854TIP3   OH241500   0.992   1.549   1.291
13854TIP3    H141501   0.949   1.464   1.296
13854TIP3    H241502   1.021   1.556   1.200
13855TIP3   OH241503   1.328   0.478   1.643
13855TIP3    H141504   1.238   0.472   1.613
13855TIP3    H241505   1.381   0.467   1.563
13856TIP3   OH241506   0.735   1.569   0.944
13856TIP3    H141507   0.779   1.485   0.930
13856TIP3    H241508   0.794   1.634   0.906
13857TIP3   OH241509   0.871   1.342   0.890
13857TIP3    H141510   0.871   1.268   0.829
13857TIP3    H241511   0.899   1.305   0.973
13858TIP3   OH241512   1.246   1.425   1.629
13858TIP3    H141513   1.237   1.352   1.568
13858TIP3    H241514   1.231   1.503   1.576
13859TIP3   OH241515   0.548   0.820   0.890
13859TIP3    H141516   0.466   0.865   0.872
13859TIP3    H241517   0.593   0.817   0.805
13860TIP3   OH241518   0.506   0.619   0.595
13860TIP3    H141519   0.576   0.662   0.645
13860TIP3    H241520   0.552   0.550   0.546
13861TIP3   OH241521   0.898   0.909   0.851
13861TIP3    H141522   0.843   0.933   0.926
13861TIP3    H241523   0.978   0.876   0.891
13862TIP3   OH241524   1.119   0.999   1.719
13862TIP3    H141525   1.105   1.092   1.733
13862TIP3    H241526   1.036   0.966   1.685
13863TIP3   OH241527   0.129   0.893   1.260
13863TIP3    H141528   0.093   0.830   1.199
13863TIP3    H241529   0.204   0.849   1.299
13864TIP3   OH241530   0.274   1.315   1.404
13864TIP3    H141531   0.253   1.283   1.316
13864TIP3    H241532   0.358   1.274   1.425
13865TIP3   OH241533   0.236   0.887   1.610
13865TIP3    H141534   0.273   0.839   1.535
13865TIP3    H241535   0.313   0.921   1.656
13866TIP3   OH241536   0.735   0.759   0.685
13866TIP3    H141537   0.796   0.814   0.734
13866TIP3    H241538   0.762   0.769   0.594
13867TIP3   OH241539   0.482   1.451   0.965
13867TIP3    H141540   0.566   1.495   0.952
13867TIP3    H241541   0.425   1.490   0.899
13868TIP3   OH241542   1.249   0.051   0.709
13868TIP3    H141543   1.192   0.049   0.786
13868TIP3    H241544   1.215   0.125   0.657
13869TIP3   OH241545   8.497   0.730   1.066
13869TIP3    H141546   8.423   0.776   1.026
13869TIP3    H241547   8.457   0.654   1.109
13870TIP3   OH241548   1.068   1.368   0.294
13870TIP3    H141549   1.065   1.461   0.270
13870TIP3    H241550   1.157   1.341   0.273
13871TIP3   OH241551   1.478   1.786   1.674
13871TIP3    H141552   1.485   1.691   1.680
13871TIP3    H241553   1.396   1.807   1.718
13872TIP3   OH241554   0.372   1.667   0.768
13872TIP3    H141555   0.322   1.637   0.692
13872TIP3    H241556   0.331   1.750   0.793
13873TIP3   OH241557   8.305   1.518   1.142
13873TIP3    H141558   8.350   1.512   1.227
13873TIP3    H241559   8.257   1.436   1.135
13874TIP3   OH241560   0.570   1.597   0.400
13874TIP3    H141561   0.625   1.528   0.362
13874TIP3    H241562   0.604   1.610   0.488
13875TIP3   OH241563   0.626   1.639   0.670
13875TIP3    H141564   0.538   1.642   0.708
13875TIP3    H241565   0.676   1.584   0.729
13876TIP3   OH241566   0.811   0.758   0.422
13876TIP3    H141567   0.772   0.751   0.335
13876TIP3    H241568   0.893   0.805   0.409
13877TIP3   OH241569   0.521   0.170   0.735
13877TIP3    H141570   0.502   0.159   0.829
13877TIP3    H241571   0.484   0.091   0.695
13878TIP3   OH241572   0.192   0.571   1.281
13878TIP3    H141573   0.108   0.542   1.317
13878TIP3    H241574   0.198   0.526   1.197
13879TIP3   OH241575   0.687   0.620   1.018
13879TIP3    H141576   0.639   0.689   0.973
13879TIP3    H241577   0.741   0.579   0.950
13880TIP3   OH241578   0.840   0.631   1.249
13880TIP3    H141579   0.781   0.650   1.176
13880TIP3    H241580   0.891   0.556   1.219
13881TIP3   OH241581   0.173   0.147   0.673
13881TIP3    H141582   0.179   0.158   0.768
13881TIP3    H241583   0.097   0.200   0.647
13882TIP3   OH241584   8.220   0.247   1.095
13882TIP3    H141585   8.240   0.281   1.008
13882TIP3    H241586   8.149   0.302   1.127
13883TIP3   OH241587   0.864   0.900   1.651
13883TIP3    H141588   0.885   0.820   1.603
13883TIP3    H241589   0.840   0.870   1.739
13884TIP3   OH241590   0.605   0.399   1.342
13884TIP3    H141591   0.535   0.414   1.405
13884TIP3    H241592   0.683   0.384   1.396
13885TIP3   OH241593   8.472   0.434   1.354
13885TIP3    H141594   8.387   0.456   1.315
13885TIP3    H241595   8.500   0.356   1.308
13886TIP3   OH241596   0.213   0.424   1.050
13886TIP3    H141597   0.305   0.446   1.040
13886TIP3    H241598   0.172   0.450   0.967
13887TIP3   OH241599   1.036   0.440   1.604
13887TIP3    H141600   1.046   0.386   1.683
13887TIP3    H241601   0.973   0.391   1.551
13888TIP3   OH241602   0.078   0.442   0.812
13888TIP3    H141603   0.013   0.397   0.758
13888TIP3    H241604   0.134   0.487   0.749
13889TIP3   OH241605   1.181   2.109   1.760
13889TIP3    H141606   1.182   2.128   1.666
13889TIP3    H241607   1.230   2.181   1.800
13890TIP3   OH241608   0.620   0.709   1.421
13890TIP3    H141609   0.672   0.672   1.349
13890TIP3    H241610   0.658   0.671   1.500
13891TIP3   OH241611   0.099   0.192   1.313
13891TIP3    H141612   0.063   0.153   1.393
13891TIP3    H241613   0.065   0.138   1.242
13892TIP3   OH241614   0.309   0.958   0.835
13892TIP3    H141615   0.235   0.900   0.816
13892TIP3    H241616   0.288   0.996   0.920
13893TIP3   OH241617   1.179   1.231   1.454
13893TIP3    H141618   1.245   1.235   1.384
13893TIP3    H241619   1.117   1.164   1.425
13894TIP3   OH241620   0.712   0.321   0.621
13894TIP3    H141621   0.646   0.270   0.667
13894TIP3    H241622   0.768   0.357   0.690
13895TIP3   OH241623   0.828   0.517   0.803
13895TIP3    H141624   0.909   0.476   0.771
13895TIP3    H241625   0.819   0.595   0.749
13896TIP3   OH241626   0.012   0.992   1.491
13896TIP3    H141627   0.047   0.970   1.404
13896TIP3    H241628   0.077   0.959   1.552
13897TIP3   OH241629   0.472   1.120   0.687
13897TIP3    H141630   0.424   1.203   0.684
13897TIP3    H241631   0.415   1.061   0.736
13898TIP3   OH241632   0.860   1.587   1.705
13898TIP3    H141633   0.837   1.505   1.662
13898TIP3    H241634   0.870   1.563   1.797
13899TIP3   OH241635   1.279   0.631   0.637
13899TIP3    H141636   1.221   0.573   0.587
13899TIP3    H241637   1.270   0.716   0.595
13900TIP3   OH241638   1.495   1.517   1.703
13900TIP3    H141639   1.404   1.488   1.703
13900TIP3    H241640   1.536   1.471   1.630
13901TIP3   OH241641   0.990   1.430   0.555
13901TIP3    H141642   0.959   1.352   0.601
13901TIP3    H241643   1.007   1.400   0.466
13902TIP3   OH241644   0.965   1.065   1.349
13902TIP3    H141645   0.875   1.040   1.369
13902TIP3    H241646   1.006   0.984   1.318
13903TIP3   OH241647   0.120   1.308   1.149
13903TIP3    H141648   0.114   1.385   1.093
13903TIP3    H241649   0.029   1.289   1.172
13904TIP3   OH241650   8.183   0.598   0.856
13904TIP3    H141651   8.231   0.678   0.878
13904TIP3    H241652   8.101   0.605   0.906
13905TIP3   OH241653   0.227   1.067   1.067
13905TIP3    H141654   0.203   1.156   1.094
13905TIP3    H241655   0.196   1.012   1.140
13906TIP3   OH241656   0.388   1.644   1.594
13906TIP3    H141657   0.417   1.731   1.623
13906TIP3    H241658   0.457   1.585   1.625
13907TIP3   OH241659   0.037   1.536   0.996
13907TIP3    H141660  -0.050   1.539   1.036
13907TIP3    H241661   0.069   1.626   1.001
13908TIP3   OH241662   0.799   1.291   1.582
13908TIP3    H141663   0.863   1.271   1.651
13908TIP3    H241664   0.825   1.237   1.508
13909TIP3   OH241665   0.744   1.176   0.458
13909TIP3    H141666   0.790   1.159   0.540
13909TIP3    H241667   0.654   1.146   0.475
13910TIP3   OH241668   0.993   1.806   1.612
13910TIP3    H141669   0.941   1.732   1.642
13910TIP3    H241670   0.953   1.832   1.529
13911TIP3   OH241671   1.073   1.643   0.261
13911TIP3    H141672   1.100   1.708   0.197
13911TIP3    H241673   0.997   1.681   0.304
13912TIP3   OH241674   0.916   1.131   0.683
13912TIP3    H141675   0.897   1.054   0.737
13912TIP3    H241676   1.008   1.123   0.659
13913TIP3   OH241677   0.079   1.147   0.467
13913TIP3    H141678   0.105   1.061   0.436
13913TIP3    H241679   0.069   1.136   0.562
13914TIP3   OH241680   0.045   1.155   0.743
13914TIP3    H141681   0.118   1.125   0.796
13914TIP3    H241682   0.050   1.251   0.746
13915TIP3   OH241683   8.281   0.847   0.938
13915TIP3    H141684   8.217   0.893   0.991
13915TIP3    H241685   8.301   0.907   0.866
13916TIP3   OH241686   0.850   0.256   0.979
13916TIP3    H141687   0.871   0.269   0.887
13916TIP3    H241688   0.897   0.326   1.025
13917TIP3   OH241689   0.328   1.351   0.686
13917TIP3    H141690   0.239   1.372   0.716
13917TIP3    H241691   0.341   1.406   0.609
13918TIP3   OH241692   0.488   0.440   1.085
13918TIP3    H141693   0.554   0.502   1.052
13918TIP3    H241694   0.515   0.424   1.176
13919TIP3   OH241695   0.677   0.186   1.180
13919TIP3    H141696   0.659   0.259   1.240
13919TIP3    H241697   0.737   0.223   1.115
13920TIP3   OH241698   0.070   1.428   0.746
13920TIP3    H141699   0.048   1.498   0.684
13920TIP3    H241700   0.056   1.468   0.832
13921TIP3   OH241701   0.189   0.170   0.943
13921TIP3    H141702   0.192   0.259   0.978
13921TIP3    H241703   0.273   0.131   0.967
13922TIP3   OH241704   1.059   0.816   1.265
13922TIP3    H141705   0.988   0.752   1.269
13922TIP3    H241706   1.132   0.774   1.312
13923TIP3   OH241707   8.294   1.035   0.727
13923TIP3    H141708   8.366   1.096   0.741
13923TIP3    H241709   8.329   0.971   0.665
13924TIP3   OH241710   8.220   0.325   0.840
13924TIP3    H141711   8.223   0.420   0.848
13924TIP3    H241712   8.168   0.309   0.762
13925TIP3   OH241713   8.139   1.287   1.123
13925TIP3    H141714   8.095   1.326   1.198
13925TIP3    H241715   8.100   1.329   1.047
13926TIP3   OH241716   0.274   1.312   0.365
13926TIP3    H141717   0.200   1.262   0.399
13926TIP3    H241718   0.344   1.247   0.354
13927TIP3   OH241719   0.725   1.403   0.292
13927TIP3    H141720   0.732   1.322   0.342
13927TIP3    H241721   0.757   1.380   0.204
13928TIP3   OH241722   8.423   0.840   0.588
13928TIP3    H141723   8.474   0.815   0.665
13928TIP3    H241724   8.488   0.852   0.519
13929TIP3   OH241725   0.419   1.075   0.418
13929TIP3    H141726   0.433   1.077   0.513
13929TIP3    H241727   0.420   0.982   0.395
13930TIP3   OH241728   1.029   1.281   1.749
13930TIP3    H141729   1.092   1.319   1.688
13930TIP3    H241730   1.067   1.296   1.836
13931TIP3   OH241731   0.100   0.777   0.799
13931TIP3    H141732   0.078   0.743   0.885
13931TIP3    H241733   0.145   0.705   0.756
13932TIP3   OH241734   0.234   0.588   0.644
13932TIP3    H141735   0.204   0.590   0.553
13932TIP3    H241736   0.330   0.595   0.638
13933TIP3   OH241737   1.033   0.888   0.318
13933TIP3    H141738   1.024   0.845   0.233
13933TIP3    H241739   1.007   0.978   0.303
13934TIP3   OH241740   0.061   1.638   0.563
13934TIP3    H141741   0.148   1.611   0.532
13934TIP3    H241742   0.023   1.685   0.489
13935TIP3   OH241743   8.023   1.013   0.755
13935TIP3    H141744   8.117   1.029   0.746
13935TIP3    H241745   8.010   0.926   0.716
13936TIP3   OH241746   7.944   1.600   1.168
13936TIP3    H141747   7.874   1.542   1.138
13936TIP3    H241748   7.989   1.549   1.236
13937TIP3   OH241749   8.072   1.453   1.361
13937TIP3    H141750   8.023   1.409   1.431
13937TIP3    H241751   8.128   1.516   1.406
13938TIP3   OH241752   1.268   1.881   1.169
13938TIP3    H141753   1.305   1.889   1.257
13938TIP3    H241754   1.342   1.899   1.111
13939TIP3   OH241755   1.322   1.879   1.445
13939TIP3    H141756   1.279   1.794   1.444
13939TIP3    H241757   1.397   1.868   1.503
13940TIP3   OH241758   1.189   1.091   0.644
13940TIP3    H141759   1.253   1.156   0.613
13940TIP3    H241760   1.233   1.048   0.718
13941TIP3   OH241761   1.312   0.947   0.844
13941TIP3    H141762   1.249   0.905   0.903
13941TIP3    H241763   1.380   0.981   0.903
13942TIP3   OH241764   1.374   1.312   1.257
13942TIP3    H141765   1.417   1.248   1.199
13942TIP3    H241766   1.381   1.395   1.209
13943TIP3   OH241767   1.177   1.645   1.474
13943TIP3    H141768   1.117   1.695   1.529
13943TIP3    H241769   1.122   1.608   1.405
13944TIP3   OH241770   1.242   0.864   0.493
13944TIP3    H141771   1.171   0.861   0.429
13944TIP3    H241772   1.222   0.940   0.547
13945TIP3   OH241773   1.133   0.494   0.438
13945TIP3    H141774   1.065   0.490   0.371
13945TIP3    H241775   1.103   0.434   0.507
13946TIP3   OH241776   1.119   0.811   0.993
13946TIP3    H141777   1.126   0.717   0.975
13946TIP3    H241778   1.102   0.816   1.087
13947TIP3   OH241779   1.412   1.248   1.881
13947TIP3    H141780   1.476   1.177   1.875
13947TIP3    H241781   1.418   1.293   1.797
13948TIP3   OH241782   1.585   1.026   1.858
13948TIP3    H141783   1.520   0.963   1.889
13948TIP3    H241784   1.600   1.001   1.766
13949TIP3   OH241785   1.150   0.549   0.891
13949TIP3    H141786   1.122   0.469   0.846
13949TIP3    H241787   1.210   0.591   0.829
13950TIP3   OH241788   1.288   0.712   1.387
13950TIP3    H141789   1.366   0.749   1.347
13950TIP3    H241790   1.294   0.738   1.479
13951TIP3   OH241791   1.328   0.835   1.630
13951TIP3    H141792   1.259   0.891   1.667
13951TIP3    H241793   1.395   0.897   1.600
13952TIP3   OH241794   1.381   0.192   0.475
13952TIP3    H141795   1.409   0.150   0.557
13952TIP3    H241796   1.397   0.285   0.490
13953TIP3   OH241797   8.216   0.158   1.354
13953TIP3    H141798   8.125   0.164   1.383
13953TIP3    H241799   8.214   0.189   1.263
13954TIP3   OH241800   0.888   1.761   0.834
13954TIP3    H141801   0.927   1.733   0.751
13954TIP3    H241802   0.937   1.840   0.858
13955TIP3   OH241803   0.159   1.599   1.756
13955TIP3    H141804   0.119   1.680   1.722
13955TIP3    H241805   0.236   1.586   1.701
13956TIP3   OH241806   0.787   1.973   1.737
13956TIP3    H141807   0.868   1.932   1.707
13956TIP3    H241808   0.802   1.990   1.830
13957TIP3   OH241809   0.068   1.832   1.638
13957TIP3    H141810  -0.018   1.853   1.675
13957TIP3    H241811   0.059   1.852   1.545
13958TIP3   OH241812   0.556   1.895   1.367
13958TIP3    H141813   0.463   1.876   1.351
13958TIP3    H241814   0.555   1.954   1.442
13959TIP3   OH241815   0.895   1.916   1.326
13959TIP3    H141816   0.915   2.009   1.334
13959TIP3    H241817   0.957   1.884   1.260
13960TIP3   OH241818   8.248   1.624   1.503
13960TIP3    H141819   8.259   1.602   1.595
13960TIP3    H241820   8.324   1.585   1.460
13961TIP3   OH241821   8.455   1.506   1.373
13961TIP3    H141822   8.466   1.422   1.417
13961TIP3    H241823   8.543   1.543   1.368
13962TIP3   OH241824   0.225   1.589   1.380
13962TIP3    H141825   0.241   1.495   1.371
13962TIP3    H241826   0.272   1.614   1.459
13963TIP3   OH241827   0.845   0.303   1.458
13963TIP3    H141828   0.793   0.230   1.491
13963TIP3    H241829   0.908   0.263   1.398
13964TIP3   OH241830   1.287   0.191   1.411
13964TIP3    H141831   1.335   0.200   1.329
13964TIP3    H241832   1.198   0.169   1.385
13965TIP3   OH241833   1.409   0.207   1.168
13965TIP3    H141834   1.474   0.155   1.120
13965TIP3    H241835   1.425   0.297   1.140
13966TIP3   OH241836   5.466   7.875   1.052
13966TIP3    H141837   5.543   7.915   1.012
13966TIP3    H241838   5.491   7.860   1.143
13967TIP3   OH241839   0.529  -0.021   1.310
13967TIP3    H141840   0.550   0.070   1.292
13967TIP3    H241841   0.463  -0.017   1.378
13968TIP3   OH241842   1.025   0.145   1.317
13968TIP3    H141843   1.050   0.106   1.233
13968TIP3    H241844   0.998   0.071   1.371
13969TIP3   OH241845   1.087   0.052   0.923
13969TIP3    H141846   1.007   0.104   0.931
13969TIP3    H241847   1.065  -0.032   0.962
13970TIP3   OH241848   8.031   1.408   0.904
13970TIP3    H141849   7.948   1.372   0.874
13970TIP3    H241850   8.029   1.499   0.877
13971TIP3   OH241851   5.607   7.996   0.843
13971TIP3    H141852   5.646   7.933   0.782
13971TIP3    H241853   5.683   8.038   0.884
13972TIP3   OH241854   0.466   0.173   1.009
13972TIP3    H141855   0.541   0.160   1.068
13972TIP3    H241856   0.449   0.267   1.012
13973TIP3   OH241857   0.313   1.555   0.490
13973TIP3    H141858   0.396   1.587   0.454
13973TIP3    H241859   0.290   1.481   0.433
13974TIP3   OH241860   1.015   1.699   0.598
13974TIP3    H141861   1.012   1.604   0.587
13974TIP3    H241862   0.974   1.734   0.519
13975TIP3   OH241863   8.116   1.415   0.556
13975TIP3    H141864   8.122   1.424   0.651
13975TIP3    H241865   8.196   1.369   0.530
13976TIP3   OH241866   1.230   1.843   1.771
13976TIP3    H141867   1.152   1.816   1.724
13976TIP3    H241868   1.219   1.937   1.785
13977TIP3   OH241869   2.513   1.234   0.539
13977TIP3    H141870   2.483   1.320   0.510
13977TIP3    H241871   2.445   1.174   0.508
13978TIP3   OH241872   2.479   1.220   0.935
13978TIP3    H141873   2.521   1.197   1.018
13978TIP3    H241874   2.438   1.138   0.905
13979TIP3   OH241875   2.762   1.484   0.603
13979TIP3    H141876   2.729   1.429   0.673
13979TIP3    H241877   2.783   1.568   0.645
13980TIP3   OH241878   1.796   1.523   1.005
13980TIP3    H141879   1.784   1.428   1.008
13980TIP3    H241880   1.890   1.534   0.985
13981TIP3   OH241881   1.497   0.727   0.782
13981TIP3    H141882   1.458   0.810   0.810
13981TIP3    H241883   1.427   0.682   0.735
13982TIP3   OH241884   1.536   1.028   0.982
13982TIP3    H141885   1.587   0.957   1.021
13982TIP3    H241886   1.601   1.095   0.959
13983TIP3   OH241887   2.412   1.970   0.624
13983TIP3    H141888   2.456   1.899   0.578
13983TIP3    H241889   2.395   1.936   0.712
13984TIP3   OH241890   2.306   1.451   0.959
13984TIP3    H141891   2.341   1.369   0.924
13984TIP3    H241892   2.384   1.502   0.982
13985TIP3   OH241893   3.313   0.753   0.926
13985TIP3    H141894   3.323   0.839   0.965
13985TIP3    H241895   3.349   0.763   0.837
13986TIP3   OH241896   2.724   0.937   1.001
13986TIP3    H141897   2.762   0.851   1.022
13986TIP3    H241898   2.691   0.927   0.912
13987TIP3   OH241899   2.079   0.599   0.954
13987TIP3    H141900   2.057   0.673   0.898
13987TIP3    H241901   2.026   0.527   0.922
13988TIP3   OH241902   2.767   0.698   0.584
13988TIP3    H141903   2.833   0.668   0.646
13988TIP3    H241904   2.818   0.730   0.509
13989TIP3   OH241905   1.711   0.834   1.065
13989TIP3    H141906   1.775   0.805   1.130
13989TIP3    H241907   1.722   0.774   0.991
13990TIP3   OH241908   2.133   1.010   0.879
13990TIP3    H141909   2.226   0.987   0.890
13990TIP3    H241910   2.092   0.929   0.848
13991TIP3   OH241911   3.309   0.979   1.101
13991TIP3    H141912   3.219   0.999   1.077
13991TIP3    H241913   3.302   0.932   1.184
13992TIP3   OH241914   2.062   0.598   1.409
13992TIP3    H141915   2.011   0.633   1.335
13992TIP3    H241916   2.005   0.611   1.485
13993TIP3   OH241917   2.401   1.446   0.401
13993TIP3    H141918   2.365   1.421   0.316
13993TIP3    H241919   2.350   1.522   0.427
13994TIP3   OH241920   2.163   1.367   1.181
13994TIP3    H141921   2.097   1.428   1.214
13994TIP3    H241922   2.201   1.412   1.106
13995TIP3   OH241923   2.940   0.653   0.790
13995TIP3    H141924   2.892   0.657   0.873
13995TIP3    H241925   2.987   0.736   0.787
13996TIP3   OH241926   1.943   0.699   1.179
13996TIP3    H141927   1.995   0.777   1.200
13996TIP3    H241928   1.988   0.660   1.104
13997TIP3   OH241929   1.975   1.549   1.275
13997TIP3    H141930   1.953   1.634   1.236
13997TIP3    H241931   1.895   1.522   1.321
13998TIP3   OH241932   1.376   1.269   0.529
13998TIP3    H141933   1.341   1.285   0.441
13998TIP3    H241934   1.402   1.355   0.561
13999TIP3   OH241935   2.839   1.719   0.732
13999TIP3    H141936   2.763   1.733   0.788
13999TIP3    H241937   2.833   1.788   0.666
14000TIP3   OH241938   3.102   0.639   1.091
14000TIP3    H141939   3.015   0.647   1.053
14000TIP3    H241940   3.161   0.661   1.019
14001TIP3   OH241941   2.406   0.297   1.131
14001TIP3    H141942   2.394   0.204   1.152
14001TIP3    H241943   2.330   0.340   1.171
14002TIP3   OH241944   2.529   1.784   0.464
14002TIP3    H141945   2.569   1.699   0.446
14002TIP3    H241946   2.572   1.844   0.404
14003TIP3   OH241947   2.674   1.576   0.364
14003TIP3    H141948   2.626   1.506   0.321
14003TIP3    H241949   2.714   1.534   0.440
14004TIP3   OH241950   2.941   1.664   1.039
14004TIP3    H141951   2.962   1.585   0.988
14004TIP3    H241952   2.976   1.736   0.987
14005TIP3   OH241953   2.343   1.076   0.382
14005TIP3    H141954   2.260   1.122   0.364
14005TIP3    H241955   2.387   1.072   0.297
14006TIP3   OH241956   2.308   0.866   0.083
14006TIP3    H141957   2.374   0.919   0.129
14006TIP3    H241958   2.359   0.802   0.033
14007TIP3   OH241959   3.128   1.250   0.907
14007TIP3    H141960   3.083   1.325   0.948
14007TIP3    H241961   3.136   1.275   0.815
14008TIP3   OH241962   2.693   1.160   0.345
14008TIP3    H141963   2.641   1.189   0.420
14008TIP3    H241964   2.777   1.133   0.383
14009TIP3   OH241965   2.871   1.148   1.228
14009TIP3    H141966   2.882   1.225   1.283
14009TIP3    H241967   2.782   1.154   1.196
14010TIP3   OH241968   1.922   1.147   0.756
14010TIP3    H141969   1.883   1.089   0.691
14010TIP3    H241970   1.997   1.098   0.790
14011TIP3   OH241971   2.053   1.563   0.893
14011TIP3    H141972   2.027   1.542   0.803
14011TIP3    H241973   2.140   1.525   0.902
14012TIP3   OH241974   2.039   1.126   1.114
14012TIP3    H141975   2.077   1.098   1.030
14012TIP3    H241976   2.084   1.208   1.134
14013TIP3   OH241977   2.624   1.754   0.893
14013TIP3    H141978   2.598   1.826   0.950
14013TIP3    H241979   2.600   1.675   0.941
14014TIP3   OH241980   2.103   1.650   1.496
14014TIP3    H141981   2.060   1.732   1.518
14014TIP3    H241982   2.046   1.609   1.431
14015TIP3   OH241983   2.528   1.018   0.176
14015TIP3    H141984   2.587   1.076   0.225
14015TIP3    H241985   2.554   1.030   0.085
14016TIP3   OH241986   1.959   1.234   1.513
14016TIP3    H141987   1.966   1.321   1.553
14016TIP3    H241988   1.867   1.210   1.522
14017TIP3   OH241989   2.269   1.689   0.446
14017TIP3    H141990   2.353   1.734   0.456
14017TIP3    H241991   2.218   1.747   0.389
14018TIP3   OH241992   1.934   1.869   1.511
14018TIP3    H141993   1.903   1.835   1.427
14018TIP3    H241994   1.871   1.838   1.575
14019TIP3   OH241995   3.043   0.249   0.232
14019TIP3    H141996   2.964   0.270   0.281
14019TIP3    H241997   3.057   0.326   0.176
14020TIP3   OH241998   1.796   0.990   0.555
14020TIP3    H141999   1.722   1.036   0.515
14020TIP3    H242000   1.762   0.904   0.578
14021TIP3   OH242001   5.691   5.629   6.714
14021TIP3    H142002   5.690   5.723   6.696
14021TIP3    H242003   5.781   5.602   6.694
14022TIP3   OH242004   1.553   1.391   1.463
14022TIP3    H142005   1.491   1.353   1.402
14022TIP3    H242006   1.595   1.316   1.505
14023TIP3   OH242007   1.441   1.554   1.117
14023TIP3    H142008   1.530   1.541   1.083
14023TIP3    H242009   1.449   1.628   1.178
14024TIP3   OH242010   2.402   1.848   1.181
14024TIP3    H142011   2.396   1.921   1.244
14024TIP3    H242012   2.378   1.771   1.232
14025TIP3   OH242013   2.170   1.917   0.264
14025TIP3    H142014   2.128   1.896   0.181
14025TIP3    H242015   2.133   2.002   0.289
14026TIP3   OH242016   1.595   1.774   0.635
14026TIP3    H142017   1.637   1.765   0.720
14026TIP3    H242018   1.549   1.691   0.622
14027TIP3   OH242019   5.197   5.853   6.816
14027TIP3    H142020   5.247   5.779   6.781
14027TIP3    H242021   5.227   5.862   6.906
14028TIP3   OH242022   2.414   1.890   0.139
14028TIP3    H142023   2.338   1.886   0.197
14028TIP3    H242024   2.489   1.878   0.198
14029TIP3   OH242025   3.199   1.207   1.503
14029TIP3    H142026   3.125   1.210   1.563
14029TIP3    H242027   3.205   1.115   1.477
14030TIP3   OH242028   1.767   1.560   1.457
14030TIP3    H142029   1.809   1.534   1.539
14030TIP3    H242030   1.689   1.506   1.452
14031TIP3   OH242031   2.168   0.386   1.257
14031TIP3    H142032   2.084   0.356   1.223
14031TIP3    H242033   2.146   0.465   1.307
14032TIP3   OH242034   2.701   0.491   1.450
14032TIP3    H142035   2.765   0.491   1.521
14032TIP3    H242036   2.617   0.478   1.493
14033TIP3   OH242037   2.927   0.924   1.373
14033TIP3    H142038   2.875   0.939   1.452
14033TIP3    H242039   2.902   0.995   1.314
14034TIP3   OH242040   5.446   5.037   6.859
14034TIP3    H142041   5.399   5.029   6.776
14034TIP3    H242042   5.528   5.080   6.836
14035TIP3   OH242043   2.318   0.423   0.225
14035TIP3    H142044   2.281   0.430   0.313
14035TIP3    H242045   2.279   0.344   0.189
14036TIP3   OH242046   2.103   0.907   1.267
14036TIP3    H142047   2.057   0.911   1.352
14036TIP3    H242048   2.074   0.985   1.221
14037TIP3   OH242049   1.990   0.794   0.784
14037TIP3    H142050   1.901   0.770   0.811
14037TIP3    H242051   1.999   0.758   0.696
14038TIP3   OH242052   2.471   0.873   0.517
14038TIP3    H142053   2.422   0.944   0.475
14038TIP3    H242054   2.528   0.839   0.447
14039TIP3   OH242055   2.567   1.213   1.639
14039TIP3    H142056   2.551   1.132   1.688
14039TIP3    H242057   2.643   1.193   1.584
14040TIP3   OH242058   2.637   0.889   0.741
14040TIP3    H142059   2.567   0.913   0.680
14040TIP3    H242060   2.679   0.814   0.699
14041TIP3   OH242061   1.936   0.899   1.488
14041TIP3    H142062   1.858   0.953   1.490
14041TIP3    H242063   1.912   0.819   1.535
14042TIP3   OH242064   1.981   0.408   0.199
14042TIP3    H142065   1.970   0.409   0.294
14042TIP3    H242066   1.904   0.454   0.165
14043TIP3   OH242067   1.521   0.436   1.067
14043TIP3    H142068   1.589   0.481   1.117
14043TIP3    H242069   1.560   0.425   0.980
14044TIP3   OH242070   1.472   0.441   0.576
14044TIP3    H142071   1.512   0.479   0.498
14044TIP3    H242072   1.406   0.504   0.603
14045TIP3   OH242073   2.603   1.122   1.160
14045TIP3    H142074   2.640   1.059   1.098
14045TIP3    H242075   2.582   1.070   1.238
14046TIP3   OH242076   2.344   0.593   0.843
14046TIP3    H142077   2.263   0.592   0.895
14046TIP3    H242078   2.414   0.584   0.908
14047TIP3   OH242079   1.757   0.666   0.851
14047TIP3    H142080   1.667   0.674   0.820
14047TIP3    H242081   1.781   0.575   0.832
14048TIP3   OH242082   2.006   0.667   0.541
14048TIP3    H142083   2.099   0.679   0.525
14048TIP3    H242084   1.964   0.686   0.458
14049TIP3   OH242085   2.809   0.671   1.044
14049TIP3    H142086   2.791   0.687   1.136
14049TIP3    H242087   2.738   0.613   1.015
14050TIP3   OH242088   1.876   0.694   0.302
14050TIP3    H142089   1.811   0.646   0.251
14050TIP3    H242090   1.930   0.738   0.236
14051TIP3   OH242091   1.907   1.467   1.691
14051TIP3    H142092   1.994   1.497   1.720
14051TIP3    H242093   1.890   1.389   1.742
14052TIP3   OH242094   2.399   0.943   0.943
14052TIP3    H142095   2.460   0.887   0.897
14052TIP3    H242096   2.391   0.904   1.030
14053TIP3   OH242097   1.905   0.418   0.831
14053TIP3    H142098   1.872   0.343   0.881
14053TIP3    H242099   1.930   0.381   0.746
14054TIP3   OH242100   2.366   0.850   1.209
14054TIP3    H142101   2.276   0.875   1.229
14054TIP3    H242102   2.420   0.900   1.270
14055TIP3   OH242103   2.104   1.214   0.328
14055TIP3    H142104   2.031   1.157   0.308
14055TIP3    H242105   2.082   1.252   0.414
14056TIP3   OH242106   2.960   1.473   0.822
14056TIP3    H142107   2.924   1.552   0.781
14056TIP3    H242108   2.885   1.415   0.833
14057TIP3   OH242109   2.570   0.526   0.221
14057TIP3    H142110   2.476   0.505   0.217
14057TIP3    H242111   2.573   0.621   0.233
14058TIP3   OH242112   2.554   1.496   1.322
14058TIP3    H142113   2.542   1.434   1.394
14058TIP3    H242114   2.474   1.550   1.324
14059TIP3   OH242115   2.631   0.789   0.299
14059TIP3    H142116   2.727   0.794   0.305
14059TIP3    H242117   2.607   0.865   0.245
14060TIP3   OH242118   1.807   1.245   0.991
14060TIP3    H142119   1.839   1.218   0.905
14060TIP3    H242120   1.862   1.197   1.053
14061TIP3   OH242121   2.258   1.374   0.169
14061TIP3    H142122   2.211   1.458   0.166
14061TIP3    H242123   2.202   1.317   0.221
14062TIP3   OH242124   1.703   1.235   1.633
14062TIP3    H142125   1.753   1.212   1.711
14062TIP3    H242126   1.663   1.153   1.604
14063TIP3   OH242127   2.318   1.308   1.594
14063TIP3    H142128   2.261   1.240   1.560
14063TIP3    H242129   2.406   1.268   1.594
14064TIP3   OH242130   2.671   1.804   1.195
14064TIP3    H142131   2.578   1.819   1.183
14064TIP3    H242132   2.680   1.785   1.289
14065TIP3   OH242133   3.053   0.879   0.122
14065TIP3    H142134   2.998   0.832   0.059
14065TIP3    H242135   3.056   0.969   0.089
14066TIP3   OH242136   3.404   1.775   1.246
14066TIP3    H142137   3.313   1.751   1.264
14066TIP3    H242138   3.409   1.778   1.150
14067TIP3   OH242139   2.790   1.669   0.044
14067TIP3    H142140   2.753   1.599   0.098
14067TIP3    H242141   2.802   1.628  -0.042
14068TIP3   OH242142   2.727   1.318   0.840
14068TIP3    H142143   2.636   1.291   0.852
14068TIP3    H242144   2.771   1.240   0.805
14069TIP3   OH242145   1.914   1.563   0.645
14069TIP3    H142146   1.914   1.640   0.587
14069TIP3    H242147   1.822   1.536   0.648
14070TIP3   OH242148   1.473   0.856   0.343
14070TIP3    H142149   1.520   0.937   0.364
14070TIP3    H242150   1.395   0.859   0.398
14071TIP3   OH242151   2.025   1.321   0.564
14071TIP3    H142152   2.001   1.411   0.588
14071TIP3    H242153   1.991   1.268   0.635
14072TIP3   OH242154   2.148   1.891   1.094
14072TIP3    H142155   2.179   1.958   1.032
14072TIP3    H242156   2.227   1.847   1.124
14073TIP3   OH242157   1.832   1.787   0.491
14073TIP3    H142158   1.744   1.794   0.528
14073TIP3    H242159   1.865   1.877   0.490
14074TIP3   OH242160   2.566   1.523   1.041
14074TIP3    H142161   2.564   1.506   1.136
14074TIP3    H242162   2.626   1.458   1.006
14075TIP3   OH242163   5.376   5.435   6.873
14075TIP3    H142164   5.416   5.411   6.956
14075TIP3    H242165   5.290   5.394   6.875
14076TIP3   OH242166   2.844   1.997   1.117
14076TIP3    H142167   2.782   1.927   1.136
14076TIP3    H242168   2.799   2.051   1.052
14077TIP3   OH242169   5.701   5.904   6.684
14077TIP3    H142170   5.742   5.972   6.630
14077TIP3    H242171   5.621   5.945   6.717
14078TIP3   OH242172   1.862   0.638   1.607
14078TIP3    H142173   1.778   0.677   1.632
14078TIP3    H242174   1.845   0.544   1.606
14079TIP3   OH242175   2.695   1.360   0.152
14079TIP3    H142176   2.685   1.292   0.219
14079TIP3    H242177   2.788   1.362   0.133
14080TIP3   OH242178   1.596   1.752   1.259
14080TIP3    H142179   1.657   1.702   1.313
14080TIP3    H242180   1.608   1.843   1.287
14081TIP3   OH242181   4.737   5.405   6.887
14081TIP3    H142182   4.747   5.314   6.859
14081TIP3    H242183   4.715   5.399   6.980
14082TIP3   OH242184   1.843   1.413   0.219
14082TIP3    H142185   1.918   1.386   0.272
14082TIP3    H242186   1.844   1.509   0.224
14083TIP3   OH242187   1.577   1.103   0.427
14083TIP3    H142188   1.510   1.148   0.480
14083TIP3    H242189   1.595   1.164   0.355
14084TIP3   OH242190   2.742   0.722   1.307
14084TIP3    H142191   2.815   0.763   1.354
14084TIP3    H242192   2.723   0.643   1.357
14085TIP3   OH242193   2.623   0.479   0.490
14085TIP3    H142194   2.601   0.494   0.398
14085TIP3    H242195   2.662   0.561   0.519
14086TIP3   OH242196   2.116   1.605   0.165
14086TIP3    H142197   2.030   1.630   0.199
14086TIP3    H242198   2.136   1.671   0.100
14087TIP3   OH242199   2.290   0.674   0.582
14087TIP3    H142200   2.351   0.744   0.558
14087TIP3    H242201   2.306   0.660   0.675
14088TIP3   OH242202   2.580   0.945   1.365
14088TIP3    H142203   2.628   0.976   1.441
14088TIP3    H242204   2.622   0.862   1.341
14089TIP3   OH242205   2.441   0.381   0.678
14089TIP3    H142206   2.418   0.460   0.727
14089TIP3    H242207   2.507   0.412   0.615
14090TIP3   OH242208   1.862   1.686   0.235
14090TIP3    H142209   1.839   1.755   0.174
14090TIP3    H242210   1.849   1.725   0.322
14091TIP3   OH242211   1.956   0.395   0.478
14091TIP3    H142212   1.945   0.485   0.508
14091TIP3    H242213   2.050   0.379   0.482
14092TIP3   OH242214   3.156   0.802   1.300
14092TIP3    H142215   3.074   0.847   1.319
14092TIP3    H242216   3.138   0.749   1.222
14093TIP3   OH242217   2.841   1.079   0.745
14093TIP3    H142218   2.764   1.022   0.743
14093TIP3    H242219   2.913   1.022   0.771
14094TIP3   OH242220   1.593   1.289   0.216
14094TIP3    H142221   1.664   1.353   0.225
14094TIP3    H242222   1.626   1.225   0.153
14095TIP3   OH242223   1.509   0.582   0.345
14095TIP3    H142224   1.517   0.677   0.348
14095TIP3    H242225   1.423   0.567   0.304
14096TIP3   OH242226   2.824   1.957   0.568
14096TIP3    H142227   2.759   2.015   0.530
14096TIP3    H242228   2.892   1.949   0.500
14097TIP3   OH242229   1.904   0.307   1.213
14097TIP3    H142230   1.875   0.275   1.127
14097TIP3    H242231   1.893   0.232   1.271
14098TIP3   OH242232   1.433   1.542   0.608
14098TIP3    H142233   1.382   1.575   0.682
14098TIP3    H242234   1.392   1.584   0.531
14099TIP3   OH242235   1.585   2.036   1.622
14099TIP3    H142236   1.676   2.025   1.651
14099TIP3    H242237   1.545   1.951   1.641
14100TIP3   OH242238   4.893   5.610   6.788
14100TIP3    H142239   4.844   5.536   6.826
14100TIP3    H242240   4.963   5.569   6.738
14101TIP3   OH242241   2.687   2.032   1.478
14101TIP3    H142242   2.654   1.942   1.481
14101TIP3    H242243   2.780   2.022   1.460
14102TIP3   OH242244   5.329   5.644   6.701
14102TIP3    H142245   5.360   5.577   6.761
14102TIP3    H242246   5.385   5.634   6.623
14103TIP3   OH242247   1.722   1.097   0.072
14103TIP3    H142248   1.774   1.072   0.149
14103TIP3    H242249   1.786   1.108   0.002
14104TIP3   OH242250   2.322   1.573   1.632
14104TIP3    H142251   2.246   1.604   1.584
14104TIP3    H242252   2.324   1.479   1.616
14105TIP3   OH242253   5.121   5.325   6.841
14105TIP3    H142254   5.098   5.338   6.932
14105TIP3    H242255   5.105   5.232   6.826
14106TIP3   OH242256   2.814   1.548   1.248
14106TIP3    H142257   2.829   1.612   1.179
14106TIP3    H242258   2.720   1.553   1.266
14107TIP3   OH242259   1.898   1.194   1.834
14107TIP3    H142260   1.979   1.145   1.819
14107TIP3    H242261   1.849   1.140   1.895
14108TIP3   OH242262   1.900   1.031   0.283
14108TIP3    H142263   1.877   0.997   0.370
14108TIP3    H242264   1.945   0.959   0.239
14109TIP3   OH242265   2.194   1.083   1.503
14109TIP3    H142266   2.103   1.112   1.499
14109TIP3    H242267   2.231   1.108   1.418
14110TIP3   OH242268   2.032   0.839   0.128
14110TIP3    H142269   2.002   0.843   0.037
14110TIP3    H242270   2.127   0.844   0.123
14111TIP3   OH242271   5.671   5.147   6.739
14111TIP3    H142272   5.654   5.104   6.655
14111TIP3    H242273   5.645   5.238   6.725
14112TIP3   OH242274   2.327   0.888   1.639
14112TIP3    H142275   2.326   0.807   1.587
14112TIP3    H242276   2.281   0.952   1.585
14113TIP3   OH242277   2.322   0.677   1.444
14113TIP3    H142278   2.347   0.713   1.360
14113TIP3    H242279   2.230   0.654   1.435
14114TIP3   OH242280   2.341   1.193   1.295
14114TIP3    H142281   2.416   1.196   1.236
14114TIP3    H242282   2.279   1.257   1.259
14115TIP3   OH242283   2.944   1.361   1.385
14115TIP3    H142284   2.887   1.431   1.353
14115TIP3    H242285   3.030   1.401   1.392
14116TIP3   OH242286   2.127   1.024   1.822
14116TIP3    H142287   2.099   0.944   1.867
14116TIP3    H242288   2.186   0.994   1.753
14117TIP3   OH242289   2.442   0.439   1.533
14117TIP3    H142290   2.398   0.520   1.506
14117TIP3    H242291   2.375   0.371   1.523
14118TIP3   OH242292   2.568   0.957   1.756
14118TIP3    H142293   2.554   0.963   1.851
14118TIP3    H242294   2.485   0.923   1.722
14119TIP3   OH242295   2.800   0.749   1.625
14119TIP3    H142296   2.710   0.756   1.659
14119TIP3    H242297   2.852   0.804   1.684
14120TIP3   OH242298   2.060   0.772   1.914
14120TIP3    H142299   2.036   0.721   1.837
14120TIP3    H242300   2.069   0.707   1.984
14121TIP3   OH242301   2.573   0.424   1.777
14121TIP3    H142302   2.632   0.351   1.758
14121TIP3    H242303   2.516   0.429   1.700
14122TIP3   OH242304   1.848   1.892   0.050
14122TIP3    H142305   1.940   1.877   0.027
14122TIP3    H242306   1.811   1.937  -0.026
14123TIP3   OH242307   1.322   1.270   0.244
14123TIP3    H142308   1.416   1.286   0.234
14123TIP3    H242309   1.308   1.185   0.204
14124TIP3   OH242310   1.222   1.859   0.688
14124TIP3    H142311   1.158   1.805   0.641
14124TIP3    H242312   1.267   1.798   0.745
14125TIP3   OH242313   1.360   1.692   0.861
14125TIP3    H142314   1.347   1.627   0.930
14125TIP3    H242315   1.408   1.763   0.904
14126TIP3   OH242316   3.095   2.088   0.585
14126TIP3    H142317   3.155   2.124   0.650
14126TIP3    H242318   3.031   2.158   0.570
14127TIP3   OH242319   3.162   2.133   0.983
14127TIP3    H142320   3.131   2.043   0.993
14127TIP3    H242321   3.189   2.159   1.071
14128TIP3   OH242322   2.965   1.345   0.123
14128TIP3    H142323   3.032   1.403   0.088
14128TIP3    H242324   3.007   1.301   0.197
14129TIP3   OH242325   3.085   1.193   0.309
14129TIP3    H142326   3.033   1.151   0.377
14129TIP3    H242327   3.164   1.223   0.354
14130TIP3   OH242328   3.191   1.616   0.768
14130TIP3    H142329   3.126   1.547   0.751
14130TIP3    H242330   3.177   1.680   0.699
14131TIP3   OH242331   3.030   1.899   0.946
14131TIP3    H142332   2.975   1.928   1.018
14131TIP3    H242333   2.973   1.899   0.870
14132TIP3   OH242334   5.874   5.125   6.921
14132TIP3    H142335   5.806   5.121   6.854
14132TIP3    H242336   5.851   5.200   6.975
14133TIP3   OH242337   5.736   4.780   6.862
14133TIP3    H142338   5.691   4.819   6.788
14133TIP3    H242339   5.721   4.686   6.852
14134TIP3   OH242340   2.917   1.057   0.477
14134TIP3    H142341   2.925   0.962   0.467
14134TIP3    H242342   2.896   1.069   0.570
14135TIP3   OH242343   3.201   1.464   1.348
14135TIP3    H142344   3.282   1.472   1.399
14135TIP3    H242345   3.231   1.440   1.260
14136TIP3   OH242346   3.428   1.270   1.335
14136TIP3    H142347   3.369   1.273   1.410
14136TIP3    H242348   3.515   1.264   1.373
14137TIP3   OH242349   5.688   4.511   6.843
14137TIP3    H142350   5.753   4.480   6.907
14137TIP3    H242351   5.607   4.466   6.867
14138TIP3   OH242352   2.922   0.785   0.362
14138TIP3    H142353   2.967   0.701   0.374
14138TIP3    H242354   2.966   0.824   0.287
14139TIP3   OH242355   3.044   0.901   0.802
14139TIP3    H142356   3.130   0.920   0.765
14139TIP3    H242357   3.050   0.933   0.892
14140TIP3   OH242358   3.043   1.028   1.039
14140TIP3    H142359   2.960   1.047   1.083
14140TIP3    H242360   3.066   1.110   0.995
14141TIP3   OH242361   3.030   0.532   0.410
14141TIP3    H142362   3.074   0.516   0.494
14141TIP3    H242363   2.967   0.460   0.402
14142TIP3   OH242364   1.731   0.524   1.238
14142TIP3    H142365   1.785   0.446   1.237
14142TIP3    H242366   1.791   0.596   1.220
14143TIP3   OH242367   3.387   0.762   1.464
14143TIP3    H142368   3.357   0.844   1.424
14143TIP3    H242369   3.373   0.696   1.396
14144TIP3   OH242370   3.093   0.452   0.052
14144TIP3    H142371   3.134   0.391  -0.009
14144TIP3    H242372   3.148   0.530   0.048
14145TIP3   OH242373   1.521   0.285   0.793
14145TIP3    H142374   1.435   0.275   0.835
14145TIP3    H242375   1.506   0.346   0.722
14146TIP3   OH242376   2.644   1.938   0.276
14146TIP3    H142377   2.712   1.936   0.208
14146TIP3    H242378   2.663   2.016   0.328
14147TIP3   OH242379   1.724   0.377   1.612
14147TIP3    H142380   1.668   0.380   1.689
14147TIP3    H242381   1.669   0.409   1.541
14148TIP3   OH242382   1.757   1.771   1.691
14148TIP3    H142383   1.662   1.770   1.685
14148TIP3    H242384   1.780   1.685   1.726
14149TIP3   OH242385   1.928   1.819   1.236
14149TIP3    H142386   1.869   1.877   1.188
14149TIP3    H242387   2.013   1.831   1.193
14150TIP3   OH242388   2.409   2.062   1.348
14150TIP3    H142389   2.367   2.107   1.421
14150TIP3    H242390   2.417   2.128   1.279
14151TIP3   OH242391   2.684   2.212   1.251
14151TIP3    H142392   2.651   2.137   1.202
14151TIP3    H242393   2.721   2.174   1.331
14152TIP3   OH242394   3.362   0.568   1.280
14152TIP3    H142395   3.277   0.542   1.245
14152TIP3    H242396   3.385   0.498   1.342
14153TIP3   OH242397   1.596   2.031   1.252
14153TIP3    H142398   1.512   2.074   1.238
14153TIP3    H242399   1.647   2.095   1.302
14154TIP3   OH242400   1.822   2.024   1.094
14154TIP3    H142401   1.737   2.036   1.137
14154TIP3    H242402   1.811   2.063   1.007
14155TIP3   OH242403   2.294   2.003   0.885
14155TIP3    H142404   2.220   2.017   0.826
14155TIP3    H242405   2.350   2.079   0.871
14156TIP3   OH242406   2.565   2.001   1.012
14156TIP3    H142407   2.481   1.965   1.039
14156TIP3    H242408   2.543   2.066   0.945
14157TIP3   OH242409   2.775   2.270   0.972
14157TIP3    H142410   2.754   2.338   0.909
14157TIP3    H242411   2.808   2.197   0.919
14158TIP3   OH242412   1.523   1.870   1.007
14158TIP3    H142413   1.547   1.850   1.097
14158TIP3    H242414   1.596   1.835   0.955
14159TIP3   OH242415   1.730   1.755   0.875
14159TIP3    H142416   1.746   1.672   0.919
14159TIP3    H242417   1.817   1.794   0.864
14160TIP3   OH242418   1.997   1.835   0.868
14160TIP3    H142419   2.021   1.744   0.852
14160TIP3    H242420   2.037   1.855   0.953
14161TIP3   OH242421   2.577   0.502   0.982
14161TIP3    H142422   2.535   0.430   1.029
14161TIP3    H242423   2.642   0.460   0.926
14162TIP3   OH242424   3.078   0.392   0.862
14162TIP3    H142425   3.120   0.440   0.790
14162TIP3    H242426   2.988   0.424   0.862
14163TIP3   OH242427   3.192   0.479   0.631
14163TIP3    H142428   3.263   0.424   0.598
14163TIP3    H242429   3.220   0.569   0.610
14164TIP3   OH242430   1.820   0.196   0.974
14164TIP3    H142431   1.730   0.166   0.980
14164TIP3    H242432   1.872   0.116   0.969
14165TIP3   OH242433   1.609   0.081   0.624
14165TIP3    H142434   1.648   0.130   0.551
14165TIP3    H242435   1.592   0.148   0.690
14166TIP3   OH242436   2.286   0.236   0.866
14166TIP3    H142437   2.334   0.283   0.798
14166TIP3    H242438   2.322   0.270   0.949
14167TIP3   OH242439   2.787   0.390   0.844
14167TIP3    H142440   2.798   0.361   0.753
14167TIP3    H242441   2.790   0.310   0.896
14168TIP3   OH242442   2.844   0.324   0.412
14168TIP3    H142443   2.763   0.370   0.431
14168TIP3    H242444   2.832   0.237   0.449
14169TIP3   OH242445   1.315   1.670   0.397
14169TIP3    H142446   1.233   1.634   0.364
14169TIP3    H242447   1.318   1.760   0.364
14170TIP3   OH242448   1.740   0.225   0.400
14170TIP3    H142449   1.784   0.168   0.337
14170TIP3    H242450   1.809   0.284   0.432
14171TIP3   OH242451   2.232   0.424   0.488
14171TIP3    H142452   2.289   0.371   0.544
14171TIP3    H242453   2.249   0.514   0.515
14172TIP3   OH242454   4.943   5.836   6.930
14172TIP3    H142455   5.025   5.866   6.889
14172TIP3    H242456   4.914   5.765   6.873
14173TIP3   OH242457   2.807   1.936   0.057
14173TIP3    H142458   2.803   1.841   0.049
14173TIP3    H242459   2.759   1.969  -0.019
14174TIP3   OH242460   1.411   1.668   0.041
14174TIP3    H142461   1.415   1.682   0.136
14174TIP3    H242462   1.493   1.623   0.020
14175TIP3   OH242463   4.316   1.366   0.035
14175TIP3    H142464   4.279   1.431   0.095
14175TIP3    H242465   4.254   1.360  -0.037
14176TIP3   OH242466   4.275   1.487   0.438
14176TIP3    H142467   4.347   1.532   0.482
14176TIP3    H242468   4.317   1.416   0.389
14177TIP3   OH242469   3.631   1.425   0.744
14177TIP3    H142470   3.687   1.399   0.817
14177TIP3    H242471   3.679   1.494   0.699
14178TIP3   OH242472   3.590   1.838   0.531
14178TIP3    H142473   3.561   1.801   0.614
14178TIP3    H242474   3.680   1.865   0.546
14179TIP3   OH242475   3.283   0.970   0.256
14179TIP3    H142476   3.254   1.059   0.274
14179TIP3    H242477   3.206   0.926   0.220
14180TIP3   OH242478   3.336   1.248   0.392
14180TIP3    H142479   3.385   1.173   0.428
14180TIP3    H242480   3.403   1.312   0.371
14181TIP3   OH242481   4.174   1.692   0.272
14181TIP3    H142482   4.173   1.605   0.313
14181TIP3    H242483   4.263   1.724   0.287
14182TIP3   OH242484   4.599   1.163   0.454
14182TIP3    H142485   4.585   1.069   0.453
14182TIP3    H242486   4.534   1.198   0.392
14183TIP3   OH242487   3.867   0.830   0.378
14183TIP3    H142488   3.835   0.907   0.331
14183TIP3    H242489   3.815   0.757   0.344
14184TIP3   OH242490   4.595   0.901   0.038
14184TIP3    H142491   4.663   0.884   0.103
14184TIP3    H242492   4.640   0.944  -0.034
14185TIP3   OH242493   3.457   1.048   0.529
14185TIP3    H142494   3.527   1.067   0.591
14185TIP3    H242495   3.493   0.982   0.470
14186TIP3   OH242496   3.968   1.192   0.244
14186TIP3    H142497   4.003   1.192   0.333
14186TIP3    H242498   3.895   1.130   0.247
14187TIP3   OH242499   3.639   0.909   0.888
14187TIP3    H142500   3.653   0.852   0.813
14187TIP3    H242501   3.633   0.850   0.963
14188TIP3   OH242502   6.941   5.667   6.836
14188TIP3    H142503   6.928   5.684   6.743
14188TIP3    H242504   6.914   5.748   6.879
14189TIP3   OH242505   4.011   1.708   0.553
14189TIP3    H142506   3.930   1.701   0.603
14189TIP3    H242507   4.065   1.769   0.603
14190TIP3   OH242508   4.765   0.894   0.249
14190TIP3    H142509   4.703   0.889   0.322
14190TIP3    H242510   4.824   0.966   0.273
14191TIP3   OH242511   3.713   0.895   0.609
14191TIP3    H142512   3.776   0.958   0.645
14191TIP3    H242513   3.757   0.858   0.533
14192TIP3   OH242514   5.991   5.496   6.938
14192TIP3    H142515   5.957   5.512   6.850
14192TIP3    H242516   6.029   5.579   6.964
14193TIP3   OH242517   4.120   0.516   0.498
14193TIP3    H142518   4.177   0.450   0.537
14193TIP3    H242519   4.060   0.540   0.568
14194TIP3   OH242520   7.280   5.856   6.691
14194TIP3    H142521   7.303   5.768   6.663
14194TIP3    H242522   7.198   5.846   6.739
14195TIP3   OH242523   6.971   5.338   6.777
14195TIP3    H142524   6.893   5.389   6.757
14195TIP3    H242525   7.022   5.340   6.696
14196TIP3   OH242526   6.929   5.128   6.501
14196TIP3    H142527   6.986   5.157   6.572
14196TIP3    H242528   6.982   5.066   6.451
14197TIP3   OH242529   7.335   5.402   6.772
14197TIP3    H142530   7.289   5.394   6.855
14197TIP3    H242531   7.426   5.379   6.792
14198TIP3   OH242532   3.745   1.357   0.187
14198TIP3    H142533   3.693   1.305   0.126
14198TIP3    H242534   3.826   1.308   0.198
14199TIP3   OH242535   3.899   1.808   0.330
14199TIP3    H142536   3.828   1.747   0.311
14199TIP3    H242537   3.944   1.770   0.405
14200TIP3   OH242538   3.747   1.269   0.502
14200TIP3    H142539   3.752   1.192   0.446
14200TIP3    H242540   3.818   1.326   0.472
14201TIP3   OH242541   7.167   5.279   6.596
14201TIP3    H142542   7.230   5.333   6.643
14201TIP3    H242543   7.191   5.287   6.504
14202TIP3   OH242544   3.705   1.648   0.962
14202TIP3    H142545   3.654   1.674   0.886
14202TIP3    H242546   3.648   1.589   1.011
14203TIP3   OH242547   6.977   5.939   6.749
14203TIP3    H142548   7.014   5.982   6.826
14203TIP3    H242549   6.885   5.963   6.750
14204TIP3   OH242550   7.667   4.510   6.652
14204TIP3    H142551   7.589   4.527   6.705
14204TIP3    H242552   7.679   4.590   6.600
14205TIP3   OH242553   3.586   1.219   0.015
14205TIP3    H142554   3.516   1.277  -0.015
14205TIP3    H242555   3.544   1.133   0.024
14206TIP3   OH242556   7.490   5.887   6.207
14206TIP3    H142557   7.487   5.980   6.184
14206TIP3    H242558   7.573   5.855   6.171
14207TIP3   OH242559   3.315   1.717   0.998
14207TIP3    H142560   3.257   1.713   0.922
14207TIP3    H242561   3.337   1.626   1.017
14208TIP3   OH242562   3.164   1.814   0.580
14208TIP3    H142563   3.206   1.861   0.652
14208TIP3    H242564   3.102   1.876   0.543
14209TIP3   OH242565   6.793   6.187   6.677
14209TIP3    H142566   6.755   6.160   6.594
14209TIP3    H242567   6.766   6.279   6.687
14210TIP3   OH242568   3.228   1.988   0.148
14210TIP3    H142569   3.274   2.028   0.221
14210TIP3    H242570   3.295   1.976   0.081
14211TIP3   OH242571   6.988   6.088   6.307
14211TIP3    H142572   7.043   6.019   6.269
14211TIP3    H242573   7.032   6.112   6.388
14212TIP3   OH242574   7.048   6.147   6.572
14212TIP3    H142575   6.966   6.163   6.619
14212TIP3    H242576   7.083   6.067   6.611
14213TIP3   OH242577   3.958   0.578   0.712
14213TIP3    H142578   3.864   0.562   0.701
14213TIP3    H242579   3.966   0.673   0.707
14214TIP3   OH242580   4.437   0.773   0.867
14214TIP3    H142581   4.488   0.838   0.916
14214TIP3    H242582   4.377   0.736   0.932
14215TIP3   OH242583   7.256   5.281   6.342
14215TIP3    H142584   7.207   5.276   6.259
14215TIP3    H242585   7.331   5.337   6.321
14216TIP3   OH242586   6.948   4.687   6.646
14216TIP3    H142587   6.912   4.694   6.734
14216TIP3    H242588   6.911   4.606   6.611
14217TIP3   OH242589   3.883   1.076   0.731
14217TIP3    H142590   3.887   1.111   0.820
14217TIP3    H242591   3.932   1.139   0.678
14218TIP3   OH242592   3.742   1.046   0.263
14218TIP3    H142593   3.659   1.008   0.293
14218TIP3    H242594   3.752   1.014   0.173
14219TIP3   OH242595   7.024   5.065   6.799
14219TIP3    H142596   7.003   5.158   6.798
14219TIP3    H242597   7.117   5.061   6.775
14220TIP3   OH242598   4.478   1.080   0.204
14220TIP3    H142599   4.385   1.075   0.182
14220TIP3    H242600   4.519   1.012   0.150
14221TIP3   OH242601   3.693   1.293   0.970
14221TIP3    H142602   3.785   1.315   0.987
14221TIP3    H242603   3.684   1.203   1.001
14222TIP3   OH242604   6.611   4.671   6.626
14222TIP3    H142605   6.599   4.670   6.721
14222TIP3    H242606   6.533   4.716   6.592
14223TIP3   OH242607   3.285   0.711   0.529
14223TIP3    H142608   3.364   0.732   0.579
14223TIP3    H242609   3.319   0.676   0.446
14224TIP3   OH242610   3.249   0.686   0.061
14224TIP3    H142611   3.294   0.720  -0.016
14224TIP3    H242612   3.186   0.754   0.085
14225TIP3   OH242613   4.141   0.903   0.332
14225TIP3    H142614   4.059   0.853   0.340
14225TIP3    H242615   4.210   0.838   0.347
14226TIP3   OH242616   3.535   0.885   0.328
14226TIP3    H142617   3.447   0.897   0.293
14226TIP3    H242618   3.560   0.797   0.299
14227TIP3   OH242619   6.618   4.926   6.969
14227TIP3    H142620   6.713   4.931   6.957
14227TIP3    H242621   6.582   4.944   6.882
14228TIP3   OH242622   4.591   0.882   0.460
14228TIP3    H142623   4.532   0.901   0.532
14228TIP3    H242624   4.551   0.809   0.414
14229TIP3   OH242625   6.501   4.958   6.725
14229TIP3    H142626   6.437   4.909   6.674
14229TIP3    H242627   6.557   5.000   6.660
14230TIP3   OH242628   4.261   1.155   0.416
14230TIP3    H142629   4.256   1.151   0.320
14230TIP3    H242630   4.234   1.068   0.445
14231TIP3   OH242631   3.686   0.648   0.284
14231TIP3    H142632   3.656   0.578   0.342
14231TIP3    H242633   3.717   0.602   0.206
14232TIP3   OH242634   4.182   1.024   0.646
14232TIP3    H142635   4.180   1.104   0.699
14232TIP3    H242636   4.275   1.003   0.639
14233TIP3   OH242637   6.736   5.471   6.715
14233TIP3    H142638   6.661   5.413   6.701
14233TIP3    H242639   6.719   5.511   6.801
14234TIP3   OH242640   7.199   4.793   6.628
14234TIP3    H142641   7.105   4.775   6.633
14234TIP3    H242642   7.207   4.886   6.647
14235TIP3   OH242643   7.283   5.047   6.703
14235TIP3    H142644   7.377   5.046   6.721
14235TIP3    H242645   7.268   5.130   6.658
14236TIP3   OH242646   3.560   1.418   0.375
14236TIP3    H142647   3.615   1.400   0.300
14236TIP3    H242648   3.603   1.373   0.448
14237TIP3   OH242649   6.888   5.636   6.556
14237TIP3    H142650   6.839   5.718   6.561
14237TIP3    H242651   6.834   5.573   6.604
14238TIP3   OH242652   3.314   1.398   1.116
14238TIP3    H142653   3.394   1.377   1.165
14238TIP3    H242654   3.260   1.320   1.123
14239TIP3   OH242655   7.692   5.128   6.538
14239TIP3    H142656   7.644   5.081   6.469
14239TIP3    H242657   7.687   5.220   6.511
14240TIP3   OH242658   7.319   5.948   6.420
14240TIP3    H142659   7.328   5.911   6.508
14240TIP3    H242660   7.395   5.917   6.372
14241TIP3   OH242661   3.751   1.874   0.063
14241TIP3    H142662   3.759   1.957   0.017
14241TIP3    H242663   3.704   1.896   0.144
14242TIP3   OH242664   6.110   5.112   6.778
14242TIP3    H142665   6.152   5.197   6.793
14242TIP3    H242666   6.030   5.116   6.830
14243TIP3   OH242667   3.832   1.565   0.019
14243TIP3    H142668   3.795   1.653   0.027
14243TIP3    H242669   3.777   1.511   0.077
14244TIP3   OH242670   6.490   6.124   6.828
14244TIP3    H142671   6.407   6.125   6.876
14244TIP3    H242672   6.531   6.208   6.850
14245TIP3   OH242673   7.165   5.645   6.381
14245TIP3    H142674   7.222   5.635   6.457
14245TIP3    H242675   7.078   5.656   6.417
14246TIP3   OH242676   7.500   6.150   6.142
14246TIP3    H142677   7.544   6.204   6.076
14246TIP3    H242678   7.440   6.210   6.186
14247TIP3   OH242679   3.621   0.831   1.153
14247TIP3    H142680   3.590   0.919   1.134
14247TIP3    H242681   3.649   0.835   1.245
14248TIP3   OH242682   7.341   5.606   6.593
14248TIP3    H142683   7.341   5.530   6.652
14248TIP3    H242684   7.433   5.615   6.566
14249TIP3   OH242685   3.511   2.043   0.839
14249TIP3    H142686   3.584   2.046   0.777
14249TIP3    H242687   3.488   2.134   0.854
14250TIP3   OH242688   6.529   5.661   6.366
14250TIP3    H142689   6.545   5.571   6.338
14250TIP3    H242690   6.510   5.654   6.460
14251TIP3   OH242691   6.471   5.666   6.636
14251TIP3    H142692   6.528   5.641   6.709
14251TIP3    H242693   6.468   5.762   6.641
14252TIP3   OH242694   6.210   5.361   6.845
14252TIP3    H142695   6.138   5.398   6.897
14252TIP3    H242696   6.230   5.428   6.780
14253TIP3   OH242697   7.245   4.725   6.893
14253TIP3    H142698   7.227   4.746   6.801
14253TIP3    H242699   7.300   4.797   6.924
14254TIP3   OH242700   6.736   5.860   6.585
14254TIP3    H142701   6.643   5.879   6.601
14254TIP3    H242702   6.764   5.929   6.525
14255TIP3   OH242703   4.062   0.919   0.054
14255TIP3    H142704   4.110   0.968  -0.012
14255TIP3    H242705   4.107   0.937   0.136
14256TIP3   OH242706   4.239   0.618   0.139
14256TIP3    H142707   4.270   0.656   0.221
14256TIP3    H242708   4.297   0.655   0.072
14257TIP3   OH242709   6.475   5.939   6.631
14257TIP3    H142710   6.449   5.994   6.557
14257TIP3    H242711   6.485   6.001   6.704
14258TIP3   OH242712   6.580   4.652   6.905
14258TIP3    H142713   6.571   4.742   6.937
14258TIP3    H242714   6.675   4.635   6.909
14259TIP3   OH242715   4.718   1.303   0.187
14259TIP3    H142716   4.630   1.272   0.211
14259TIP3    H242717   4.735   1.376   0.247
14260TIP3   OH242718   6.217   5.551   6.639
14260TIP3    H142719   6.289   5.614   6.651
14260TIP3    H242720   6.251   5.488   6.575
14261TIP3   OH242721   6.141   4.837   6.777
14261TIP3    H142722   6.148   4.933   6.782
14261TIP3    H242723   6.074   4.822   6.710
14262TIP3   OH242724   3.686   0.544   0.687
14262TIP3    H142725   3.661   0.506   0.603
14262TIP3    H242726   3.684   0.471   0.748
14263TIP3   OH242727   3.262   1.732   0.041
14263TIP3    H142728   3.243   1.766   0.129
14263TIP3    H242729   3.221   1.795  -0.018
14264TIP3   OH242730   6.699   5.858   6.268
14264TIP3    H142731   6.644   5.789   6.303
14264TIP3    H242732   6.775   5.813   6.233
14265TIP3   OH242733   7.149   5.898   6.196
14265TIP3    H142734   7.209   5.902   6.271
14265TIP3    H242735   7.206   5.908   6.120
14266TIP3   OH242736   6.350   5.360   6.496
14266TIP3    H142737   6.401   5.336   6.573
14266TIP3    H242738   6.415   5.374   6.428
14267TIP3   OH242739   6.855   5.573   6.291
14267TIP3    H142740   6.863   5.590   6.384
14267TIP3    H242741   6.861   5.477   6.283
14268TIP3   OH242742   6.528   5.290   6.701
14268TIP3    H142743   6.499   5.256   6.786
14268TIP3    H242744   6.571   5.215   6.659
14269TIP3   OH242745   3.942   1.369   1.044
14269TIP3    H142746   3.962   1.458   1.073
14269TIP3    H242747   3.970   1.367   0.952
14270TIP3   OH242748   6.657   5.098   6.548
14270TIP3    H142749   6.628   5.104   6.458
14270TIP3    H242750   6.752   5.102   6.543
14271TIP3   OH242751   7.471   5.406   6.219
14271TIP3    H142752   7.451   5.363   6.136
14271TIP3    H242753   7.441   5.496   6.208
14272TIP3   OH242754   4.109   1.140   1.098
14272TIP3    H142755   4.117   1.075   1.029
14272TIP3    H242756   4.027   1.186   1.079
14273TIP3   OH242757   4.160   0.927   0.913
14273TIP3    H142758   4.179   0.963   0.826
14273TIP3    H242759   4.070   0.894   0.906
14274TIP3   OH242760   4.218   0.672   0.997
14274TIP3    H142761   4.186   0.754   0.958
14274TIP3    H242762   4.142   0.613   0.995
14275TIP3   OH242763   3.895   1.018   1.380
14275TIP3    H142764   3.953   0.980   1.314
14275TIP3    H242765   3.951   1.080   1.428
14276TIP3   OH242766   4.376   0.663   1.326
14276TIP3    H142767   4.445   0.624   1.273
14276TIP3    H242768   4.296   0.619   1.296
14277TIP3   OH242769   6.469   6.148   6.453
14277TIP3    H142770   6.564   6.141   6.441
14277TIP3    H242771   6.439   6.200   6.379
14278TIP3   OH242772   5.946   5.531   6.662
14278TIP3    H142773   6.040   5.548   6.657
14278TIP3    H242774   5.934   5.445   6.622
14279TIP3   OH242775   2.995   2.114   0.118
14279TIP3    H142776   2.933   2.049   0.084
14279TIP3    H242777   3.080   2.070   0.116
14280TIP3   OH242778   3.014   1.912   0.357
14280TIP3    H142779   3.000   1.824   0.321
14280TIP3    H242780   3.068   1.956   0.293
14281TIP3   OH242781   7.613   5.588   6.563
14281TIP3    H142782   7.659   5.656   6.514
14281TIP3    H242783   7.661   5.582   6.646
14282TIP3   OH242784   7.766   5.461   6.781
14282TIP3    H142785   7.692   5.404   6.802
14282TIP3    H242786   7.756   5.536   6.838
14283TIP3   OH242787   7.662   5.367   6.411
14283TIP3    H142788   7.595   5.378   6.343
14283TIP3    H242789   7.650   5.442   6.469
14284TIP3   OH242790   7.564   5.027   6.316
14284TIP3    H142791   7.490   5.074   6.278
14284TIP3    H242792   7.541   4.934   6.307
14285TIP3   OH242793   7.568   5.283   6.855
14285TIP3    H142794   7.574   5.188   6.849
14285TIP3    H242795   7.572   5.302   6.949
14286TIP3   OH242796   3.332   1.344   0.645
14286TIP3    H142797   3.308   1.298   0.564
14286TIP3    H242798   3.347   1.434   0.617
14287TIP3   OH242799   7.502   4.755   6.304
14287TIP3    H142800   7.558   4.735   6.379
14287TIP3    H242801   7.416   4.722   6.330
14288TIP3   OH242802   7.565   5.020   6.762
14288TIP3    H142803   7.611   4.937   6.778
14288TIP3    H242804   7.611   5.060   6.689
14289TIP3   OH242805   3.633   1.082   1.388
14289TIP3    H142806   3.728   1.069   1.385
14289TIP3    H242807   3.606   1.037   1.469
14290TIP3   OH242808   7.673   4.778   6.836
14290TIP3    H142809   7.718   4.767   6.920
14290TIP3    H242810   7.606   4.709   6.836
14291TIP3   OH242811   3.501   0.744   0.693
14291TIP3    H142812   3.555   0.666   0.702
14291TIP3    H242813   3.558   0.809   0.653
14292TIP3   OH242814   3.288   0.999   0.741
14292TIP3    H142815   3.337   0.989   0.659
14292TIP3    H242816   3.309   1.087   0.771
14293TIP3   OH242817   7.718   4.717   6.476
14293TIP3    H142818   7.761   4.651   6.421
14293TIP3    H242819   7.782   4.788   6.482
14294TIP3   OH242820   3.302   0.553   0.292
14294TIP3    H142821   3.213   0.534   0.321
14294TIP3    H242822   3.292   0.604   0.212
14295TIP3   OH242823   3.466   0.553   1.027
14295TIP3    H142824   3.449   0.563   1.121
14295TIP3    H242825   3.409   0.617   0.985
14296TIP3   OH242826   3.459   2.175   0.572
14296TIP3    H142827   3.399   2.207   0.639
14296TIP3    H242828   3.407   2.111   0.523
14297TIP3   OH242829   3.524   1.908   0.279
14297TIP3    H142830   3.535   1.886   0.371
14297TIP3    H242831   3.528   2.004   0.276
14298TIP3   OH242832   3.808   2.059   0.357
14298TIP3    H142833   3.853   1.976   0.346
14298TIP3    H242834   3.878   2.125   0.362
14299TIP3   OH242835   4.340   0.716   0.375
14299TIP3    H142836   4.319   0.704   0.468
14299TIP3    H242837   4.422   0.669   0.363
14300TIP3   OH242838   4.892   0.640   0.337
14300TIP3    H142839   4.933   0.693   0.268
14300TIP3    H242840   4.805   0.680   0.349
14301TIP3   OH242841   5.010   0.736   0.112
14301TIP3    H142842   5.077   0.678   0.076
14301TIP3    H242843   5.046   0.824   0.101
14302TIP3   OH242844   3.608   0.440   0.447
14302TIP3    H142845   3.518   0.409   0.457
14302TIP3    H242846   3.660   0.360   0.444
14303TIP3   OH242847   3.432   0.356   0.121
14303TIP3    H142848   3.455   0.404   0.042
14303TIP3    H242849   3.395   0.422   0.179
14304TIP3   OH242850   4.019   0.494   0.255
14304TIP3    H142851   4.085   0.535   0.200
14304TIP3    H242852   4.049   0.507   0.344
14305TIP3   OH242853   4.592   0.622   0.316
14305TIP3    H142854   4.627   0.589   0.233
14305TIP3    H242855   4.592   0.547   0.374
14306TIP3   OH242856   7.477   4.579   6.840
14306TIP3    H142857   7.393   4.623   6.853
14306TIP3    H242858   7.465   4.493   6.881
14307TIP3   OH242859   5.953   5.927   6.812
14307TIP3    H142860   5.868   5.885   6.798
14307TIP3    H242861   5.946   6.012   6.770
14308TIP3   OH242862   6.367   4.492   6.821
14308TIP3    H142863   6.411   4.431   6.763
14308TIP3    H242864   6.437   4.548   6.855
14309TIP3   OH242865   6.854   4.675   6.906
14309TIP3    H142866   6.919   4.623   6.955
14309TIP3    H242867   6.866   4.764   6.937
14310TIP3   OH242868   6.737   6.088   6.414
14310TIP3    H142869   6.821   6.115   6.378
14310TIP3    H242870   6.707   6.017   6.357
14311TIP3   OH242871   7.436   6.203   6.500
14311TIP3    H142872   7.391   6.120   6.485
14311TIP3    H242873   7.418   6.254   6.421
14312TIP3   OH242874   3.910   0.755   1.508
14312TIP3    H142875   3.824   0.781   1.476
14312TIP3    H242876   3.971   0.817   1.468
14313TIP3   OH242877   4.147   0.857   1.399
14313TIP3    H142878   4.227   0.810   1.376
14313TIP3    H242879   4.158   0.880   1.491
14314TIP3   OH242880   6.040   5.929   6.464
14314TIP3    H142881   6.040   5.947   6.559
14314TIP3    H242882   6.123   5.884   6.448
14315TIP3   OH242883   7.912   5.237   6.691
14315TIP3    H142884   7.882   5.322   6.723
14315TIP3    H242885   7.835   5.198   6.650
14316TIP3   OH242886   7.746   5.764   6.401
14316TIP3    H142887   7.725   5.779   6.309
14316TIP3    H242888   7.757   5.852   6.437
14317TIP3   OH242889   0.283   4.926   6.082
14317TIP3    H142890   0.267   4.951   6.173
14317TIP3    H242891   0.230   4.847   6.069
14318TIP3   OH242892   8.403   4.928   6.102
14318TIP3    H142893   8.396   4.920   6.197
14318TIP3    H242894   8.325   4.976   6.075
14319TIP3   OH242895   7.968   4.961   6.958
14319TIP3    H142896   8.025   5.038   6.945
14319TIP3    H242897   7.977   4.911   6.877
14320TIP3   OH242898   7.890   4.936   6.493
14320TIP3    H142899   7.948   4.968   6.423
14320TIP3    H242900   7.837   5.013   6.516
14321TIP3   OH242901   8.133   5.143   6.835
14321TIP3    H142902   8.069   5.179   6.774
14321TIP3    H242903   8.190   5.089   6.781
14322TIP3   OH242904   8.495   5.145   6.428
14322TIP3    H142905   8.512   5.227   6.474
14322TIP3    H242906   8.432   5.168   6.360
14323TIP3   OH242907   8.312   5.199   6.228
14323TIP3    H142908   8.239   5.155   6.184
14323TIP3    H242909   8.361   5.241   6.158
14324TIP3   OH242910   8.289   4.948   6.706
14324TIP3    H142911   8.265   4.872   6.760
14324TIP3    H242912   8.370   4.923   6.663
14325TIP3   OH242913   7.891   5.349   6.256
14325TIP3    H142914   7.934   5.434   6.266
14325TIP3    H242915   7.816   5.353   6.315
14326TIP3   OH242916   8.360   5.892   5.787
14326TIP3    H142917   8.331   5.802   5.773
14326TIP3    H242918   8.415   5.887   5.865
14327TIP3   OH242919   7.961   5.609   6.304
14327TIP3    H142920   7.895   5.650   6.361
14327TIP3    H242921   7.994   5.681   6.251
14328TIP3   OH242922   8.375   4.890   6.374
14328TIP3    H142923   8.376   4.978   6.411
14328TIP3    H242924   8.464   4.857   6.388
14329TIP3   OH242925   8.002   5.829   6.128
14329TIP3    H142926   8.050   5.912   6.133
14329TIP3    H242927   8.053   5.776   6.067
14330TIP3   OH242928   7.932   5.068   6.243
14330TIP3    H142929   7.961   5.159   6.252
14330TIP3    H242930   7.837   5.073   6.252
14331TIP3   OH242931   8.146   5.653   5.981
14331TIP3    H142932   8.193   5.610   6.053
14331TIP3    H242933   8.206   5.647   5.906
14332TIP3   OH242934   8.300   5.523   6.163
14332TIP3    H142935   8.287   5.492   6.253
14332TIP3    H242936   8.355   5.456   6.122
14333TIP3   OH242937   8.445   5.328   6.027
14333TIP3    H142938   8.408   5.334   5.939
14333TIP3    H242939   8.540   5.333   6.014
14334TIP3   OH242940   7.732   5.786   6.124
14334TIP3    H142941   7.825   5.807   6.122
14334TIP3    H242942   7.726   5.701   6.080
14335TIP3   OH242943   7.931   4.799   6.725
14335TIP3    H142944   7.840   4.788   6.753
14335TIP3    H242945   7.925   4.858   6.650
14336TIP3   OH242946   8.244   4.713   6.844
14336TIP3    H142947   8.155   4.688   6.870
14336TIP3    H242948   8.298   4.638   6.869
14337TIP3   OH242949   8.028   4.606   6.538
14337TIP3    H142950   8.065   4.659   6.468
14337TIP3    H242951   8.007   4.669   6.607
14338TIP3   OH242952   8.148   4.748   6.299
14338TIP3    H142953   8.193   4.684   6.245
14338TIP3    H242954   8.218   4.802   6.335
14339TIP3   OH242955   0.148   4.893   6.430
14339TIP3    H142956   0.209   4.864   6.498
14339TIP3    H242957   0.129   4.984   6.452
14340TIP3   OH242958   7.866   2.098   1.571
14340TIP3    H142959   7.852   2.192   1.566
14340TIP3    H242960   7.939   2.081   1.511
14341TIP3   OH242961   7.327   1.912   1.189
14341TIP3    H142962   7.323   1.973   1.262
14341TIP3    H242963   7.371   1.961   1.119
14342TIP3   OH242964   7.640   1.972   1.462
14342TIP3    H142965   7.699   1.957   1.536
14342TIP3    H242966   7.694   2.016   1.397
14343TIP3   OH242967   6.875   2.258   0.992
14343TIP3    H142968   6.821   2.326   1.032
14343TIP3    H242969   6.946   2.306   0.949
14344TIP3   OH242970   6.899   2.121   0.750
14344TIP3    H142971   6.897   2.113   0.845
14344TIP3    H242972   6.930   2.036   0.719
14345TIP3   OH242973   7.344   2.309   1.076
14345TIP3    H142974   7.250   2.324   1.078
14345TIP3    H242975   7.376   2.369   1.008
14346TIP3   OH242976   7.132   2.313   0.828
14346TIP3    H142977   7.205   2.374   0.843
14346TIP3    H242978   7.139   2.288   0.737
14347TIP3   OH242979   7.618   1.564   0.882
14347TIP3    H142980   7.527   1.553   0.908
14347TIP3    H242981   7.617   1.633   0.817
14348TIP3   OH242982   7.453   2.885   0.311
14348TIP3    H142983   7.439   2.980   0.310
14348TIP3    H242984   7.540   2.874   0.349
14349TIP3   OH242985   7.174   2.229   0.561
14349TIP3    H142986   7.101   2.261   0.507
14349TIP3    H242987   7.252   2.270   0.523
14350TIP3   OH242988   6.909   1.633   0.839
14350TIP3    H142989   6.845   1.664   0.903
14350TIP3    H242990   6.867   1.558   0.798
14351TIP3   OH242991   7.087   2.212   1.185
14351TIP3    H142992   6.996   2.240   1.179
14351TIP3    H242993   7.103   2.164   1.104
14352TIP3   OH242994   7.165   1.801   0.859
14352TIP3    H142995   7.069   1.805   0.852
14352TIP3    H242996   7.195   1.881   0.816
14353TIP3   OH242997   7.178   2.080   0.964
14353TIP3    H142998   7.272   2.062   0.955
14353TIP3    H242999   7.162   2.153   0.905
14354TIP3   OH243000   7.657   2.103   0.770
14354TIP3    H143001   7.613   2.077   0.689
14354TIP3    H243002   7.663   2.198   0.764
14355TIP3   OH243003   7.084   2.742   0.612
14355TIP3    H143004   7.107   2.738   0.705
14355TIP3    H243005   6.993   2.715   0.608
14356TIP3   OH243006   7.464   3.338   0.413
14356TIP3    H143007   7.446   3.388   0.333
14356TIP3    H243008   7.406   3.377   0.479
14357TIP3   OH243009   7.170   2.662   0.858
14357TIP3    H143010   7.206   2.604   0.790
14357TIP3    H243011   7.237   2.729   0.870
14358TIP3   OH243012   7.193   1.701   1.105
14358TIP3    H143013   7.187   1.738   1.017
14358TIP3    H243014   7.247   1.763   1.154
14359TIP3   OH243015   6.792   2.000   1.307
14359TIP3    H143016   6.816   2.090   1.285
14359TIP3    H243017   6.706   2.008   1.349
14360TIP3   OH243018   7.025   1.690   1.364
14360TIP3    H143019   7.003   1.738   1.443
14360TIP3    H243020   7.117   1.668   1.374
14361TIP3   OH243021   7.025   2.960   0.467
14361TIP3    H143022   7.060   2.916   0.545
14361TIP3    H243023   7.092   2.947   0.400
14362TIP3   OH243024   6.821   2.686   0.583
14362TIP3    H143025   6.774   2.671   0.665
14362TIP3    H243026   6.800   2.610   0.529
14363TIP3   OH243027   6.618   2.191   0.869
14363TIP3    H143028   6.610   2.179   0.775
14363TIP3    H243029   6.707   2.224   0.882
14364TIP3   OH243030   7.390   2.337   0.431
14364TIP3    H143031   7.378   2.347   0.336
14364TIP3    H243032   7.404   2.426   0.463
14365TIP3   OH243033   7.563   2.669   0.798
14365TIP3    H143034   7.638   2.721   0.767
14365TIP3    H243035   7.597   2.620   0.873
14366TIP3   OH243036   7.662   2.487   0.982
14366TIP3    H143037   7.636   2.407   1.028
14366TIP3    H243038   7.721   2.532   1.042
14367TIP3   OH243039   7.620   2.366   0.721
14367TIP3    H143040   7.601   2.424   0.647
14367TIP3    H243041   7.629   2.425   0.796
14368TIP3   OH243042   7.512   2.077   0.538
14368TIP3    H143043   7.468   2.139   0.480
14368TIP3    H243044   7.474   1.992   0.517
14369TIP3   OH243045   7.628   2.329   1.315
14369TIP3    H143046   7.624   2.290   1.227
14369TIP3    H243047   7.544   2.373   1.325
14370TIP3   OH243048   7.408   1.812   0.556
14370TIP3    H143049   7.479   1.787   0.615
14370TIP3    H243050   7.339   1.748   0.572
14371TIP3   OH243051   7.455   2.002   0.966
14371TIP3    H143052   7.518   1.930   0.976
14371TIP3    H243053   7.484   2.047   0.886
14372TIP3   OH243054   7.638   1.807   1.026
14372TIP3    H143055   7.664   1.798   1.117
14372TIP3    H243056   7.631   1.717   0.993
14373TIP3   OH243057   7.647   1.762   0.694
14373TIP3    H143058   7.682   1.691   0.641
14373TIP3    H243059   7.718   1.825   0.699
14374TIP3   OH243060   7.687   1.613   1.472
14374TIP3    H143061   7.698   1.684   1.409
14374TIP3    H243062   7.606   1.635   1.518
14375TIP3   OH243063   7.768   1.786   1.264
14375TIP3    H143064   7.837   1.725   1.237
14375TIP3    H243065   7.808   1.873   1.253
14376TIP3   OH243066   7.434   1.560   1.602
14376TIP3    H143067   7.374   1.559   1.528
14376TIP3    H243068   7.423   1.474   1.643
14377TIP3   OH243069   7.378   1.545   0.988
14377TIP3    H143070   7.301   1.598   1.010
14377TIP3    H243071   7.384   1.482   1.060
14378TIP3   OH243072   6.765   1.729   1.292
14378TIP3    H143073   6.855   1.698   1.288
14378TIP3    H243074   6.772   1.824   1.301
14379TIP3   OH243075   0.344   2.783   0.691
14379TIP3    H143076   0.315   2.872   0.671
14379TIP3    H243077   0.274   2.726   0.658
14380TIP3   OH243078   0.344   2.750   1.072
14380TIP3    H143079   0.373   2.734   1.162
14380TIP3    H243080   0.298   2.670   1.046
14381TIP3   OH243081   0.641   3.026   0.767
14381TIP3    H143082   0.564   3.031   0.825
14381TIP3    H243083   0.644   3.112   0.724
14382TIP3   OH243084   7.868   2.289   0.927
14382TIP3    H143085   7.861   2.375   0.969
14382TIP3    H243086   7.780   2.251   0.936
14383TIP3   OH243087   7.910   2.542   1.096
14383TIP3    H143088   7.951   2.483   1.159
14383TIP3    H243089   7.957   2.625   1.107
14384TIP3   OH243090   0.248   3.485   0.758
14384TIP3    H143091   0.331   3.461   0.718
14384TIP3    H243092   0.256   3.455   0.849
14385TIP3   OH243093   0.187   2.973   1.132
14385TIP3    H143094   0.221   2.897   1.085
14385TIP3    H243095   0.265   3.023   1.155
14386TIP3   OH243096   1.169   2.317   1.123
14386TIP3    H143097   1.187   2.403   1.159
14386TIP3    H243098   1.197   2.324   1.031
14387TIP3   OH243099   0.564   2.493   1.157
14387TIP3    H143100   0.610   2.411   1.174
14387TIP3    H243101   0.533   2.485   1.067
14388TIP3   OH243102   8.423   2.156   1.109
14388TIP3    H143103   8.402   2.230   1.051
14388TIP3    H243104   8.370   2.084   1.076
14389TIP3   OH243105   0.612   2.257   0.739
14389TIP3    H143106   0.679   2.250   0.806
14389TIP3    H243107   0.658   2.290   0.662
14390TIP3   OH243108   8.055   2.359   1.241
14390TIP3    H143109   8.139   2.351   1.286
14390TIP3    H243110   8.067   2.310   1.160
14391TIP3   OH243111   8.482   2.557   1.028
14391TIP3    H143112   8.575   2.534   1.037
14391TIP3    H243113   8.441   2.478   0.994
14392TIP3   OH243114   1.236   2.531   1.296
14392TIP3    H143115   1.152   2.574   1.280
14392TIP3    H243116   1.279   2.587   1.361
14393TIP3   OH243117   8.416   2.136   1.554
14393TIP3    H143118   8.364   2.177   1.486
14393TIP3    H243119   8.366   2.149   1.635
14394TIP3   OH243120   0.224   3.001   0.569
14394TIP3    H143121   0.215   2.995   0.474
14394TIP3    H243122   0.197   3.091   0.590
14395TIP3   OH243123   0.786   2.263   0.948
14395TIP3    H143124   0.760   2.236   1.036
14395TIP3    H243125   0.842   2.339   0.962
14396TIP3   OH243126   8.297   2.258   1.339
14396TIP3    H143127   8.349   2.334   1.363
14396TIP3    H243128   8.342   2.222   1.262
14397TIP3   OH243129   7.709   2.869   0.646
14397TIP3    H143130   7.691   2.849   0.554
14397TIP3    H243131   7.796   2.910   0.645
14398TIP3   OH243132   0.672   3.299   0.889
14398TIP3    H143133   0.592   3.298   0.941
14398TIP3    H243134   0.645   3.332   0.803
14399TIP3   OH243135   0.981   2.187   1.296
14399TIP3    H143136   0.895   2.223   1.273
14399TIP3    H243137   1.038   2.215   1.224
14400TIP3   OH243138   0.270   1.852   1.278
14400TIP3    H143139   0.258   1.759   1.296
14400TIP3    H243140   0.193   1.895   1.317
14401TIP3   OH243141   0.802   3.253   1.202
14401TIP3    H143142   0.821   3.176   1.148
14401TIP3    H243143   0.817   3.328   1.144
14402TIP3   OH243144   0.182   2.623   0.528
14402TIP3    H143145   0.103   2.673   0.506
14402TIP3    H243146   0.235   2.626   0.448
14403TIP3   OH243147   0.148   2.429   0.232
14403TIP3    H143148   0.212   2.480   0.282
14403TIP3    H243149   0.200   2.365   0.184
14404TIP3   OH243150   1.043   2.836   1.065
14404TIP3    H143151   0.959   2.883   1.066
14404TIP3    H243152   1.090   2.872   0.990
14405TIP3   OH243153   0.530   2.720   0.498
14405TIP3    H143154   0.477   2.751   0.571
14405TIP3    H243155   0.615   2.698   0.538
14406TIP3   OH243156   0.741   2.710   1.362
14406TIP3    H143157   0.727   2.772   1.434
14406TIP3    H243158   0.670   2.728   1.301
14407TIP3   OH243159   8.274   2.695   0.905
14407TIP3    H143160   8.237   2.637   0.839
14407TIP3    H243161   8.349   2.647   0.941
14408TIP3   OH243162   8.432   3.072   1.074
14408TIP3    H143163   8.400   2.993   1.030
14408TIP3    H243164   8.522   3.051   1.098
14409TIP3   OH243165   8.415   2.683   1.265
14409TIP3    H143166   8.436   2.650   1.178
14409TIP3    H243167   8.495   2.725   1.295
14410TIP3   OH243168   0.440   3.293   1.042
14410TIP3    H143169   0.422   3.362   1.105
14410TIP3    H243170   0.427   3.212   1.090
14411TIP3   OH243171   0.372   2.578   0.325
14411TIP3    H143172   0.430   2.637   0.373
14411TIP3    H243173   0.397   2.589   0.233
14412TIP3   OH243174   0.133   3.270   0.592
14412TIP3    H143175   0.188   3.326   0.647
14412TIP3    H243176   0.080   3.331   0.541
14413TIP3   OH243177   0.885   1.809   0.381
14413TIP3    H143178   0.805   1.830   0.430
14413TIP3    H243179   0.899   1.885   0.324
14414TIP3   OH243180   8.151   2.537   0.705
14414TIP3    H143181   8.079   2.584   0.664
14414TIP3    H243182   8.111   2.457   0.739
14415TIP3   OH243183   3.532   7.189   6.864
14415TIP3    H143184   3.533   7.283   6.846
14415TIP3    H243185   3.622   7.160   6.848
14416TIP3   OH243186   0.015   3.467   0.403
14416TIP3    H143187  -0.015   3.449   0.314
14416TIP3    H243188   0.005   3.562   0.413
14417TIP3   OH243189   0.214   3.399   0.054
14417TIP3    H143190   0.265   3.329   0.013
14417TIP3    H243191   0.259   3.415   0.137
14418TIP3   OH243192   0.294   3.445   0.333
14418TIP3    H143193   0.211   3.432   0.380
14418TIP3    H243194   0.361   3.416   0.394
14419TIP3   OH243195   0.901   2.673   1.653
14419TIP3    H143196   0.908   2.749   1.597
14419TIP3    H243197   0.991   2.652   1.677
14420TIP3   OH243198   8.521   1.937   1.386
14420TIP3    H143199   8.437   1.905   1.353
14420TIP3    H243200   8.499   2.017   1.435
14421TIP3   OH243201   0.567   2.053   1.590
14421TIP3    H143202   0.637   2.026   1.650
14421TIP3    H243203   0.486   2.027   1.633
14422TIP3   OH243204   0.773   2.468   1.493
14422TIP3    H143205   0.766   2.509   1.580
14422TIP3    H243206   0.766   2.540   1.431
14423TIP3   OH243207   0.445   2.576   0.060
14423TIP3    H143208   0.408   2.570  -0.028
14423TIP3    H243209   0.526   2.625   0.049
14424TIP3   OH243210   0.150   1.990   0.370
14424TIP3    H143211   0.119   1.994   0.460
14424TIP3    H243212   0.119   1.906   0.337
14425TIP3   OH243213   8.452   2.464   1.429
14425TIP3    H143214   8.465   2.491   1.520
14425TIP3    H243215   8.429   2.545   1.383
14426TIP3   OH243216   8.337   2.346   0.932
14426TIP3    H143217   8.249   2.322   0.962
14426TIP3    H243218   8.343   2.312   0.843
14427TIP3   OH243219   0.313   2.424   0.665
14427TIP3    H143220   0.264   2.496   0.625
14427TIP3    H243221   0.372   2.394   0.595
14428TIP3   OH243222   0.476   2.448   0.898
14428TIP3    H143223   0.412   2.481   0.835
14428TIP3    H243224   0.517   2.374   0.853
14429TIP3   OH243225   8.311   1.962   0.349
14429TIP3    H143226   8.305   1.968   0.444
14429TIP3    H243227   8.238   2.016   0.317
14430TIP3   OH243228   7.870   2.030   1.198
14430TIP3    H143229   7.936   2.064   1.258
14430TIP3    H243230   7.919   2.004   1.120
14431TIP3   OH243231   7.862   1.949   0.700
14431TIP3    H143232   7.896   1.991   0.622
14431TIP3    H243233   7.798   2.011   0.735
14432TIP3   OH243234   0.437   2.672   1.319
14432TIP3    H143235   0.485   2.611   1.264
14432TIP3    H243236   0.433   2.631   1.405
14433TIP3   OH243237   0.183   2.143   0.992
14433TIP3    H143238   0.103   2.147   1.044
14433TIP3    H243239   0.254   2.147   1.056
14434TIP3   OH243240   8.112   2.216   1.012
14434TIP3    H143241   8.027   2.225   0.969
14434TIP3    H243242   8.141   2.128   0.988
14435TIP3   OH243243   8.346   2.221   0.689
14435TIP3    H143244   8.440   2.236   0.675
14435TIP3    H243245   8.306   2.243   0.606
14436TIP3   OH243246   0.646   2.224   1.203
14436TIP3    H143247   0.618   2.248   1.291
14436TIP3    H243248   0.573   2.174   1.168
14437TIP3   OH243249   8.220   2.249   0.448
14437TIP3    H143250   8.153   2.208   0.394
14437TIP3    H243251   8.275   2.296   0.386
14438TIP3   OH243252   0.244   2.483   1.085
14438TIP3    H143253   0.319   2.444   1.039
14438TIP3    H243254   0.248   2.446   1.173
14439TIP3   OH243255   8.251   1.977   0.976
14439TIP3    H143256   8.218   1.902   1.025
14439TIP3    H243257   8.279   1.940   0.892
14440TIP3   OH243258   0.216   2.399   1.363
14440TIP3    H143259   0.125   2.427   1.377
14440TIP3    H243260   0.268   2.456   1.419
14441TIP3   OH243261   8.454   2.769   0.459
14441TIP3    H143262   8.377   2.714   0.442
14441TIP3    H243263   8.440   2.802   0.548
14442TIP3   OH243264   0.830   3.005   1.070
14442TIP3    H143265   0.857   3.056   0.993
14442TIP3    H243266   0.743   2.973   1.048
14443TIP3   OH243267   0.408   2.084   0.373
14443TIP3    H143268   0.314   2.068   0.366
14443TIP3    H243269   0.415   2.179   0.383
14444TIP3   OH243270   0.475   2.347   0.446
14444TIP3    H143271   0.571   2.352   0.455
14444TIP3    H243272   0.452   2.425   0.396
14445TIP3   OH243273   8.130   2.716   1.143
14445TIP3    H143274   8.172   2.723   1.057
14445TIP3    H243275   8.203   2.720   1.205
14446TIP3   OH243276   0.107   2.933   0.298
14446TIP3    H143277   0.058   3.015   0.304
14446TIP3    H243278   0.060   2.873   0.356
14447TIP3   OH243279   0.897   2.436   0.274
14447TIP3    H143280   0.840   2.390   0.212
14447TIP3    H243281   0.901   2.526   0.241
14448TIP3   OH243282   1.206   3.312   1.302
14448TIP3    H143283   1.120   3.287   1.338
14448TIP3    H243284   1.204   3.280   1.212
14449TIP3   OH243285   0.605   3.253   0.181
14449TIP3    H143286   0.591   3.181   0.243
14449TIP3    H243287   0.633   3.211   0.100
14450TIP3   OH243288   0.590   2.869   1.029
14450TIP3    H143289   0.501   2.832   1.027
14450TIP3    H243290   0.638   2.819   0.963
14451TIP3   OH243291   8.242   3.086   0.743
14451TIP3    H143292   8.302   3.152   0.776
14451TIP3    H243293   8.165   3.093   0.799
14452TIP3   OH243294   7.819   2.421   0.478
14452TIP3    H143295   7.881   2.487   0.507
14452TIP3    H243296   7.733   2.456   0.501
14453TIP3   OH243297   8.379   2.852   0.703
14453TIP3    H143298   8.339   2.938   0.713
14453TIP3    H243299   8.350   2.803   0.780
14454TIP3   OH243300   0.448   3.057   1.192
14454TIP3    H143301   0.505   3.072   1.267
14454TIP3    H243302   0.499   2.999   1.135
14455TIP3   OH243303   0.378   2.985   0.096
14455TIP3    H143304   0.440   2.957   0.164
14455TIP3    H243305   0.292   2.964   0.132
14456TIP3   OH243306   3.550   7.464   6.828
14456TIP3    H143307   3.601   7.539   6.797
14456TIP3    H243308   3.470   7.501   6.864
14457TIP3   OH243309   0.555   2.897   0.282
14457TIP3    H143310   0.540   2.850   0.364
14457TIP3    H243311   0.651   2.903   0.275
14458TIP3   OH243312   8.240   2.958   0.102
14458TIP3    H143313   8.255   2.867   0.076
14458TIP3    H243314   8.233   2.955   0.197
14459TIP3   OH243315   8.199   2.981   0.377
14459TIP3    H143316   8.274   2.956   0.432
14459TIP3    H243317   8.195   3.076   0.384
14460TIP3   OH243318   7.934   2.650   0.582
14460TIP3    H143319   7.892   2.681   0.663
14460TIP3    H243320   7.943   2.728   0.528
14461TIP3   OH243321   0.562   2.293   1.453
14461TIP3    H143322   0.637   2.344   1.483
14461TIP3    H243323   0.560   2.217   1.511
14462TIP3   OH243324   0.465   2.039   0.643
14462TIP3    H143325   0.443   2.054   0.551
14462TIP3    H243326   0.506   2.121   0.672
14463TIP3   OH243327   8.452   3.156   0.310
14463TIP3    H143328   8.370   3.186   0.349
14463TIP3    H243329   8.483   3.230   0.258
14464TIP3   OH243330   0.128   2.231   0.732
14464TIP3    H143331   0.190   2.300   0.706
14464TIP3    H243332   0.145   2.217   0.825
14465TIP3   OH243333   0.414   2.511   1.541
14465TIP3    H143334   0.464   2.531   1.621
14465TIP3    H243335   0.452   2.430   1.508
14466TIP3   OH243336   0.283   1.938   0.826
14466TIP3    H143337   0.256   2.015   0.876
14466TIP3    H243338   0.348   1.970   0.764
14467TIP3   OH243339   8.202   3.255   0.388
14467TIP3    H143340   8.183   3.315   0.316
14467TIP3    H243341   8.203   3.311   0.466
14468TIP3   OH243342   8.298   1.952   0.630
14468TIP3    H143343   8.289   2.042   0.658
14468TIP3    H243344   8.393   1.935   0.631
14469TIP3   OH243345   1.047   2.420   1.501
14469TIP3    H143346   0.952   2.431   1.505
14469TIP3    H243347   1.064   2.397   1.409
14470TIP3   OH243348   0.703   2.632   0.896
14470TIP3    H143349   0.624   2.579   0.907
14470TIP3    H243350   0.770   2.586   0.948
14471TIP3   OH243351   7.960   2.849   0.384
14471TIP3    H143352   8.032   2.912   0.390
14471TIP3    H243353   7.989   2.785   0.319
14472TIP3   OH243354   7.848   2.138   0.494
14472TIP3    H143355   7.861   2.232   0.505
14472TIP3    H243356   7.759   2.130   0.458
14473TIP3   OH243357   0.660   3.603   0.869
14473TIP3    H143358   0.583   3.565   0.826
14473TIP3    H243359   0.728   3.603   0.802
14474TIP3   OH243360   8.250   1.864   1.361
14474TIP3    H143361   8.221   1.834   1.274
14474TIP3    H243362   8.238   1.787   1.417
14475TIP3   OH243363   2.734   7.164   6.933
14475TIP3    H143364   2.687   7.093   6.978
14475TIP3    H243365   2.809   7.121   6.892
14476TIP3   OH243366   3.172   7.201   6.857
14476TIP3    H143367   3.205   7.137   6.921
14476TIP3    H243368   3.235   7.198   6.786
14477TIP3   OH243369   8.064   2.654   0.224
14477TIP3    H143370   8.115   2.627   0.300
14477TIP3    H243371   8.129   2.667   0.155
14478TIP3   OH243372   0.076   2.872   0.031
14478TIP3    H143373   0.079   2.888   0.126
14478TIP3    H243374   0.077   2.777   0.023
14479TIP3   OH243375   0.642   3.126   1.383
14479TIP3    H143376   0.702   3.162   1.317
14479TIP3    H243377   0.610   3.202   1.431
14480TIP3   OH243378   8.241   2.588   0.432
14480TIP3    H143379   8.224   2.558   0.521
14480TIP3    H243380   8.288   2.516   0.391
14481TIP3   OH243381   8.374   2.398   0.278
14481TIP3    H143382   8.346   2.404   0.186
14481TIP3    H243383   8.470   2.405   0.274
14482TIP3   OH243384   3.505   6.706   6.895
14482TIP3    H143385   3.491   6.665   6.810
14482TIP3    H243386   3.479   6.797   6.882
14483TIP3   OH243387   0.094   2.441   1.693
14483TIP3    H143388   0.129   2.353   1.681
14483TIP3    H243389   0.171   2.496   1.704
14484TIP3   OH243390   0.185   2.201   1.573
14484TIP3    H143391   0.206   2.250   1.493
14484TIP3    H243392   0.091   2.180   1.564
14485TIP3   OH243393   0.165   2.759   1.376
14485TIP3    H143394   0.257   2.737   1.358
14485TIP3    H243395   0.162   2.855   1.371
14486TIP3   OH243396   0.714   2.919   1.557
14486TIP3    H143397   0.681   2.989   1.501
14486TIP3    H243398   0.808   2.918   1.542
14487TIP3   OH243399   0.314   1.968   1.657
14487TIP3    H143400   0.276   2.053   1.635
14487TIP3    H243401   0.239   1.910   1.667
14488TIP3   OH243402   0.620   2.413   1.739
14488TIP3    H143403   0.608   2.439   1.831
14488TIP3    H243404   0.702   2.365   1.738
14489TIP3   OH243405   8.190   3.448   0.193
14489TIP3    H143406   8.283   3.435   0.174
14489TIP3    H243407   8.156   3.494   0.116
14490TIP3   OH243408   7.698   2.793   0.377
14490TIP3    H143409   7.790   2.820   0.374
14490TIP3    H243410   7.695   2.714   0.323
14491TIP3   OH243411   0.896   3.635   0.740
14491TIP3    H143412   0.888   3.706   0.803
14491TIP3    H243413   0.969   3.661   0.684
14492TIP3   OH243414   0.830   2.899   0.277
14492TIP3    H143415   0.892   2.966   0.248
14492TIP3    H243416   0.872   2.860   0.354
14493TIP3   OH243417   0.947   2.751   0.475
14493TIP3    H143418   0.879   2.715   0.532
14493TIP3    H243419   1.012   2.787   0.535
14494TIP3   OH243420   0.995   3.151   0.903
14494TIP3    H143421   1.043   3.088   0.850
14494TIP3    H243422   0.983   3.227   0.846
14495TIP3   OH243423   0.866   3.451   1.015
14495TIP3    H143424   0.812   3.529   1.002
14495TIP3    H243425   0.826   3.385   0.957
14496TIP3   OH243426   0.882   2.673   0.130
14496TIP3    H143427   0.810   2.672   0.067
14496TIP3    H243428   0.865   2.750   0.184
14497TIP3   OH243429   0.741   2.330   0.077
14497TIP3    H143430   0.697   2.371   0.002
14497TIP3    H243431   0.728   2.236   0.065
14498TIP3   OH243432   0.758   2.620   0.626
14498TIP3    H143433   0.766   2.525   0.619
14498TIP3    H243434   0.743   2.637   0.719
14499TIP3   OH243435   0.977   2.888   1.479
14499TIP3    H143436   1.055   2.850   1.440
14499TIP3    H243437   0.976   2.979   1.448
14500TIP3   OH243438   1.248   2.793   1.438
14500TIP3    H143439   1.250   2.851   1.515
14500TIP3    H243440   1.333   2.750   1.439
14501TIP3   OH243441   0.696   2.061   0.051
14501TIP3    H143442   0.762   2.032   0.113
14501TIP3    H243443   0.616   2.014   0.077
14502TIP3   OH243444   0.762   2.340   0.513
14502TIP3    H143445   0.809   2.257   0.527
14502TIP3    H243446   0.807   2.381   0.439
14503TIP3   OH243447   0.913   2.496   1.026
14503TIP3    H143448   0.996   2.513   0.981
14503TIP3    H243449   0.926   2.533   1.114
14504TIP3   OH243450   0.989   2.642   1.253
14504TIP3    H143451   0.909   2.671   1.298
14504TIP3    H243452   1.008   2.711   1.191
14505TIP3   OH243453   0.880   2.090   0.568
14505TIP3    H143454   0.922   2.072   0.652
14505TIP3    H243455   0.817   2.019   0.557
14506TIP3   OH243456   8.074   2.077   1.384
14506TIP3    H143457   8.134   2.002   1.386
14506TIP3    H243458   8.132   2.153   1.373
14507TIP3   OH243459   7.868   2.353   1.457
14507TIP3    H143460   7.784   2.353   1.412
14507TIP3    H243461   7.933   2.367   1.388
14508TIP3   OH243462   1.288   2.351   1.623
14508TIP3    H143463   1.205   2.395   1.607
14508TIP3    H243464   1.287   2.275   1.564
14509TIP3   OH243465   0.932   2.012   0.200
14509TIP3    H143466   0.974   1.949   0.141
14509TIP3    H243467   0.989   2.088   0.199
14510TIP3   OH243468   7.905   1.862   0.954
14510TIP3    H143469   7.813   1.850   0.978
14510TIP3    H243470   7.902   1.902   0.867
14511TIP3   OH243471   1.207   2.131   1.474
14511TIP3    H143472   1.125   2.137   1.424
14511TIP3    H243473   1.235   2.040   1.461
14512TIP3   OH243474   0.427   2.057   1.126
14512TIP3    H143475   0.379   1.989   1.174
14512TIP3    H243476   0.485   2.008   1.068
14513TIP3   OH243477   0.896   1.979   1.049
14513TIP3    H143478   0.959   2.007   0.983
14513TIP3    H243479   0.811   1.987   1.006
14514TIP3   OH243480   1.030   2.020   0.804
14514TIP3    H143481   1.099   1.966   0.766
14514TIP3    H243482   1.059   2.110   0.789
14515TIP3   OH243483   8.169   1.757   1.119
14515TIP3    H143484   8.078   1.727   1.116
14515TIP3    H243485   8.221   1.677   1.117
14516TIP3   OH243486   7.963   1.644   0.768
14516TIP3    H143487   7.994   1.695   0.694
14516TIP3    H243488   7.949   1.709   0.837
14517TIP3   OH243489   0.124   1.796   1.015
14517TIP3    H143490   0.173   1.842   0.946
14517TIP3    H243491   0.159   1.831   1.097
14518TIP3   OH243492   0.624   1.920   0.979
14518TIP3    H143493   0.624   1.937   0.885
14518TIP3    H243494   0.641   1.826   0.987
14519TIP3   OH243495   0.689   1.886   0.564
14519TIP3    H143496   0.606   1.930   0.580
14519TIP3    H243497   0.677   1.798   0.600
14520TIP3   OH243498   8.089   1.785   0.542
14520TIP3    H143499   8.136   1.727   0.483
14520TIP3    H243500   8.157   1.841   0.580
14521TIP3   OH243501   0.073   1.981   0.636
14521TIP3    H143502   0.132   1.928   0.689
14521TIP3    H243503   0.090   2.071   0.664
14522TIP3   OH243504   8.454   3.384   0.138
14522TIP3    H143505   8.540   3.408   0.105
14522TIP3    H243506   8.425   3.312   0.081
14523TIP3   OH243507   0.688   3.516   0.196
14523TIP3    H143508   0.659   3.426   0.209
14523TIP3    H243509   0.627   3.552   0.132
14524TIP3   OH243510   7.772   3.211   0.187
14524TIP3    H143511   7.803   3.283   0.242
14524TIP3    H243512   7.852   3.167   0.158
14525TIP3   OH243513   2.038   3.019   0.215
14525TIP3    H143514   2.032   3.097   0.160
14525TIP3    H243515   1.995   2.951   0.164
14526TIP3   OH243516   2.095   3.081   0.523
14526TIP3    H143517   2.175   3.028   0.529
14526TIP3    H243518   2.063   3.066   0.434
14527TIP3   OH243519   1.442   2.897   0.934
14527TIP3    H143520   1.500   2.826   0.962
14527TIP3    H243521   1.494   2.977   0.945
14528TIP3   OH243522   2.344   3.321   0.226
14528TIP3    H143523   2.348   3.251   0.291
14528TIP3    H243524   2.381   3.398   0.271
14529TIP3   OH243525   1.436   3.237   0.617
14529TIP3    H143526   1.405   3.150   0.591
14529TIP3    H243527   1.385   3.258   0.695
14530TIP3   OH243528   1.120   2.532   0.419
14530TIP3    H143529   1.081   2.617   0.440
14530TIP3    H243530   1.050   2.483   0.376
14531TIP3   OH243531   1.164   2.813   0.623
14531TIP3    H143532   1.216   2.738   0.652
14531TIP3    H243533   1.228   2.874   0.587
14532TIP3   OH243534   1.892   3.797   0.293
14532TIP3    H143535   1.917   3.757   0.209
14532TIP3    H243536   1.942   3.748   0.358
14533TIP3   OH243537   1.972   3.281   0.671
14533TIP3    H143538   2.026   3.216   0.627
14533TIP3    H243539   2.034   3.337   0.718
14534TIP3   OH243540   2.900   2.608   0.541
14534TIP3    H143541   2.903   2.512   0.544
14534TIP3    H243542   2.935   2.631   0.455
14535TIP3   OH243543   2.263   2.645   0.681
14535TIP3    H143544   2.356   2.645   0.706
14535TIP3    H243545   2.260   2.697   0.601
14536TIP3   OH243546   1.708   2.408   0.591
14536TIP3    H143547   1.690   2.483   0.534
14536TIP3    H243548   1.658   2.336   0.553
14537TIP3   OH243549   2.402   2.474   0.178
14537TIP3    H143550   2.435   2.540   0.238
14537TIP3    H243551   2.439   2.497   0.093
14538TIP3   OH243552   1.320   2.609   0.718
14538TIP3    H143553   1.405   2.593   0.759
14538TIP3    H243554   1.325   2.563   0.634
14539TIP3   OH243555   1.752   2.824   0.481
14539TIP3    H143556   1.847   2.809   0.484
14539TIP3    H243557   1.715   2.738   0.460
14540TIP3   OH243558   1.637   2.362   1.030
14540TIP3    H143559   1.588   2.391   0.953
14540TIP3    H243560   1.582   2.387   1.105
14541TIP3   OH243561   4.897   7.202   6.942
14541TIP3    H143562   4.862   7.178   6.857
14541TIP3    H243563   4.851   7.282   6.967
14542TIP3   OH243564   1.724   3.192   0.741
14542TIP3    H143565   1.661   3.244   0.790
14542TIP3    H243566   1.797   3.252   0.725
14543TIP3   OH243567   2.596   2.419   0.462
14543TIP3    H143568   2.506   2.425   0.432
14543TIP3    H243569   2.647   2.461   0.393
14544TIP3   OH243570   1.554   2.492   0.801
14544TIP3    H143571   1.619   2.550   0.841
14544TIP3    H243572   1.599   2.455   0.725
14545TIP3   OH243573   1.566   3.352   0.902
14545TIP3    H143574   1.611   3.431   0.873
14545TIP3    H243575   1.524   3.377   0.984
14546TIP3   OH243576   1.011   3.072   0.162
14546TIP3    H143577   0.975   3.096   0.077
14546TIP3    H243578   1.031   3.156   0.204
14547TIP3   OH243579   2.658   2.444   0.804
14547TIP3    H143580   2.585   2.421   0.746
14547TIP3    H243581   2.651   2.538   0.816
14548TIP3   OH243582   2.048   2.090   0.767
14548TIP3    H143583   2.026   1.997   0.772
14548TIP3    H243584   1.969   2.135   0.798
14549TIP3   OH243585   2.346   3.624   0.122
14549TIP3    H143586   2.312   3.550   0.072
14549TIP3    H243587   2.325   3.700   0.069
14550TIP3   OH243588   5.105   7.410   6.923
14550TIP3    H143589   5.065   7.347   6.863
14550TIP3    H243590   5.112   7.363   7.006
14551TIP3   OH243591   4.787   6.875   6.933
14551TIP3    H143592   4.709   6.926   6.912
14551TIP3    H243593   4.837   6.873   6.852
14552TIP3   OH243594   4.766   6.679   6.652
14552TIP3    H143595   4.832   6.728   6.699
14552TIP3    H243596   4.815   6.614   6.601
14553TIP3   OH243597   5.097   7.024   6.867
14553TIP3    H143598   5.055   7.073   6.937
14553TIP3    H243599   5.162   6.968   6.911
14554TIP3   OH243600   1.548   2.959   0.359
14554TIP3    H143601   1.514   2.897   0.294
14554TIP3    H243602   1.623   2.914   0.398
14555TIP3   OH243603   1.696   3.314   0.490
14555TIP3    H143604   1.617   3.317   0.437
14555TIP3    H243605   1.675   3.253   0.561
14556TIP3   OH243606   1.612   2.956   0.674
14556TIP3    H143607   1.668   2.915   0.608
14556TIP3    H243608   1.649   3.043   0.686
14557TIP3   OH243609   4.981   6.827   6.731
14557TIP3    H143610   5.024   6.899   6.777
14557TIP3    H243611   5.013   6.832   6.641
14558TIP3   OH243612   1.546   3.107   1.084
14558TIP3    H143613   1.553   3.187   1.136
14558TIP3    H243614   1.478   3.056   1.128
14559TIP3   OH243615   1.902   3.405   0.015
14559TIP3    H143616   1.864   3.446   0.093
14559TIP3    H243617   1.842   3.428  -0.056
14560TIP3   OH243618   5.503   6.067   6.793
14560TIP3    H143619   5.427   6.090   6.846
14560TIP3    H243620   5.520   6.145   6.740
14561TIP3   OH243621   1.429   2.793   0.175
14561TIP3    H143622   1.354   2.841   0.140
14561TIP3    H243623   1.394   2.706   0.196
14562TIP3   OH243624   5.330   7.442   6.358
14562TIP3    H143625   5.328   7.533   6.331
14562TIP3    H243626   5.418   7.411   6.336
14563TIP3   OH243627   1.212   3.190   1.062
14563TIP3    H143628   1.131   3.185   1.012
14563TIP3    H243629   1.219   3.106   1.107
14564TIP3   OH243630   1.027   3.374   0.751
14564TIP3    H143631   1.121   3.387   0.758
14564TIP3    H243632   0.990   3.462   0.759
14565TIP3   OH243633   4.640   7.790   6.772
14565TIP3    H143634   4.594   7.758   6.694
14565TIP3    H243635   4.571   7.816   6.833
14566TIP3   OH243636   1.169   3.579   0.200
14566TIP3    H143637   1.220   3.598   0.279
14566TIP3    H243638   1.132   3.492   0.215
14567TIP3   OH243639   4.827   7.657   6.448
14567TIP3    H143640   4.883   7.589   6.411
14567TIP3    H243641   4.858   7.667   6.538
14568TIP3   OH243642   4.887   7.695   6.711
14568TIP3    H143643   4.804   7.722   6.750
14568TIP3    H243644   4.947   7.690   6.785
14569TIP3   OH243645   1.415   3.385   1.121
14569TIP3    H143646   1.444   3.356   1.208
14569TIP3    H243647   1.336   3.334   1.103
14570TIP3   OH243648   1.802   2.171   0.862
14570TIP3    H143649   1.709   2.157   0.844
14570TIP3    H243650   1.806   2.256   0.906
14571TIP3   OH243651   2.382   2.280   1.189
14571TIP3    H143652   2.416   2.301   1.102
14571TIP3    H243653   2.300   2.328   1.194
14572TIP3   OH243654   5.081   6.844   6.482
14572TIP3    H143655   5.040   6.837   6.396
14572TIP3    H243656   5.164   6.890   6.466
14573TIP3   OH243657   4.785   6.247   6.800
14573TIP3    H143658   4.751   6.252   6.889
14573TIP3    H243659   4.749   6.165   6.764
14574TIP3   OH243660   1.742   2.630   0.938
14574TIP3    H143661   1.682   2.631   1.013
14574TIP3    H243662   1.757   2.722   0.919
14575TIP3   OH243663   1.615   2.597   0.419
14575TIP3    H143664   1.526   2.573   0.443
14575TIP3    H243665   1.626   2.561   0.331
14576TIP3   OH243666   2.099   2.673   0.129
14576TIP3    H143667   2.047   2.743   0.087
14576TIP3    H243668   2.165   2.650   0.063
14577TIP3   OH243669   2.200   2.554   0.365
14577TIP3    H143670   2.155   2.622   0.315
14577TIP3    H243671   2.261   2.515   0.302
14578TIP3   OH243672   1.547   2.694   1.116
14578TIP3    H143673   1.588   2.738   1.191
14578TIP3    H243674   1.518   2.610   1.150
14579TIP3   OH243675   4.450   6.229   6.775
14579TIP3    H143676   4.440   6.230   6.870
14579TIP3    H243677   4.373   6.275   6.743
14580TIP3   OH243678   1.144   2.247   0.713
14580TIP3    H143679   1.217   2.284   0.764
14580TIP3    H243680   1.181   2.232   0.626
14581TIP3   OH243681   1.091   2.243   0.213
14581TIP3    H143682   1.136   2.278   0.136
14581TIP3    H243683   1.028   2.311   0.236
14582TIP3   OH243684   2.371   2.889   0.815
14582TIP3    H143685   2.339   2.865   0.728
14582TIP3    H243686   2.321   2.835   0.875
14583TIP3   OH243687   1.960   2.387   0.466
14583TIP3    H143688   1.887   2.399   0.526
14583TIP3    H243689   2.035   2.426   0.511
14584TIP3   OH243690   1.379   2.473   0.486
14584TIP3    H143691   1.291   2.480   0.450
14584TIP3    H243692   1.408   2.385   0.465
14585TIP3   OH243693   1.638   2.476   0.176
14585TIP3    H143694   1.732   2.489   0.164
14585TIP3    H243695   1.599   2.498   0.092
14586TIP3   OH243696   2.412   2.399   0.699
14586TIP3    H143697   2.379   2.442   0.778
14586TIP3    H243698   2.333   2.369   0.653
14587TIP3   OH243699   4.343   6.515   6.877
14587TIP3    H143700   4.279   6.466   6.825
14587TIP3    H243701   4.398   6.560   6.813
14588TIP3   OH243702   1.550   3.251   1.319
14588TIP3    H143703   1.639   3.286   1.319
14588TIP3    H243704   1.551   3.183   1.386
14589TIP3   OH243705   2.013   2.760   0.517
14589TIP3    H143706   2.104   2.780   0.494
14589TIP3    H243707   2.013   2.752   0.612
14590TIP3   OH243708   1.536   2.230   0.465
14590TIP3    H143709   1.503   2.154   0.513
14590TIP3    H243710   1.563   2.195   0.380
14591TIP3   OH243711   1.965   2.693   0.785
14591TIP3    H143712   1.881   2.651   0.797
14591TIP3    H243713   2.027   2.621   0.776
14592TIP3   OH243714   4.568   7.042   6.890
14592TIP3    H143715   4.493   6.985   6.874
14592TIP3    H243716   4.551   7.080   6.976
14593TIP3   OH243717   5.039   6.347   6.789
14593TIP3    H143718   4.944   6.332   6.786
14593TIP3    H243719   5.048   6.441   6.803
14594TIP3   OH243720   5.105   6.610   6.856
14594TIP3    H143721   5.197   6.627   6.873
14594TIP3    H243722   5.074   6.686   6.807
14595TIP3   OH243723   1.370   2.976   0.566
14595TIP3    H143724   1.412   2.977   0.480
14595TIP3    H243725   1.441   2.958   0.627
14596TIP3   OH243726   4.717   7.198   6.724
14596TIP3    H143727   4.677   7.285   6.728
14596TIP3    H243728   4.662   7.144   6.780
14597TIP3   OH243729   1.147   2.998   1.256
14597TIP3    H143730   1.234   2.959   1.270
14597TIP3    H243731   1.104   2.938   1.196
14598TIP3   OH243732   5.510   6.692   6.679
14598TIP3    H143733   5.459   6.638   6.619
14598TIP3    H243734   5.505   6.780   6.643
14599TIP3   OH243735   5.265   7.515   6.621
14599TIP3    H143736   5.225   7.442   6.669
14599TIP3    H243737   5.281   7.480   6.534
14600TIP3   OH243738   2.419   3.185   0.445
14600TIP3    H143739   2.415   3.163   0.538
14600TIP3    H243740   2.489   3.129   0.410
14601TIP3   OH243741   1.516   3.354   0.276
14601TIP3    H143742   1.497   3.426   0.215
14601TIP3    H243743   1.430   3.322   0.303
14602TIP3   OH243744   1.115   2.668  -0.018
14602TIP3    H143745   1.157   2.752   0.001
14602TIP3    H243746   1.035   2.669   0.036
14603TIP3   OH243747   1.664   3.139   0.188
14603TIP3    H143748   1.621   3.221   0.213
14603TIP3    H243749   1.636   3.076   0.254
14604TIP3   OH243750   1.420   3.546   0.105
14604TIP3    H143751   1.326   3.554   0.115
14604TIP3    H243752   1.451   3.636   0.096
14605TIP3   OH243753   2.200   3.386   0.785
14605TIP3    H143754   2.211   3.293   0.807
14605TIP3    H243755   2.233   3.394   0.696
14606TIP3   OH243756   5.002   7.247   6.498
14606TIP3    H143757   5.056   7.238   6.576
14606TIP3    H243758   4.918   7.207   6.521
14607TIP3   OH243759   5.340   7.713   6.313
14607TIP3    H143760   5.374   7.786   6.260
14607TIP3    H243761   5.264   7.750   6.358
14608TIP3   OH243762   1.496   2.458   1.242
14608TIP3    H143763   1.402   2.469   1.258
14608TIP3    H243764   1.522   2.386   1.298
14609TIP3   OH243765   5.179   7.220   6.702
14609TIP3    H143766   5.148   7.150   6.759
14609TIP3    H243767   5.272   7.203   6.691
14610TIP3   OH243768   1.375   3.598   0.894
14610TIP3    H143769   1.345   3.555   0.813
14610TIP3    H243770   1.308   3.576   0.959
14611TIP3   OH243771   4.369   7.215   6.522
14611TIP3    H143772   4.379   7.123   6.498
14611TIP3    H243773   4.348   7.213   6.616
14612TIP3   OH243774   4.308   7.244   6.791
14612TIP3    H143775   4.381   7.225   6.850
14612TIP3    H243776   4.304   7.340   6.788
14613TIP3   OH243777   1.213   2.917   0.059
14613TIP3    H143778   1.146   2.960   0.113
14613TIP3    H243779   1.231   2.979  -0.011
14614TIP3   OH243780   2.388   2.548   0.939
14614TIP3    H143781   2.453   2.617   0.924
14614TIP3    H243782   2.347   2.572   1.022
14615TIP3   OH243783   2.244   2.264   0.112
14615TIP3    H143784   2.221   2.282   0.021
14615TIP3    H243785   2.293   2.341   0.140
14616TIP3   OH243786   4.573   7.443   6.735
14616TIP3    H143787   4.483   7.466   6.757
14616TIP3    H243788   4.599   7.508   6.670
14617TIP3   OH243789   1.915   2.487   0.209
14617TIP3    H143790   1.978   2.554   0.182
14617TIP3    H243791   1.935   2.471   0.301
14618TIP3   OH243792   2.234   2.803   1.031
14618TIP3    H143793   2.146   2.838   1.044
14618TIP3    H243794   2.289   2.853   1.092
14619TIP3   OH243795   2.071   2.183   0.311
14619TIP3    H143796   2.047   2.262   0.359
14619TIP3    H243797   2.137   2.213   0.248
14620TIP3   OH243798   4.314   7.521   6.784
14620TIP3    H143799   4.290   7.607   6.749
14620TIP3    H243800   4.297   7.527   6.878
14621TIP3   OH243801   1.592   2.206   0.115
14621TIP3    H143802   1.583   2.298   0.143
14621TIP3    H243803   1.686   2.189   0.118
14622TIP3   OH243804   2.579   2.991   0.337
14622TIP3    H143805   2.489   2.959   0.345
14622TIP3    H243806   2.630   2.932   0.393
14623TIP3   OH243807   4.060   7.112   6.792
14623TIP3    H143808   4.127   7.179   6.802
14623TIP3    H243809   4.097   7.051   6.729
14624TIP3   OH243810   3.982   6.399   6.930
14624TIP3    H143811   3.992   6.494   6.935
14624TIP3    H243812   3.917   6.385   6.861
14625TIP3   OH243813   1.531   2.107   0.852
14625TIP3    H143814   1.504   2.077   0.766
14625TIP3    H243815   1.519   2.031   0.909
14626TIP3   OH243816   1.050   3.328   0.254
14626TIP3    H143817   1.018   3.376   0.330
14626TIP3    H243818   1.003   3.367   0.180
14627TIP3   OH243819   4.526   7.412   6.414
14627TIP3    H143820   4.478   7.343   6.458
14627TIP3    H243821   4.604   7.368   6.378
14628TIP3   OH243822   4.970   7.460   6.331
14628TIP3    H143823   4.999   7.391   6.391
14628TIP3    H243824   5.029   7.453   6.256
14629TIP3   OH243825   4.193   6.922   6.649
14629TIP3    H143826   4.245   6.897   6.726
14629TIP3    H243827   4.258   6.931   6.579
14630TIP3   OH243828   4.730   7.136   6.460
14630TIP3    H143829   4.712   7.152   6.553
14630TIP3    H243830   4.723   7.041   6.450
14631TIP3   OH243831   1.587   3.052   1.497
14631TIP3    H143832   1.612   2.967   1.460
14631TIP3    H243833   1.520   3.031   1.562
14632TIP3   OH243834   4.369   6.854   6.858
14632TIP3    H143835   4.345   6.821   6.944
14632TIP3    H243836   4.413   6.780   6.815
14633TIP3   OH243837   1.776   3.001   1.179
14633TIP3    H143838   1.697   3.033   1.136
14633TIP3    H243839   1.847   3.022   1.118
14634TIP3   OH243840   4.495   6.661   6.703
14634TIP3    H143841   4.467   6.665   6.612
14634TIP3    H243842   4.591   6.661   6.698
14635TIP3   OH243843   5.307   6.964   6.373
14635TIP3    H143844   5.290   6.920   6.291
14635TIP3    H243845   5.280   7.055   6.358
14636TIP3   OH243846   1.927   2.709   1.280
14636TIP3    H143847   1.890   2.620   1.277
14636TIP3    H243848   1.941   2.732   1.189
14637TIP3   OH243849   1.902   2.383   1.027
14637TIP3    H143850   1.947   2.466   1.009
14637TIP3    H243851   1.809   2.404   1.019
14638TIP3   OH243852   1.962   3.084   0.999
14638TIP3    H143853   1.980   3.068   0.907
14638TIP3    H243854   1.912   3.166   1.001
14639TIP3   OH243855   1.850   2.828   1.503
14639TIP3    H143856   1.851   2.759   1.569
14639TIP3    H243857   1.888   2.787   1.425
14640TIP3   OH243858   2.055   2.173   1.089
14640TIP3    H143859   2.003   2.246   1.058
14640TIP3    H243860   1.994   2.099   1.092
14641TIP3   OH243861   2.200   2.820   1.398
14641TIP3    H143862   2.220   2.852   1.486
14641TIP3    H243863   2.148   2.741   1.412
14642TIP3   OH243864   1.720   2.559   1.566
14642TIP3    H143865   1.678   2.472   1.565
14642TIP3    H243866   1.723   2.583   1.659
14643TIP3   OH243867   2.227   2.238   1.461
14643TIP3    H143868   2.164   2.173   1.429
14643TIP3    H243869   2.232   2.303   1.391
14644TIP3   OH243870   3.787   7.089   6.816
14644TIP3    H143871   3.881   7.108   6.811
14644TIP3    H243872   3.777   7.003   6.777
14645TIP3   OH243873   0.860   3.682   0.326
14645TIP3    H143874   0.798   3.629   0.276
14645TIP3    H243875   0.909   3.619   0.378
14646TIP3   OH243876   1.005   3.496   0.475
14646TIP3    H143877   0.947   3.450   0.536
14646TIP3    H243878   1.072   3.536   0.531
14647TIP3   OH243879   5.444   7.157   6.699
14647TIP3    H143880   5.506   7.220   6.664
14647TIP3    H243881   5.467   7.149   6.791
14648TIP3   OH243882   5.596   7.042   6.926
14648TIP3    H143883   5.511   7.056   6.968
14648TIP3    H243884   5.631   7.130   6.912
14649TIP3   OH243885   5.506   6.934   6.556
14649TIP3    H143886   5.438   6.936   6.489
14649TIP3    H243887   5.486   7.009   6.612
14650TIP3   OH243888   5.363   6.582   6.480
14650TIP3    H143889   5.316   6.616   6.404
14650TIP3    H243890   5.356   6.487   6.472
14651TIP3   OH243891   2.435   2.836   0.032
14651TIP3    H143892   2.521   2.795   0.035
14651TIP3    H243893   2.431   2.890   0.111
14652TIP3   OH243894   1.182   2.942   0.861
14652TIP3    H143895   1.168   2.907   0.773
14652TIP3    H243896   1.276   2.935   0.875
14653TIP3   OH243897   5.330   6.309   6.460
14653TIP3    H143898   5.392   6.290   6.530
14653TIP3    H243899   5.247   6.273   6.490
14654TIP3   OH243900   5.395   6.573   6.908
14654TIP3    H143901   5.448   6.495   6.923
14654TIP3    H243902   5.439   6.619   6.837
14655TIP3   OH243903   2.689   2.782   0.469
14655TIP3    H143904   2.776   2.815   0.447
14655TIP3    H243905   2.659   2.837   0.542
14656TIP3   OH243906   1.432   2.602   1.516
14656TIP3    H143907   1.524   2.629   1.524
14656TIP3    H243908   1.430   2.513   1.550
14657TIP3   OH243909   2.690   2.330   0.056
14657TIP3    H143910   2.734   2.295   0.134
14657TIP3    H243911   2.616   2.271   0.042
14658TIP3   OH243912   1.352   2.317   0.886
14658TIP3    H143913   1.412   2.242   0.885
14658TIP3    H243914   1.404   2.390   0.853
14659TIP3   OH243915   1.161   2.586   0.949
14659TIP3    H143916   1.210   2.589   0.867
14659TIP3    H243917   1.150   2.678   0.973
14660TIP3   OH243918   5.557   6.276   6.623
14660TIP3    H143919   5.600   6.214   6.564
14660TIP3    H243920   5.617   6.351   6.626
14661TIP3   OH243921   1.148   2.110   0.445
14661TIP3    H143922   1.059   2.096   0.479
14661TIP3    H243923   1.135   2.163   0.366
14662TIP3   OH243924   5.114   7.795   6.853
14662TIP3    H143925   5.179   7.793   6.783
14662TIP3    H243926   5.065   7.876   6.839
14663TIP3   OH243927   1.374   2.189   1.258
14663TIP3    H143928   1.321   2.173   1.336
14663TIP3    H243929   1.312   2.223   1.194
14664TIP3   OH243930   1.642   3.604   1.014
14664TIP3    H143931   1.557   3.625   0.976
14664TIP3    H243932   1.705   3.652   0.962
14665TIP3   OH243933   3.124   2.423   0.993
14665TIP3    H143934   3.067   2.433   0.918
14665TIP3    H243935   3.154   2.332   0.989
14666TIP3   OH243936   1.518   3.981   0.791
14666TIP3    H143937   1.433   3.986   0.833
14666TIP3    H243938   1.511   4.039   0.715
14667TIP3   OH243939   1.158   3.638   0.674
14667TIP3    H143940   1.150   3.679   0.760
14667TIP3    H243941   1.231   3.684   0.632
14668TIP3   OH243942   1.421   3.508   0.616
14668TIP3    H143943   1.430   3.412   0.611
14668TIP3    H243944   1.503   3.542   0.580
14669TIP3   OH243945   1.631   3.607   0.468
14669TIP3    H143946   1.684   3.574   0.395
14669TIP3    H243947   1.672   3.690   0.491
14670TIP3   OH243948   2.193   2.269   0.608
14670TIP3    H143949   2.136   2.196   0.633
14670TIP3    H243950   2.243   2.235   0.534
14671TIP3   OH243951   2.661   2.143   0.449
14671TIP3    H143952   2.721   2.192   0.393
14671TIP3    H243953   2.594   2.206   0.474
14672TIP3   OH243954   2.845   2.253   0.289
14672TIP3    H143955   2.895   2.188   0.239
14672TIP3    H243956   2.886   2.337   0.268
14673TIP3   OH243957   1.449   2.008   0.609
14673TIP3    H143958   1.359   1.977   0.614
14673TIP3    H243959   1.502   1.928   0.602
14674TIP3   OH243960   1.268   1.911   0.269
14674TIP3    H143961   1.294   1.960   0.191
14674TIP3    H243962   1.233   1.977   0.328
14675TIP3   OH243963   1.910   2.049   0.496
14675TIP3    H143964   1.961   2.090   0.426
14675TIP3    H243965   1.916   2.110   0.569
14676TIP3   OH243966   2.378   2.170   0.440
14676TIP3    H143967   2.409   2.135   0.357
14676TIP3    H243968   2.394   2.099   0.503
14677TIP3   OH243969   2.484   2.139   0.045
14677TIP3    H143970   2.400   2.182   0.059
14677TIP3    H243971   2.470   2.049   0.074
14678TIP3   OH243972   0.955   3.449   0.031
14678TIP3    H143973   0.864   3.439   0.002
14678TIP3    H243974   0.974   3.542   0.021
14679TIP3   OH243975   1.377   2.044   0.030
14679TIP3    H143976   1.421   1.983  -0.029
14679TIP3    H243977   1.447   2.099   0.064
14680TIP3   OH243978   1.866   2.233   0.123
14680TIP3    H143979   1.926   2.183   0.178
14680TIP3    H243980   1.881   2.324   0.149
14681TIP3   OH243981   4.569   7.651   6.541
14681TIP3    H143982   4.656   7.668   6.503
14681TIP3    H243983   4.535   7.577   6.491
14682TIP3   OH243984   5.299   7.791   6.653
14682TIP3    H143985   5.301   7.695   6.646
14682TIP3    H243986   5.263   7.821   6.569
14683TIP3   OH243987   1.590   2.315   1.600
14683TIP3    H143988   1.533   2.238   1.596
14683TIP3    H243989   1.662   2.287   1.657
14684TIP3   OH243990   1.985   2.340   1.549
14684TIP3    H143991   2.064   2.322   1.497
14684TIP3    H243992   2.008   2.415   1.603
14685TIP3   OH243993   3.879   7.495   6.618
14685TIP3    H143994   3.875   7.511   6.712
14685TIP3    H243995   3.963   7.451   6.605
14686TIP3   OH243996   5.721   6.843   6.784
14686TIP3    H143997   5.681   6.918   6.829
14686TIP3    H243998   5.646   6.796   6.746
14687TIP3   OH243999   3.025   3.124   0.133
14687TIP3    H144000   3.108   3.088   0.165
14687TIP3    H244001   3.034   3.124   0.038
14688TIP3   OH244002   3.545   2.663   0.093
14688TIP3    H144003   3.484   2.709   0.036
14688TIP3    H244004   3.564   2.581   0.048
14689TIP3   OH244005   3.204   2.906   0.136
14689TIP3    H144006   3.257   2.832   0.105
14689TIP3    H244007   3.115   2.886   0.108
14690TIP3   OH244008   5.627   7.323   6.577
14690TIP3    H144009   5.596   7.315   6.487
14690TIP3    H244010   5.639   7.417   6.591
14691TIP3   OH244011   6.579   6.939   6.145
14691TIP3    H144012   6.634   6.996   6.198
14691TIP3    H244013   6.640   6.879   6.102
14692TIP3   OH244014   7.320   6.321   6.270
14692TIP3    H144015   7.239   6.343   6.316
14692TIP3    H244016   7.329   6.390   6.204
14693TIP3   OH244017   6.068   7.017   6.557
14693TIP3    H144018   5.989   7.070   6.555
14693TIP3    H244019   6.046   6.942   6.613
14694TIP3   OH244020   6.832   7.109   5.954
14694TIP3    H144021   6.824   7.081   5.863
14694TIP3    H244022   6.926   7.122   5.967
14695TIP3   OH244023   6.578   6.502   6.284
14695TIP3    H144024   6.549   6.503   6.375
14695TIP3    H244025   6.541   6.422   6.248
14696TIP3   OH244026   6.250   6.831   6.844
14696TIP3    H144027   6.155   6.844   6.838
14696TIP3    H244028   6.274   6.794   6.759
14697TIP3   OH244029   6.234   6.484   6.260
14697TIP3    H144030   6.230   6.482   6.355
14697TIP3    H244031   6.161   6.539   6.233
14698TIP3   OH244032   3.011   2.433   0.183
14698TIP3    H144033   3.017   2.518   0.228
14698TIP3    H244034   2.998   2.456   0.091
14699TIP3   OH244035   5.719   6.506   6.632
14699TIP3    H144036   5.764   6.542   6.556
14699TIP3    H244037   5.659   6.575   6.660
14700TIP3   OH244038   5.987   6.817   6.765
14700TIP3    H144039   5.892   6.818   6.759
14700TIP3    H244040   6.009   6.725   6.778
14701TIP3   OH244041   6.260   6.732   6.586
14701TIP3    H144042   6.349   6.759   6.566
14701TIP3    H244043   6.209   6.758   6.510
14702TIP3   OH244044   6.132   6.764   6.348
14702TIP3    H144045   6.064   6.727   6.292
14702TIP3    H244046   6.188   6.813   6.289
14703TIP3   OH244047   6.192   6.483   6.830
14703TIP3    H144048   6.153   6.402   6.862
14703TIP3    H244049   6.209   6.467   6.737
14704TIP3   OH244050   6.329   7.332   6.435
14704TIP3    H144051   6.288   7.252   6.405
14704TIP3    H244052   6.277   7.359   6.511
14705TIP3   OH244053   6.807   6.648   6.275
14705TIP3    H144054   6.723   6.604   6.271
14705TIP3    H244055   6.807   6.707   6.200
14706TIP3   OH244056   5.736   6.929   6.403
14706TIP3    H144057   5.786   7.008   6.424
14706TIP3    H244058   5.661   6.932   6.462
14707TIP3   OH244059   6.165   7.469   5.989
14707TIP3    H144060   6.175   7.377   5.967
14707TIP3    H244061   6.158   7.470   6.085
14708TIP3   OH244062   6.168   7.484   6.262
14708TIP3    H144063   6.229   7.428   6.311
14708TIP3    H244064   6.179   7.571   6.301
14709TIP3   OH244065   5.844   7.174   6.480
14709TIP3    H144066   5.782   7.214   6.541
14709TIP3    H244067   5.861   7.241   6.414
14710TIP3   OH244068   6.897   6.559   6.520
14710TIP3    H144069   6.866   6.586   6.433
14710TIP3    H244070   6.951   6.632   6.550
14711TIP3   OH244071   6.532   6.768   6.615
14711TIP3    H144072   6.627   6.773   6.601
14711TIP3    H244073   6.520   6.796   6.706
14712TIP3   OH244074   6.742   6.459   6.727
14712TIP3    H144075   6.801   6.466   6.802
14712TIP3    H244076   6.790   6.498   6.654
14713TIP3   OH244077   6.230   6.463   6.543
14713TIP3    H144078   6.223   6.557   6.561
14713TIP3    H244079   6.324   6.445   6.545
14714TIP3   OH244080   5.852   7.378   6.279
14714TIP3    H144081   5.899   7.461   6.279
14714TIP3    H244082   5.905   7.321   6.223
14715TIP3   OH244083   5.775   6.653   6.407
14715TIP3    H144084   5.780   6.749   6.411
14715TIP3    H244085   5.697   6.636   6.355
14716TIP3   OH244086   3.421   2.417   0.393
14716TIP3    H144087   3.414   2.385   0.303
14716TIP3    H244088   3.395   2.343   0.447
14717TIP3   OH244089   5.652   7.587   6.610
14717TIP3    H144090   5.596   7.618   6.681
14717TIP3    H244091   5.639   7.650   6.539
14718TIP3   OH244092   6.329   7.672   5.903
14718TIP3    H144093   6.277   7.601   5.939
14718TIP3    H244094   6.407   7.630   5.866
14719TIP3   OH244095   6.009   7.197   6.148
14719TIP3    H144096   6.065   7.170   6.221
14719TIP3    H244097   6.067   7.200   6.073
14720TIP3   OH244098   6.489   7.381   5.957
14720TIP3    H144099   6.461   7.390   6.048
14720TIP3    H244100   6.500   7.287   5.945
14721TIP3   OH244101   6.192   7.113   6.338
14721TIP3    H144102   6.152   7.074   6.416
14721TIP3    H244103   6.234   7.040   6.293
14722TIP3   OH244104   6.303   6.910   6.185
14722TIP3    H144105   6.277   6.922   6.094
14722TIP3    H244106   6.398   6.909   6.184
14723TIP3   OH244107   5.581   7.334   6.303
14723TIP3    H144108   5.674   7.356   6.295
14723TIP3    H244109   5.573   7.251   6.256
14724TIP3   OH244110   7.072   6.867   6.010
14724TIP3    H144111   7.117   6.892   5.930
14724TIP3    H244112   7.094   6.774   6.022
14725TIP3   OH244113   7.126   6.600   6.001
14725TIP3    H144114   7.208   6.550   6.008
14725TIP3    H244115   7.057   6.533   6.001
14726TIP3   OH244116   3.149   2.445   0.503
14726TIP3    H144117   3.186   2.425   0.418
14726TIP3    H244118   3.214   2.503   0.544
14727TIP3   OH244119   2.894   2.945   0.423
14727TIP3    H144120   2.984   2.924   0.400
14727TIP3    H244121   2.889   3.040   0.416
14728TIP3   OH244122   7.378   6.494   6.061
14728TIP3    H144123   7.440   6.441   6.010
14728TIP3    H244124   7.420   6.579   6.069
14729TIP3   OH244125   5.774   6.332   6.841
14729TIP3    H144126   5.690   6.329   6.887
14729TIP3    H244127   5.770   6.413   6.789
14730TIP3   OH244128   6.052   6.260   6.904
14730TIP3    H144129   5.957   6.265   6.908
14730TIP3    H244130   6.072   6.167   6.905
14731TIP3   OH244131   5.886   6.151   6.666
14731TIP3    H144132   5.922   6.205   6.595
14731TIP3    H244133   5.845   6.214   6.725
14732TIP3   OH244134   6.516   6.464   6.904
14732TIP3    H144135   6.584   6.476   6.838
14732TIP3    H244136   6.556   6.408   6.970
14733TIP3   OH244137   7.095   6.375   6.424
14733TIP3    H144138   7.025   6.432   6.456
14733TIP3    H244139   7.091   6.299   6.481
14734TIP3   OH244140   5.602   7.741   6.390
14734TIP3    H144141   5.514   7.705   6.379
14734TIP3    H244142   5.591   7.835   6.379
14735TIP3   OH244143   6.011   6.303   6.456
14735TIP3    H144144   6.057   6.246   6.396
14735TIP3    H244145   6.079   6.358   6.495
14736TIP3   OH244146   6.507   6.500   6.554
14736TIP3    H144147   6.575   6.464   6.611
14736TIP3    H244148   6.507   6.593   6.573
14737TIP3   OH244149   5.670   7.722   6.113
14737TIP3    H144150   5.664   7.728   6.208
14737TIP3    H244151   5.758   7.688   6.096
14738TIP3   OH244152   5.470   0.248   6.769
14738TIP3    H144153   5.509   0.274   6.852
14738TIP3    H244154   5.529   0.180   6.735
14739TIP3   OH244155   0.517   3.614  -0.004
14739TIP3    H144156   0.447   3.632   0.059
14739TIP3    H244157   0.530   3.697  -0.049
14740TIP3   OH244158   5.761   0.343   6.652
14740TIP3    H144159   5.720   0.331   6.566
14740TIP3    H244160   5.769   0.438   6.661
14741TIP3   OH244161   8.293   3.804   0.008
14741TIP3    H144162   8.256   3.815   0.096
14741TIP3    H244163   8.253   3.723  -0.024
14742TIP3   OH244164   2.291   7.800   6.918
14742TIP3    H144165   2.263   7.803   7.009
14742TIP3    H244166   2.217   7.836   6.869
14743TIP3   OH244167   2.882   7.904   6.917
14743TIP3    H144168   2.787   7.894   6.923
14743TIP3    H244169   2.895   7.998   6.907
14744TIP3   OH244170   5.803   0.150   6.888
14744TIP3    H144171   5.885   0.138   6.936
14744TIP3    H244172   5.819   0.225   6.831
14745TIP3   OH244173   6.207   0.245   6.821
14745TIP3    H144174   6.150   0.202   6.758
14745TIP3    H244175   6.207   0.337   6.794
14746TIP3   OH244176   0.130   3.844   0.235
14746TIP3    H144177   0.103   3.857   0.144
14746TIP3    H244178   0.152   3.932   0.265
14747TIP3   OH244179   6.035   0.521   6.516
14747TIP3    H144180   5.990   0.458   6.459
14747TIP3    H244181   6.105   0.557   6.461
14748TIP3   OH244182   6.202   0.507   6.730
14748TIP3    H144183   6.132   0.509   6.665
14748TIP3    H244184   6.203   0.595   6.767
14749TIP3   OH244185   6.052   0.134   6.626
14749TIP3    H144186   5.986   0.164   6.563
14749TIP3    H244187   6.043   0.039   6.626
14750TIP3   OH244188   3.174   7.873   6.615
14750TIP3    H144189   3.238   7.853   6.683
14750TIP3    H244190   3.093   7.831   6.645
14751TIP3   OH244191   0.381   4.113   0.077
14751TIP3    H144192   0.428   4.042   0.121
14751TIP3    H244193   0.449   4.160   0.028
14752TIP3   OH244194   0.524   3.892   0.187
14752TIP3    H144195   0.564   3.890   0.274
14752TIP3    H244196   0.464   3.817   0.188
14753TIP3   OH244197   3.401   7.836   6.769
14753TIP3    H144198   3.444   7.769   6.716
14753TIP3    H244199   3.464   7.907   6.775
14754TIP3   OH244200   0.567   3.869   0.699
14754TIP3    H144201   0.606   3.859   0.612
14754TIP3    H244202   0.483   3.823   0.692
14755TIP3   OH244203   0.667   3.854   0.432
14755TIP3    H144204   0.727   3.784   0.409
14755TIP3    H244205   0.708   3.934   0.398
14756TIP3   OH244206   0.318   3.735   0.642
14756TIP3    H144207   0.336   3.702   0.554
14756TIP3    H244208   0.286   3.659   0.691
14757TIP3   OH244209   0.343   3.679   0.196
14757TIP3    H144210   0.264   3.729   0.213
14757TIP3    H244211   0.333   3.599   0.248
14758TIP3   OH244212   7.737   3.615   0.122
14758TIP3    H144213   7.777   3.544   0.073
14758TIP3    H244214   7.752   3.592   0.214
14759TIP3   OH244215   0.734   4.330   0.063
14759TIP3    H144216   0.701   4.393   0.127
14759TIP3    H244217   0.657   4.302   0.014
14760TIP3   OH244218   1.394   4.206   0.227
14760TIP3    H144219   1.315   4.259   0.241
14760TIP3    H244220   1.366   4.116   0.247
14761TIP3   OH244221   7.702   0.306   6.751
14761TIP3    H144222   7.787   0.349   6.750
14761TIP3    H244223   7.639   0.378   6.748
14762TIP3   OH244224   1.406   4.646   0.068
14762TIP3    H144225   1.461   4.571   0.047
14762TIP3    H244226   1.325   4.608   0.103
14763TIP3   OH244227   1.313   4.412   0.427
14763TIP3    H144228   1.231   4.460   0.432
14763TIP3    H244229   1.290   4.323   0.451
14764TIP3   OH244230   1.688   3.981   0.326
14764TIP3    H144231   1.749   3.911   0.350
14764TIP3    H244232   1.625   3.983   0.399
14765TIP3   OH244233   7.314   0.714   6.626
14765TIP3    H144234   7.226   0.752   6.622
14765TIP3    H244235   7.350   0.728   6.538
14766TIP3   OH244236   7.243   0.464   6.283
14766TIP3    H144237   7.289   0.497   6.360
14766TIP3    H244238   7.307   0.409   6.238
14767TIP3   OH244239   6.922   0.812   6.852
14767TIP3    H144240   6.853   0.747   6.839
14767TIP3    H244241   6.980   0.773   6.918
14768TIP3   OH244242   7.488   0.665   6.397
14768TIP3    H144243   7.506   0.759   6.394
14768TIP3    H244244   7.492   0.636   6.306
14769TIP3   OH244245   5.156   7.876   6.430
14769TIP3    H144246   5.077   7.890   6.482
14769TIP3    H244247   5.161   7.953   6.373
14770TIP3   OH244248   6.750   0.583   6.770
14770TIP3    H144249   6.663   0.620   6.751
14770TIP3    H244250   6.732   0.501   6.816
14771TIP3   OH244251   1.496   4.032   0.513
14771TIP3    H144252   1.428   4.015   0.447
14771TIP3    H244253   1.513   4.126   0.506
14772TIP3   OH244254   7.521   0.616   6.134
14772TIP3    H144255   7.497   0.574   6.051
14772TIP3    H244256   7.545   0.705   6.109
14773TIP3   OH244257   7.247   0.063   6.412
14773TIP3    H144258   7.235   0.056   6.506
14773TIP3    H244259   7.249  -0.027   6.381
14774TIP3   OH244260   1.224   4.424   0.054
14774TIP3    H144261   1.140   4.379   0.046
14774TIP3    H244262   1.276   4.391  -0.018
14775TIP3   OH244263   7.360   0.446   6.622
14775TIP3    H144264   7.346   0.540   6.623
14775TIP3    H244265   7.444   0.434   6.579
14776TIP3   OH244266   6.889   0.062   6.397
14776TIP3    H144267   6.901   0.042   6.490
14776TIP3    H244268   6.808   0.114   6.395
14777TIP3   OH244269   0.780   4.057   0.295
14777TIP3    H144270   0.793   4.149   0.320
14777TIP3    H244271   0.829   4.048   0.213
14778TIP3   OH244272   6.404   0.047   6.786
14778TIP3    H144273   6.451   0.078   6.709
14778TIP3    H244274   6.344   0.118   6.808
14779TIP3   OH244275   1.575   4.112   0.035
14779TIP3    H144276   1.484   4.089   0.054
14779TIP3    H244277   1.604   4.161   0.112
14780TIP3   OH244278   0.995   4.296   0.010
14780TIP3    H144279   0.901   4.303   0.025
14780TIP3    H244280   1.007   4.207  -0.023
14781TIP3   OH244281   6.918   0.268   6.754
14781TIP3    H144282   7.012   0.276   6.737
14781TIP3    H244283   6.876   0.296   6.672
14782TIP3   OH244284   6.791   0.324   6.515
14782TIP3    H144285   6.718   0.289   6.464
14782TIP3    H244286   6.856   0.349   6.449
14783TIP3   OH244287   1.175   4.028   0.061
14783TIP3    H144288   1.131   3.960   0.112
14783TIP3    H244289   1.243   3.981   0.013
14784TIP3   OH244290   7.050   0.801   6.607
14784TIP3    H144291   6.987   0.736   6.577
14784TIP3    H244292   7.024   0.820   6.697
14785TIP3   OH244293   7.498   0.167   6.384
14785TIP3    H144294   7.405   0.151   6.400
14785TIP3    H244295   7.513   0.256   6.418
14786TIP3   OH244296   7.590   0.417   6.476
14786TIP3    H144297   7.684   0.415   6.492
14786TIP3    H244298   7.572   0.505   6.445
14787TIP3   OH244299   7.090   0.980   6.403
14787TIP3    H144300   7.139   1.056   6.432
14787TIP3    H244301   7.087   0.922   6.480
14788TIP3   OH244302   8.017   0.456   6.305
14788TIP3    H144303   7.943   0.429   6.251
14788TIP3    H244304   8.038   0.544   6.275
14789TIP3   OH244305   6.427   0.464   6.571
14789TIP3    H144306   6.479   0.541   6.594
14789TIP3    H244307   6.349   0.471   6.626
14790TIP3   OH244308   7.464   0.927   6.260
14790TIP3    H144309   7.514   0.918   6.179
14790TIP3    H244310   7.375   0.901   6.237
14791TIP3   OH244311   6.836   0.920   6.342
14791TIP3    H144312   6.829   0.932   6.248
14791TIP3    H244313   6.923   0.954   6.365
14792TIP3   OH244314   6.520   0.706   6.675
14792TIP3    H144315   6.495   0.761   6.749
14792TIP3    H244316   6.514   0.763   6.599
14793TIP3   OH244317   7.575   0.087   6.644
14793TIP3    H144318   7.544   0.109   6.556
14793TIP3    H244319   7.618   0.168   6.674
14794TIP3   OH244320   7.187   0.285   6.752
14794TIP3    H144321   7.251   0.340   6.707
14794TIP3    H244322   7.214   0.285   6.843
14795TIP3   OH244323   7.492   0.046   6.903
14795TIP3    H144324   7.397   0.048   6.916
14795TIP3    H244325   7.503   0.042   6.808
14796TIP3   OH244326   6.887   0.005   6.666
14796TIP3    H144327   6.890   0.087   6.714
14796TIP3    H244328   6.938  -0.056   6.719
14797TIP3   OH244329   6.499   0.871   6.450
14797TIP3    H144330   6.536   0.955   6.423
14797TIP3    H244331   6.546   0.806   6.399
14798TIP3   OH244332   6.458   0.189   6.558
14798TIP3    H144333   6.471   0.282   6.574
14798TIP3    H244334   6.372   0.183   6.516
14799TIP3   OH244335   1.066   3.922   0.508
14799TIP3    H144336   1.054   3.886   0.420
14799TIP3    H244337   1.139   3.872   0.544
14800TIP3   OH244338   6.655   0.675   6.338
14800TIP3    H144339   6.706   0.664   6.418
14800TIP3    H244340   6.719   0.669   6.267
14801TIP3   OH244341   7.210   0.881   6.170
14801TIP3    H144342   7.167   0.942   6.229
14801TIP3    H244343   7.168   0.797   6.188
14802TIP3   OH244344   6.856   0.628   6.523
14802TIP3    H144345   6.822   0.601   6.609
14802TIP3    H244346   6.888   0.547   6.484
14803TIP3   OH244347   6.970   0.421   6.337
14803TIP3    H144348   6.950   0.415   6.243
14803TIP3    H244349   7.062   0.445   6.340
14804TIP3   OH244350   7.836   0.761   6.010
14804TIP3    H144351   7.796   0.698   5.950
14804TIP3    H244352   7.907   0.801   5.961
14805TIP3   OH244353   6.215   0.834   6.452
14805TIP3    H144354   6.297   0.877   6.475
14805TIP3    H244355   6.240   0.744   6.430
14806TIP3   OH244356   8.053   0.685   6.163
14806TIP3    H144357   7.967   0.699   6.123
14806TIP3    H244358   8.098   0.769   6.154
14807TIP3   OH244359   7.822   0.395   6.124
14807TIP3    H144360   7.769   0.426   6.051
14807TIP3    H244361   7.819   0.299   6.117
14808TIP3   OH244362   7.800   0.124   6.089
14808TIP3    H144363   7.864   0.095   6.154
14808TIP3    H244364   7.718   0.081   6.113
14809TIP3   OH244365   7.868   0.422   6.539
14809TIP3    H144366   7.888   0.331   6.562
14809TIP3    H244367   7.927   0.442   6.466
14810TIP3   OH244368   7.949   0.160   6.611
14810TIP3    H144369   7.982   0.171   6.700
14810TIP3    H244370   7.896   0.081   6.615
14811TIP3   OH244371   0.970   4.157   0.607
14811TIP3    H144372   0.988   4.068   0.577
14811TIP3    H244373   1.042   4.209   0.572
14812TIP3   OH244374   8.018   0.062   6.244
14812TIP3    H144375   8.057  -0.006   6.190
14812TIP3    H244376   8.085   0.131   6.247
14813TIP3   OH244377   0.788   3.885   0.054
14813TIP3    H144378   0.707   3.885   0.104
14813TIP3    H244379   0.774   3.952  -0.014
14814TIP3   OH244380   1.787   4.194   0.205
14814TIP3    H144381   1.741   4.128   0.258
14814TIP3    H244382   1.818   4.146   0.128
14815TIP3   OH244383   1.077   3.834   0.233
14815TIP3    H144384   0.984   3.816   0.244
14815TIP3    H244385   1.114   3.751   0.204
14816TIP3   OH244386   3.716   7.699   6.816
14816TIP3    H144387   3.754   7.756   6.749
14816TIP3    H244388   3.689   7.759   6.886
14817TIP3   OH244389   7.771  -0.011   6.889
14817TIP3    H144390   7.780   0.070   6.939
14817TIP3    H244391   7.677  -0.022   6.877
14818TIP3   OH244392   4.951   7.936   6.594
14818TIP3    H144393   4.873   7.988   6.612
14818TIP3    H244394   4.932   7.850   6.632
14819TIP3   OH244395   3.837   7.859   6.601
14819TIP3    H144396   3.887   7.797   6.549
14819TIP3    H244397   3.902   7.919   6.638
14820TIP3   OH244398   7.220   0.016   6.677
14820TIP3    H144399   7.178  -0.047   6.735
14820TIP3    H244400   7.209   0.101   6.721
14821TIP3   OH244401   0.213   0.309   5.873
14821TIP3    H144402   0.203   0.304   5.968
14821TIP3    H244403   0.133   0.351   5.843
14822TIP3   OH244404   8.208   0.262   6.259
14822TIP3    H144405   8.255   0.287   6.179
14822TIP3    H244406   8.152   0.337   6.278
14823TIP3   OH244407   8.199   0.453   6.040
14823TIP3    H144408   8.246   0.528   6.077
14823TIP3    H244409   8.108   0.466   6.067
14824TIP3   OH244410   8.211   0.132   6.499
14824TIP3    H144411   8.123   0.130   6.537
14824TIP3    H244412   8.202   0.186   6.421
14825TIP3   OH244413   8.325  -0.038   6.305
14825TIP3    H144414   8.346   0.025   6.236
14825TIP3    H244415   8.291   0.015   6.376
14826TIP3   OH244416   8.457   0.114   6.090
14826TIP3    H144417   8.491   0.046   6.033
14826TIP3    H244418   8.530   0.136   6.148
   8.50000   8.01388   6.94022   0.00000   0.00000  -2.83333   0.00000  -2.83333  -4.00694
