Title
19942
    1ASP      N    1   4.438   2.490   2.564 -0.2713 -0.7998  0.5886
    1ASP    HT1    2   4.412   2.408   2.505  0.5237  0.4320 -1.6053
    1ASP    HT2    3   4.417   2.474   2.664 -2.3025 -1.2867  0.1420
    1ASP    HT3    4   4.541   2.495   2.562 -0.3174  1.9628  0.0671
    1ASP     CA    5   4.378   2.624   2.523  0.0202 -0.1919  0.8948
    1ASP     HA    6   4.421   2.693   2.594  0.5307  0.9293 -0.4718
    1ASP     CB    7   4.435   2.648   2.381 -0.0979 -0.8589 -0.0219
    1ASP    HB1    8   4.378   2.588   2.306 -1.8290  0.4918  0.1345
    1ASP    HB2    9   4.542   2.619   2.380 -0.1745 -1.1558  0.1953
    1ASP     CG   10   4.422   2.792   2.341 -0.4508 -0.3926  0.1167
    1ASP    OD1   11   4.472   2.822   2.230 -0.3393 -0.3016 -0.5492
    1ASP    OD2   12   4.378   2.882   2.415  0.1902  0.0967  0.1256
    1ASP      C   13   4.228   2.609   2.534 -0.1126 -0.2106  1.0334
    1ASP      O   14   4.179   2.495   2.542 -0.2138 -0.8002  0.3329
    2ALA      N   15   4.154   2.720   2.540 -0.2268 -0.3886  0.1602
    2ALA     HN   16   4.189   2.813   2.535 -1.0763 -0.1067 -1.0214
    2ALA     CA   17   4.008   2.731   2.563 -0.0795 -0.3581  0.5543
    2ALA     HA   18   3.965   2.648   2.508  1.0776 -0.2234 -0.5759
    2ALA     CB   19   3.966   2.710   2.711  0.1004 -0.5796  0.0628
    2ALA    HB1   20   3.999   2.608   2.740 -2.6052 -1.1089  1.6225
    2ALA    HB2   21   3.858   2.733   2.721  0.3618  0.1236  1.5701
    2ALA    HB3   22   4.009   2.788   2.778  1.8034 -0.4778 -1.0730
    2ALA      C   23   3.961   2.862   2.516  0.3331 -0.7614  0.5734
    2ALA      O   24   4.040   2.957   2.505 -0.2090 -0.3970 -0.0273
    3ASP      N   25   3.827   2.879   2.501 -0.0325 -0.0770 -0.1701
    3ASP     HN   26   3.759   2.816   2.537 -1.2621  2.1253  1.7227
    3ASP     CA   27   3.763   3.007   2.472  0.2951 -0.3115  0.3428
    3ASP     HA   28   3.825   3.039   2.389  0.7734  0.1308  0.8649
    3ASP     CB   29   3.611   2.989   2.424  0.0299 -0.0918  0.1140
    3ASP    HB1   30   3.542   2.958   2.505 -0.9187  0.7493 -0.3309
    3ASP    HB2   31   3.603   2.919   2.339 -0.6563  2.2904 -1.9308
    3ASP     CG   32   3.546   3.120   2.393  0.3478 -1.0449  0.3348
    3ASP    OD1   33   3.605   3.201   2.316 -0.8131 -0.4855  0.0434
    3ASP    OD2   34   3.434   3.147   2.438  0.1666 -0.1860 -0.0176
    3ASP      C   35   3.794   3.115   2.587 -0.2554 -0.4406  0.0722
    3ASP      O   36   3.822   3.074   2.699 -0.3779 -0.2954  0.2457
    4GLY      N   37   3.780   3.250   2.564  0.1076  0.5047 -0.0851
    4GLY     HN   38   3.745   3.268   2.472 -1.7980  0.5441  0.5979
    4GLY     CA   39   3.837   3.350   2.655  0.1775 -0.0625 -0.3142
    4GLY    HA1   40   3.848   3.448   2.610  0.7419 -0.3779 -0.8714
    4GLY    HA2   41   3.932   3.313   2.688  0.5655  0.8292 -0.3883
    4GLY      C   42   3.736   3.371   2.776 -0.2846 -0.6090 -0.4781
    4GLY      O   43   3.630   3.312   2.780  0.0348  0.6183  0.2373
    5PRO      N   44   3.778   3.457   2.870  0.2508  0.7131 -0.3549
    5PRO     CD   45   3.892   3.551   2.859  0.0190 -0.2964 -0.2020
    5PRO    HD1   46   3.899   3.594   2.757 -0.5064 -1.5574 -0.7857
    5PRO    HD2   47   3.982   3.496   2.892 -1.7867 -3.7619 -0.6456
    5PRO     CA   48   3.718   3.470   3.008 -0.3815  0.3002  0.3870
    5PRO     HA   49   3.718   3.368   3.045 -1.0014  0.6867  1.4992
    5PRO     CB   50   3.817   3.557   3.079  0.1131  0.0445  0.2402
    5PRO    HB1   51   3.900   3.495   3.118  0.0085  0.3949  1.0406
    5PRO    HB2   52   3.778   3.606   3.171 -0.1936  0.4439 -0.1026
    5PRO     CG   53   3.873   3.652   2.974  0.6954  0.4749  0.8391
    5PRO    HG1   54   3.802   3.734   2.948  1.2186  0.7243  0.1465
    5PRO    HG2   55   3.965   3.704   3.006 -1.4510  3.2830  2.9963
    5PRO      C   56   3.577   3.524   3.014 -0.1920 -0.2211  0.1698
    5PRO      O   57   3.500   3.495   3.110  0.2368 -0.0287 -0.3863
    6GLY      N   58   3.537   3.611   2.917 -0.2342  0.6178  0.2082
    6GLY     HN   59   3.596   3.636   2.841 -0.4917  0.1652 -0.1431
    6GLY     CA   60   3.430   3.709   2.932  0.2732 -0.1618  0.5209
    6GLY    HA1   61   3.335   3.656   2.931  1.6051 -2.7149 -0.5790
    6GLY    HA2   62   3.438   3.788   2.859  0.4102  1.0825  1.8452
    6GLY      C   63   3.433   3.789   3.061  0.9384  0.0694 -0.5414
    6GLY      O   64   3.533   3.795   3.131  0.2840  0.4333 -0.5471
    7ASP      N   65   3.323   3.860   3.110 -0.5168  0.0614  0.3899
    7ASP     HN   66   3.236   3.866   3.062 -0.3774 -0.2055  0.0994
    7ASP     CA   67   3.315   3.929   3.234 -1.2121  0.7696 -0.1092
    7ASP     HA   68   3.403   3.993   3.234 -1.0644  0.5744 -0.6600
    7ASP     CB   69   3.194   4.031   3.246  0.2798  0.0974 -0.0470
    7ASP    HB1   70   3.192   4.078   3.346 -0.1565  1.4465 -0.6738
    7ASP    HB2   71   3.103   3.968   3.234 -0.7534  1.2471  1.5314
    7ASP     CG   72   3.207   4.148   3.155  0.9468 -0.3091 -0.3874
    7ASP    OD1   73   3.107   4.215   3.132 -0.6412  0.2143  0.3124
    7ASP    OD2   74   3.311   4.168   3.091 -0.4135  0.3305  0.3851
    7ASP      C   75   3.311   3.823   3.348  0.1173 -1.0525  0.2433
    7ASP      O   76   3.235   3.727   3.337 -0.5934  0.7223  0.1754
    8PRO      N   77   3.389   3.828   3.455 -0.4888 -0.8244  0.8097
    8PRO     CD   78   3.487   3.933   3.484  0.4596 -0.3274  0.6444
    8PRO    HD1   79   3.445   4.037   3.483  0.5472 -0.2960  0.0903
    8PRO    HD2   80   3.561   3.926   3.402 -2.0831  0.6083 -1.9275
    8PRO     CA   81   3.384   3.735   3.558 -0.3222  0.2065 -0.1765
    8PRO     HA   82   3.366   3.637   3.517 -0.9388 -1.0284  2.7790
    8PRO     CB   83   3.524   3.752   3.630  0.5351 -0.1599  0.4026
    8PRO    HB1   84   3.604   3.700   3.573  1.0796  1.3277 -0.2245
    8PRO    HB2   85   3.533   3.724   3.737 -0.9250 -1.0490  0.3270
    8PRO     CG   86   3.550   3.897   3.618  0.0193 -0.4065 -0.0168
    8PRO    HG1   87   3.491   3.958   3.689  1.6130  1.0363  0.1285
    8PRO    HG2   88   3.656   3.926   3.633 -0.3708  2.2020 -1.6415
    8PRO      C   89   3.278   3.743   3.663  0.4342 -0.4058  0.0018
    8PRO      O   90   3.272   3.663   3.756  0.7777  0.0924  0.5447
    9ASP      N   91   3.191   3.848   3.653  0.7034 -0.1872 -0.2694
    9ASP     HN   92   3.192   3.923   3.588  1.5921  0.8127  0.8470
    9ASP     CA   93   3.096   3.880   3.760 -0.1528 -0.4570 -0.7972
    9ASP     HA   94   3.142   3.892   3.856 -0.6962  1.6106 -0.7381
    9ASP     CB   95   3.031   4.006   3.714 -0.6610 -0.3416 -0.0635
    9ASP    HB1   96   2.960   4.042   3.791 -0.0454 -0.7693  0.7232
    9ASP    HB2   97   2.977   3.979   3.621 -1.3064  0.4625  0.0726
    9ASP     CG   98   3.139   4.111   3.680 -0.5265  0.0043 -0.3148
    9ASP    OD1   99   3.232   4.139   3.760  0.3718  0.1045 -0.3661
    9ASP    OD2  100   3.141   4.173   3.570  0.1931  0.0789  0.3138
    9ASP      C  101   2.988   3.774   3.772  0.3677  0.1070 -0.7767
    9ASP      O  102   2.941   3.723   3.669  0.0500  0.0351 -0.2323
   10ALA      N  103   2.954   3.743   3.901  0.3086 -0.5061 -0.1160
   10ALA     HN  104   3.002   3.782   3.979 -2.4548 -0.6495  1.7975
   10ALA     CA  105   2.886   3.622   3.931 -0.5607 -0.3872 -0.5043
   10ALA     HA  106   2.808   3.607   3.859  0.4841 -2.2550 -1.3163
   10ALA     CB  107   2.984   3.502   3.946  0.1311 -0.3760  0.1559
   10ALA    HB1  108   2.932   3.409   3.976 -1.0896 -0.5427 -2.2664
   10ALA    HB2  109   3.069   3.515   4.017 -0.4879 -1.9871  1.2533
   10ALA    HB3  110   3.011   3.474   3.843 -1.3928 -0.0201 -0.3618
   10ALA      C  111   2.809   3.633   4.063 -0.0364 -1.1524  0.4756
   10ALA      O  112   2.867   3.668   4.170  0.5921  0.4577  0.1800
   11GLY      N  113   2.677   3.608   4.067  0.1699 -0.2486  0.1261
   11GLY     HN  114   2.626   3.585   3.984 -1.6560  0.9812  0.8470
   11GLY     CA  115   2.579   3.632   4.177  0.0257 -0.0572 -0.5874
   11GLY    HA1  116   2.616   3.599   4.273 -2.6398 -1.1610  0.1732
   11GLY    HA2  117   2.502   3.561   4.149  0.4747 -1.1900  0.9331
   11GLY      C  118   2.513   3.772   4.186 -0.5781 -0.0685 -0.4309
   11GLY    OT1  119   2.508   3.850   4.088 -0.5716  0.3133 -0.3696
   11GLY    OT2  120   2.472   3.800   4.300 -0.0851 -0.3290  0.4445
   12LIT    LIT  121   2.422   3.964   4.203  0.4633  0.3204  1.5071
   13LIT    LIT  122   4.019   3.336   3.501  0.0843  0.2059  1.1802
   14LIT    LIT  123   3.515   1.620   0.521  0.7844 -0.0569  0.1781
   15LIT    LIT  124   2.652   2.212   4.690  0.4325  0.2447 -0.4319
   16LIT    LIT  125   1.410   1.448   1.019 -0.7994  0.1385 -0.3038
   17LIT    LIT  126   0.019   2.538   2.580  0.3503 -0.0339 -0.5291
   18LIT    LIT  127   3.786   4.816   0.560  0.3435  0.3708 -0.6715
   19LIT    LIT  128   3.218   4.285   2.981  1.0378  0.2170  0.3196
   20LIT    LIT  129   4.049   2.133   0.340 -0.0122  0.1525  0.0381
   21LIT    LIT  130   1.160   0.954   4.880 -0.1859 -0.6144 -0.6823
   22LIT    LIT  131   2.518   3.259   5.145  0.5413 -0.4634 -0.0921
   23LIT    LIT  132   2.654   3.662   3.046 -0.1047  0.6460  0.0173
   24LIT    LIT  133   5.259   1.140   2.228  0.5442 -1.1863 -0.2886
   25LIT    LIT  134   6.186   3.342   1.380  0.1988 -0.5385 -0.5617
   26LIT    LIT  135   1.713   1.589   4.827  0.0961 -0.5878  0.1453
   27LIT    LIT  136   3.169   2.631   4.576 -0.2043  0.0362 -0.2276
   28LIT    LIT  137   4.846   5.617   4.074  0.1645 -0.2951 -0.5911
   29LIT    LIT  138   5.709   5.845   2.919 -0.5844 -0.1163  0.8957
   30LIT    LIT  139   2.920   4.135   1.602  0.4987  0.6432  0.4378
   31LIT    LIT  140   2.982   5.393   0.007  0.1148 -0.6857  0.3512
   32LIT    LIT  141   1.803   5.279   0.732 -0.4399 -0.1638  0.5404
   33LIT    LIT  142   4.078   3.320   4.578  0.4884  0.0934  0.4115
   34CLA    CLA  143   3.206   1.327   4.055  0.2060  0.3361 -0.0871
   35CLA    CLA  144   3.790   5.260   0.744 -0.2363  0.0992  0.0291
   36CLA    CLA  145   5.507   3.857   2.385  0.0930 -0.0370 -0.3356
   37CLA    CLA  146   5.931   3.008   2.980  0.1589  0.2393  0.3457
   38CLA    CLA  147   1.700   4.249   0.664 -0.1815  0.0010  0.4964
   39CLA    CLA  148   5.554   2.715   2.658 -0.1532 -0.3810  0.0452
   40CLA    CLA  149   1.171   0.070   4.125 -0.5168  0.0014  0.2562
   41CLA    CLA  150   3.631   5.231   4.437  0.2649  0.4360  0.1499
   42CLA    CLA  151   4.596   4.761   1.918  0.0713 -0.1691 -0.1500
   43CLA    CLA  152   0.833   3.783   5.037 -0.2319  0.1482 -0.0886
   44CLA    CLA  153   0.346   0.972   1.579 -0.1799  0.2243  0.0470
   45CLA    CLA  154   2.827   0.944   2.006 -0.2182 -0.2905  0.0858
   46CLA    CLA  155   4.240   3.968   0.394  0.2285  0.4807  0.1547
   47CLA    CLA  156   1.921   1.494   4.815  0.0773 -0.1183 -0.1231
   48CLA    CLA  157   4.353   2.940   4.502 -0.0523  0.3624 -0.1313
   49CLA    CLA  158   4.097   4.770   4.308  0.0998 -0.2630  0.0985
   50CLA    CLA  159   0.468   0.480   0.399 -0.1948  0.4718 -0.4223
   51CLA    CLA  160   1.839   0.283   5.128  0.1336 -0.1910 -0.0426
   52TIP3   OH2  161   2.662   2.593   0.899  0.4306  0.9083 -0.1008
   52TIP3    H1  162   2.712   2.512   0.903  2.0464  1.7042 -1.9515
   52TIP3    H2  163   2.601   2.588   0.972 -0.1628 -2.3430 -0.6709
   53TIP3   OH2  164   5.466   5.204   0.725 -0.4063  0.0702 -0.4130
   53TIP3    H1  165   5.448   5.295   0.705 -0.6366  0.4379  1.2905
   53TIP3    H2  166   5.394   5.176   0.781  0.3325 -0.7383  0.1813
   54TIP3   OH2  167   1.702   4.679   4.703  0.2301 -0.0150 -0.1330
   54TIP3    H1  168   1.741   4.628   4.632 -0.5590  0.8410 -1.2227
   54TIP3    H2  169   1.712   4.770   4.675 -2.2229  0.2602 -0.3299
   55TIP3   OH2  170   4.449   2.399   3.482 -0.1680  0.0320 -0.4089
   55TIP3    H1  171   4.473   2.344   3.408  0.9774 -1.7972  1.2383
   55TIP3    H2  172   4.517   2.466   3.487 -0.5327  0.4791 -1.2820
   56TIP3   OH2  173   3.684   4.899   4.143  0.0136 -0.2398 -0.2180
   56TIP3    H1  174   3.652   4.865   4.226 -0.7176  0.6401 -0.1244
   56TIP3    H2  175   3.675   4.827   4.082  1.6996 -1.3101  0.7029
   57TIP3   OH2  176   6.153   0.303   0.446  0.0961  0.6042 -0.4658
   57TIP3    H1  177   6.078   0.290   0.388  0.3311  0.8313 -0.8311
   57TIP3    H2  178   6.118   0.294   0.534 -0.0263 -0.9879 -0.6627
   58TIP3   OH2  179   4.783   4.823   0.027  0.8959 -0.3715 -0.5211
   58TIP3    H1  180   4.775   4.908   0.070  1.3000 -1.4528  1.8526
   58TIP3    H2  181   4.733   4.833  -0.054 -1.0449  1.4171  0.7811
   59TIP3   OH2  182   5.511   0.044   0.022 -0.6194 -0.4137 -0.2636
   59TIP3    H1  183   5.536  -0.023  -0.042  1.4913  1.0608 -1.0963
   59TIP3    H2  184   5.592   0.062   0.070 -1.7841 -0.3068  1.7604
   60TIP3   OH2  185   1.305   2.069   3.185  0.6123  0.3712  0.0649
   60TIP3    H1  186   1.317   1.974   3.185  0.4713  0.3461  0.8197
   60TIP3    H2  187   1.317   2.095   3.094 -2.0175 -0.7082 -0.6920
   61TIP3   OH2  188   3.808   2.752   4.252 -0.2811 -0.1073 -0.2176
   61TIP3    H1  189   3.767   2.686   4.308 -0.2271 -0.2836 -0.3887
   61TIP3    H2  190   3.807   2.714   4.165  1.9525 -0.9278  0.0577
   62TIP3   OH2  191   6.297   1.926   3.675  0.2325 -0.6065 -0.2137
   62TIP3    H1  192   6.252   1.904   3.757  2.1048 -1.4816  0.6472
   62TIP3    H2  193   6.311   1.842   3.632  1.9226 -0.5059  0.0631
   63TIP3   OH2  194   4.724   2.730   0.403  0.1485 -0.0030  0.3331
   63TIP3    H1  195   4.639   2.729   0.357  0.1392  0.8169  0.3058
   63TIP3    H2  196   4.788   2.745   0.334  0.1434  1.1417  0.5464
   64TIP3   OH2  197   1.053   5.002   0.540  0.2666 -0.3282  0.5920
   64TIP3    H1  198   1.065   4.916   0.501  0.7742 -1.4558  3.0549
   64TIP3    H2  199   1.121   5.008   0.607  0.0355  1.8674  0.7195
   65TIP3   OH2  200   3.397   4.064   1.624 -0.1085 -0.5765 -0.2743
   65TIP3    H1  201   3.331   4.002   1.593 -1.3424 -0.6741  2.2787
   65TIP3    H2  202   3.431   4.023   1.704  0.1712  1.3194  0.6175
   66TIP3   OH2  203   3.236   3.713   2.522  0.2544 -0.3107  0.1135
   66TIP3    H1  204   3.280   3.641   2.568 -0.5351 -1.1346 -0.3927
   66TIP3    H2  205   3.241   3.688   2.430  0.3102  0.4852 -0.1007
   67TIP3   OH2  206   1.693   4.533   4.467  0.0582  0.4508 -0.4955
   67TIP3    H1  207   1.692   4.600   4.399  0.0320  0.8884 -0.0662
   67TIP3    H2  208   1.603   4.527   4.497  0.0755  0.2832 -0.4725
   68TIP3   OH2  209   2.503   1.994   1.339 -0.6094  0.2969 -0.2711
   68TIP3    H1  210   2.472   1.952   1.420 -0.0926 -0.6996 -0.5645
   68TIP3    H2  211   2.585   2.036   1.364 -0.8213  0.6216 -0.1139
   69TIP3   OH2  212   3.161   4.782   1.096  0.2321  0.3179  0.1484
   69TIP3    H1  213   3.124   4.837   1.166  1.2751  1.8969 -0.4655
   69TIP3    H2  214   3.242   4.748   1.133 -0.1437 -0.3937  0.3360
   70TIP3   OH2  215   1.029   0.386   1.503  0.5335 -0.1808  0.2196
   70TIP3    H1  216   1.007   0.451   1.570  1.7449  1.0888 -0.5662
   70TIP3    H2  217   1.103   0.338   1.540  0.5313 -0.1790  0.2263
   71TIP3   OH2  218   0.355   5.424   1.117 -0.6564  0.4780  0.4144
   71TIP3    H1  219   0.447   5.403   1.097 -0.9042  0.3541 -0.6550
   71TIP3    H2  220   0.360   5.505   1.167  0.0447  0.4598  0.3895
   72TIP3   OH2  221   0.284   0.258   4.448 -0.5417  0.1671  0.0166
   72TIP3    H1  222   0.193   0.252   4.419 -1.3328  5.4822  0.4216
   72TIP3    H2  223   0.281   0.307   4.530  2.6855  0.3643  0.1589
   73TIP3   OH2  224   4.799   2.165   3.094  0.9379 -0.1065 -0.2739
   73TIP3    H1  225   4.772   2.244   3.048 -0.1964 -0.1560  0.2689
   73TIP3    H2  226   4.792   2.095   3.029  1.5928  0.1779 -0.6548
   74TIP3   OH2  227   4.983   2.832   0.967 -0.2641  0.0029 -0.4669
   74TIP3    H1  228   4.911   2.893   0.981  0.0060  0.3991 -0.8021
   74TIP3    H2  229   5.061   2.878   0.997 -0.2347 -0.7088  0.6072
   75TIP3   OH2  230   4.089   1.724   3.594 -0.1582 -0.3149 -0.0333
   75TIP3    H1  231   4.054   1.644   3.634 -0.8830 -0.3074 -0.6170
   75TIP3    H2  232   4.023   1.748   3.529  0.8167 -0.1288 -0.9788
   76TIP3   OH2  233   5.479   1.839   4.953  0.3941 -0.1171  0.6748
   76TIP3    H1  234   5.544   1.789   5.002  0.3994  0.4441  1.2555
   76TIP3    H2  235   5.468   1.791   4.871  1.0946 -0.5438  0.8268
   77TIP3   OH2  236   6.135   3.299   2.850  0.1377 -0.0998 -0.3220
   77TIP3    H1  237   6.066   3.330   2.790  0.6347  0.2432 -0.7310
   77TIP3    H2  238   6.090   3.242   2.911 -0.5937  0.4736 -0.3116
   78TIP3   OH2  239   1.611   1.733   0.084  0.5202 -0.4124  0.2679
   78TIP3    H1  240   1.700   1.699   0.094  0.8903  0.2462 -0.6253
   78TIP3    H2  241   1.589   1.768   0.170  1.0425 -0.7825  0.5536
   79TIP3   OH2  242   3.342   0.533   2.904  0.2139 -0.1279  0.0361
   79TIP3    H1  243   3.276   0.568   2.845 -0.6922 -0.4607  0.8320
   79TIP3    H2  244   3.294   0.509   2.983  1.5384  1.3342  1.3680
   80TIP3   OH2  245   2.956   5.812   5.063  0.1306 -0.5230  0.0022
   80TIP3    H1  246   2.941   5.783   4.973 -0.1479  1.5186 -0.6705
   80TIP3    H2  247   3.040   5.773   5.087  0.9901  0.1448 -1.7351
   81TIP3   OH2  248   1.682   4.170   0.050  0.3569 -0.1612 -0.6396
   81TIP3    H1  249   1.609   4.224   0.022 -1.0890 -1.1976  0.9058
   81TIP3    H2  250   1.664   4.084   0.012 -0.5412 -1.0331  1.5560
   82TIP3   OH2  251   1.468   0.307   4.655  0.1029  0.7186 -0.4345
   82TIP3    H1  252   1.535   0.313   4.723 -0.9732 -1.1106  0.9073
   82TIP3    H2  253   1.412   0.383   4.670  0.3765  0.8100  0.1581
   83TIP3   OH2  254   2.264   0.763   1.259 -0.0185 -0.1914 -0.3824
   83TIP3    H1  255   2.229   0.708   1.329 -1.6451  0.7544 -0.4036
   83TIP3    H2  256   2.317   0.829   1.305  1.2805 -1.2468 -0.3015
   84TIP3   OH2  257   2.950   4.409   4.054  0.1042 -0.1545  0.3887
   84TIP3    H1  258   2.898   4.484   4.026 -1.3484 -1.0625  0.5394
   84TIP3    H2  259   3.028   4.412   3.999 -0.9283  0.2573 -1.1154
   85TIP3   OH2  260   0.876   4.650   1.358  0.2810 -0.3471  0.6863
   85TIP3    H1  261   0.955   4.596   1.355 -1.4265 -3.0475  0.8022
   85TIP3    H2  262   0.870   4.678   1.449 -0.1926 -2.3646  1.3395
   86TIP3   OH2  263   3.010   3.718   1.710  0.2187 -0.1302 -0.0124
   86TIP3    H1  264   2.920   3.694   1.728  0.6237 -1.6398  0.1721
   86TIP3    H2  265   3.040   3.651   1.648  1.1386  0.4722 -0.2319
   87TIP3   OH2  266   0.273   0.997   3.982 -0.3761 -0.1966 -0.5636
   87TIP3    H1  267   0.286   0.902   3.981  6.1245  0.1410  1.2018
   87TIP3    H2  268   0.313   1.027   3.900 -0.9664  1.0733 -0.4069
   88TIP3   OH2  269   1.789   4.101   1.657  0.0596  0.1377 -0.1827
   88TIP3    H1  270   1.836   4.032   1.704 -0.2948 -0.2609 -0.4084
   88TIP3    H2  271   1.712   4.057   1.620 -1.1757  1.0148  1.2110
   89TIP3   OH2  272   5.770   0.158   3.270  0.5934 -0.0509 -0.0105
   89TIP3    H1  273   5.833   0.089   3.250  0.7834 -0.4312  1.7171
   89TIP3    H2  274   5.690   0.112   3.293  0.6316  0.2962  0.8666
   90TIP3   OH2  275   4.094   4.302   2.488 -0.4393  0.5332 -0.0749
   90TIP3    H1  276   4.018   4.258   2.451 -0.6315  0.4437  0.4094
   90TIP3    H2  277   4.060   4.348   2.565 -0.1833  1.2815 -0.3933
   91TIP3   OH2  278   1.010   5.660   0.703 -0.6447 -0.0281  0.6838
   91TIP3    H1  279   1.031   5.746   0.666  0.1729 -0.0605  1.0402
   91TIP3    H2  280   0.973   5.680   0.789 -3.0061  0.0715 -0.2737
   92TIP3   OH2  281   1.851   0.325   4.007  0.1898  0.5978 -0.0267
   92TIP3    H1  282   1.885   0.276   4.082 -0.2166 -2.3452 -1.5996
   92TIP3    H2  283   1.765   0.356   4.036  0.7930  1.0665  1.2957
   93TIP3   OH2  284   5.782   2.148   2.315  0.4205 -0.2849 -0.1949
   93TIP3    H1  285   5.803   2.057   2.338  3.2212  0.7231  1.7297
   93TIP3    H2  286   5.803   2.153   2.221  0.0949 -1.6206 -0.3699
   94TIP3   OH2  287   3.215   1.992   4.529 -0.8822  0.3669  0.0857
   94TIP3    H1  288   3.238   1.930   4.599  1.3155  1.8305  0.7539
   94TIP3    H2  289   3.198   1.937   4.453 -3.1272 -1.2763  1.6248
   95TIP3   OH2  290   5.020   2.571   2.288 -0.1771  0.0693 -0.0291
   95TIP3    H1  291   5.010   2.617   2.205  1.7228 -2.4919 -1.8442
   95TIP3    H2  292   5.114   2.563   2.301 -0.3820 -2.6440  0.4446
   96TIP3   OH2  293   2.295   5.649   3.356 -0.8308 -0.2459  0.4121
   96TIP3    H1  294   2.248   5.590   3.297 -1.2984  0.5872 -0.0814
   96TIP3    H2  295   2.371   5.599   3.386  0.5070 -0.0890 -2.3847
   97TIP3   OH2  296   1.458   1.408   0.071 -0.0019 -0.5814 -0.1950
   97TIP3    H1  297   1.428   1.452   0.151  0.5107  0.1268 -0.3784
   97TIP3    H2  298   1.551   1.389   0.089 -0.4540 -2.5801  0.3026
   98TIP3   OH2  299   5.795   3.660   1.368 -0.1143  0.1717  0.4473
   98TIP3    H1  300   5.790   3.576   1.414  0.7313  0.6413  1.4431
   98TIP3    H2  301   5.859   3.711   1.418  1.5698  0.3864 -1.7504
   99TIP3   OH2  302   5.969   1.432   4.750 -0.3643  0.4266  0.2737
   99TIP3    H1  303   5.944   1.377   4.676 -0.7582 -0.2149  0.8723
   99TIP3    H2  304   6.028   1.497   4.712 -0.7972  0.3001 -0.6595
  100TIP3   OH2  305   0.651   3.527   1.821 -0.2799 -0.1850 -0.1173
  100TIP3    H1  306   0.697   3.474   1.886  0.4766  1.0073  0.3596
  100TIP3    H2  307   0.716   3.539   1.751 -0.4375  0.1221 -0.2115
  101TIP3   OH2  308   2.621   4.094   1.181  0.0370 -0.1205  0.3835
  101TIP3    H1  309   2.647   4.158   1.115 -0.7723 -1.2342 -1.0624
  101TIP3    H2  310   2.530   4.115   1.202  0.2262  0.1016  1.0305
  102TIP3   OH2  311   2.889   1.503   0.724 -0.0064  0.3747 -0.6520
  102TIP3    H1  312   2.812   1.450   0.704 -1.0984  1.5981  0.1512
  102TIP3    H2  313   2.935   1.453   0.792 -1.5013  0.8200  0.7651
  103TIP3   OH2  314   0.595   2.072   2.283  0.3041  0.5348 -0.4846
  103TIP3    H1  315   0.503   2.062   2.257 -0.2886  1.2515  1.2019
  103TIP3    H2  316   0.639   2.099   2.203 -0.5686 -1.6315 -1.8018
  104TIP3   OH2  317   4.740   4.889   1.073 -0.1821  0.8193 -0.5023
  104TIP3    H1  318   4.817   4.844   1.108 -0.4123  0.0386 -0.9814
  104TIP3    H2  319   4.673   4.879   1.141 -0.5856 -0.5740 -1.0582
  105TIP3   OH2  320   1.525   4.674   2.191 -0.1090 -0.3215  0.7170
  105TIP3    H1  321   1.596   4.735   2.171 -1.1213 -0.1080 -3.0234
  105TIP3    H2  322   1.570   4.593   2.217  1.4583  0.4122  0.4215
  106TIP3   OH2  323   2.440   4.065   2.654 -0.1346  0.2411 -0.2150
  106TIP3    H1  324   2.459   4.016   2.574 -0.2445 -0.3397  0.1102
  106TIP3    H2  325   2.345   4.057   2.664 -0.0808  0.0397  0.1448
  107TIP3   OH2  326   0.635   4.643   4.803  0.2222  0.2858 -0.0344
  107TIP3    H1  327   0.669   4.602   4.724  0.4349 -1.5824  0.9706
  107TIP3    H2  328   0.707   4.698   4.834 -0.0644  1.5080 -1.3957
  108TIP3   OH2  329   4.610   0.337   1.999 -0.0278  0.7647  0.3568
  108TIP3    H1  330   4.660   0.281   1.940 -1.3958 -0.6063  0.4325
  108TIP3    H2  331   4.626   0.301   2.086 -1.8389 -0.3378  0.2917
  109TIP3   OH2  332   3.143   5.212   1.893 -0.3759 -0.0249  0.5491
  109TIP3    H1  333   3.206   5.255   1.835 -0.4724  0.0710  0.5142
  109TIP3    H2  334   3.192   5.142   1.934 -0.3229 -0.1314  0.3067
  110TIP3   OH2  335   5.275   5.320   4.950 -0.3917  0.2462 -0.1672
  110TIP3    H1  336   5.204   5.344   5.010 -0.6538 -1.2451  0.1558
  110TIP3    H2  337   5.331   5.262   5.001  1.3264  1.7330 -0.2917
  111TIP3   OH2  338   3.067   4.396   4.799  0.0071 -0.1933  0.3529
  111TIP3    H1  339   3.125   4.473   4.800  1.1032 -0.9387 -1.2483
  111TIP3    H2  340   3.124   4.324   4.771 -1.0646 -1.5555  1.5382
  112TIP3   OH2  341   0.363   1.360   2.625 -0.1190 -0.3504 -0.1432
  112TIP3    H1  342   0.436   1.395   2.573 -0.7510  0.7904 -0.2919
  112TIP3    H2  343   0.341   1.277   2.582  1.0155 -0.6611 -0.1552
  113TIP3   OH2  344   0.837   1.358   1.781  0.0650  0.2951 -0.0289
  113TIP3    H1  345   0.827   1.433   1.840 -1.8446 -0.4692  0.7007
  113TIP3    H2  346   0.826   1.395   1.693  2.3478  1.3482  0.0521
  114TIP3   OH2  347   1.649   0.760   2.171  0.0806  0.2241  0.1371
  114TIP3    H1  348   1.655   0.847   2.211  0.2953  0.1736  0.2170
  114TIP3    H2  349   1.701   0.704   2.228  1.0700  0.3060 -0.6519
  115TIP3   OH2  350   5.707   3.573   4.578 -0.3741  0.2539 -0.4689
  115TIP3    H1  351   5.764   3.608   4.646  1.7672  0.2968 -2.1631
  115TIP3    H2  352   5.668   3.495   4.616  1.1798 -0.0179  0.6272
  116TIP3   OH2  353   3.799   0.445   3.358 -0.3381  0.0664 -0.6902
  116TIP3    H1  354   3.851   0.514   3.316  0.5713 -0.3382 -0.2593
  116TIP3    H2  355   3.714   0.486   3.374 -0.0487  0.8590 -1.0924
  117TIP3   OH2  356   2.049   5.617   4.210 -0.0805  0.1154  0.2069
  117TIP3    H1  357   2.063   5.669   4.289  0.1494  1.2219 -0.5267
  117TIP3    H2  358   2.138   5.602   4.176 -0.2078  0.1510 -0.1462
  118TIP3   OH2  359   3.690   3.948   2.767 -0.9923 -0.0465 -0.0349
  118TIP3    H1  360   3.764   4.008   2.779 -1.6747  0.6666  0.7081
  118TIP3    H2  361   3.618   3.989   2.813 -1.4214 -1.5847  0.7405
  119TIP3   OH2  362   3.871   0.849   0.145 -0.4922  0.1833  0.6088
  119TIP3    H1  363   3.845   0.941   0.146 -0.7652  0.1923 -1.7682
  119TIP3    H2  364   3.967   0.851   0.146 -0.4946  0.4995  0.3004
  120TIP3   OH2  365   5.918   0.592  -0.000  0.7709  0.0653  0.2507
  120TIP3    H1  366   5.957   0.679   0.001 -0.5430  0.7169 -1.1408
  120TIP3    H2  367   5.849   0.596   0.065 -0.2322  0.5613 -0.8129
  121TIP3   OH2  368   0.539  -0.000   4.375 -0.2171 -0.2482 -0.6298
  121TIP3    H1  369   0.593   0.055   4.431 -0.1671 -0.1126 -0.8087
  121TIP3    H2  370   0.506   0.060   4.308  0.2439 -0.5290 -1.1179
  122TIP3   OH2  371   2.710   0.641   2.868  0.1336 -0.4271  0.1677
  122TIP3    H1  372   2.631   0.587   2.867 -0.3060  0.1997  0.5348
  122TIP3    H2  373   2.683   0.724   2.829  0.7245 -0.3614 -0.1118
  123TIP3   OH2  374   0.815   1.455   3.302  0.2324  0.4095 -0.1703
  123TIP3    H1  375   0.867   1.394   3.354  0.1565 -0.3736 -0.9877
  123TIP3    H2  376   0.880   1.515   3.265  0.6335 -0.7621 -1.4509
  124TIP3   OH2  377   4.768   5.483   3.681  0.3828 -0.7089  0.3224
  124TIP3    H1  378   4.846   5.486   3.626 -0.7606 -1.0360 -1.4299
  124TIP3    H2  379   4.701   5.528   3.629  0.2308  3.0982  3.3440
  125TIP3   OH2  380   4.751   2.276   0.930  0.0126 -0.3045  0.2344
  125TIP3    H1  381   4.795   2.315   1.005  1.0357 -0.5656 -0.2174
  125TIP3    H2  382   4.799   2.195   0.913  0.1809  0.0485 -1.0771
  126TIP3   OH2  383   3.339   5.895   0.960  0.3362 -0.5050 -0.1476
  126TIP3    H1  384   3.336   5.806   0.996 -2.9460  0.1077  1.4461
  126TIP3    H2  385   3.347   5.952   1.037 -2.2292  0.6923 -0.6702
  127TIP3   OH2  386   1.651   1.055   2.198 -0.0653 -0.0351 -0.5624
  127TIP3    H1  387   1.609   1.064   2.113 -0.8557 -1.7827 -0.3922
  127TIP3    H2  388   1.622   1.132   2.247 -1.2854 -0.0610 -1.2033
  128TIP3   OH2  389   5.260   3.259   0.188 -0.2847  0.1838  0.3335
  128TIP3    H1  390   5.206   3.201   0.242 -0.1284 -0.7745 -0.5159
  128TIP3    H2  391   5.199   3.320   0.149 -0.5090  0.3224  0.8931
  129TIP3   OH2  392   1.875   4.639   2.436 -0.1934 -0.1006 -0.6650
  129TIP3    H1  393   1.811   4.583   2.479  0.4623 -0.1724  0.2559
  129TIP3    H2  394   1.935   4.578   2.393  1.3502 -0.2615  1.5067
  130TIP3   OH2  395   4.204   2.620   3.777 -0.1958 -0.6420 -0.4546
  130TIP3    H1  396   4.151   2.540   3.771  0.5801 -1.1403 -0.9063
  130TIP3    H2  397   4.173   2.675   3.705 -2.2690  0.4501  1.1856
  131TIP3   OH2  398   5.317   2.891   3.857  0.3174 -0.0603  0.1061
  131TIP3    H1  399   5.262   2.836   3.913 -0.0039 -1.0524 -1.1192
  131TIP3    H2  400   5.402   2.891   3.900 -0.4897  1.1467  1.8053
  132TIP3   OH2  401   0.697   3.833   0.338  0.1460  0.3686 -0.5460
  132TIP3    H1  402   0.622   3.790   0.379 -1.8624  0.9342 -3.2959
  132TIP3    H2  403   0.728   3.771   0.272  2.2716  0.1071  0.5980
  133TIP3   OH2  404   5.384   1.677   4.740 -0.2871 -0.1829  0.1946
  133TIP3    H1  405   5.354   1.709   4.655  1.3362 -0.8877 -0.6850
  133TIP3    H2  406   5.315   1.705   4.801 -0.8659  1.4735 -1.1215
  134TIP3   OH2  407   4.443   0.379   3.243 -0.0709 -0.2244  0.3781
  134TIP3    H1  408   4.396   0.367   3.161  0.4542 -0.7239  0.1485
  134TIP3    H2  409   4.478   0.293   3.265  0.7667  0.1346  0.5220
  135TIP3   OH2  410   1.355   2.521   3.400  0.2216  0.2896 -0.4993
  135TIP3    H1  411   1.303   2.489   3.473 -0.1182  1.5344 -0.1682
  135TIP3    H2  412   1.446   2.511   3.428  0.1076  0.1869 -0.1691
  136TIP3   OH2  413   3.910   0.878   1.576  0.7165 -0.0517  0.2201
  136TIP3    H1  414   3.816   0.873   1.589  0.6144 -1.7944 -0.9918
  136TIP3    H2  415   3.942   0.925   1.653 -1.1140  0.5411  0.6628
  137TIP3   OH2  416   4.052   2.011   0.682 -0.3214 -0.0500 -0.5951
  137TIP3    H1  417   4.097   1.977   0.605  1.2601 -0.4052  0.4285
  137TIP3    H2  418   4.048   1.936   0.742  0.2038  0.6975  0.3994
  138TIP3   OH2  419   1.955   4.973   0.102 -0.3688  0.1438  0.0950
  138TIP3    H1  420   1.876   4.987   0.051  0.3371  1.7405 -0.6222
  138TIP3    H2  421   1.938   4.892   0.151 -2.0386 -0.0648 -0.7641
  139TIP3   OH2  422   4.783   1.037   4.688  0.2977  0.0524  0.2175
  139TIP3    H1  423   4.694   1.071   4.681 -0.2779 -1.2468  0.9644
  139TIP3    H2  424   4.782   0.980   4.765  1.4847 -0.8733 -0.4148
  140TIP3   OH2  425   1.673   1.435   2.116 -0.3046  0.3830  0.0921
  140TIP3    H1  426   1.755   1.388   2.101  0.3170  1.4003  0.1624
  140TIP3    H2  427   1.701   1.525   2.134 -1.3842  0.5404  1.0933
  141TIP3   OH2  428   5.018   0.822   5.095  0.3780 -0.2248  0.6026
  141TIP3    H1  429   5.111   0.840   5.103  1.0300 -1.8708 -2.0212
  141TIP3    H2  430   4.975   0.906   5.112  2.4654  1.0355 -0.1015
  142TIP3   OH2  431   4.908   2.225   2.672  0.1760 -0.0573 -0.7973
  142TIP3    H1  432   4.906   2.260   2.583  0.2627 -0.2035 -0.8572
  142TIP3    H2  433   4.863   2.141   2.665  1.6424 -0.8574 -1.0539
  143TIP3   OH2  434   0.679   1.232   2.742 -0.3676  0.0449  0.1651
  143TIP3    H1  435   0.727   1.219   2.661 -2.1566  1.0439 -1.1469
  143TIP3    H2  436   0.625   1.154   2.752  0.1791 -0.2790  0.6652
  144TIP3   OH2  437   5.597   5.383   2.585 -0.1935 -0.5514 -0.1650
  144TIP3    H1  438   5.567   5.423   2.666  0.7026 -1.8590  0.8532
  144TIP3    H2  439   5.639   5.301   2.612  1.4472 -0.3309 -1.7992
  145TIP3   OH2  440   6.286   1.172   0.400  0.1172  0.4084 -0.1613
  145TIP3    H1  441   6.371   1.129   0.393 -1.3512 -2.7160 -0.5900
  145TIP3    H2  442   6.287   1.212   0.487  1.7681 -0.1615  0.1287
  146TIP3   OH2  443   2.572   4.498   1.240 -0.3821  0.5834 -0.3368
  146TIP3    H1  444   2.592   4.516   1.148 -0.1809  1.9429 -0.0607
  146TIP3    H2  445   2.503   4.561   1.262 -0.5498  0.1622  0.4011
  147TIP3   OH2  446   6.149   3.832   3.594 -0.1093 -0.0692  0.0206
  147TIP3    H1  447   6.124   3.885   3.670  0.1965 -0.6805  0.5633
  147TIP3    H2  448   6.235   3.865   3.569 -0.1832  0.0919 -0.0225
  148TIP3   OH2  449   0.808   4.844   2.666 -0.2167 -0.3527  0.1511
  148TIP3    H1  450   0.793   4.757   2.631 -0.1098 -0.6267  0.7724
  148TIP3    H2  451   0.749   4.901   2.616 -0.3978 -0.8006 -0.1508
  149TIP3   OH2  452   1.190   1.731   3.634  0.4080 -0.0638 -0.2624
  149TIP3    H1  453   1.125   1.796   3.663  0.2593  0.3073 -1.3763
  149TIP3    H2  454   1.138   1.659   3.599  0.5920 -0.1308 -0.3982
  150TIP3   OH2  455   1.626   3.049   3.499 -0.2474 -0.3639  0.3672
  150TIP3    H1  456   1.583   3.076   3.418 -1.3886 -1.4783  0.5781
  150TIP3    H2  457   1.587   3.103   3.567  1.2822  1.1506  0.1318
  151TIP3   OH2  458   4.241   2.719   0.027  0.0984 -0.2421  0.0874
  151TIP3    H1  459   4.298   2.643   0.037 -1.2682 -1.0712  2.2394
  151TIP3    H2  460   4.213   2.716  -0.064  2.1754 -0.7429 -0.5779
  152TIP3   OH2  461   1.585   3.547   0.299  0.5270  0.0948 -0.1918
  152TIP3    H1  462   1.620   3.636   0.301 -0.3463  0.4279  1.1612
  152TIP3    H2  463   1.580   3.520   0.390 -1.3699 -0.4666 -0.4163
  153TIP3   OH2  464   6.019   1.343   4.988 -0.2779  0.2445  0.0877
  153TIP3    H1  465   5.949   1.286   5.020 -0.8945  1.2242  0.5407
  153TIP3    H2  466   5.984   1.382   4.908 -0.6204  1.4137  0.7869
  154TIP3   OH2  467   3.496   2.499   0.708 -0.1148  0.0533 -0.3977
  154TIP3    H1  468   3.407   2.494   0.743  0.3725  0.0790  0.8891
  154TIP3    H2  469   3.484   2.493   0.613 -1.6299  1.9824 -0.3992
  155TIP3   OH2  470   5.865   3.688   4.790  0.0735  0.1807  0.3244
  155TIP3    H1  471   5.934   3.669   4.853  0.6009  0.4274 -0.1711
  155TIP3    H2  472   5.851   3.783   4.798 -0.5551  0.0586  0.7688
  156TIP3   OH2  473   6.131   0.570   0.460 -0.8840  0.3882 -0.0032
  156TIP3    H1  474   6.214   0.595   0.502 -0.2505  2.3694 -2.2142
  156TIP3    H2  475   6.143   0.478   0.438  0.3613  0.3957  0.5408
  157TIP3   OH2  476   2.815   3.066   2.363 -0.1337 -0.0703 -0.5547
  157TIP3    H1  477   2.813   3.077   2.458  0.7518  1.9381 -0.7215
  157TIP3    H2  478   2.813   3.155   2.329 -3.7539 -0.7145 -2.5613
  158TIP3   OH2  479   3.750   1.455   3.255 -0.2318 -0.2065  0.0527
  158TIP3    H1  480   3.663   1.466   3.214 -0.8662  2.0641  1.8105
  158TIP3    H2  481   3.805   1.520   3.211  0.2980 -0.8673 -0.2714
  159TIP3   OH2  482   1.853   0.169   4.696 -0.0151  0.0527  0.1751
  159TIP3    H1  483   1.937   0.196   4.734  1.3235 -3.1202 -0.2513
  159TIP3    H2  484   1.844   0.224   4.618  0.7430  1.6534  1.1534
  160TIP3   OH2  485   2.133   4.542   1.667  0.5889 -0.2026  0.3636
  160TIP3    H1  486   2.217   4.512   1.632  0.3696 -0.9318  0.4512
  160TIP3    H2  487   2.092   4.589   1.594  1.3446  0.7369  0.5150
  161TIP3   OH2  488   2.231   3.900   0.608  0.1905 -0.2857  0.3583
  161TIP3    H1  489   2.251   3.858   0.524 -0.8760  1.2308 -0.6990
  161TIP3    H2  490   2.138   3.922   0.603  0.7052  2.2780  0.7866
  162TIP3   OH2  491   1.699   5.797   1.386 -0.3656  0.1716  0.8118
  162TIP3    H1  492   1.646   5.816   1.464 -0.8847  0.5343  0.3846
  162TIP3    H2  493   1.642   5.821   1.313 -0.2868 -1.1871  0.2855
  163TIP3   OH2  494   2.697   2.589   0.063  0.6864  0.1332  0.1010
  163TIP3    H1  495   2.605   2.616   0.065  0.1684 -1.4306 -0.7449
  163TIP3    H2  496   2.745   2.667   0.034 -0.5581  0.5438 -0.9511
  164TIP3   OH2  497   0.591   4.801   1.866 -0.5268 -0.3384 -0.2828
  164TIP3    H1  498   0.640   4.861   1.923 -0.0206 -1.0756  0.0850
  164TIP3    H2  499   0.502   4.801   1.901 -0.6173  0.4609 -0.5039
  165TIP3   OH2  500   4.489   2.758   0.738  0.0896 -0.5933 -0.2844
  165TIP3    H1  501   4.445   2.690   0.788 -1.3858  0.1278 -0.5499
  165TIP3    H2  502   4.455   2.748   0.649  2.1107 -1.3799 -1.0374
  166TIP3   OH2  503   3.245   4.027   2.505  0.6119 -0.0484 -0.1454
  166TIP3    H1  504   3.259   3.940   2.542  2.2523  0.7694  1.3084
  166TIP3    H2  505   3.314   4.081   2.543 -1.0438  2.1784 -0.0642
  167TIP3   OH2  506   3.223   1.511   4.566 -0.1395 -0.2066  0.0141
  167TIP3    H1  507   3.205   1.438   4.625  1.2539 -0.2216  0.4506
  167TIP3    H2  508   3.223   1.473   4.478 -1.4888 -0.3214  0.0413
  168TIP3   OH2  509   3.681   2.941   1.159  0.0975 -0.6791  0.0385
  168TIP3    H1  510   3.732   2.866   1.130  0.3779 -0.1836 -0.7865
  168TIP3    H2  511   3.723   3.016   1.117  0.5603  0.0909  1.7615
  169TIP3   OH2  512   3.702   2.694   2.020 -0.1902  0.0001 -0.1828
  169TIP3    H1  513   3.733   2.668   2.107  0.1031  0.3809 -0.1698
  169TIP3    H2  514   3.608   2.709   2.032 -0.2862 -0.6199 -0.0943
  170TIP3   OH2  515   2.976   1.091   3.733  0.3485  0.9941  0.7085
  170TIP3    H1  516   2.947   1.176   3.699 -1.9846  0.6012  1.4830
  170TIP3    H2  517   2.919   1.075   3.808  1.0219 -1.0698  0.8370
  171TIP3   OH2  518   6.281   2.990   2.512  0.5258  0.4024  0.4438
  171TIP3    H1  519   6.266   3.057   2.446  0.5981  0.8902  0.9137
  171TIP3    H2  520   6.227   3.017   2.587 -1.2487 -1.2705 -0.1400
  172TIP3   OH2  521   3.164   1.625   4.964 -0.0207  0.3447 -0.2322
  172TIP3    H1  522   3.235   1.688   4.972  1.2498 -1.0458 -0.1390
  172TIP3    H2  523   3.206   1.539   4.975 -2.1893 -0.4655  3.7186
  173TIP3   OH2  524   2.556   0.918   2.196 -0.5134 -0.4533  0.4130
  173TIP3    H1  525   2.572   0.970   2.275 -0.1632 -0.6131  0.4504
  173TIP3    H2  526   2.635   0.864   2.187  0.6590  1.3886 -1.4762
  174TIP3   OH2  527   2.412   2.603   3.263 -0.0746 -0.5498  0.4807
  174TIP3    H1  528   2.416   2.518   3.307 -0.2907  0.3652  2.3631
  174TIP3    H2  529   2.358   2.588   3.185  0.2496 -2.2067  0.5385
  175TIP3   OH2  530   1.637   1.678   1.647  0.4207 -0.3360  0.1058
  175TIP3    H1  531   1.640   1.606   1.583 -0.3710  0.1649 -0.5171
  175TIP3    H2  532   1.581   1.644   1.718  0.1070 -0.3665 -0.1529
  176TIP3   OH2  533   3.780   4.242   2.352 -0.7214 -0.5047 -0.1103
  176TIP3    H1  534   3.826   4.261   2.270 -0.7739 -2.5260 -0.6791
  176TIP3    H2  535   3.831   4.171   2.391 -1.6695 -0.7363  0.7362
  177TIP3   OH2  536   5.219   5.446   2.085  0.1530 -0.1936  0.8429
  177TIP3    H1  537   5.251   5.358   2.066 -2.3088 -1.0028  0.0419
  177TIP3    H2  538   5.258   5.500   2.016  0.7163 -0.8761  0.6077
  178TIP3   OH2  539   3.793   2.267   4.550  0.0040 -0.5104  0.1845
  178TIP3    H1  540   3.700   2.287   4.537  0.4539  1.4796 -0.1137
  178TIP3    H2  541   3.810   2.194   4.490 -1.9089 -2.6568  2.0159
  179TIP3   OH2  542   2.643   5.694   3.496 -0.1267  0.5344  0.4829
  179TIP3    H1  543   2.631   5.673   3.403 -0.3627 -0.3537  0.7057
  179TIP3    H2  544   2.558   5.679   3.535  0.0203  0.7264  0.8775
  180TIP3   OH2  545   1.112   2.633   0.529 -0.1592  0.7654 -0.4403
  180TIP3    H1  546   1.018   2.639   0.549 -0.6562  0.5044 -2.4479
  180TIP3    H2  547   1.137   2.724   0.510 -0.4757  0.5964 -1.7264
  181TIP3   OH2  548   1.136   4.078   3.968 -0.1579  0.2050  0.3011
  181TIP3    H1  549   1.119   4.108   4.057 -0.7754 -0.6294  0.4717
  181TIP3    H2  550   1.149   3.984   3.977  0.0596  0.1576 -0.4619
  182TIP3   OH2  551   1.072   0.256   5.065  0.2503  0.1498 -0.2038
  182TIP3    H1  552   0.993   0.206   5.088 -0.3991  1.1781 -0.1204
  182TIP3    H2  553   1.137   0.231   5.131 -0.1242 -0.4137 -0.0372
  183TIP3   OH2  554   3.146   0.174   2.953 -0.2803  0.2008  0.2338
  183TIP3    H1  555   3.066   0.225   2.940  1.0411  2.4630  0.4672
  183TIP3    H2  556   3.159   0.174   3.048  0.1816  0.1546  0.1708
  184TIP3   OH2  557   2.363   2.636   1.033  0.4221 -0.0378 -0.2713
  184TIP3    H1  558   2.288   2.695   1.027  0.1552 -0.4828 -3.5722
  184TIP3    H2  559   2.327   2.554   1.066  0.0774  0.5591  0.8861
  185TIP3   OH2  560   5.578   0.593   3.830 -0.0106  0.3649  0.5652
  185TIP3    H1  561   5.540   0.510   3.857 -0.3692  1.0295  2.2008
  185TIP3    H2  562   5.503   0.653   3.827  0.3641  0.8154  0.1615
  186TIP3   OH2  563   5.469   2.820   4.100  0.4774 -0.5113  0.2341
  186TIP3    H1  564   5.385   2.812   4.146  0.2482  1.5767  0.2596
  186TIP3    H2  565   5.535   2.795   4.165  0.0162  0.2453  1.0158
  187TIP3   OH2  566   0.539   5.060   4.253  0.4009 -0.3226 -0.0507
  187TIP3    H1  567   0.520   5.145   4.212 -2.6365 -0.3398  1.0787
  187TIP3    H2  568   0.634   5.051   4.245  0.6991  2.6094 -1.3013
  188TIP3   OH2  569   2.883   4.878   0.107 -0.1887 -0.1087  0.2077
  188TIP3    H1  570   2.845   4.939   0.043  0.9192 -0.2334 -0.5995
  188TIP3    H2  571   2.816   4.871   0.176 -1.4105  0.0220 -0.9277
  189TIP3   OH2  572   1.784   2.496   2.196 -0.1199  0.1610  0.6173
  189TIP3    H1  573   1.839   2.487   2.273 -0.7373 -2.8690  0.8096
  189TIP3    H2  574   1.846   2.500   2.122  0.4340  2.2646  1.1157
  190TIP3   OH2  575   1.060   4.422   2.924  0.2530  0.3638 -0.1397
  190TIP3    H1  576   1.123   4.359   2.887 -0.2256 -0.5461  0.5534
  190TIP3    H2  577   0.994   4.368   2.967 -1.7924  1.2312 -1.9974
  191TIP3   OH2  578   2.753   5.902   3.714  0.0437  0.0795 -0.2136
  191TIP3    H1  579   2.837   5.869   3.747 -0.1325  0.1190  0.2906
  191TIP3    H2  580   2.687   5.852   3.762 -0.2216  0.3858 -0.2544
  192TIP3   OH2  581   5.789   2.949   2.702 -0.4629 -0.0170  0.0512
  192TIP3    H1  582   5.723   2.880   2.707  1.3267 -1.7139  2.0168
  192TIP3    H2  583   5.822   2.957   2.791  0.3928  2.4196 -0.4179
  193TIP3   OH2  584   2.380   0.630   0.669 -0.1555  0.3294 -0.1038
  193TIP3    H1  585   2.317   0.694   0.702  0.7284  1.0612  0.2077
  193TIP3    H2  586   2.391   0.653   0.577 -0.3254  0.2035 -0.1574
  194TIP3   OH2  587   5.423   3.678   2.146 -0.4298  0.5719  0.6439
  194TIP3    H1  588   5.387   3.743   2.086  0.7273  1.5626  0.9817
  194TIP3    H2  589   5.426   3.722   2.231 -0.1418 -0.1172  1.0036
  195TIP3   OH2  590   0.111   2.394   1.264 -0.3962  0.1024  0.5328
  195TIP3    H1  591   0.195   2.419   1.302  0.5663 -0.7355 -0.9220
  195TIP3    H2  592   0.070   2.338   1.330  0.2408  0.4072  1.1966
  196TIP3   OH2  593   1.807   0.190   0.972  0.0746  0.6845 -0.1307
  196TIP3    H1  594   1.851   0.135   1.037  0.5549 -0.4151 -1.3379
  196TIP3    H2  595   1.878   0.225   0.919 -0.3500  0.9028 -0.5605
  197TIP3   OH2  596   4.992   0.503   2.616 -0.1026 -0.3188 -0.1211
  197TIP3    H1  597   4.947   0.482   2.698  0.2700  1.2787  0.5468
  197TIP3    H2  598   5.083   0.479   2.632 -0.1166 -0.4479 -0.2372
  198TIP3   OH2  599   5.225   3.209   1.466 -0.2423 -0.3546 -0.3022
  198TIP3    H1  600   5.259   3.298   1.452  0.3187 -0.4404  0.4731
  198TIP3    H2  601   5.138   3.211   1.426 -1.2703  1.3043  1.8528
  199TIP3   OH2  602   2.629   1.536   3.174  0.0817  0.0012  0.2301
  199TIP3    H1  603   2.591   1.463   3.224 -1.2645  0.2718 -0.3565
  199TIP3    H2  604   2.598   1.614   3.219 -1.1362  0.2493 -0.9676
  200TIP3   OH2  605   5.477   2.522   4.228 -0.1992 -0.1282  0.0549
  200TIP3    H1  606   5.404   2.579   4.206 -0.6556 -0.7471 -0.0676
  200TIP3    H2  607   5.541   2.536   4.158 -0.3308  0.1925 -0.0001
  201TIP3   OH2  608   4.013   3.667   1.625  0.7204  0.3914 -0.2586
  201TIP3    H1  609   4.005   3.583   1.579  0.2541  0.3856 -0.1783
  201TIP3    H2  610   4.052   3.645   1.709  2.1969  0.4864 -0.8866
  202TIP3   OH2  611   0.741   1.048   3.573  0.3360  0.1522  0.2393
  202TIP3    H1  612   0.648   1.040   3.554  0.8241 -2.0094 -1.6852
  202TIP3    H2  613   0.754   0.997   3.653  0.1049 -1.2401 -0.5673
  203TIP3   OH2  614   5.685   0.211   1.225  0.1558  0.0580  0.4831
  203TIP3    H1  615   5.754   0.200   1.160  0.6714 -0.1707  1.0640
  203TIP3    H2  616   5.697   0.299   1.259  0.5654 -0.2067  1.0383
  204TIP3   OH2  617   0.069   0.608   0.518 -0.3852 -0.2359 -0.1714
  204TIP3    H1  618   0.132   0.676   0.497 -2.0329  0.9471 -1.4753
  204TIP3    H2  619   0.113   0.555   0.585  1.4676  1.2719 -0.1171
  205TIP3   OH2  620   3.292   3.393   1.460 -0.4951 -0.3160  0.2776
  205TIP3    H1  621   3.247   3.347   1.389  0.0705 -2.4625  1.2571
  205TIP3    H2  622   3.372   3.342   1.475 -0.8998 -0.2748  2.8608
  206TIP3   OH2  623   1.297   5.715   2.424  0.0255  0.2546  0.3914
  206TIP3    H1  624   1.245   5.779   2.472 -0.7787  0.3034 -0.5089
  206TIP3    H2  625   1.246   5.697   2.345  1.9550  1.2912 -1.1888
  207TIP3   OH2  626   1.898   4.293   2.165  0.1000 -0.2124 -0.5734
  207TIP3    H1  627   1.874   4.279   2.073 -0.9537 -0.9319 -0.2116
  207TIP3    H2  628   1.949   4.215   2.189 -0.8413 -0.7149 -0.1630
  208TIP3   OH2  629   1.884   4.725   1.009  0.3703  0.5115  0.7445
  208TIP3    H1  630   1.801   4.719   0.961  0.3837  1.6638  0.5502
  208TIP3    H2  631   1.866   4.790   1.077  1.0113  0.4989  0.9244
  209TIP3   OH2  632   3.441   2.581   0.402 -0.2206  0.1576 -0.2351
  209TIP3    H1  633   3.368   2.539   0.448  0.0598 -1.2242 -0.9842
  209TIP3    H2  634   3.401   2.619   0.324 -0.1247 -0.7394 -0.7274
  210TIP3   OH2  635   2.757   1.849   2.910  0.1751 -0.4342  0.6879
  210TIP3    H1  636   2.749   1.755   2.890 -0.1510 -0.4612  0.9314
  210TIP3    H2  637   2.722   1.893   2.833 -0.6380 -0.5307  0.9948
  211TIP3   OH2  638   2.337   1.749   1.022 -0.1175  0.1014  0.7331
  211TIP3    H1  639   2.365   1.840   1.013  2.1451 -0.6439 -0.7781
  211TIP3    H2  640   2.281   1.748   1.099 -0.4218  2.7991  0.6223
  212TIP3   OH2  641   2.845   4.927   0.854  0.2543 -0.0175  0.4026
  212TIP3    H1  642   2.910   4.963   0.915 -0.4435  1.0707  0.5252
  212TIP3    H2  643   2.780   4.885   0.910  1.4707 -2.2753  0.2356
  213TIP3   OH2  644   4.771   0.184   1.169 -0.1713  0.5872  0.3721
  213TIP3    H1  645   4.744   0.221   1.085 -0.2322  2.7251  1.2619
  213TIP3    H2  646   4.867   0.190   1.167 -0.2043  1.4690  0.7649
  214TIP3   OH2  647   2.367   1.092   0.958 -0.0947  0.6088  0.0595
  214TIP3    H1  648   2.282   1.056   0.985 -0.9395  1.5165 -1.2932
  214TIP3    H2  649   2.403   1.027   0.898  0.5895 -0.1696  1.2589
  215TIP3   OH2  650   2.808   4.202   3.927 -0.0288  0.0164  0.3040
  215TIP3    H1  651   2.845   4.135   3.985  1.7229 -0.3380 -1.1387
  215TIP3    H2  652   2.860   4.280   3.944  0.1039  0.0750 -0.3517
  216TIP3   OH2  653   6.214   0.042   0.045  0.0743  0.1364  1.1382
  216TIP3    H1  654   6.291   0.065   0.097  0.7160  0.0998  0.2300
  216TIP3    H2  655   6.167   0.124   0.034  0.0751  0.1924  1.5563
  217TIP3   OH2  656   1.319   0.445   2.078  0.3949  0.0180  0.2675
  217TIP3    H1  657   1.336   0.531   2.040  1.6269 -0.7525 -1.0381
  217TIP3    H2  658   1.298   0.389   2.003  0.2207 -0.9532  1.0201
  218TIP3   OH2  659   2.107   3.337   4.980 -0.6460 -0.6234  0.1828
  218TIP3    H1  660   2.069   3.360   5.065 -0.1044 -1.1864  0.5783
  218TIP3    H2  661   2.033   3.302   4.930 -1.5521  1.9756 -0.4820
  219TIP3   OH2  662   5.279   1.072   2.050  0.3250 -0.1964  0.2862
  219TIP3    H1  663   5.343   1.081   1.980 -0.0586 -0.0335 -0.0437
  219TIP3    H2  664   5.219   1.004   2.019  0.9888 -1.1780  1.0878
  220TIP3   OH2  665   2.289   3.398   2.364 -0.3039  0.3601 -0.1226
  220TIP3    H1  666   2.374   3.385   2.321 -0.4994  1.9329 -1.0748
  220TIP3    H2  667   2.254   3.476   2.322 -0.3746  2.2425  3.1734
  221TIP3   OH2  668   0.181   2.491   2.479  0.8677 -0.2460  0.8669
  221TIP3    H1  669   0.171   2.467   2.387  0.4488  0.8405  0.6114
  221TIP3    H2  670   0.271   2.524   2.485  0.8620 -0.2227  0.8249
  222TIP3   OH2  671   5.849   2.299   2.634  0.0455  0.1795 -0.1152
  222TIP3    H1  672   5.811   2.366   2.691  1.6405 -0.8263  2.2949
  222TIP3    H2  673   5.777   2.271   2.578 -1.1939  2.3704  0.2746
  223TIP3   OH2  674   6.030   5.041   3.335  0.1335 -0.4389 -0.2381
  223TIP3    H1  675   6.001   5.127   3.304  1.7362  0.7694  1.4042
  223TIP3    H2  676   6.114   5.027   3.291  0.0547 -1.0173 -0.2141
  224TIP3   OH2  677   2.161   4.777   3.928  0.5677 -0.8434  0.1357
  224TIP3    H1  678   2.096   4.706   3.928  0.7276 -1.0035  1.6407
  224TIP3    H2  679   2.159   4.810   3.838 -1.5391 -0.8920  0.1064
  225TIP3   OH2  680   3.865   3.371   0.918 -0.0529 -0.3143 -0.1706
  225TIP3    H1  681   3.878   3.427   0.994  1.1245 -1.5232  0.5743
  225TIP3    H2  682   3.770   3.369   0.906 -0.2031  0.6514  0.6721
  226TIP3   OH2  683   4.646   3.084   4.944 -0.3686 -0.6728  0.0284
  226TIP3    H1  684   4.637   3.085   4.849 -0.4465  0.1676  0.0383
  226TIP3    H2  685   4.573   3.029   4.974 -1.6900  0.8543 -0.2840
  227TIP3   OH2  686   1.852   1.921   3.979  0.1919 -0.5276  0.2199
  227TIP3    H1  687   1.867   1.897   3.887  1.0234  0.8874 -0.0429
  227TIP3    H2  688   1.801   2.002   3.974  0.5047 -0.2815  1.0089
  228TIP3   OH2  689   0.886   2.163   4.230 -0.1372 -0.0265 -0.0628
  228TIP3    H1  690   0.969   2.130   4.265  0.8409  0.5555 -1.6910
  228TIP3    H2  691   0.819   2.120   4.282  1.1792 -0.0514  1.7219
  229TIP3   OH2  692   3.083   1.501   0.321  0.0152 -0.2855  0.5558
  229TIP3    H1  693   3.011   1.559   0.298  0.6333  0.0298 -0.6672
  229TIP3    H2  694   3.040   1.422   0.356 -1.1031 -1.1120 -2.3719
  230TIP3   OH2  695   1.799   2.243   0.692 -0.1388  0.2063 -0.2451
  230TIP3    H1  696   1.765   2.311   0.749 -1.2877 -0.1306 -0.4967
  230TIP3    H2  697   1.804   2.285   0.606  3.8735  1.4787  0.4035
  231TIP3   OH2  698   0.602   4.096   0.391 -0.0003 -0.6212 -0.3025
  231TIP3    H1  699   0.632   4.010   0.363  1.5568 -0.1281 -0.2422
  231TIP3    H2  700   0.638   4.157   0.326 -0.1396  0.0924  0.2702
  232TIP3   OH2  701   5.700   2.947   5.045  0.4577 -0.0295  0.4310
  232TIP3    H1  702   5.759   2.921   5.116  0.1989  0.1728  0.7224
  232TIP3    H2  703   5.758   2.961   4.970  0.8424  0.6332  0.8373
  233TIP3   OH2  704   6.072   0.072   1.148  0.1662 -0.4706  0.0557
  233TIP3    H1  705   6.141   0.007   1.158  1.5906  1.0284  0.4501
  233TIP3    H2  706   6.118   0.156   1.150 -1.6318  0.5670 -0.1434
  234TIP3   OH2  707   0.826   5.900   5.008 -0.2615  0.4202  0.0515
  234TIP3    H1  708   0.852   5.894   4.916 -2.4719  0.8522 -0.6643
  234TIP3    H2  709   0.791   5.988   5.018 -1.1364 -0.0068  0.9818
  235TIP3   OH2  710   3.613   0.877   3.073 -0.0183 -0.1103  0.8104
  235TIP3    H1  711   3.570   0.791   3.070 -1.6033  0.6770 -1.4732
  235TIP3    H2  712   3.590   0.911   3.160 -2.2972 -0.6037  0.4614
  236TIP3   OH2  713   0.066   3.599   4.340  0.2515  0.5615  0.2190
  236TIP3    H1  714   0.004   3.610   4.267 -0.9328  1.6205  1.3282
  236TIP3    H2  715   0.124   3.674   4.333  0.3171  0.5094  0.2052
  237TIP3   OH2  716   6.110   3.467   4.703  0.5354  0.5633 -0.1485
  237TIP3    H1  717   6.176   3.401   4.723  0.1789  0.0598 -0.6088
  237TIP3    H2  718   6.034   3.442   4.756  0.3019  0.4335 -0.5409
  238TIP3   OH2  719   3.873   5.767   3.855 -0.4767  0.0975 -0.0386
  238TIP3    H1  720   3.863   5.737   3.946 -1.2235 -0.9909 -0.4745
  238TIP3    H2  721   3.910   5.855   3.864  0.7478 -0.5111  1.2908
  239TIP3   OH2  722   1.863   2.063   5.015  0.6416 -0.1415  0.0220
  239TIP3    H1  723   1.782   2.081   4.967  0.4355 -1.1752 -0.0492
  239TIP3    H2  724   1.848   2.099   5.102  0.6751  0.9596 -0.4074
  240TIP3   OH2  725   5.867   4.510   3.263  0.6005 -0.2414 -0.7382
  240TIP3    H1  726   5.901   4.517   3.353 -1.9645  0.8448  0.2605
  240TIP3    H2  727   5.796   4.446   3.269 -0.6917  1.0509 -1.5738
  241TIP3   OH2  728   0.687   2.485   2.709 -0.0531  0.0708  0.2349
  241TIP3    H1  729   0.729   2.404   2.679 -0.6731 -0.3448  0.4813
  241TIP3    H2  730   0.612   2.456   2.761  0.9239  0.7621  2.1227
  242TIP3   OH2  731   3.236   0.373   2.002 -0.2000 -0.8015 -0.4740
  242TIP3    H1  732   3.321   0.409   1.977 -0.3482 -0.0382  0.0746
  242TIP3    H2  733   3.184   0.449   2.027 -0.4598 -1.4094  0.9339
  243TIP3   OH2  734   1.610   2.685   4.692 -0.8713 -0.0107  0.3175
  243TIP3    H1  735   1.698   2.687   4.730 -0.6869  1.5794 -0.1195
  243TIP3    H2  736   1.623   2.712   4.601 -1.7639 -0.1508  0.1431
  244TIP3   OH2  737   0.792   2.899   4.476  0.3815 -0.5717 -0.2661
  244TIP3    H1  738   0.710   2.913   4.524  0.2500 -0.7949 -0.4204
  244TIP3    H2  739   0.766   2.845   4.401 -0.1325  2.7733 -2.6930
  245TIP3   OH2  740   1.339   3.615   4.211  0.3347  0.2427 -0.1819
  245TIP3    H1  741   1.328   3.550   4.142 -1.7968 -0.4283  0.6925
  245TIP3    H2  742   1.274   3.683   4.191  1.0896  1.0535  0.0677
  246TIP3   OH2  743   4.319   2.428   0.644 -0.2045  0.3128 -0.2494
  246TIP3    H1  744   4.286   2.478   0.719  0.4801 -0.3618  0.5315
  246TIP3    H2  745   4.343   2.343   0.681 -1.0592 -0.4976 -1.4842
  247TIP3   OH2  746   1.225   4.633   4.719 -0.6929  0.2822  0.3605
  247TIP3    H1  747   1.266   4.652   4.803 -3.4262 -0.6519  2.0303
  247TIP3    H2  748   1.133   4.618   4.739 -0.7380 -5.0919 -1.9445
  248TIP3   OH2  749   1.276   4.930   3.281  0.5931  0.3902 -0.1417
  248TIP3    H1  750   1.298   4.971   3.198  0.9117 -0.8805 -0.7049
  248TIP3    H2  751   1.188   4.960   3.301  0.3872  0.4356 -1.1091
  249TIP3   OH2  752   1.838   4.142   3.348 -0.0690 -0.1432  0.5419
  249TIP3    H1  753   1.816   4.218   3.401  0.4429  0.2447  0.2125
  249TIP3    H2  754   1.862   4.075   3.412  0.2638  0.2281  0.8139
  250TIP3   OH2  755   3.783   4.762   0.857 -0.1632  0.6627 -0.1417
  250TIP3    H1  756   3.760   4.671   0.842 -1.4138  1.0841 -0.9550
  250TIP3    H2  757   3.879   4.763   0.857 -0.1343 -0.5616 -0.6185
  251TIP3   OH2  758   1.098   4.732   0.423  0.0896  0.1862 -0.7648
  251TIP3    H1  759   1.030   4.680   0.464  0.4203 -1.2891 -1.9819
  251TIP3    H2  760   1.162   4.667   0.391  0.4913  1.3181 -2.3923
  252TIP3   OH2  761   5.043   1.130   4.710  0.4656 -0.0304  0.2134
  252TIP3    H1  762   4.948   1.129   4.697  0.2656  0.2183  1.5188
  252TIP3    H2  763   5.062   1.045   4.748  0.5974  0.3641  1.0331
  253TIP3   OH2  764   3.561   2.890   4.225  0.2179  0.9489 -0.6241
  253TIP3    H1  765   3.516   2.975   4.217  1.0248  1.4813  0.2634
  253TIP3    H2  766   3.653   2.909   4.205  1.0647  1.0248  2.7482
  254TIP3   OH2  767   5.844   1.079   3.056 -0.2959 -0.1713 -0.4034
  254TIP3    H1  768   5.900   1.062   3.132  0.1694  1.7325 -0.2683
  254TIP3    H2  769   5.755   1.066   3.088 -0.0388 -1.0433 -0.0161
  255TIP3   OH2  770   1.081   4.884   1.125 -0.7474 -0.3962 -0.4030
  255TIP3    H1  771   1.128   4.836   1.193  1.3768  0.1456 -1.4249
  255TIP3    H2  772   1.146   4.941   1.086 -2.8930  2.6492  0.0515
  256TIP3   OH2  773   5.966   2.713   2.895  0.9213 -0.3702  0.0721
  256TIP3    H1  774   5.942   2.667   2.975 -2.1731  1.0570  0.0894
  256TIP3    H2  775   5.949   2.806   2.914 -0.6636 -0.0530 -2.3923
  257TIP3   OH2  776   2.712   4.386   3.506  0.0355 -0.0461  0.9014
  257TIP3    H1  777   2.807   4.397   3.514 -0.1186  1.4762  0.8745
  257TIP3    H2  778   2.698   4.293   3.523  1.8452 -0.9999 -1.9604
  258TIP3   OH2  779   3.886   4.275   1.399 -0.0893  0.3674 -0.2642
  258TIP3    H1  780   3.790   4.264   1.401  0.0475 -0.9709  0.1484
  258TIP3    H2  781   3.912   4.273   1.491  0.3361  0.7449 -0.3753
  259TIP3   OH2  782   5.363   1.463   3.145  0.4037 -0.1720  0.0953
  259TIP3    H1  783   5.317   1.446   3.062 -0.5285 -1.0128  0.7681
  259TIP3    H2  784   5.453   1.435   3.128  1.0321  2.5188 -1.5906
  260TIP3   OH2  785   2.437   5.323   2.200 -0.0948  0.0451  0.1967
  260TIP3    H1  786   2.527   5.348   2.181 -0.0328 -0.7921 -0.6447
  260TIP3    H2  787   2.387   5.355   2.125 -0.3438 -0.3960  0.1717
  261TIP3   OH2  788   4.256   5.216   1.186 -0.1798  0.1350  0.0443
  261TIP3    H1  789   4.326   5.171   1.139 -0.0931  0.8172 -0.4943
  261TIP3    H2  790   4.225   5.152   1.249  0.7772 -0.2589  0.1373
  262TIP3   OH2  791   1.618   0.271   1.943 -0.0201  0.1517  0.5510
  262TIP3    H1  792   1.590   0.195   1.892 -1.9774  0.4607  1.0804
  262TIP3    H2  793   1.567   0.344   1.908  1.6357  1.2224  0.2132
  263TIP3   OH2  794   3.626   4.819   0.092  0.0411 -0.0585 -0.2164
  263TIP3    H1  795   3.694   4.753   0.077 -0.1512 -0.3448  0.1600
  263TIP3    H2  796   3.664   4.900   0.057 -0.1353 -0.5567 -1.6607
  264TIP3   OH2  797   0.447   2.970   1.232  0.7661  0.3713  0.3096
  264TIP3    H1  798   0.507   3.025   1.282  1.1552  0.3085 -0.0822
  264TIP3    H2  799   0.497   2.945   1.154  0.4878 -0.2953  0.3429
  265TIP3   OH2  800   3.317   4.043   3.996  1.0333  0.4236  0.2421
  265TIP3    H1  801   3.292   4.078   3.911  3.1089  0.3359 -0.4710
  265TIP3    H2  802   3.337   4.120   4.049 -4.4294  0.8691  2.3326
  266TIP3   OH2  803   0.036   4.393   1.603  0.0400 -0.4642 -0.4287
  266TIP3    H1  804  -0.040   4.361   1.554 -0.9140  0.7723  0.1850
  266TIP3    H2  805   0.017   4.485   1.618  1.8889 -0.0186 -0.6297
  267TIP3   OH2  806   1.892   2.836   5.022  0.5616 -0.4018 -0.5620
  267TIP3    H1  807   1.806   2.838   4.980  1.4333 -0.7382 -2.4516
  267TIP3    H2  808   1.897   2.918   5.071 -0.0240  0.6295 -2.1538
  268TIP3   OH2  809   5.858   2.232   4.051  0.8810  0.1064 -0.3195
  268TIP3    H1  810   5.816   2.171   4.112  1.6161 -1.8758 -1.6573
  268TIP3    H2  811   5.788   2.255   3.989  0.7379  0.1514 -0.1425
  269TIP3   OH2  812   4.144   5.371   0.879  0.2426  0.4458  0.8331
  269TIP3    H1  813   4.097   5.299   0.920 -0.8898 -0.0549 -1.1807
  269TIP3    H2  814   4.115   5.370   0.788  4.0201  0.2169 -0.5688
  270TIP3   OH2  815   5.383   3.154   1.943 -0.9333  0.3102 -0.1002
  270TIP3    H1  816   5.428   3.233   1.916  0.3444 -0.2814  0.2495
  270TIP3    H2  817   5.323   3.135   1.870  1.4516 -0.4845 -2.0091
  271TIP3   OH2  818   5.351   3.446   1.506  0.3246 -0.1121 -0.4163
  271TIP3    H1  819   5.401   3.509   1.453 -0.3153  1.5838  0.8934
  271TIP3    H2  820   5.311   3.499   1.574  3.2092 -2.4274  3.4971
  272TIP3   OH2  821   3.477   4.233   3.276  0.0759 -0.1260 -0.3999
  272TIP3    H1  822   3.440   4.196   3.197  0.7430  1.1653 -1.3629
  272TIP3    H2  823   3.402   4.266   3.326 -0.2242  1.0049 -1.5490
  273TIP3   OH2  824   2.590   0.435   4.026 -0.2390  0.1951  0.0771
  273TIP3    H1  825   2.649   0.450   3.952 -0.0802 -1.1192 -0.0801
  273TIP3    H2  826   2.646   0.440   4.103  0.1978 -1.5129 -0.1006
  274TIP3   OH2  827   3.000   3.724   3.211  0.1785  0.3617 -0.4123
  274TIP3    H1  828   3.080   3.737   3.260  0.0302  0.4252 -0.1860
  274TIP3    H2  829   2.935   3.777   3.257  0.5654  2.3572 -2.0274
  275TIP3   OH2  830   6.177   4.856   1.155 -0.0157 -0.5318 -0.0559
  275TIP3    H1  831   6.215   4.922   1.097 -0.7937 -1.2031 -1.3632
  275TIP3    H2  832   6.103   4.820   1.106  0.2144 -2.1811  0.7391
  276TIP3   OH2  833   5.848   4.022   4.467  0.7209 -0.0618 -0.5722
  276TIP3    H1  834   5.772   3.966   4.476  1.4670 -0.9481  0.5008
  276TIP3    H2  835   5.824   4.102   4.514  0.9285 -0.8731  0.9863
  277TIP3   OH2  836   1.814   4.493   3.129 -0.0986 -0.1568 -0.4497
  277TIP3    H1  837   1.744   4.518   3.190  0.6261  1.8988 -0.3945
  277TIP3    H2  838   1.804   4.398   3.119 -0.1481 -0.6373  2.9774
  278TIP3   OH2  839   5.828   2.639   4.435  0.0073  0.3793  0.0287
  278TIP3    H1  840   5.774   2.664   4.360 -0.9953 -0.1508  0.5579
  278TIP3    H2  841   5.916   2.630   4.399  0.0914  2.8839 -0.5325
  279TIP3   OH2  842   0.871   0.971   1.097 -0.1527  0.2028  0.3662
  279TIP3    H1  843   0.960   0.957   1.066  0.3963  2.1032  0.9623
  279TIP3    H2  844   0.815   0.944   1.024  0.9417  0.0683 -0.4378
  280TIP3   OH2  845   3.462   3.681   0.496  0.2469 -0.1795  0.2016
  280TIP3    H1  846   3.476   3.587   0.512  0.9267  0.0932  1.2975
  280TIP3    H2  847   3.467   3.690   0.401 -1.3393 -1.4830 -0.0682
  281TIP3   OH2  848   5.328   4.983   4.526 -0.2245 -0.1125  0.0363
  281TIP3    H1  849   5.261   5.028   4.576  0.2295 -0.7508  1.2448
  281TIP3    H2  850   5.373   5.053   4.477 -0.2058  0.6184  1.0712
  282TIP3   OH2  851   5.502   0.056   3.343  0.8735  0.0145 -0.3662
  282TIP3    H1  852   5.464   0.051   3.255  2.8926 -1.3295 -1.2521
  282TIP3    H2  853   5.479  -0.028   3.383  2.3958 -0.6258 -0.7501
  283TIP3   OH2  854   2.466   3.305   1.580  0.0238  0.1355  0.1869
  283TIP3    H1  855   2.497   3.214   1.580 -1.0915 -0.3334 -2.0356
  283TIP3    H2  856   2.378   3.299   1.617 -0.2235  0.2172 -0.3777
  284TIP3   OH2  857   1.956   2.497   1.123  0.3363  0.0158 -0.1637
  284TIP3    H1  858   1.871   2.510   1.081  0.6789  2.0908 -0.3408
  284TIP3    H2  859   1.939   2.508   1.216  0.7959  3.5840 -0.3667
  285TIP3   OH2  860   5.941   0.203   5.107 -0.2428  0.0207 -0.3109
  285TIP3    H1  861   5.851   0.185   5.080  0.1635 -0.5111 -1.3740
  285TIP3    H2  862   5.961   0.288   5.068 -0.3695  0.2639  0.1511
  286TIP3   OH2  863   0.159   1.986   2.938 -0.0184  0.3960 -0.2567
  286TIP3    H1  864   0.079   1.957   2.893 -1.1420  0.3138  1.6775
  286TIP3    H2  865   0.170   1.923   3.010  2.2535 -0.0474 -0.9260
  287TIP3   OH2  866   3.204   3.434   3.410 -0.2252  0.0902  0.5590
  287TIP3    H1  867   3.145   3.427   3.485  0.0332  0.3571  0.7868
  287TIP3    H2  868   3.204   3.527   3.388  0.0048  0.0699  0.4731
  288TIP3   OH2  869   2.070   2.792   2.150  0.1740  0.0615  0.1114
  288TIP3    H1  870   2.128   2.858   2.189  1.5973 -0.6840 -0.6593
  288TIP3    H2  871   1.996   2.842   2.117  1.1339  1.2660 -0.3124
  289TIP3   OH2  872   0.518   2.988   2.498  0.2975 -0.4169 -0.4045
  289TIP3    H1  873   0.453   2.942   2.551 -0.4073 -0.2435 -1.0991
  289TIP3    H2  874   0.480   3.074   2.483  0.5915 -0.3863 -0.9959
  290TIP3   OH2  875   3.134   0.394   4.421 -0.2722 -1.7210  0.0623
  290TIP3    H1  876   3.224   0.389   4.452  0.0222 -2.8485 -0.9089
  290TIP3    H2  877   3.091   0.316   4.456 -0.3257 -2.2298 -1.0834
  291TIP3   OH2  878   0.565   2.226   0.196  0.2531  0.5238  0.4133
  291TIP3    H1  879   0.481   2.207   0.236 -0.0193  1.5232  0.3608
  291TIP3    H2  880   0.629   2.180   0.250 -0.1110  1.7602  1.9637
  292TIP3   OH2  881   5.795   2.962   1.430 -0.0750 -0.1334  0.6161
  292TIP3    H1  882   5.750   2.911   1.363  0.0257  0.6223 -0.0378
  292TIP3    H2  883   5.761   2.928   1.513 -0.0734 -1.2024  0.2021
  293TIP3   OH2  884   4.988   2.906   4.241 -0.0412 -0.3584 -0.4379
  293TIP3    H1  885   4.965   2.814   4.231 -0.3226 -0.3990  0.4976
  293TIP3    H2  886   5.016   2.914   4.333  0.5848  0.3537 -0.6792
  294TIP3   OH2  887   2.627   2.595   4.858  0.4953  0.5971 -0.5723
  294TIP3    H1  888   2.540   2.602   4.897  0.5314  0.1158 -0.3925
  294TIP3    H2  889   2.625   2.655   4.784  0.7265  2.2311  0.6873
  295TIP3   OH2  890   4.891   5.078   3.527  0.2739 -0.3096  0.2535
  295TIP3    H1  891   4.933   5.070   3.441 -1.9925  1.2874 -1.1318
  295TIP3    H2  892   4.840   4.998   3.537 -0.2704 -0.0664 -0.4290
  296TIP3   OH2  893   0.896   4.879   4.554 -0.4876  0.0154 -0.6091
  296TIP3    H1  894   0.862   4.959   4.512  1.2183  0.2422 -1.6807
  296TIP3    H2  895   0.889   4.812   4.486 -2.2859 -0.9083  0.4165
  297TIP3   OH2  896   2.657   2.890   0.898  0.3518  0.8323 -0.0639
  297TIP3    H1  897   2.665   2.795   0.893  1.1209  0.8508  0.6076
  297TIP3    H2  898   2.740   2.924   0.863  0.9797  1.1812  1.6579
  298TIP3   OH2  899   2.936   4.647   3.473  0.4730  0.1849  0.0437
  298TIP3    H1  900   2.965   4.565   3.511 -0.6078  0.4065  1.4390
  298TIP3    H2  901   2.841   4.639   3.469  0.4568  0.7431 -1.3461
  299TIP3   OH2  902   0.756   2.376   3.179 -0.4542  0.0127  0.1766
  299TIP3    H1  903   0.850   2.374   3.199 -0.4496 -1.6540  0.2022
  299TIP3    H2  904   0.738   2.288   3.145 -2.5146 -0.6016  2.5972
  300TIP3   OH2  905   2.653   5.470   1.791  0.7413  0.9035  0.0008
  300TIP3    H1  906   2.693   5.437   1.710 -0.0920 -0.0867 -0.0306
  300TIP3    H2  907   2.638   5.391   1.844 -1.7211  1.1117 -0.2606
  301TIP3   OH2  908   3.752   4.023   1.049 -0.1996  0.3336 -0.0305
  301TIP3    H1  909   3.785   4.088   1.110  0.6511 -0.6849  0.6421
  301TIP3    H2  910   3.703   3.962   1.103 -0.5176  0.1093 -0.5612
  302TIP3   OH2  911   4.843   4.325   0.889  0.4039 -0.2047 -0.2322
  302TIP3    H1  912   4.833   4.240   0.932  0.8067 -0.1399 -0.0043
  302TIP3    H2  913   4.933   4.351   0.909  0.3767  0.1370 -0.5533
  303TIP3   OH2  914   5.296   1.600   1.044 -0.9737 -0.5021 -0.3506
  303TIP3    H1  915   5.230   1.657   1.085 -0.7255 -0.5625  0.1433
  303TIP3    H2  916   5.377   1.619   1.093 -0.9822 -1.5824  0.1049
  304TIP3   OH2  917   3.268   2.630   3.293 -0.1421  0.0088  0.1632
  304TIP3    H1  918   3.240   2.580   3.217  0.6878 -0.3004  0.0444
  304TIP3    H2  919   3.263   2.721   3.265 -3.4699  0.2100  0.9769
  305TIP3   OH2  920   4.101   5.785   3.360 -0.6256  0.3052 -0.0005
  305TIP3    H1  921   4.088   5.838   3.439  0.9376  0.0364  0.4834
  305TIP3    H2  922   4.067   5.698   3.384 -0.6171  0.3557  0.1985
  306TIP3   OH2  923   3.366   5.206   3.677  0.5487 -0.7454 -0.7595
  306TIP3    H1  924   3.333   5.139   3.738 -1.4350 -0.9084 -1.9240
  306TIP3    H2  925   3.397   5.156   3.602  1.7113 -0.4741 -0.4711
  307TIP3   OH2  926   0.256   4.069   4.851  0.0230 -0.0395 -0.5055
  307TIP3    H1  927   0.244   3.982   4.891 -0.7507 -0.8785 -2.4274
  307TIP3    H2  928   0.169   4.091   4.817  1.2026 -0.8951 -4.5413
  308TIP3   OH2  929   4.640   3.969   4.864 -0.3511 -0.0062  0.3289
  308TIP3    H1  930   4.660   4.061   4.883  0.2044 -0.0284 -0.1067
  308TIP3    H2  931   4.611   3.969   4.773  1.5715 -0.5035 -0.3366
  309TIP3   OH2  932   3.007   0.535   0.215  0.4555 -0.1504 -0.3936
  309TIP3    H1  933   2.989   0.475   0.288 -0.4308  2.2959  1.5659
  309TIP3    H2  934   2.935   0.598   0.218  2.2502  2.0557 -1.1233
  310TIP3   OH2  935   4.770   4.075   1.000  0.0631 -0.1382  0.1258
  310TIP3    H1  936   4.683   4.062   1.039 -0.0155 -0.0945 -0.0347
  310TIP3    H2  937   4.831   4.064   1.074 -0.0169 -1.0706  0.0640
  311TIP3   OH2  938   1.294   1.981   5.018 -0.2148  0.1282  0.1550
  311TIP3    H1  939   1.275   1.974   5.111  0.2405 -1.0047  0.1766
  311TIP3    H2  940   1.268   2.070   4.995 -1.8483 -0.0923  1.0094
  312TIP3   OH2  941   5.576   5.394   2.317 -0.5303 -0.0405 -0.5388
  312TIP3    H1  942   5.486   5.380   2.345 -0.0222 -0.7094  0.8837
  312TIP3    H2  943   5.628   5.383   2.397  0.9018 -0.6295 -1.5004
  313TIP3   OH2  944   3.432   3.045   4.584  0.0350  0.2664 -0.6427
  313TIP3    H1  945   3.480   3.053   4.666  0.3797  0.1644 -0.8310
  313TIP3    H2  946   3.467   2.966   4.544 -0.5843 -0.0381 -0.5933
  314TIP3   OH2  947   3.006   5.763   2.218  0.6933  0.1165  0.2508
  314TIP3    H1  948   3.027   5.670   2.211  0.3307 -0.2231  2.6795
  314TIP3    H2  949   3.033   5.787   2.307  0.6138  2.3084 -0.2482
  315TIP3   OH2  950   6.219   2.283   1.902  0.4983  0.1234  0.1123
  315TIP3    H1  951   6.282   2.211   1.910 -0.6517 -0.8727  0.5639
  315TIP3    H2  952   6.235   2.337   1.979  1.2222  0.2491 -0.1140
  316TIP3   OH2  953   2.518   1.763   3.301  0.5651  0.2716 -0.2161
  316TIP3    H1  954   2.533   1.820   3.227 -0.9628  0.2179 -0.6077
  316TIP3    H2  955   2.447   1.706   3.273  0.1669  0.0479  1.1720
  317TIP3   OH2  956   1.183   1.253   3.024 -0.2024  0.1422 -0.2436
  317TIP3    H1  957   1.203   1.185   3.088  0.2746 -1.4839 -2.0115
  317TIP3    H2  958   1.130   1.209   2.957 -0.8842  1.8185 -0.8762
  318TIP3   OH2  959   3.259   5.256   3.369  0.1060 -0.0569  0.4610
  318TIP3    H1  960   3.245   5.256   3.274 -0.4418 -0.4909  0.5345
  318TIP3    H2  961   3.175   5.283   3.405 -0.0424 -1.0338  0.8606
  319TIP3   OH2  962   3.653   2.304   1.194 -0.1722 -0.0011  0.3454
  319TIP3    H1  963   3.610   2.283   1.111  1.1847 -0.4345 -0.2702
  319TIP3    H2  964   3.666   2.399   1.190  2.1432 -0.3171 -1.1081
  320TIP3   OH2  965   3.741   4.004   2.032 -0.0805 -0.1043  0.7104
  320TIP3    H1  966   3.835   4.020   2.034 -0.0842 -0.0238  3.0574
  320TIP3    H2  967   3.729   3.922   2.080 -1.1933 -0.2052  0.2858
  321TIP3   OH2  968  -0.002   0.700   3.799  0.2977 -0.0390  0.6474
  321TIP3    H1  969   0.000   0.794   3.818  3.7767  0.4422 -1.2572
  321TIP3    H2  970   0.048   0.660   3.869  4.0490  0.4611 -1.4600
  322TIP3   OH2  971   2.122   1.556   0.500 -0.1524 -0.1908  0.0522
  322TIP3    H1  972   2.161   1.509   0.427  0.2433 -0.4026  0.3924
  322TIP3    H2  973   2.101   1.643   0.466 -0.7274 -0.5506 -0.5347
  323TIP3   OH2  974   2.539   4.992   1.891  0.4588 -0.2469  0.0825
  323TIP3    H1  975   2.487   4.948   1.823 -0.6560  1.7028 -0.3878
  323TIP3    H2  976   2.502   4.961   1.973 -0.8502  0.3980 -0.2439
  324TIP3   OH2  977   0.502   3.808   3.956 -0.0682 -0.6215  0.6151
  324TIP3    H1  978   0.446   3.885   3.942  1.6444  0.3573 -1.2966
  324TIP3    H2  979   0.494   3.790   4.050 -2.4361  0.3290  0.6817
  325TIP3   OH2  980   0.519   4.423   1.518 -0.1228 -0.0871 -1.1852
  325TIP3    H1  981   0.538   4.506   1.561  1.7091 -1.0104 -0.0607
  325TIP3    H2  982   0.448   4.385   1.569  1.4933 -0.8048  0.6886
  326TIP3   OH2  983   5.055   1.836   0.763  0.2078  0.6351  0.1397
  326TIP3    H1  984   5.105   1.888   0.826  0.2389  0.9819 -0.1719
  326TIP3    H2  985   5.105   1.755   0.755  0.2929  0.6561  0.4372
  327TIP3   OH2  986   0.136   1.900   4.029 -0.5815  0.5347  0.4249
  327TIP3    H1  987   0.229   1.903   4.053 -0.8135  1.8625  1.2499
  327TIP3    H2  988   0.111   1.809   4.046  0.5919  0.1149  0.0450
  328TIP3   OH2  989   4.580   0.134   1.355  0.3864  0.0944 -0.0416
  328TIP3    H1  990   4.609   0.063   1.412  0.1666  0.1458  0.1366
  328TIP3    H2  991   4.646   0.138   1.285  0.1953 -0.5413 -0.2692
  329TIP3   OH2  992   0.041   3.610   4.619  0.4668  0.0152 -0.1998
  329TIP3    H1  993  -0.042   3.642   4.584  0.4812  0.0998 -0.1570
  329TIP3    H2  994   0.104   3.625   4.548  0.6782  1.0149  0.1828
  330TIP3   OH2  995   0.708   2.077   5.111 -0.0892 -0.0050  0.4520
  330TIP3    H1  996   0.626   2.077   5.060 -0.6449  0.2371  1.3239
  330TIP3    H2  997   0.777   2.072   5.045 -0.8382 -2.8142 -0.2376
  331TIP3   OH2  998   3.915   0.178   3.354  0.3576 -0.2211 -0.2364
  331TIP3    H1  999   4.010   0.189   3.350  0.2869  0.2478 -0.6966
  331TIP3    H2 1000   3.882   0.263   3.384  0.1163 -0.5457  0.4532
  332TIP3   OH2 1001   0.862   4.663   0.684  0.2503  0.5214 -0.0230
  332TIP3    H1 1002   0.811   4.602   0.631  0.0731 -0.2449  1.0168
  332TIP3    H2 1003   0.852   4.748   0.639 -1.9599  0.4165  0.1791
  333TIP3   OH2 1004   3.469   1.322   0.201 -0.7685 -0.0968 -0.0242
  333TIP3    H1 1005   3.564   1.332   0.194 -0.6151 -1.1004  0.4353
  333TIP3    H2 1006   3.456   1.273   0.282 -1.6690 -0.0470 -0.1319
  334TIP3   OH2 1007   5.548   3.719   1.136 -0.0556  0.0952 -0.0030
  334TIP3    H1 1008   5.612   3.783   1.108 -0.3643  0.3382 -0.1593
  334TIP3    H2 1009   5.463   3.762   1.124 -0.2823 -0.4328 -0.3562
  335TIP3   OH2 1010   4.010   0.119   2.564  0.1426 -0.1315  0.1891
  335TIP3    H1 1011   4.003   0.052   2.633 -1.7621 -0.2104 -0.0056
  335TIP3    H2 1012   3.944   0.092   2.499 -0.1362  1.5230 -0.2506
  336TIP3   OH2 1013   4.849   1.414   2.422 -0.0992  0.0749 -0.0753
  336TIP3    H1 1014   4.783   1.356   2.383 -2.1099  2.1939 -0.0612
  336TIP3    H2 1015   4.863   1.482   2.356  1.7295 -0.0633  0.1437
  337TIP3   OH2 1016   4.060   3.722   0.468  0.5748 -0.2585 -0.5508
  337TIP3    H1 1017   4.069   3.723   0.563  0.5111 -2.0772 -0.4884
  337TIP3    H2 1018   4.112   3.796   0.438  1.6604 -0.4121  0.8375
  338TIP3   OH2 1019   1.073   5.814   4.565  0.1283  0.4253  0.1368
  338TIP3    H1 1020   1.164   5.821   4.595  0.7058 -0.5382 -1.2957
  338TIP3    H2 1021   1.051   5.722   4.579 -0.7130  0.7033  0.6768
  339TIP3   OH2 1022   3.897   1.327   2.537 -0.0513  0.5742  0.1402
  339TIP3    H1 1023   3.869   1.296   2.623  0.4260  0.8557  0.4016
  339TIP3    H2 1024   3.816   1.358   2.495 -0.4525 -0.5013  0.0787
  340TIP3   OH2 1025   2.544   1.499   4.702  0.6206  0.6943 -0.3751
  340TIP3    H1 1026   2.523   1.521   4.793 -0.2920 -0.5803 -0.2383
  340TIP3    H2 1027   2.482   1.549   4.650  0.5539  0.7552 -0.2377
  341TIP3   OH2 1028   6.236   2.227   3.761  0.1655  0.3803 -0.3612
  341TIP3    H1 1029   6.148   2.210   3.795 -0.4589  2.3826 -0.8190
  341TIP3    H2 1030   6.295   2.198   3.831 -0.9436  1.0071  0.8794
  342TIP3   OH2 1031   2.606   0.159   0.956 -0.5404 -0.5096 -0.4588
  342TIP3    H1 1032   2.595   0.245   0.917  0.5578 -0.6905 -1.2218
  342TIP3    H2 1033   2.586   0.097   0.886 -2.3725 -0.9168  0.3790
  343TIP3   OH2 1034   5.745   5.680   0.737  0.4282  0.4573 -0.1471
  343TIP3    H1 1035   5.722   5.641   0.821  0.0625  2.0764  0.5453
  343TIP3    H2 1036   5.841   5.687   0.740  0.4430  0.2140 -0.0148
  344TIP3   OH2 1037   2.150   3.112   1.871  0.6662 -0.0940  0.4670
  344TIP3    H1 1038   2.115   3.032   1.832 -3.5121  2.3008 -1.4531
  344TIP3    H2 1039   2.193   3.157   1.798  0.4881  0.6138  0.7877
  345TIP3   OH2 1040   1.809   5.002   1.064  0.0693  0.4532 -0.8272
  345TIP3    H1 1041   1.746   5.064   1.101 -0.2419 -0.3349  0.0079
  345TIP3    H2 1042   1.889   5.017   1.114 -0.2428 -0.3517 -0.0446
  346TIP3   OH2 1043   1.491   2.285   3.827  0.0129 -0.6757 -0.0288
  346TIP3    H1 1044   1.516   2.372   3.859  0.0984  0.0809 -2.0188
  346TIP3    H2 1045   1.561   2.227   3.856  1.4332  0.4563 -1.0817
  347TIP3   OH2 1046   4.920   4.757   2.259  0.5437 -0.2392  0.0854
  347TIP3    H1 1047   4.847   4.782   2.202 -1.1995 -1.8766  1.5091
  347TIP3    H2 1048   4.946   4.839   2.301  1.2818  0.8453 -2.3069
  348TIP3   OH2 1049   0.685   4.534   2.975  0.0162 -0.1803 -0.4226
  348TIP3    H1 1050   0.643   4.477   2.911 -1.0456  0.8733 -0.7157
  348TIP3    H2 1051   0.722   4.606   2.922 -1.3985  1.0202  0.1383
  349TIP3   OH2 1052   0.469   1.455   4.866 -0.0624  0.1678 -0.2121
  349TIP3    H1 1053   0.412   1.419   4.798  1.4422  0.4344 -1.6643
  349TIP3    H2 1054   0.530   1.512   4.819 -0.0979  1.8036  1.5956
  350TIP3   OH2 1055   3.568   4.960   1.890  0.4601  0.1368  0.0520
  350TIP3    H1 1056   3.591   4.942   1.799  0.1503  0.7899 -0.1585
  350TIP3    H2 1057   3.597   4.882   1.938  3.9668  1.2204 -0.0297
  351TIP3   OH2 1058   4.806   3.604   1.613  0.4673 -0.0330  0.1894
  351TIP3    H1 1059   4.843   3.679   1.659  0.7360 -0.0062 -0.0677
  351TIP3    H2 1060   4.782   3.638   1.527 -0.5331  0.0450  0.4943
  352TIP3   OH2 1061   2.995   1.992   2.902  0.1105 -0.0523 -0.0684
  352TIP3    H1 1062   3.079   1.954   2.877  0.4004  0.5512 -0.0298
  352TIP3    H2 1063   2.936   1.917   2.908  0.5852 -0.4550 -0.3324
  353TIP3   OH2 1064   0.938   0.366   0.545 -0.5293 -0.2917 -0.1135
  353TIP3    H1 1065   0.891   0.394   0.624 -0.2787  0.8410 -0.3468
  353TIP3    H2 1066   0.905   0.424   0.476  0.2683 -0.3381 -0.5484
  354TIP3   OH2 1067   4.499   5.231   2.690 -0.3918 -0.1857  0.4100
  354TIP3    H1 1068   4.498   5.136   2.701  0.4226 -0.3145 -0.4728
  354TIP3    H2 1069   4.574   5.247   2.633 -1.7241  0.7866 -1.1405
  355TIP3   OH2 1070   2.791   1.249   2.024 -0.4090  0.5522 -0.0176
  355TIP3    H1 1071   2.867   1.296   1.990  0.5800 -0.9017  0.0726
  355TIP3    H2 1072   2.808   1.157   2.003 -2.1669  0.1798 -0.0094
  356TIP3   OH2 1073   4.033   5.243   3.678  0.2852 -0.1464 -0.4147
  356TIP3    H1 1074   4.090   5.166   3.683  0.6028 -0.0670 -2.0500
  356TIP3    H2 1075   4.040   5.272   3.587 -1.2392  0.7495 -0.2894
  357TIP3   OH2 1076   5.713   5.110   2.121  0.2738  0.2800 -0.6212
  357TIP3    H1 1077   5.672   5.096   2.207 -0.4537  0.1372 -0.9784
  357TIP3    H2 1078   5.730   5.204   2.117 -1.1120  0.5455 -0.9218
  358TIP3   OH2 1079   2.731   0.121   2.881  0.2157  0.5539 -0.2778
  358TIP3    H1 1080   2.783   0.041   2.866  0.2746  0.6811 -0.7697
  358TIP3    H2 1081   2.697   0.111   2.970  1.1015  0.4722  0.0707
  359TIP3   OH2 1082   4.030   4.938   3.292  0.0391 -0.6720  0.0180
  359TIP3    H1 1083   3.966   4.914   3.360 -1.2868  0.2099 -0.8668
  359TIP3    H2 1084   3.977   4.975   3.222  1.7084  2.2927  0.1685
  360TIP3   OH2 1085   4.112   2.372   3.769  0.2245  0.1403 -0.1145
  360TIP3    H1 1086   4.175   2.323   3.716 -0.1890  0.4798 -0.9392
  360TIP3    H2 1087   4.033   2.376   3.714 -1.1457 -1.7480  1.5402
  361TIP3   OH2 1088   0.411   4.209   3.268  0.0071 -0.6235 -0.0518
  361TIP3    H1 1089   0.446   4.152   3.198  1.5338  0.5136 -0.2743
  361TIP3    H2 1090   0.424   4.298   3.235 -2.2412 -0.1037  0.3381
  362TIP3   OH2 1091   3.445   3.413   0.524  0.4919  0.1901 -0.4524
  362TIP3    H1 1092   3.409   3.367   0.599  0.8655  0.4510 -0.1114
  362TIP3    H2 1093   3.515   3.356   0.492  0.6599  0.3143 -0.3030
  363TIP3   OH2 1094   1.152   1.298   2.545  0.0152 -0.6329  0.0343
  363TIP3    H1 1095   1.153   1.319   2.451 -0.1737 -2.2273 -0.3520
  363TIP3    H2 1096   1.162   1.203   2.548  0.2695 -0.5742  1.6546
  364TIP3   OH2 1097   5.579   1.977   4.434 -0.1752  0.1634  0.0633
  364TIP3    H1 1098   5.487   1.984   4.405  0.1209  0.5354 -0.8349
  364TIP3    H2 1099   5.577   2.001   4.526 -0.6263  2.8490 -0.5523
  365TIP3   OH2 1100   1.869   1.766   0.430 -0.2363  0.1170 -0.0816
  365TIP3    H1 1101   1.876   1.860   0.417  1.8136  0.1078  0.6155
  365TIP3    H2 1102   1.876   1.754   0.525  1.0326 -0.7868 -0.2508
  366TIP3   OH2 1103   3.915   2.419   1.512  0.1770  0.3320  0.3776
  366TIP3    H1 1104   3.989   2.430   1.453  0.9807 -0.3851  1.2095
  366TIP3    H2 1105   3.874   2.336   1.485 -1.2883  1.4530 -1.0540
  367TIP3   OH2 1106   3.616   2.679   2.650  0.4149 -0.1000 -0.3930
  367TIP3    H1 1107   3.646   2.598   2.690 -0.1882  0.3257  0.9815
  367TIP3    H2 1108   3.626   2.745   2.719 -2.4168  0.3068 -0.2706
  368TIP3   OH2 1109   3.796   1.422   3.516  0.1819  0.0128 -0.2878
  368TIP3    H1 1110   3.729   1.358   3.540 -0.4904  0.6935 -0.2933
  368TIP3    H2 1111   3.764   1.460   3.435  0.0424  1.0764  0.2457
  369TIP3   OH2 1112   5.383   2.729   1.341 -0.2954 -0.3646  0.2644
  369TIP3    H1 1113   5.296   2.762   1.362 -0.4879 -0.8051  0.1811
  369TIP3    H2 1114   5.434   2.807   1.322 -0.7485 -0.1177  0.0306
  370TIP3   OH2 1115   3.121   3.565   5.062  0.1617  0.3732  0.5483
  370TIP3    H1 1116   3.065   3.552   5.139 -0.0232 -1.0703  0.2115
  370TIP3    H2 1117   3.059   3.583   4.991  0.2356  0.4435  0.5023
  371TIP3   OH2 1118   4.193   2.024   2.809 -0.4813  0.2764  0.2529
  371TIP3    H1 1119   4.246   2.054   2.883  2.3886 -0.6276 -1.2779
  371TIP3    H2 1120   4.104   2.016   2.845  0.4316  1.4875  3.1022
  372TIP3   OH2 1121   2.163   1.348   2.663 -0.6012 -0.1190 -0.5914
  372TIP3    H1 1122   2.078   1.309   2.681 -0.6630 -0.5248 -1.6668
  372TIP3    H2 1123   2.197   1.375   2.749 -1.5572 -0.4643 -0.0968
  373TIP3   OH2 1124   6.235   3.203   0.963  0.1057 -0.2211  0.2241
  373TIP3    H1 1125   6.238   3.108   0.965  1.3190 -0.1859  0.4864
  373TIP3    H2 1126   6.228   3.229   1.054  0.6863 -0.0388  0.2200
  374TIP3   OH2 1127   5.711   3.099   4.595  0.0693  0.2953  0.1662
  374TIP3    H1 1128   5.653   3.164   4.634  0.1171 -0.6090  1.8587
  374TIP3    H2 1129   5.669   3.073   4.514 -1.6790  0.0186  1.1150
  375TIP3   OH2 1130   5.159   0.886   3.904  0.4937  0.4280 -0.3780
  375TIP3    H1 1131   5.120   0.832   3.972  0.6777 -1.4299 -1.6510
  375TIP3    H2 1132   5.253   0.881   3.920  0.4609  1.3843  0.1887
  376TIP3   OH2 1133   4.663   3.186   2.576  0.4323 -0.1017 -0.3090
  376TIP3    H1 1134   4.660   3.243   2.499 -0.4923  1.9529  1.1649
  376TIP3    H2 1135   4.743   3.211   2.622 -0.3636  0.6228  0.7433
  377TIP3   OH2 1136   2.797   4.459   2.746  0.7069  0.1430  0.5549
  377TIP3    H1 1137   2.753   4.378   2.722  0.0455  0.2994  1.2081
  377TIP3    H2 1138   2.882   4.454   2.702  0.0651 -0.1776 -0.7154
  378TIP3   OH2 1139   5.483   2.221   4.195 -0.0020 -0.1772  0.0324
  378TIP3    H1 1140   5.437   2.159   4.251 -1.5262  1.0010  0.1426
  378TIP3    H2 1141   5.518   2.287   4.254 -2.5741  1.6916 -0.3584
  379TIP3   OH2 1142   3.400   2.452   3.032  0.2017 -0.4784  0.5216
  379TIP3    H1 1143   3.328   2.514   3.045  1.2711  0.6199  1.4279
  379TIP3    H2 1144   3.381   2.410   2.948 -1.8718 -0.7563  1.0682
  380TIP3   OH2 1145   2.407   0.313   1.316  0.1579  0.2306  0.5552
  380TIP3    H1 1146   2.465   0.378   1.277  0.3058  0.6612  1.4622
  380TIP3    H2 1147   2.443   0.229   1.289  1.5966  0.4780  1.6307
  381TIP3   OH2 1148   6.059   4.390   2.359  0.2701 -0.3659 -0.2881
  381TIP3    H1 1149   6.139   4.430   2.393 -0.6132  0.4411  0.9277
  381TIP3    H2 1150   6.078   4.296   2.354  1.2487 -0.1890  0.0843
  382TIP3   OH2 1151   3.676   4.196   4.382 -0.6860 -0.4322 -0.1988
  382TIP3    H1 1152   3.731   4.187   4.304  1.1861  0.0990  1.0079
  382TIP3    H2 1153   3.626   4.277   4.367 -1.3333 -1.0189 -1.3866
  383TIP3   OH2 1154   5.978   4.334   4.961  0.0244 -0.4131 -0.6221
  383TIP3    H1 1155   5.951   4.421   4.933 -2.1608 -0.1871  1.7707
  383TIP3    H2 1156   6.055   4.349   5.016 -0.7378  0.1514  0.3303
  384TIP3   OH2 1157   0.958   2.150   3.964  0.2466  0.4141  0.2187
  384TIP3    H1 1158   0.997   2.071   4.001 -0.3364  0.4806  1.0064
  384TIP3    H2 1159   0.896   2.179   4.031 -1.4067  0.1233 -1.1234
  385TIP3   OH2 1160   1.882   0.260   2.903 -0.1801 -0.1014  0.4277
  385TIP3    H1 1161   1.977   0.262   2.893 -0.1770  1.2292  0.5525
  385TIP3    H2 1162   1.868   0.221   2.989  0.1858 -1.4243 -0.0814
  386TIP3   OH2 1163   1.550   2.784   0.773  0.2927  0.3707 -0.3159
  386TIP3    H1 1164   1.559   2.867   0.726  1.1756 -0.4037 -1.5886
  386TIP3    H2 1165   1.503   2.727   0.713  1.0123 -0.5020 -0.0789
  387TIP3   OH2 1166   2.581   4.358   1.488  0.1800 -0.0772 -0.3854
  387TIP3    H1 1167   2.488   4.352   1.509 -0.1459 -1.4637 -2.0069
  387TIP3    H2 1168   2.583   4.395   1.400  1.0506 -1.5571 -1.0272
  388TIP3   OH2 1169   4.527   4.430   3.164  0.0473 -0.7202  0.3883
  388TIP3    H1 1170   4.602   4.372   3.151  0.6900  0.6678 -3.0082
  388TIP3    H2 1171   4.451   4.375   3.143  0.4215 -1.1537  0.1399
  389TIP3   OH2 1172   0.923   5.772   3.179 -0.6479 -0.3743 -0.1293
  389TIP3    H1 1173   0.932   5.708   3.109 -1.2252 -0.9749  0.3402
  389TIP3    H2 1174   1.010   5.779   3.217 -0.2124  0.3239 -1.2140
  390TIP3   OH2 1175   1.710  -0.009   5.162  0.3019  0.3241  0.1916
  390TIP3    H1 1176   1.745   0.080   5.161 -0.7448  0.7439 -0.5735
  390TIP3    H2 1177   1.687  -0.027   5.071 -1.9806  0.3201  0.6990
  391TIP3   OH2 1178   3.126   2.862   4.769  0.0621  0.0458 -0.0093
  391TIP3    H1 1179   3.213   2.893   4.796 -0.1650  2.0684 -1.3882
  391TIP3    H2 1180   3.066   2.909   4.826 -0.1945 -0.4469  0.1342
  392TIP3   OH2 1181   5.123   1.845   1.605 -0.4644  0.1421 -0.6144
  392TIP3    H1 1182   5.164   1.930   1.623  0.3035 -0.1527 -0.9351
  392TIP3    H2 1183   5.048   1.842   1.665  0.2833  0.4747  0.3658
  393TIP3   OH2 1184   1.646   4.118   3.907  0.2994  0.7761 -0.5430
  393TIP3    H1 1185   1.649   4.211   3.929 -1.0664  0.6515  0.2959
  393TIP3    H2 1186   1.565   4.086   3.949  0.3389 -0.6119 -1.4601
  394TIP3   OH2 1187   0.694   4.279   0.581 -0.1556 -0.1378 -0.4645
  394TIP3    H1 1188   0.653   4.199   0.548 -1.9004  0.4630  0.1420
  394TIP3    H2 1189   0.706   4.333   0.503  1.3614 -1.0732 -0.9361
  395TIP3   OH2 1190   5.778   1.755   3.893 -0.0894  0.6377 -0.9027
  395TIP3    H1 1191   5.701   1.805   3.866 -2.1539 -1.1139  1.3186
  395TIP3    H2 1192   5.810   1.801   3.971  0.1309  0.4497 -0.8808
  396TIP3   OH2 1193   4.810   5.870   0.612 -0.5224 -0.4254  0.1351
  396TIP3    H1 1194   4.719   5.891   0.629 -0.5528 -0.6113  0.2007
  396TIP3    H2 1195   4.810   5.777   0.589 -0.3638 -0.4020  0.0318
  397TIP3   OH2 1196   0.734   4.307   1.945 -0.2059  0.2716 -0.2720
  397TIP3    H1 1197   0.744   4.401   1.937 -0.2902  0.2958 -0.0975
  397TIP3    H2 1198   0.732   4.275   1.855  1.1699  0.2969 -0.3342
  398TIP3   OH2 1199   5.933   4.990   4.340  0.2738  0.0293  0.2910
  398TIP3    H1 1200   5.886   4.942   4.272 -2.7864 -0.4459  2.5394
  398TIP3    H2 1201   5.987   4.924   4.383 -0.9797 -0.6339  0.9088
  399TIP3   OH2 1202   1.997   5.588   1.124  0.2069  0.5432 -0.5582
  399TIP3    H1 1203   2.069   5.650   1.120  0.0036  0.7398 -1.2862
  399TIP3    H2 1204   1.962   5.598   1.212  1.7372 -0.3384  0.1978
  400TIP3   OH2 1205   2.762   5.400   3.592  0.2560 -0.0350  0.2077
  400TIP3    H1 1206   2.671   5.409   3.563  0.1659 -1.2944  0.0220
  400TIP3    H2 1207   2.786   5.487   3.622 -0.6847  0.5735 -0.6924
  401TIP3   OH2 1208   5.386   1.974   2.400  0.0309  0.7787  0.6071
  401TIP3    H1 1209   5.460   2.025   2.366  0.4443 -0.1545  0.0702
  401TIP3    H2 1210   5.342   2.033   2.461  0.2513  1.9185 -0.3003
  402TIP3   OH2 1211   2.125   1.637   5.117  0.4408 -0.2475 -0.1753
  402TIP3    H1 1212   2.032   1.649   5.136  0.4857 -1.2128  0.7134
  402TIP3    H2 1213   2.162   1.725   5.127 -0.0136 -0.2118  1.6787
  403TIP3   OH2 1214   1.972   5.976   0.232  0.7093  0.1199 -0.4524
  403TIP3    H1 1215   2.002   5.895   0.271  1.2646 -0.2354 -1.5902
  403TIP3    H2 1216   2.016   6.045   0.282 -0.8124 -0.1805  1.4242
  404TIP3   OH2 1217   0.330   1.136   0.144  0.2277  0.1161  0.2658
  404TIP3    H1 1218   0.272   1.153   0.069  0.3262  1.3414  0.4481
  404TIP3    H2 1219   0.406   1.192   0.128  0.7412 -0.4390  0.7376
  405TIP3   OH2 1220   0.105   1.240   1.314 -0.2962 -0.2239 -0.2845
  405TIP3    H1 1221   0.138   1.212   1.229 -2.1146  0.2655 -1.2062
  405TIP3    H2 1222   0.091   1.159   1.363  0.1288 -0.5490 -0.6997
  406TIP3   OH2 1223   2.866   0.700   3.800 -0.0010  0.2008 -0.5298
  406TIP3    H1 1224   2.783   0.749   3.805 -0.8108 -1.2302  1.0431
  406TIP3    H2 1225   2.894   0.690   3.891  1.5216 -0.0142 -0.9929
  407TIP3   OH2 1226   0.592   1.656   1.936 -0.0104  1.2534 -0.3130
  407TIP3    H1 1227   0.525   1.644   1.868 -1.6528  1.9228  1.0995
  407TIP3    H2 1228   0.573   1.743   1.972 -0.9876 -0.0950  2.7930
  408TIP3   OH2 1229   1.994   2.326   4.339  0.5314  0.3213 -0.0596
  408TIP3    H1 1230   2.069   2.314   4.398  1.2964  0.2642 -1.0031
  408TIP3    H2 1231   1.929   2.373   4.391  1.7619  1.5911  0.3957
  409TIP3   OH2 1232   1.806   0.611   4.779 -0.1305  0.0843 -0.2412
  409TIP3    H1 1233   1.775   0.623   4.689  0.6431  1.8038 -0.3042
  409TIP3    H2 1234   1.894   0.574   4.769 -1.0636 -2.4233 -0.0893
  410TIP3   OH2 1235   4.666   5.577   4.068 -0.1668  0.1963 -0.4733
  410TIP3    H1 1236   4.606   5.595   3.995 -0.7360 -0.3537 -0.1541
  410TIP3    H2 1237   4.610   5.539   4.135  0.4451  0.2406  0.0641
  411TIP3   OH2 1238   3.005   0.591   0.540 -0.3154 -0.1080  0.0564
  411TIP3    H1 1239   3.008   0.496   0.530  1.7985 -0.2107  1.2067
  411TIP3    H2 1240   3.019   0.605   0.634 -0.5050  1.3448 -0.1202
  412TIP3   OH2 1241   3.940   2.344   1.194  0.1792  0.2526 -0.2089
  412TIP3    H1 1242   3.869   2.334   1.130  1.4531 -1.6268 -1.4189
  412TIP3    H2 1243   4.020   2.340   1.142  1.2338  1.6848  1.2027
  413TIP3   OH2 1244   0.923   3.180   3.214  0.0881  0.1238  0.3939
  413TIP3    H1 1245   0.881   3.132   3.143  1.6026 -1.5266  0.5447
  413TIP3    H2 1246   0.980   3.116   3.257 -0.9146  0.9824  3.2559
  414TIP3   OH2 1247   0.663   4.854   3.807  0.0204 -0.2670  0.2603
  414TIP3    H1 1248   0.734   4.818   3.754 -0.1664  0.4443 -0.4843
  414TIP3    H2 1249   0.641   4.937   3.765 -0.0264  0.3980  1.5355
  415TIP3   OH2 1250   2.212   0.830   0.724 -0.6091 -0.4335  0.2715
  415TIP3    H1 1251   2.154   0.902   0.750 -0.1041 -0.5109  1.7095
  415TIP3    H2 1252   2.275   0.823   0.796  0.7120 -0.8697 -0.8882
  416TIP3   OH2 1253   4.396   1.773   0.779  0.4540  0.1523 -0.3595
  416TIP3    H1 1254   4.426   1.852   0.824 -1.1677 -0.0973  1.3008
  416TIP3    H2 1255   4.369   1.714   0.850 -0.6662 -0.9296 -1.6223
  417TIP3   OH2 1256   5.532   4.728   3.590  0.2882 -0.3008 -0.0764
  417TIP3    H1 1257   5.573   4.752   3.507  1.0318 -0.3215  0.2709
  417TIP3    H2 1258   5.595   4.669   3.632  0.3060  0.3529  0.8608
  418TIP3   OH2 1259   6.190   0.191   1.956  0.3995  0.1122 -0.2727
  418TIP3    H1 1260   6.097   0.185   1.932  0.3795  0.3642 -0.2555
  418TIP3    H2 1261   6.237   0.164   1.878  0.3207  0.3815 -0.4132
  419TIP3   OH2 1262   3.333   1.559   0.218 -0.6059  0.4185 -0.5606
  419TIP3    H1 1263   3.380   1.477   0.203 -0.4438  0.5071 -0.5312
  419TIP3    H2 1264   3.241   1.532   0.221 -0.4463 -0.0406  1.3592
  420TIP3   OH2 1265   2.733   4.847   4.290  0.1408  0.3189  0.0907
  420TIP3    H1 1266   2.715   4.800   4.372  0.3187  0.7033  0.3535
  420TIP3    H2 1267   2.760   4.935   4.318  2.1663 -0.1371 -0.2949
  421TIP3   OH2 1268   1.089   2.885   4.553  0.1482  0.1411  0.0002
  421TIP3    H1 1269   1.086   2.912   4.644  0.0156 -2.1085  0.7206
  421TIP3    H2 1270   0.998   2.865   4.531 -0.1880  2.6694 -1.3612
  422TIP3   OH2 1271   1.329   3.702   2.082  0.4806  0.4172  0.4869
  422TIP3    H1 1272   1.386   3.770   2.045 -0.3257 -0.5306 -2.8509
  422TIP3    H2 1273   1.361   3.620   2.046 -1.2183 -0.4788  0.8816
  423TIP3   OH2 1274   3.115   0.485   3.044 -0.0587 -0.3782 -0.0136
  423TIP3    H1 1275   3.065   0.472   3.124 -0.8229  0.7038 -0.2989
  423TIP3    H2 1276   3.062   0.444   2.976  0.5718 -1.2653  0.0084
  424TIP3   OH2 1277   4.067   3.188   3.142  0.3458 -0.6184  0.0700
  424TIP3    H1 1278   4.031   3.190   3.053  1.4713 -0.1129 -0.3937
  424TIP3    H2 1279   3.992   3.168   3.198 -0.5530 -0.0640 -0.9037
  425TIP3   OH2 1280   2.259   3.136   2.823 -0.2159  0.0923 -0.0996
  425TIP3    H1 1281   2.219   3.174   2.745 -0.6466  1.4224  0.7237
  425TIP3    H2 1282   2.185   3.111   2.878  0.0794 -1.1369 -0.2488
  426TIP3   OH2 1283   4.147   5.634   2.235  0.0968 -0.3874 -0.0810
  426TIP3    H1 1284   4.075   5.648   2.296 -0.1531  0.8633 -0.6142
  426TIP3    H2 1285   4.150   5.539   2.222 -0.0168 -0.6537  1.6240
  427TIP3   OH2 1286   3.656   4.005   1.351 -0.0857 -0.2903 -0.5291
  427TIP3    H1 1287   3.721   3.959   1.404 -0.3518 -0.8492 -0.6869
  427TIP3    H2 1288   3.584   3.942   1.340 -0.1332 -0.1053 -1.3659
  428TIP3   OH2 1289   2.253   0.400   1.510  0.7468 -0.4432 -0.7141
  428TIP3    H1 1290   2.306   0.384   1.431  0.9997 -1.1226 -0.4067
  428TIP3    H2 1291   2.302   0.358   1.581 -0.1172 -0.9174 -0.3968
  429TIP3   OH2 1292   2.271   3.273   4.734 -0.0570 -0.4444  0.1265
  429TIP3    H1 1293   2.186   3.262   4.776 -1.5008  1.9275 -1.8946
  429TIP3    H2 1294   2.250   3.294   4.643  2.6174  1.7565 -0.1009
  430TIP3   OH2 1295   6.143   3.540   0.917  0.2352  0.1193  0.0441
  430TIP3    H1 1296   6.081   3.526   0.989  0.0816 -0.2030 -0.1459
  430TIP3    H2 1297   6.116   3.477   0.850 -1.3245  2.1923 -1.4081
  431TIP3   OH2 1298   0.214   3.131   1.585  0.2108  0.3118  0.7674
  431TIP3    H1 1299   0.216   3.208   1.642  1.1295  3.8507 -3.4596
  431TIP3    H2 1300   0.121   3.122   1.561 -0.4211 -2.0693  3.5262
  432TIP3   OH2 1301   0.151   5.720   3.862 -0.5863 -0.4045 -0.2376
  432TIP3    H1 1302   0.208   5.783   3.906 -0.3946 -0.7881  0.0712
  432TIP3    H2 1303   0.062   5.749   3.883 -0.5002 -0.0422 -0.3794
  433TIP3   OH2 1304   5.363   3.210   4.265 -0.6094 -0.3105 -0.0266
  433TIP3    H1 1305   5.287   3.174   4.219  0.4518 -1.1061 -1.2348
  433TIP3    H2 1306   5.407   3.265   4.200  1.1090 -1.7256 -0.1324
  434TIP3   OH2 1307   4.173   1.935   1.980 -0.3551 -0.2661  0.2242
  434TIP3    H1 1308   4.234   1.898   2.044  0.1282  2.4276  1.4465
  434TIP3    H2 1309   4.228   1.961   1.906 -0.6357 -1.4728 -0.4407
  435TIP3   OH2 1310   3.358   2.661   2.236  0.2998 -0.2340  0.2321
  435TIP3    H1 1311   3.301   2.584   2.231  0.5559 -0.5023  1.1671
  435TIP3    H2 1312   3.340   2.698   2.323  3.1470 -1.6446  1.5598
  436TIP3   OH2 1313   2.681   4.973   1.407  0.4141  0.7624  0.3285
  436TIP3    H1 1314   2.594   4.995   1.440  0.8135  3.3093 -0.1143
  436TIP3    H2 1315   2.697   5.037   1.337  1.3089 -1.7563 -1.9458
  437TIP3   OH2 1316   0.881   3.411   2.302 -0.0240  0.2111 -0.5911
  437TIP3    H1 1317   0.845   3.494   2.270  1.1397  0.3996 -1.4759
  437TIP3    H2 1318   0.918   3.432   2.387  1.4978  0.9574 -1.3999
  438TIP3   OH2 1319   2.716   3.934   5.095  0.0823  0.2567 -0.7350
  438TIP3    H1 1320   2.650   3.877   5.134  0.7538  0.4334  0.7117
  438TIP3    H2 1321   2.673   3.971   5.018 -1.1961 -0.3126 -0.3249
  439TIP3   OH2 1322   5.244   4.360   5.036  0.1926  0.5063  0.2868
  439TIP3    H1 1323   5.304   4.286   5.025 -0.7686 -0.5039  1.4857
  439TIP3    H2 1324   5.162   4.320   5.065 -0.5421  2.0054  0.3736
  440TIP3   OH2 1325   4.082   1.623   2.178 -0.4173  0.8559 -0.6101
  440TIP3    H1 1326   4.142   1.687   2.217  0.7076  0.8003 -2.1712
  440TIP3    H2 1327   4.001   1.672   2.166 -0.9924  0.7291  2.2160
  441TIP3   OH2 1328   3.825   5.775   2.108 -1.4989 -0.2383  0.2400
  441TIP3    H1 1329   3.738   5.810   2.090 -2.1877 -0.3547  2.9239
  441TIP3    H2 1330   3.810   5.703   2.170  0.4185 -1.1742 -0.2933
  442TIP3   OH2 1331   4.858   5.402   0.298 -0.4197 -0.8731  0.4562
  442TIP3    H1 1332   4.846   5.342   0.372 -0.0993 -0.4778  0.8434
  442TIP3    H2 1333   4.953   5.414   0.293 -0.4802 -0.3760  0.4146
  443TIP3   OH2 1334   2.676   1.345   0.669  0.3583 -0.1079 -0.4450
  443TIP3    H1 1335   2.643   1.374   0.584  2.0412  0.4239 -0.9652
  443TIP3    H2 1336   2.600   1.308   0.714 -0.2116 -2.1817 -2.9255
  444TIP3   OH2 1337   3.862   0.933   3.304 -0.2854 -0.5360 -0.2061
  444TIP3    H1 1338   3.949   0.971   3.295 -0.7204  0.3526 -0.7739
  444TIP3    H2 1339   3.802   1.002   3.275 -1.2932 -0.4825  1.8364
  445TIP3   OH2 1340   0.541   2.560   1.479 -0.3356  0.1190 -0.0953
  445TIP3    H1 1341   0.632   2.570   1.451  1.4417 -2.9763  3.6446
  445TIP3    H2 1342   0.526   2.633   1.538 -0.3483  0.6537 -0.7447
  446TIP3   OH2 1343   2.443   0.207   4.080 -0.1903  0.4764  0.2245
  446TIP3    H1 1344   2.458   0.202   4.175  2.2234  0.8585 -0.0904
  446TIP3    H2 1345   2.481   0.290   4.053  2.0027 -0.9505 -1.4880
  447TIP3   OH2 1346   2.042   5.303   5.015  0.4405 -0.0506  0.4617
  447TIP3    H1 1347   2.025   5.308   5.109 -1.3493 -0.2237  0.1724
  447TIP3    H2 1348   2.089   5.384   4.995 -0.0252  0.4499  1.3318
  448TIP3   OH2 1349   4.390   1.462   0.376 -0.5886  0.0681  0.5133
  448TIP3    H1 1350   4.412   1.539   0.324 -0.0905  0.3709  1.1537
  448TIP3    H2 1351   4.469   1.408   0.373  0.2508  1.0716  2.6707
  449TIP3   OH2 1352   2.836   2.648   3.439 -0.4596  0.3456 -0.4307
  449TIP3    H1 1353   2.849   2.628   3.346  2.9436  0.5102 -0.1066
  449TIP3    H2 1354   2.846   2.743   3.444 -0.9551  0.3749  0.0734
  450TIP3   OH2 1355   5.775   4.047   0.257  0.8119  0.1361  0.3564
  450TIP3    H1 1356   5.817   3.974   0.302 -1.2804 -0.7867  0.9529
  450TIP3    H2 1357   5.709   4.078   0.318  0.7356  1.6488 -0.4486
  451TIP3   OH2 1358   3.964   0.656   3.865 -0.3489 -0.1420 -0.4928
  451TIP3    H1 1359   4.037   0.658   3.803  0.2863  0.4722  0.2502
  451TIP3    H2 1360   4.004   0.627   3.947 -1.0643 -0.3745 -0.2199
  452TIP3   OH2 1361   6.002   1.954   3.656 -0.2539 -0.4598 -0.7457
  452TIP3    H1 1362   6.003   2.047   3.680  1.6977 -0.8570  1.0241
  452TIP3    H2 1363   5.996   1.954   3.561 -1.7121  1.4174 -0.7311
  453TIP3   OH2 1364   0.283   1.161   1.921  0.4262  0.5910  0.0864
  453TIP3    H1 1365   0.348   1.096   1.896 -1.6904 -1.5638 -0.2370
  453TIP3    H2 1366   0.245   1.128   2.003  0.3189  2.2481  0.7522
  454TIP3   OH2 1367   2.218   1.255   2.274  0.5556  0.8273 -0.2916
  454TIP3    H1 1368   2.146   1.303   2.314  0.3571 -0.7250  1.3121
  454TIP3    H2 1369   2.189   1.240   2.184 -0.5147  1.4007 -0.0615
  455TIP3   OH2 1370   1.766   4.780   4.320  0.4531  0.2490  0.0949
  455TIP3    H1 1371   1.813   4.728   4.255  0.4995  0.6581 -0.2026
  455TIP3    H2 1372   1.677   4.785   4.287 -0.4915 -2.6469  1.8988
  456TIP3   OH2 1373   2.272   2.184   0.564 -0.2217  0.6931  0.3224
  456TIP3    H1 1374   2.204   2.199   0.498  0.2644  2.8932  0.2709
  456TIP3    H2 1375   2.347   2.152   0.514  0.1052  2.2366 -0.2139
  457TIP3   OH2 1376   3.647   1.658   4.481  0.0401 -0.1815  0.4262
  457TIP3    H1 1377   3.625   1.566   4.472 -0.6092 -0.0228  0.3222
  457TIP3    H2 1378   3.724   1.670   4.425  1.3290 -1.0618  1.9437
  458TIP3   OH2 1379   1.051   2.073   2.624  0.0436  0.0906 -0.0131
  458TIP3    H1 1380   0.983   2.067   2.556  0.7289 -1.1336 -0.6179
  458TIP3    H2 1381   1.125   2.114   2.579 -0.3772  1.7643  0.7427
  459TIP3   OH2 1382   0.945   1.396   2.716  0.0516 -0.3667  0.2331
  459TIP3    H1 1383   0.908   1.335   2.652  0.0176  0.6855 -0.7963
  459TIP3    H2 1384   1.039   1.394   2.699  0.1248 -0.6648  0.6782
  460TIP3   OH2 1385   3.475   1.958   3.222  0.6817 -0.4756  0.0319
  460TIP3    H1 1386   3.482   2.052   3.238 -0.5625  0.2622 -2.9628
  460TIP3    H2 1387   3.385   1.947   3.189  1.5277 -2.2795 -1.8707
  461TIP3   OH2 1388   0.494   5.461   0.442  0.3563  0.1944 -0.0822
  461TIP3    H1 1389   0.453   5.375   0.444 -0.3569  0.5406  0.2388
  461TIP3    H2 1390   0.585   5.444   0.466  0.3578 -0.5400 -0.5569
  462TIP3   OH2 1391   1.465   5.764   0.269 -0.3753  0.1674 -0.2117
  462TIP3    H1 1392   1.442   5.842   0.320 -0.9542  0.1753 -0.4763
  462TIP3    H2 1393   1.524   5.796   0.201 -1.6086  0.6243 -1.1101
  463TIP3   OH2 1394   1.319   0.376   1.592  0.6704  0.4850  0.3961
  463TIP3    H1 1395   1.354   0.463   1.613  0.7937  1.1873 -2.3716
  463TIP3    H2 1396   1.359   0.354   1.508 -2.4057 -0.4731 -0.9426
  464TIP3   OH2 1397   3.886   5.385   0.213  0.1864 -0.4107  1.2925
  464TIP3    H1 1398   3.956   5.440   0.248 -0.3442  1.3592 -0.2401
  464TIP3    H2 1399   3.828   5.370   0.287  0.8575  0.2814  1.9846
  465TIP3   OH2 1400   0.015   4.548   0.678  0.4523 -0.0476  0.3768
  465TIP3    H1 1401  -0.008   4.545   0.771  1.4549  3.7626  0.9165
  465TIP3    H2 1402   0.108   4.572   0.678  0.2241  0.9919 -1.5977
  466TIP3   OH2 1403   4.811   0.828   4.509 -0.4019  0.2706 -0.1533
  466TIP3    H1 1404   4.790   0.880   4.431  0.9812  0.0486 -0.6940
  466TIP3    H2 1405   4.821   0.893   4.579  2.0075  0.8531 -0.9758
  467TIP3   OH2 1406   5.544   2.197   0.935 -0.0833 -0.0348 -0.0445
  467TIP3    H1 1407   5.603   2.175   0.863  1.1504 -1.8461  1.4374
  467TIP3    H2 1408   5.505   2.114   0.962 -1.1678  0.7269  0.8490
  468TIP3   OH2 1409   2.552   3.595   4.916 -0.5747  0.4286 -0.5243
  468TIP3    H1 1410   2.611   3.521   4.902  0.7876  1.5060 -0.6138
  468TIP3    H2 1411   2.542   3.635   4.830 -2.5415 -0.5069 -0.7867
  469TIP3   OH2 1412   6.187   3.674   2.490  0.6800 -0.2624  0.0142
  469TIP3    H1 1413   6.279   3.654   2.507  0.2287 -0.6598  2.2872
  469TIP3    H2 1414   6.141   3.591   2.504 -0.3700  0.6195  2.2958
  470TIP3   OH2 1415   2.793   4.938   1.777 -0.2978 -0.5980 -0.7531
  470TIP3    H1 1416   2.810   4.853   1.818 -1.1728 -0.0697  0.7884
  470TIP3    H2 1417   2.715   4.972   1.822  0.7619  1.5813 -0.4131
  471TIP3   OH2 1418   5.459   5.077   0.476 -0.2296  0.1977 -0.1255
  471TIP3    H1 1419   5.468   5.131   0.554  1.2631  0.6609 -0.5786
  471TIP3    H2 1420   5.398   5.008   0.500  1.9327 -1.0279  2.1950
  472TIP3   OH2 1421   3.767   3.158   4.129 -0.2908 -0.4944  0.0245
  472TIP3    H1 1422   3.835   3.168   4.196 -1.9044 -1.4072  1.9146
  472TIP3    H2 1423   3.693   3.209   4.163 -0.5482  0.6358 -2.0712
  473TIP3   OH2 1424   3.431   2.843   0.615 -0.0152 -0.2451  0.5249
  473TIP3    H1 1425   3.515   2.873   0.580  1.1339 -1.7176  1.8750
  473TIP3    H2 1426   3.453   2.803   0.699 -2.3379  1.0301  1.8441
  474TIP3   OH2 1427   2.950   0.766   4.438 -0.2758  0.2025  0.0315
  474TIP3    H1 1428   2.967   0.861   4.441  0.8335  0.0307 -0.5079
  474TIP3    H2 1429   3.026   0.727   4.480 -0.0559 -0.5208 -1.0248
  475TIP3   OH2 1430   5.792   2.210   0.629 -0.5457  0.4374  0.4928
  475TIP3    H1 1431   5.796   2.152   0.705 -2.4864 -0.1292  0.2217
  475TIP3    H2 1432   5.735   2.164   0.567 -4.4794  3.6885  1.2967
  476TIP3   OH2 1433   3.309   0.810   2.583 -0.2716  0.7920 -0.1649
  476TIP3    H1 1434   3.289   0.851   2.498 -2.6430  1.7041  0.7584
  476TIP3    H2 1435   3.376   0.867   2.621  3.3417 -1.3821 -2.6327
  477TIP3   OH2 1436   0.231   1.552   0.119 -0.4975 -0.1132 -0.5017
  477TIP3    H1 1437   0.323   1.525   0.123 -0.6414 -0.4505  2.9798
  477TIP3    H2 1438   0.205   1.533   0.029  2.3995 -1.4510 -1.1803
  478TIP3   OH2 1439   0.710   2.426   4.416  0.4074  0.0769  0.9373
  478TIP3    H1 1440   0.622   2.453   4.392  1.0210  2.1742  0.8419
  478TIP3    H2 1441   0.704   2.331   4.430 -1.2859 -0.2769 -1.5789
  479TIP3   OH2 1442   4.522   1.558   3.342 -0.1368 -0.1641  0.0668
  479TIP3    H1 1443   4.568   1.512   3.412  0.1069  0.4426  0.3119
  479TIP3    H2 1444   4.473   1.627   3.386 -2.8374 -1.9301  0.0432
  480TIP3   OH2 1445   4.897   1.893   3.851  0.3685  0.1399 -0.1763
  480TIP3    H1 1446   4.892   1.977   3.897 -1.4690  0.7289 -1.3249
  480TIP3    H2 1447   4.902   1.917   3.758 -2.9310 -0.9224 -0.7446
  481TIP3   OH2 1448   2.629   1.317   1.652  0.0856  0.3644 -0.3046
  481TIP3    H1 1449   2.545   1.276   1.670  1.3772 -2.0053  0.7883
  481TIP3    H2 1450   2.657   1.354   1.735  0.5337  0.3156 -0.4277
  482TIP3   OH2 1451   0.506   3.152   2.850 -0.2213  0.6881  0.0791
  482TIP3    H1 1452   0.527   3.080   2.790 -2.8004  0.0379 -0.1440
  482TIP3    H2 1453   0.501   3.229   2.795  1.1814  0.8352  0.1094
  483TIP3   OH2 1454   4.764   1.968   2.914  0.2940 -0.5707  0.0172
  483TIP3    H1 1455   4.690   1.913   2.940  0.5018 -1.0905 -0.4859
  483TIP3    H2 1456   4.841   1.913   2.929  0.5645 -0.1150  0.3126
  484TIP3   OH2 1457   1.054   1.791   5.003  0.1112 -0.1538  0.0906
  484TIP3    H1 1458   1.054   1.743   5.086  0.6763 -1.4508 -0.6298
  484TIP3    H2 1459   1.139   1.770   4.963  0.3315  1.3812 -0.3004
  485TIP3   OH2 1460   2.166   5.633   2.823  0.4883 -0.4213  0.5593
  485TIP3    H1 1461   2.145   5.539   2.817 -1.9593  0.0525  0.4913
  485TIP3    H2 1462   2.215   5.652   2.743 -1.2322 -1.1815 -0.7532
  486TIP3   OH2 1463   1.899   5.610   1.389  0.2682  0.1172  0.1959
  486TIP3    H1 1464   1.971   5.653   1.434 -0.1354 -0.0006  0.9811
  486TIP3    H2 1465   1.842   5.681   1.360  0.5639  0.1967 -0.2014
  487TIP3   OH2 1466   1.403   2.021   4.581 -0.4927 -0.2907  0.1091
  487TIP3    H1 1467   1.385   1.935   4.544  2.3019 -0.0769 -2.1033
  487TIP3    H2 1468   1.351   2.081   4.528 -2.2846 -0.5250  1.5219
  488TIP3   OH2 1469   3.245   4.870   3.115 -0.3528 -0.0249  0.1561
  488TIP3    H1 1470   3.214   4.791   3.159 -0.3614 -1.5776 -2.4336
  488TIP3    H2 1471   3.341   4.864   3.120 -0.2777 -1.3889 -1.8201
  489TIP3   OH2 1472   4.364   2.795   1.997 -0.2153 -0.4488 -0.1081
  489TIP3    H1 1473   4.402   2.716   1.959  2.5364  0.1806  1.0501
  489TIP3    H2 1474   4.412   2.807   2.080  0.1238  2.8704 -0.6307
  490TIP3   OH2 1475   2.779   2.281   4.572  0.3646 -0.1299  0.1296
  490TIP3    H1 1476   2.860   2.230   4.566  0.1560 -0.3241 -2.3226
  490TIP3    H2 1477   2.800   2.364   4.528 -1.4135 -1.2418 -3.2062
  491TIP3   OH2 1478   1.377   1.446   2.967  0.2081  0.3688 -0.1645
  491TIP3    H1 1479   1.339   1.359   2.976 -2.2047  1.1096 -2.0449
  491TIP3    H2 1480   1.352   1.474   2.878  1.0364  2.8988  0.3097
  492TIP3   OH2 1481   2.876   3.776   0.076 -0.1344  0.4705  0.3017
  492TIP3    H1 1482   2.858   3.858   0.121  0.5255 -0.4892  2.4222
  492TIP3    H2 1483   2.868   3.709   0.143 -1.8114 -1.3913 -1.6128
  493TIP3   OH2 1484   4.710   1.903   4.338  0.2444  0.0121 -0.3632
  493TIP3    H1 1485   4.673   1.826   4.295 -1.1493 -0.0409  0.8673
  493TIP3    H2 1486   4.720   1.968   4.268  1.5088 -1.2553 -1.4376
  494TIP3   OH2 1487   5.089   2.846   2.510 -0.3812  0.2895  0.2561
  494TIP3    H1 1488   5.070   2.845   2.416  1.2622  1.5880 -0.1309
  494TIP3    H2 1489   5.176   2.807   2.518 -1.2648 -1.5925  1.5002
  495TIP3   OH2 1490   5.876   5.936   2.978 -0.1289  0.5021 -0.6073
  495TIP3    H1 1491   5.928   5.905   3.052 -0.4570 -1.2962 -1.0734
  495TIP3    H2 1492   5.940   5.965   2.913  0.1872  1.0280 -0.0698
  496TIP3   OH2 1493   1.742   1.926   2.194  0.0059 -0.3475  0.6288
  496TIP3    H1 1494   1.672   1.989   2.179  0.1389 -0.3377 -0.0066
  496TIP3    H2 1495   1.823   1.978   2.189  0.0342 -0.1652  2.4334
  497TIP3   OH2 1496   3.083   1.659   2.711 -0.5955  0.5208  0.0889
  497TIP3    H1 1497   2.990   1.655   2.689 -0.2538  0.2363 -1.4652
  497TIP3    H2 1498   3.118   1.573   2.687  0.2811  1.0134 -0.4910
  498TIP3   OH2 1499   3.910   4.650   3.131  0.3375  0.4780 -0.1327
  498TIP3    H1 1500   3.891   4.594   3.206  1.3876 -1.4342 -1.2292
  498TIP3    H2 1501   4.000   4.681   3.146  0.6665 -0.1586 -0.7128
  499TIP3   OH2 1502   5.786   0.003   4.789 -0.2943  0.0649 -0.4422
  499TIP3    H1 1503   5.742  -0.049   4.722 -1.6089  1.5222 -0.7558
  499TIP3    H2 1504   5.857   0.047   4.742  0.3008 -0.7766 -0.3484
  500TIP3   OH2 1505   5.929   1.286   0.019  0.0813  0.4568 -0.2393
  500TIP3    H1 1506   5.845   1.319   0.052 -0.7095  0.2791 -1.9188
  500TIP3    H2 1507   5.995   1.337   0.065 -0.8696 -0.1526  1.9544
  501TIP3   OH2 1508   1.128   1.086   1.272 -0.3086 -0.0262  0.3334
  501TIP3    H1 1509   1.163   0.998   1.289 -1.7526 -0.7055 -0.1026
  501TIP3    H2 1510   1.040   1.084   1.308  0.1431  1.7470  1.6379
  502TIP3   OH2 1511   1.068   1.807   1.338 -0.0543  0.1408 -0.3916
  502TIP3    H1 1512   1.007   1.842   1.402  1.3285  1.0912  0.4691
  502TIP3    H2 1513   1.139   1.871   1.335  0.2866 -0.2560 -2.3339
  503TIP3   OH2 1514   1.051   0.840   2.915  0.0219  0.0601  0.4498
  503TIP3    H1 1515   0.979   0.781   2.936 -0.4951  0.5037 -0.0670
  503TIP3    H2 1516   1.029   0.875   2.829  0.0915  1.3658  0.9521
  504TIP3   OH2 1517   3.160   5.426   0.537 -0.0552  0.4118 -0.3643
  504TIP3    H1 1518   3.075   5.389   0.560  0.8147 -2.5745 -1.4549
  504TIP3    H2 1519   3.220   5.392   0.603  0.5370  1.3875 -0.3810
  505TIP3   OH2 1520   0.497   0.504   1.605  0.0216 -0.4902 -0.5311
  505TIP3    H1 1521   0.568   0.453   1.566 -0.9191 -2.0097 -0.3396
  505TIP3    H2 1522   0.431   0.439   1.629  0.1378  0.4234  2.7963
  506TIP3   OH2 1523   0.839   4.814   0.920  0.5261 -0.2957  0.4366
  506TIP3    H1 1524   0.876   4.752   0.984 -3.2225 -0.9553  2.2637
  506TIP3    H2 1525   0.836   4.765   0.838 -1.2147 -2.2619  1.5577
  507TIP3   OH2 1526   2.650   0.776   4.413  0.3881 -0.1074  0.2376
  507TIP3    H1 1527   2.592   0.813   4.479  1.0461  0.8155  0.3117
  507TIP3    H2 1528   2.730   0.755   4.462  0.0787 -1.5296  0.1762
  508TIP3   OH2 1529   0.887   5.793   2.667  0.1105 -0.1563 -0.1708
  508TIP3    H1 1530   0.926   5.753   2.590  0.9148 -0.8440  0.5729
  508TIP3    H2 1531   0.817   5.848   2.632 -0.3214 -1.3610 -1.3043
  509TIP3   OH2 1532   3.941   5.493   4.784  0.5551  0.3895  0.1225
  509TIP3    H1 1533   3.930   5.432   4.711  1.3023 -0.4488  0.6835
  509TIP3    H2 1534   3.852   5.526   4.801  0.2187 -0.1552 -0.5250
  510TIP3   OH2 1535   4.187   1.281   2.804  0.0301 -0.3439  0.2585
  510TIP3    H1 1536   4.131   1.358   2.816  0.4956 -0.0644  0.6913
  510TIP3    H2 1537   4.258   1.312   2.749  0.1278 -0.5133  0.2890
  511TIP3   OH2 1538   2.123   4.237   4.415  0.3720  0.1490  0.4039
  511TIP3    H1 1539   2.111   4.221   4.509  0.1231  1.4578  0.6021
  511TIP3    H2 1540   2.042   4.280   4.387  0.8374  0.6491 -0.2031
  512TIP3   OH2 1541   1.608   2.988   4.486  0.1158 -0.0347  0.1692
  512TIP3    H1 1542   1.673   2.960   4.551 -0.1329 -0.3327  0.2933
  512TIP3    H2 1543   1.547   3.044   4.534  0.6139  0.7366 -0.0806
  513TIP3   OH2 1544   1.262   1.356   3.904  0.0757 -0.1907 -0.0611
  513TIP3    H1 1545   1.275   1.425   3.839  0.8487  0.5396  0.8412
  513TIP3    H2 1546   1.318   1.284   3.874 -0.1476 -0.1487 -0.5946
  514TIP3   OH2 1547   5.677   2.900   1.101  0.3723  0.2042  0.0982
  514TIP3    H1 1548   5.743   2.942   1.046 -0.3069 -0.9529 -1.7099
  514TIP3    H2 1549   5.718   2.817   1.127 -0.2860 -0.5028 -1.0026
  515TIP3   OH2 1550   5.032   3.450   0.102 -0.6494 -0.3918  0.4716
  515TIP3    H1 1551   5.008   3.462   0.194  0.4697 -0.4751  0.7780
  515TIP3    H2 1552   5.072   3.534   0.077  1.8763 -1.3783  0.9618
  516TIP3   OH2 1553   1.166   5.640   4.264 -0.3764  0.0249 -0.5100
  516TIP3    H1 1554   1.108   5.665   4.192 -1.4363  1.3325  0.7169
  516TIP3    H2 1555   1.217   5.719   4.282 -0.6908 -0.0114  0.6496
  517TIP3   OH2 1556   2.856   1.597   2.107 -0.5300 -0.1036 -0.3466
  517TIP3    H1 1557   2.904   1.528   2.153 -0.9508 -0.2015 -0.0507
  517TIP3    H2 1558   2.878   1.677   2.155 -1.8923 -0.3713  0.7614
  518TIP3   OH2 1559   6.236   4.425   0.471  0.9868  0.7610  0.0662
  518TIP3    H1 1560   6.276   4.461   0.550  2.2595  0.1953 -0.3037
  518TIP3    H2 1561   6.259   4.333   0.472  1.6105  0.8723 -1.3014
  519TIP3   OH2 1562   2.566   5.974   2.846  0.0533  0.1740  0.4919
  519TIP3    H1 1563   2.651   5.932   2.860  0.2633  0.3290 -0.2936
  519TIP3    H2 1564   2.554   5.975   2.751 -2.1803 -2.5449  0.5948
  520TIP3   OH2 1565   3.728   1.229   4.332  0.5910 -0.0046  0.0608
  520TIP3    H1 1566   3.714   1.135   4.343 -0.4587  0.2266  0.8644
  520TIP3    H2 1567   3.677   1.253   4.255  0.2632  0.0304  0.2871
  521TIP3   OH2 1568   5.560   4.177   0.001 -0.0041  0.4766  0.4065
  521TIP3    H1 1569   5.645   4.185  -0.043  1.1775 -1.8323  2.0222
  521TIP3    H2 1570   5.555   4.254   0.058  2.1782 -0.4399  1.9988
  522TIP3   OH2 1571   4.245   1.697   1.091 -0.0866 -0.2952 -0.0092
  522TIP3    H1 1572   4.271   1.612   1.126  1.4963 -0.5459 -1.6276
  522TIP3    H2 1573   4.269   1.760   1.160 -1.8710 -1.1328  1.4808
  523TIP3   OH2 1574   5.871   2.703   2.084  0.0202  0.0591  0.1099
  523TIP3    H1 1575   5.858   2.793   2.056  0.9624 -0.1697 -1.2151
  523TIP3    H2 1576   5.794   2.656   2.052  0.1604  0.1635 -0.3864
  524TIP3   OH2 1577   4.734   3.618   0.453  0.0564  0.1489  0.0614
  524TIP3    H1 1578   4.756   3.647   0.541 -0.7211 -0.3515  0.4355
  524TIP3    H2 1579   4.795   3.664   0.396 -0.3338  1.5498  0.7331
  525TIP3   OH2 1580   0.984   2.472   4.478  0.9671 -0.2831 -0.0265
  525TIP3    H1 1581   0.889   2.469   4.469  0.7297  1.1595  1.5972
  525TIP3    H2 1582   1.014   2.528   4.406  0.3732  0.8934  0.6196
  526TIP3   OH2 1583   5.372   3.505   0.050 -0.4573  0.4400 -0.1769
  526TIP3    H1 1584   5.453   3.474   0.009 -0.4127  0.5496 -0.1744
  526TIP3    H2 1585   5.304   3.483  -0.013 -0.2049  2.0387 -1.0680
  527TIP3   OH2 1586   5.011   4.068   4.690 -0.2429  0.2311  0.4373
  527TIP3    H1 1587   5.088   4.059   4.634 -0.2520  0.8302  0.3156
  527TIP3    H2 1588   5.025   4.005   4.761 -0.7494 -1.3349 -0.7916
  528TIP3   OH2 1589   2.853   1.512   2.833 -0.4991  0.2047 -0.4114
  528TIP3    H1 1590   2.868   1.521   2.927 -1.0831 -2.5326  0.0392
  528TIP3    H2 1591   2.918   1.448   2.804  1.9889  3.4441 -2.6861
  529TIP3   OH2 1592   3.653   0.214   3.217 -0.0278  0.0856 -0.0735
  529TIP3    H1 1593   3.701   0.132   3.209 -1.1820 -0.6532  0.5041
  529TIP3    H2 1594   3.709   0.268   3.274 -0.7932 -1.5163  2.3594
  530TIP3   OH2 1595   5.843   1.733   4.743  0.0436 -0.3682  0.4729
  530TIP3    H1 1596   5.844   1.637   4.741  1.5690 -0.3810  0.8439
  530TIP3    H2 1597   5.837   1.758   4.650 -0.9044 -0.8151  0.4063
  531TIP3   OH2 1598   0.939   2.461   4.176  0.0474 -0.1632  0.2580
  531TIP3    H1 1599   0.882   2.462   4.100  0.4497 -0.2118 -0.0482
  531TIP3    H2 1600   0.907   2.388   4.230 -0.6455  0.2823  0.4577
  532TIP3   OH2 1601   4.252   0.697   4.813  0.3806  0.4548 -0.0995
  532TIP3    H1 1602   4.319   0.724   4.750  0.7455  1.8038  0.8182
  532TIP3    H2 1603   4.171   0.696   4.762  0.6937  1.3415 -0.6554
  533TIP3   OH2 1604   2.178   1.476   1.571 -0.1788 -0.8564 -0.1818
  533TIP3    H1 1605   2.177   1.569   1.597  0.0485 -1.4988  2.4567
  533TIP3    H2 1606   2.094   1.443   1.600  0.2733 -1.7614  0.1185
  534TIP3   OH2 1607   2.146   5.104   1.323  0.0912  0.1793  0.1613
  534TIP3    H1 1608   2.119   5.158   1.249  1.5299  0.9710  0.1735
  534TIP3    H2 1609   2.110   5.148   1.399  1.4147  1.2859  0.1880
  535TIP3   OH2 1610   5.822   3.632   1.898 -0.1971  0.4218 -0.1561
  535TIP3    H1 1611   5.814   3.691   1.973  0.5655  2.8686 -1.8548
  535TIP3    H2 1612   5.812   3.544   1.935 -0.4814  1.5370  2.6750
  536TIP3   OH2 1613   1.541   3.802   3.532 -0.3158  0.2788 -0.1259
  536TIP3    H1 1614   1.504   3.713   3.533  1.4117 -0.5099  1.9103
  536TIP3    H2 1615   1.551   3.824   3.625 -0.1028  2.3612 -0.6080
  537TIP3   OH2 1616   4.796   1.776   1.234  0.0944  0.1329  0.7554
  537TIP3    H1 1617   4.802   1.816   1.320 -0.5892  0.3620  0.7001
  537TIP3    H2 1618   4.713   1.808   1.198  0.2195 -0.2131  0.1443
  538TIP3   OH2 1619   0.860   2.057   2.411  0.5285  0.5958 -0.2090
  538TIP3    H1 1620   0.894   1.974   2.376  1.7056  0.6910  0.6205
  538TIP3    H2 1621   0.767   2.056   2.391  0.2019 -1.6176  1.0635
  539TIP3   OH2 1622   1.591   5.234   1.059 -0.3398 -0.3395 -0.2151
  539TIP3    H1 1623   1.546   5.252   1.141 -0.2508  0.3220 -0.3054
  539TIP3    H2 1624   1.674   5.281   1.066  0.2021 -1.2640 -0.1918
  540TIP3   OH2 1625   5.184   4.510   2.831  0.4264 -0.5008 -0.7169
  540TIP3    H1 1626   5.237   4.470   2.762  2.8343  1.4494 -0.1491
  540TIP3    H2 1627   5.242   4.514   2.907 -1.3100 -0.2851  0.6795
  541TIP3   OH2 1628   1.792   2.683   0.863  0.3997  0.2574  0.5071
  541TIP3    H1 1629   1.831   2.771   0.860  1.7706 -0.3687 -0.8434
  541TIP3    H2 1630   1.699   2.698   0.847  0.8050  1.3603 -0.9743
  542TIP3   OH2 1631   3.667   2.963   3.534 -0.4582 -0.5219  0.6703
  542TIP3    H1 1632   3.747   2.911   3.529 -0.4772 -0.4803 -0.5462
  542TIP3    H2 1633   3.625   2.936   3.616  0.7563 -0.5917  1.2886
  543TIP3   OH2 1634   4.197   5.119   3.066  0.0031 -0.3243 -0.2506
  543TIP3    H1 1635   4.279   5.119   3.116  1.0173  3.3943 -1.6563
  543TIP3    H2 1636   4.222   5.088   2.979 -0.9403 -2.7706  0.2703
  544TIP3   OH2 1637   0.798   5.858   1.172  0.5414 -0.5661 -0.1377
  544TIP3    H1 1638   0.715   5.834   1.130  0.7211 -0.0315 -0.8233
  544TIP3    H2 1639   0.779   5.857   1.266 -0.5917  0.7443 -0.3189
  545TIP3   OH2 1640   6.133   1.614   4.983  0.3128  0.0402 -0.3470
  545TIP3    H1 1641   6.049   1.659   4.992  0.7469  1.2905 -2.1697
  545TIP3    H2 1642   6.124   1.537   5.039 -1.0717  1.4860  1.5709
  546TIP3   OH2 1643   3.597   3.328   0.738 -0.7565 -0.0822  0.1588
  546TIP3    H1 1644   3.577   3.362   0.825  0.9137 -1.0266  0.9631
  546TIP3    H2 1645   3.526   3.267   0.719 -0.2801 -1.1736  1.6428
  547TIP3   OH2 1646   3.788   2.057   2.230 -0.1682 -0.1501  0.1641
  547TIP3    H1 1647   3.780   2.151   2.247 -1.4345 -0.3315  0.6431
  547TIP3    H2 1648   3.882   2.043   2.219  0.3589  0.7183  2.7784
  548TIP3   OH2 1649   5.894   3.995   1.829  0.5292 -0.3298  0.4862
  548TIP3    H1 1650   5.838   3.931   1.873 -0.8164  0.8113  0.4855
  548TIP3    H2 1651   5.934   4.045   1.901  0.5937 -0.3488  0.4638
  549TIP3   OH2 1652   5.679   5.530   0.980 -0.5012  0.3484  0.2364
  549TIP3    H1 1653   5.624   5.454   0.965 -0.5473 -0.2156  2.8016
  549TIP3    H2 1654   5.750   5.498   1.036 -0.7242  2.2192  1.6856
  550TIP3   OH2 1655   0.839   3.212   0.240 -0.1758  0.6294 -0.0305
  550TIP3    H1 1656   0.840   3.117   0.237 -0.3484  0.5907  0.9351
  550TIP3    H2 1657   0.931   3.237   0.243 -0.1184  0.3626  2.4711
  551TIP3   OH2 1658   5.745   5.676   0.067 -0.6401 -0.2236  0.0662
  551TIP3    H1 1659   5.731   5.696  -0.025  1.8627  1.0359 -0.1379
  551TIP3    H2 1660   5.720   5.756   0.113 -2.1659 -0.9476  0.5588
  552TIP3   OH2 1661   1.236   4.195   3.279 -0.2825 -0.2973  0.6588
  552TIP3    H1 1662   1.208   4.244   3.357  0.6247 -0.1560  0.9088
  552TIP3    H2 1663   1.303   4.134   3.312  1.4151  0.9712 -0.2648
  553TIP3   OH2 1664   5.889   0.405   3.170 -0.0088 -0.1014 -0.7839
  553TIP3    H1 1665   5.903   0.324   3.219  0.9357  1.0224  0.9336
  553TIP3    H2 1666   5.796   0.424   3.181 -0.0817 -0.5669 -0.5698
  554TIP3   OH2 1667   5.982   0.197   0.048  0.2653  0.3189 -0.2848
  554TIP3    H1 1668   5.959   0.250  -0.027  1.3226 -0.2044 -0.9976
  554TIP3    H2 1669   5.917   0.127   0.048  0.4724  0.1182 -0.9366
  555TIP3   OH2 1670   2.647   2.335   4.842  0.1329 -0.6435 -0.3754
  555TIP3    H1 1671   2.594   2.313   4.919  1.2496 -0.1929  0.5506
  555TIP3    H2 1672   2.657   2.430   4.846 -0.3616 -0.5277 -1.4796
  556TIP3   OH2 1673   3.463   0.248   4.058  0.2201 -0.5270  0.3027
  556TIP3    H1 1674   3.378   0.291   4.061 -0.6700 -2.2340  1.2521
  556TIP3    H2 1675   3.526   0.320   4.058 -1.1436  0.9162 -2.9306
  557TIP3   OH2 1676   0.165   5.603   0.220  0.0785 -0.0580  0.3618
  557TIP3    H1 1677   0.205   5.537   0.163 -0.9567 -0.1279 -0.3177
  557TIP3    H2 1678   0.073   5.601   0.197 -0.1918  0.6521  1.3357
  558TIP3   OH2 1679   2.394   0.818   4.563 -0.0312  0.7067 -0.4058
  558TIP3    H1 1680   2.378   0.899   4.613 -0.1110 -0.5534  1.7573
  558TIP3    H2 1681   2.446   0.764   4.623  1.4142 -0.2438 -2.4328
  559TIP3   OH2 1682   4.662   4.787   2.951  0.1340  0.1463  0.4567
  559TIP3    H1 1683   4.747   4.758   2.985  0.2889 -0.5603 -0.4745
  559TIP3    H2 1684   4.673   4.786   2.856 -0.6784  0.8268  0.3452
  560TIP3   OH2 1685   1.673   3.796   4.321 -0.3849 -0.9784 -0.0325
  560TIP3    H1 1686   1.759   3.837   4.336 -0.7740 -0.4381  0.8367
  560TIP3    H2 1687   1.692   3.703   4.314  0.1077 -1.1064  2.1136
  561TIP3   OH2 1688   5.722   5.704   3.600  0.2469 -0.0336 -0.1017
  561TIP3    H1 1689   5.801   5.649   3.597  0.6972  0.4565  1.5054
  561TIP3    H2 1690   5.709   5.733   3.510  2.0225  0.0247 -0.3809
  562TIP3   OH2 1691   0.331   2.136   0.414  0.2386 -0.3032 -0.3428
  562TIP3    H1 1692   0.387   2.069   0.453  0.5177  0.6158  0.9119
  562TIP3    H2 1693   0.242   2.103   0.424  0.4199 -0.8390 -0.4670
  563TIP3   OH2 1694   5.135   3.397   4.637 -0.3061 -0.1534  0.0616
  563TIP3    H1 1695   5.145   3.348   4.718  0.1333  0.8861  0.6612
  563TIP3    H2 1696   5.187   3.349   4.573  0.5045 -0.2036  0.7468
  564TIP3   OH2 1697   5.737   1.015   0.121 -0.7765  0.4328 -0.0716
  564TIP3    H1 1698   5.699   1.067   0.051  0.2460  0.3431 -0.7169
  564TIP3    H2 1699   5.828   1.001   0.094 -0.6013 -0.3413  0.8525
  565TIP3   OH2 1700   1.738   0.710   4.158 -0.0266  0.3095  0.2209
  565TIP3    H1 1701   1.772   0.719   4.247 -0.2785 -0.7214  0.4322
  565TIP3    H2 1702   1.723   0.616   4.147  0.7868  0.3232 -1.2156
  566TIP3   OH2 1703   2.049   3.771   3.049 -0.4161  0.0854 -0.1954
  566TIP3    H1 1704   1.982   3.830   3.084 -0.4041 -0.4826  0.7950
  566TIP3    H2 1705   2.037   3.775   2.954 -1.2959  0.6429 -0.0670
  567TIP3   OH2 1706   2.539   4.738   0.468  0.3765  0.1549 -0.1375
  567TIP3    H1 1707   2.481   4.664   0.450 -0.2888  0.7114 -0.3553
  567TIP3    H2 1708   2.620   4.699   0.498 -0.0433 -0.6582 -0.0402
  568TIP3   OH2 1709   1.790   1.102   3.734 -0.6010  0.5903 -0.2364
  568TIP3    H1 1710   1.879   1.078   3.761 -1.0866  0.9523  1.8019
  568TIP3    H2 1711   1.765   1.032   3.673  0.3991 -0.5186  0.5758
  569TIP3   OH2 1712   4.085   1.052   2.479  0.2367 -0.1305 -0.0982
  569TIP3    H1 1713   4.086   1.090   2.391  0.9976  1.2789  0.4847
  569TIP3    H2 1714   4.080   1.127   2.537 -2.3329 -1.1051  1.0710
  570TIP3   OH2 1715   1.212   2.549   2.252  0.4701 -0.6193 -0.3381
  570TIP3    H1 1716   1.297   2.592   2.238  1.5502 -1.7884  1.9760
  570TIP3    H2 1717   1.206   2.484   2.182 -0.4268  2.0117 -2.8788
  571TIP3   OH2 1718   0.483   3.422   4.762  0.0407 -0.4244  0.3549
  571TIP3    H1 1719   0.555   3.457   4.710  1.2909 -0.3285  2.0987
  571TIP3    H2 1720   0.524   3.386   4.840 -1.7222 -1.1884  0.9895
  572TIP3   OH2 1721   0.738   4.288   1.664 -0.6903  0.0943 -0.1076
  572TIP3    H1 1722   0.828   4.284   1.632 -0.1005  1.3276  1.2888
  572TIP3    H2 1723   0.687   4.315   1.588  0.1733 -0.1534 -0.7966
  573TIP3   OH2 1724   0.385   0.674   1.405  0.6914 -0.2406 -0.6552
  573TIP3    H1 1725   0.396   0.766   1.429 -0.6458  0.0926 -1.2347
  573TIP3    H2 1726   0.425   0.625   1.477  1.3759  0.7809 -0.3193
  574TIP3   OH2 1727   6.205   1.550   0.478  0.1792 -0.2896  0.5667
  574TIP3    H1 1728   6.226   1.533   0.570 -0.1345 -0.1614  0.6639
  574TIP3    H2 1729   6.141   1.482   0.455 -0.4223  0.2188  0.7071
  575TIP3   OH2 1730   5.260   2.917   1.091 -0.1840  0.4478 -0.3178
  575TIP3    H1 1731   5.346   2.945   1.123  0.9349 -2.9613 -0.0439
  575TIP3    H2 1732   5.276   2.837   1.043 -3.0937  0.4343 -1.4753
  576TIP3   OH2 1733   5.221   4.703   0.719 -0.7411  0.2420 -0.0600
  576TIP3    H1 1734   5.229   4.711   0.814 -0.5071 -0.3939 -0.0197
  576TIP3    H2 1735   5.193   4.613   0.704  2.2122 -0.7000 -0.7107
  577TIP3   OH2 1736   0.972   5.543   1.175 -0.1764 -0.5642  0.7449
  577TIP3    H1 1737   1.067   5.539   1.186 -0.0773 -0.2318  0.0793
  577TIP3    H2 1738   0.942   5.606   1.241  0.3138  0.8630 -0.3348
  578TIP3   OH2 1739   2.247   0.271   3.361 -0.2575  0.3745 -0.2227
  578TIP3    H1 1740   2.207   0.355   3.342 -2.1812 -0.3535  0.3531
  578TIP3    H2 1741   2.239   0.261   3.456  2.2124  0.5917  0.0826
  579TIP3   OH2 1742   2.909   2.738   1.434  0.2424  0.4855  0.4368
  579TIP3    H1 1743   2.843   2.730   1.365 -1.1061  0.4874  1.6720
  579TIP3    H2 1744   2.874   2.804   1.494  1.4235  0.5673  1.0733
  580TIP3   OH2 1745   2.806   2.574   0.589  0.3316 -0.0289  0.1354
  580TIP3    H1 1746   2.877   2.590   0.651  2.4132 -0.8091 -1.8759
  580TIP3    H2 1747   2.769   2.490   0.616 -0.2627  0.6537  1.5412
  581TIP3   OH2 1748   2.909   3.974   0.263 -0.0092 -0.4714  0.1618
  581TIP3    H1 1749   2.871   3.989   0.349 -0.7416  0.1623 -0.2560
  581TIP3    H2 1750   2.977   4.040   0.255 -0.7174  0.2404 -0.1865
  582TIP3   OH2 1751   4.765   1.981   2.638 -0.6916  0.3063  0.3402
  582TIP3    H1 1752   4.710   1.919   2.589  1.0133 -0.9369 -0.0781
  582TIP3    H2 1753   4.742   1.965   2.730 -1.9811  0.7607  0.1138
  583TIP3   OH2 1754   2.101   0.425   2.696  0.4521 -0.1552 -0.2561
  583TIP3    H1 1755   2.150   0.469   2.627 -1.3366  2.0380 -0.2590
  583TIP3    H2 1756   2.012   0.420   2.662 -0.9526  2.7597  2.4714
  584TIP3   OH2 1757   0.826   0.810   3.393  0.4739  0.4192 -0.3867
  584TIP3    H1 1758   0.802   0.888   3.443 -0.8378  0.4788 -1.0565
  584TIP3    H2 1759   0.783   0.822   3.308  0.3162 -0.9795 -0.5359
  585TIP3   OH2 1760   0.341   2.764   0.604 -0.6807  0.0291 -0.1330
  585TIP3    H1 1761   0.316   2.732   0.517 -0.5662  0.3354 -0.2798
  585TIP3    H2 1762   0.395   2.841   0.586 -1.9246  1.0039  0.2460
  586TIP3   OH2 1763   2.424   3.945   0.211  0.0134  0.0310 -0.3273
  586TIP3    H1 1764   2.411   4.034   0.244 -2.0976  0.1929 -1.4616
  586TIP3    H2 1765   2.341   3.901   0.228  0.1491 -0.9613 -2.0096
  587TIP3   OH2 1766   5.317   4.645   4.303  0.0013 -0.4026 -0.0547
  587TIP3    H1 1767   5.316   4.727   4.255 -0.7876 -0.3677  0.0060
  587TIP3    H2 1768   5.259   4.660   4.377 -2.0413 -1.7144 -1.2779
  588TIP3   OH2 1769   1.561   2.294   1.856 -0.1418  0.0008 -0.1791
  588TIP3    H1 1770   1.623   2.222   1.851 -0.0861 -0.1027  1.4684
  588TIP3    H2 1771   1.485   2.265   1.804  0.2050 -0.8931 -0.1997
  589TIP3   OH2 1772   6.042   0.458   2.301  0.2125 -0.0795 -0.0641
  589TIP3    H1 1773   6.074   0.522   2.365  0.0059 -0.6629  0.6321
  589TIP3    H2 1774   6.120   0.413   2.270  0.4687  1.1111 -1.2445
  590TIP3   OH2 1775   5.901   4.550   1.715  0.0577  0.4023  0.8548
  590TIP3    H1 1776   5.997   4.551   1.719  0.2671  0.1840 -1.8321
  590TIP3    H2 1777   5.877   4.461   1.741  0.6336  0.2774  0.9767
  591TIP3   OH2 1778   3.102   2.166   4.741  0.1292  0.0864  0.3407
  591TIP3    H1 1779   3.088   2.187   4.648  0.6590  0.6674  0.3807
  591TIP3    H2 1780   3.076   2.075   4.749  0.7788 -0.1966 -0.5427
  592TIP3   OH2 1781   0.355   0.470   3.377 -0.3708 -0.1247  0.9218
  592TIP3    H1 1782   0.340   0.512   3.461 -0.1434 -0.0465  0.9228
  592TIP3    H2 1783   0.409   0.531   3.328 -1.4400  0.3531  0.2857
  593TIP3   OH2 1784   2.070   5.791   3.309  0.4578  0.1492  0.5578
  593TIP3    H1 1785   2.163   5.778   3.326  0.6907 -0.3460 -0.9544
  593TIP3    H2 1786   2.064   5.800   3.214 -1.3011 -2.3195  0.3205
  594TIP3   OH2 1787   4.534   1.255   2.414 -0.1155 -0.2084 -0.3397
  594TIP3    H1 1788   4.600   1.219   2.355 -1.0823  0.7585 -2.1282
  594TIP3    H2 1789   4.460   1.195   2.408  0.5822 -1.3819  1.7867
  595TIP3   OH2 1790   4.407   5.770   4.874  0.3481  0.5324 -0.9546
  595TIP3    H1 1791   4.405   5.850   4.926  0.5942 -0.1856  0.1844
  595TIP3    H2 1792   4.322   5.729   4.889  0.5577  0.1401 -0.8347
  596TIP3   OH2 1793   2.912   1.800   3.432 -0.5001 -0.1156 -0.4583
  596TIP3    H1 1794   2.999   1.835   3.452 -0.7881  1.1240 -1.1957
  596TIP3    H2 1795   2.891   1.839   3.347 -1.5899 -0.7615 -0.4953
  597TIP3   OH2 1796   5.059   0.085   0.842 -0.3778  0.1019 -0.1970
  597TIP3    H1 1797   5.135   0.054   0.793  1.2230  2.5162  0.5696
  597TIP3    H2 1798   5.017   0.005   0.875  0.6637 -1.3822 -2.2652
  598TIP3   OH2 1799   3.518   5.533   1.637 -0.3837  0.0694  0.7712
  598TIP3    H1 1800   3.516   5.560   1.728 -1.1363 -0.4486  0.9171
  598TIP3    H2 1801   3.427   5.538   1.608 -0.0998  0.5912 -0.0670
  599TIP3   OH2 1802   3.555   0.554   3.330 -0.0780 -0.0702 -0.0758
  599TIP3    H1 1803   3.493   0.491   3.294 -0.6386 -0.2451  1.1472
  599TIP3    H2 1804   3.510   0.638   3.326  0.0565 -0.0047 -0.2439
  600TIP3   OH2 1805   1.198   2.227   4.975 -0.6185  0.0447 -0.5607
  600TIP3    H1 1806   1.232   2.313   4.997 -0.7652  0.3773 -1.6151
  600TIP3    H2 1807   1.156   2.238   4.890 -1.7982 -0.7652 -0.1025
  601TIP3   OH2 1808   2.889   3.113   3.611 -0.4177  0.1687  0.6419
  601TIP3    H1 1809   2.887   3.043   3.545 -0.7837  1.7535 -1.1074
  601TIP3    H2 1810   2.804   3.107   3.654 -0.8006  0.0853 -0.1058
  602TIP3   OH2 1811   1.500   4.724   0.032  0.2775  0.7027  0.4076
  602TIP3    H1 1812   1.501   4.656  -0.035  1.4182 -0.6165  1.7034
  602TIP3    H2 1813   1.414   4.716   0.073  0.5965 -0.3771  0.9147
  603TIP3   OH2 1814   5.607   5.222   4.460 -0.0084 -0.4376 -0.4419
  603TIP3    H1 1815   5.594   5.146   4.403 -0.5817  1.5656 -3.1625
  603TIP3    H2 1816   5.674   5.274   4.416  0.8579  0.3767  1.6984
  604TIP3   OH2 1817   4.562   3.565   0.946  0.0196  0.1605 -0.3453
  604TIP3    H1 1818   4.527   3.652   0.927  1.7876  0.8707 -0.5775
  604TIP3    H2 1819   4.567   3.522   0.861 -1.5320 -0.4627 -0.1414
  605TIP3   OH2 1820   5.512   5.163   2.973 -0.8820  0.0297  0.3565
  605TIP3    H1 1821   5.524   5.194   3.062  0.5993 -0.3984  0.3260
  605TIP3    H2 1822   5.528   5.069   2.978  0.3669  0.1647 -0.5360
  606TIP3   OH2 1823   2.260   3.014   0.890  0.1369  0.1263 -0.4908
  606TIP3    H1 1824   2.346   3.045   0.919  0.2820 -0.6309 -0.0772
  606TIP3    H2 1825   2.272   2.994   0.797  0.6068 -0.6213 -0.2799
  607TIP3   OH2 1826   6.319   1.458   2.116  0.2557  0.0994  0.1080
  607TIP3    H1 1827   6.354   1.480   2.202  1.9870 -2.2480  0.1059
  607TIP3    H2 1828   6.243   1.403   2.134 -1.2336  2.0654  0.0895
  608TIP3   OH2 1829   0.964   4.224   2.114  0.2084 -0.4962  0.1182
  608TIP3    H1 1830   0.878   4.263   2.102  0.4707  0.1806  0.4111
  608TIP3    H2 1831   1.024   4.298   2.123  0.8817 -0.9435 -0.4494
  609TIP3   OH2 1832   3.075   5.017   0.699  0.3336  0.6292  0.0390
  609TIP3    H1 1833   3.012   5.034   0.769  0.0831 -0.0061 -0.0199
  609TIP3    H2 1834   3.024   4.973   0.631  0.7763  0.3821 -0.1377
  610TIP3   OH2 1835   2.590   5.903   2.565 -0.2591  0.2969  0.0801
  610TIP3    H1 1836   2.607   5.819   2.522 -0.2434  0.0233  0.6133
  610TIP3    H2 1837   2.603   5.968   2.496 -0.5067 -0.1551 -0.3963
  611TIP3   OH2 1838   3.548   0.569   4.850  0.0159  0.6215  0.5294
  611TIP3    H1 1839   3.636   0.542   4.824  0.1280  1.3614  0.0916
  611TIP3    H2 1840   3.520   0.503   4.914  0.6565  0.0598  0.2440
  612TIP3   OH2 1841   4.584   0.424   1.136 -0.0366  0.3583 -0.3570
  612TIP3    H1 1842   4.587   0.337   1.098  1.0489  0.0234  0.4573
  612TIP3    H2 1843   4.608   0.482   1.063 -0.8617  0.0054 -0.9271
  613TIP3   OH2 1844   5.585   5.778   0.284 -0.0798 -0.7545 -0.7302
  613TIP3    H1 1845   5.573   5.872   0.271 -0.2361 -0.6423  0.1750
  613TIP3    H2 1846   5.651   5.771   0.353 -1.1750 -1.2737  0.3095
  614TIP3   OH2 1847   6.042   2.119   3.320  0.5020 -0.1849  0.1448
  614TIP3    H1 1848   6.114   2.091   3.263  0.2409  1.6970 -1.2166
  614TIP3    H2 1849   6.002   2.038   3.350  1.7789 -1.2601 -0.9304
  615TIP3   OH2 1850   2.861   4.696   5.125 -0.1090  0.5605  0.0228
  615TIP3    H1 1851   2.805   4.662   5.055  0.3467  0.6427 -0.3888
  615TIP3    H2 1852   2.808   4.763   5.168 -1.7593 -1.8747  2.0560
  616TIP3   OH2 1853   5.023   2.127   4.581 -0.2095 -0.2297 -0.0915
  616TIP3    H1 1854   5.108   2.110   4.621 -0.5848 -1.3592  0.2862
  616TIP3    H2 1855   4.971   2.165   4.651 -0.8648 -2.2023  0.5713
  617TIP3   OH2 1856   1.019   2.839   3.614 -0.3030 -0.3094 -0.2078
  617TIP3    H1 1857   1.104   2.803   3.638 -0.7516 -1.8786 -0.8471
  617TIP3    H2 1858   0.957   2.767   3.628 -1.2554  0.2189 -1.4335
  618TIP3   OH2 1859   0.848   4.566   2.560  0.2002  0.3434  0.6323
  618TIP3    H1 1860   0.917   4.566   2.626 -0.0152  0.4489  0.8586
  618TIP3    H2 1861   0.881   4.510   2.490  0.7849  0.8987  0.4572
  619TIP3   OH2 1862   4.932   1.835   3.268  0.2826 -0.0940  0.0107
  619TIP3    H1 1863   4.864   1.811   3.205  1.3624  0.9946 -1.6687
  619TIP3    H2 1864   4.986   1.756   3.277 -0.5581 -0.6202  0.5014
  620TIP3   OH2 1865   1.146   0.681   2.152 -0.2587 -0.3037  0.0810
  620TIP3    H1 1866   1.215   0.741   2.123  0.6830 -0.9984  0.7610
  620TIP3    H2 1867   1.195   0.608   2.192 -1.3094 -2.0452 -1.6553
  621TIP3   OH2 1868   4.843   3.408   4.788  0.1247 -0.0303 -0.3238
  621TIP3    H1 1869   4.911   3.474   4.797  0.6018 -0.6664  0.9529
  621TIP3    H2 1870   4.887   3.333   4.749 -0.1081 -0.0594 -0.5359
  622TIP3   OH2 1871   4.440   0.160   4.203  0.7226  0.1126  0.2383
  622TIP3    H1 1872   4.474   0.078   4.238  1.0933 -0.7761 -2.0097
  622TIP3    H2 1873   4.518   0.214   4.190  0.5641  0.5233  0.9516
  623TIP3   OH2 1874   5.394   0.863   3.698  0.1117 -0.1346 -0.2541
  623TIP3    H1 1875   5.403   0.956   3.675 -2.0494  0.4900  1.1149
  623TIP3    H2 1876   5.309   0.837   3.663  0.3868 -1.4082 -0.0280
  624TIP3   OH2 1877   6.296   4.540   3.000  0.2242 -0.2646  0.2755
  624TIP3    H1 1878   6.271   4.630   2.977 -0.6529 -0.5767 -0.0511
  624TIP3    H2 1879   6.222   4.507   3.050 -0.7145 -1.6738 -1.8884
  625TIP3   OH2 1880   0.740   1.856   0.588 -0.3270 -0.4062 -0.8989
  625TIP3    H1 1881   0.698   1.853   0.502 -1.1378  2.9843 -0.7578
  625TIP3    H2 1882   0.668   1.868   0.650  0.4476  0.2002 -0.0846
  626TIP3   OH2 1883   2.807   0.251   2.127 -0.2503 -0.1991 -0.0553
  626TIP3    H1 1884   2.804   0.203   2.209  1.0947 -0.0557  0.1112
  626TIP3    H2 1885   2.827   0.341   2.152 -1.3290  0.1596 -0.4534
  627TIP3   OH2 1886   1.666   3.830   4.938 -0.7215  0.3575 -0.1255
  627TIP3    H1 1887   1.683   3.905   4.881 -0.3111 -0.7773 -1.5711
  627TIP3    H2 1888   1.702   3.856   5.023  0.1623  1.4722 -0.8075
  628TIP3   OH2 1889   6.027   0.926   0.789 -0.4673 -0.3906 -0.0636
  628TIP3    H1 1890   5.985   0.879   0.861 -1.9117  0.6482 -0.2049
  628TIP3    H2 1891   6.012   0.871   0.713 -1.3153 -0.1781 -0.0544
  629TIP3   OH2 1892   4.179   0.035   1.280  0.1921 -0.1724 -0.3334
  629TIP3    H1 1893   4.219   0.117   1.307  0.7378 -0.3790 -0.5043
  629TIP3    H2 1894   4.097   0.061   1.238  0.1836  0.2567 -0.0597
  630TIP3   OH2 1895   1.147   2.403   2.502 -0.2206 -0.1116 -1.0239
  630TIP3    H1 1896   1.077   2.432   2.561 -0.1796  1.6412 -1.7735
  630TIP3    H2 1897   1.101   2.371   2.424 -0.2758 -2.4531 -0.1146
  631TIP3   OH2 1898   4.396   2.355   2.142 -0.5799  0.1981  0.6396
  631TIP3    H1 1899   4.427   2.266   2.126 -0.2170  0.5033 -0.4779
  631TIP3    H2 1900   4.321   2.345   2.201  0.6046 -0.6901  2.0594
  632TIP3   OH2 1901   4.094   1.169   4.605  0.0459  0.4921  0.0128
  632TIP3    H1 1902   4.008   1.182   4.643 -0.3002  1.3460 -1.0231
  632TIP3    H2 1903   4.077   1.138   4.516  0.8296 -1.4503  0.4883
  633TIP3   OH2 1904   3.858   5.082   3.440  0.0603  0.0968 -0.7930
  633TIP3    H1 1905   3.856   5.048   3.529  0.5586  1.1468 -0.3573
  633TIP3    H2 1906   3.823   5.171   3.448  1.7451  0.8496 -1.3258
  634TIP3   OH2 1907   3.130   2.043   2.150 -0.1106 -0.5698 -0.1128
  634TIP3    H1 1908   3.216   2.012   2.119  0.4672 -1.1532  1.8909
  634TIP3    H2 1909   3.086   2.075   2.071  2.1939  0.3561 -1.1172
  635TIP3   OH2 1910   3.076   0.548   2.116 -0.1960  0.7799 -0.4358
  635TIP3    H1 1911   3.060   0.604   2.192 -0.9509 -0.4466  0.3453
  635TIP3    H2 1912   2.999   0.561   2.060 -0.1628  0.8532 -0.4645
  636TIP3   OH2 1913   2.686   4.479   4.165 -0.2717  0.2093  0.1126
  636TIP3    H1 1914   2.743   4.527   4.105 -0.3634 -1.4738 -1.4155
  636TIP3    H2 1915   2.620   4.542   4.192  0.4192  1.3017 -0.6903
  637TIP3   OH2 1916   0.085   4.339   2.863  0.0187  0.0584 -0.2550
  637TIP3    H1 1917   0.177   4.354   2.886  0.8325 -1.5030 -2.2067
  637TIP3    H2 1918   0.037   4.402   2.917  2.3807  2.7652 -1.0335
  638TIP3   OH2 1919   5.024   2.612   2.896 -0.1757  0.5181 -0.5883
  638TIP3    H1 1920   4.981   2.609   2.982  0.8487  0.1896 -0.0804
  638TIP3    H2 1921   5.005   2.700   2.864  0.2738  1.0007  0.4225
  639TIP3   OH2 1922   3.283   5.089   2.120  0.0076  0.1688  0.6036
  639TIP3    H1 1923   3.373   5.109   2.095  0.3945 -2.6685 -0.7284
  639TIP3    H2 1924   3.287   5.000   2.156 -2.0514  0.5964  2.0722
  640TIP3   OH2 1925   5.714   3.617   2.443  0.0598 -0.1967  0.2927
  640TIP3    H1 1926   5.667   3.697   2.421 -0.3000 -0.2179  0.9507
  640TIP3    H2 1927   5.651   3.565   2.493  0.8029 -0.1815  1.2712
  641TIP3   OH2 1928   4.500   0.391   0.189 -0.7676 -0.2879  0.2564
  641TIP3    H1 1929   4.448   0.420   0.114 -0.3411 -3.0661 -1.2594
  641TIP3    H2 1930   4.583   0.364   0.151  0.1869  0.0261  2.0433
  642TIP3   OH2 1931   1.278   3.793   3.905  0.3837 -0.5325 -0.4662
  642TIP3    H1 1932   1.363   3.799   3.949 -0.3435 -0.6283  1.0321
  642TIP3    H2 1933   1.214   3.798   3.976 -0.9283  1.1550 -1.6849
  643TIP3   OH2 1934   0.928   5.328   4.554 -0.1500 -0.4278 -0.4506
  643TIP3    H1 1935   0.852   5.376   4.588  0.8218 -0.3266  1.7538
  643TIP3    H2 1936   0.995   5.395   4.541  0.4204 -0.8413  0.2776
  644TIP3   OH2 1937   4.077   1.822   0.878  0.2233  0.0169 -0.1800
  644TIP3    H1 1938   4.155   1.773   0.904 -0.4459 -0.6506  0.6284
  644TIP3    H2 1939   4.080   1.901   0.932  0.3726  0.0218 -0.1942
  645TIP3   OH2 1940   5.359   3.279   4.542 -0.1436 -0.1742  0.0726
  645TIP3    H1 1941   5.340   3.267   4.449 -1.4381  0.7032  0.1864
  645TIP3    H2 1942   5.354   3.192   4.580 -0.8089 -0.3914 -0.4980
  646TIP3   OH2 1943   3.490   4.453   2.722 -0.8397 -0.1978  0.2207
  646TIP3    H1 1944   3.567   4.498   2.687  0.4160 -1.4803  1.2038
  646TIP3    H2 1945   3.467   4.502   2.801 -1.8756  0.9710 -0.7821
  647TIP3   OH2 1946   5.221   2.170   2.118  0.0494  0.3839 -0.1788
  647TIP3    H1 1947   5.314   2.173   2.140  0.3496 -2.4845 -0.7008
  647TIP3    H2 1948   5.179   2.134   2.196 -0.3046 -0.3768 -0.7149
  648TIP3   OH2 1949   3.053   5.798   0.455 -0.5382  0.3952 -0.4186
  648TIP3    H1 1950   3.049   5.894   0.454  0.8504  0.4898  0.3009
  648TIP3    H2 1951   3.134   5.777   0.408  1.0424 -0.2046  2.3282
  649TIP3   OH2 1952   5.466   0.367   3.980  0.1038  0.2333  0.1696
  649TIP3    H1 1953   5.424   0.351   4.065 -2.0156  1.1064 -0.6505
  649TIP3    H2 1954   5.400   0.343   3.915  0.0258  3.6573 -1.2018
  650TIP3   OH2 1955   2.392   4.328   4.720  0.1270 -0.2727 -0.0086
  650TIP3    H1 1956   2.359   4.244   4.752  0.8722 -0.4453  0.3197
  650TIP3    H2 1957   2.366   4.331   4.628  0.5279 -1.0837 -0.1541
  651TIP3   OH2 1958   5.584   1.335   4.010 -0.5530 -0.0909  0.2630
  651TIP3    H1 1959   5.510   1.383   3.971 -0.1588  0.7911  0.5620
  651TIP3    H2 1960   5.662   1.379   3.975 -0.1761 -0.4976  0.5755
  652TIP3   OH2 1961   0.310   1.747   3.494  0.0421 -0.2511 -0.5551
  652TIP3    H1 1962   0.350   1.808   3.556 -1.7147  0.5999 -0.1907
  652TIP3    H2 1963   0.314   1.662   3.538  0.9258 -0.0893 -0.3015
  653TIP3   OH2 1964   1.533   0.874   3.274 -0.3670  0.1569  0.4646
  653TIP3    H1 1965   1.511   0.888   3.181 -1.8428 -0.0469  0.7498
  653TIP3    H2 1966   1.528   0.961   3.313  0.3718  0.2604  0.3409
  654TIP3   OH2 1967   2.234   1.674   0.205  0.1797 -0.2241  0.0987
  654TIP3    H1 1968   2.170   1.655   0.136 -0.3130 -0.1487  0.5279
  654TIP3    H2 1969   2.318   1.681   0.159 -0.1052 -0.4191 -0.4583
  655TIP3   OH2 1970   4.823   3.726   4.889  0.2681  0.3592 -0.7119
  655TIP3    H1 1971   4.831   3.821   4.898  1.0056  0.2094  0.4511
  655TIP3    H2 1972   4.905   3.692   4.924  1.0555 -0.6400 -3.2919
  656TIP3   OH2 1973   5.522   2.834   2.295 -0.1886 -0.3066 -0.4220
  656TIP3    H1 1974   5.491   2.857   2.382  2.1468 -0.0962  0.4205
  656TIP3    H2 1975   5.603   2.785   2.310 -1.1839 -2.7919 -2.3963
  657TIP3   OH2 1976   5.180   3.048   0.657  0.0237 -0.0179  0.0454
  657TIP3    H1 1977   5.093   3.080   0.632  0.5489  1.2606 -0.1945
  657TIP3    H2 1978   5.162   2.967   0.705 -1.2681 -0.0463 -0.4383
  658TIP3   OH2 1979   3.112   1.225   3.461  0.3778  0.3392 -0.1166
  658TIP3    H1 1980   3.128   1.250   3.552  2.2304  0.3780 -0.4137
  658TIP3    H2 1981   3.060   1.297   3.425 -1.8641 -0.4461  1.2945
  659TIP3   OH2 1982   0.141   0.181   3.048 -0.1305  0.0692 -0.1901
  659TIP3    H1 1983   0.114   0.147   2.963  0.1655 -1.3284  0.2526
  659TIP3    H2 1984   0.092   0.130   3.111 -1.1502  1.8070  0.4989
  660TIP3   OH2 1985   0.009   0.376   0.267 -0.2929 -0.3953 -0.0462
  660TIP3    H1 1986   0.066   0.448   0.294 -0.3858 -0.3402  0.0011
  660TIP3    H2 1987  -0.013   0.331   0.348  0.6242 -1.1174 -0.1763
  661TIP3   OH2 1988   0.696   2.124   4.736 -0.3160 -0.6884 -0.2858
  661TIP3    H1 1989   0.748   2.053   4.699 -0.7754 -0.6684 -0.9719
  661TIP3    H2 1990   0.761   2.188   4.767  0.0705 -0.8491 -0.7596
  662TIP3   OH2 1991   3.820   2.178   1.399 -0.2527 -0.3928  0.2740
  662TIP3    H1 1992   3.773   2.232   1.336 -0.1740 -0.2169  0.3674
  662TIP3    H2 1993   3.906   2.165   1.360  0.2374  0.7670  0.9194
  663TIP3   OH2 1994   0.440   0.938   1.851 -0.2188  0.0310  0.1768
  663TIP3    H1 1995   0.457   0.844   1.844 -0.0349  0.0822 -0.0560
  663TIP3    H2 1996   0.415   0.966   1.763 -1.2480  0.0132  0.4554
  664TIP3   OH2 1997   3.365   5.461   2.131  0.3107  1.1398 -0.3607
  664TIP3    H1 1998   3.290   5.445   2.189 -0.7815  1.2309 -1.6807
  664TIP3    H2 1999   3.409   5.377   2.125  0.2445  1.0482  0.3294
  665TIP3   OH2 2000   1.354   1.975   3.519 -0.2308 -0.4528 -0.6023
  665TIP3    H1 2001   1.313   1.938   3.597  1.1072  1.8361  1.3276
  665TIP3    H2 2002   1.382   1.899   3.468 -1.0091 -2.0446  1.2105
  666TIP3   OH2 2003   3.452   5.179   0.770  0.3098 -0.3822 -0.7793
  666TIP3    H1 2004   3.485   5.124   0.840 -0.0055  1.4679  0.9356
  666TIP3    H2 2005   3.530   5.209   0.723  0.5135 -1.7139 -1.3400
  667TIP3   OH2 2006   6.297   3.999   4.939  0.3694 -0.1907 -0.0674
  667TIP3    H1 2007   6.356   3.928   4.965  0.1203 -0.1442  0.6299
  667TIP3    H2 2008   6.270   3.976   4.850 -0.1092 -1.2412  0.3317
  668TIP3   OH2 2009   0.871   2.333   0.382  0.2731 -0.4976 -0.6633
  668TIP3    H1 2010   0.834   2.349   0.296 -0.8726  1.7366  0.1869
  668TIP3    H2 2011   0.957   2.376   0.380 -0.7116  1.6421 -0.0196
  669TIP3   OH2 2012   3.444   2.493   1.703  0.1871 -0.1549  0.2167
  669TIP3    H1 2013   3.437   2.525   1.793  0.6888 -1.4491  0.7405
  669TIP3    H2 2014   3.533   2.516   1.677 -0.1218  0.6710 -0.1485
  670TIP3   OH2 2015   6.185   0.073   4.287  0.1167 -0.2596  0.2017
  670TIP3    H1 2016   6.096   0.042   4.301  0.5116 -1.6952 -0.2789
  670TIP3    H2 2017   6.239   0.024   4.349  0.5239  1.0050  0.8856
  671TIP3   OH2 2018   5.389   3.708   0.854 -0.4594  0.0896  0.1530
  671TIP3    H1 2019   5.474   3.678   0.824 -0.8775 -0.7835 -0.2078
  671TIP3    H2 2020   5.362   3.772   0.789 -0.0614  0.4056  0.2960
  672TIP3   OH2 2021   0.952   0.069   0.593 -0.5602  0.0234 -0.5178
  672TIP3    H1 2022   0.957   0.056   0.687 -1.8804  0.6448 -0.3388
  672TIP3    H2 2023   0.922   0.159   0.582  1.4404  0.6299 -1.5977
  673TIP3   OH2 2024   4.479   1.516   4.690 -0.1370 -0.6493  0.0107
  673TIP3    H1 2025   4.526   1.447   4.644  0.7905 -1.0731  1.5152
  673TIP3    H2 2026   4.513   1.597   4.653 -0.1801 -0.9843 -0.7659
  674TIP3   OH2 2027   0.906   5.919   2.220 -0.4050 -0.4962  0.4032
  674TIP3    H1 2028   0.947   6.006   2.221 -2.3327  0.5086 -1.0628
  674TIP3    H2 2029   0.975   5.860   2.189  0.1806  0.9991 -1.3067
  675TIP3   OH2 2030   2.190   0.116   0.725 -0.4725 -0.0566 -0.3154
  675TIP3    H1 2031   2.239   0.157   0.796 -0.8462  0.2559 -0.2374
  675TIP3    H2 2032   2.257   0.092   0.661  0.1217 -2.0996  0.9727
  676TIP3   OH2 2033   5.954   4.041   0.056 -0.3984 -0.2464 -0.5060
  676TIP3    H1 2034   5.997   4.127   0.055 -0.4730 -0.2080 -1.2785
  676TIP3    H2 2035   5.887   4.048   0.124 -1.0562  0.6434 -1.2272
  677TIP3   OH2 2036   2.461   1.867   2.795  0.2973  0.7156  0.3307
  677TIP3    H1 2037   2.418   1.795   2.750 -0.0312  0.8316  0.4557
  677TIP3    H2 2038   2.552   1.863   2.766  0.1985  0.4780  0.0544
  678TIP3   OH2 2039   1.968   5.333   1.340  0.6973 -0.3656  0.2160
  678TIP3    H1 2040   2.016   5.401   1.388  1.1647  0.1104 -0.9120
  678TIP3    H2 2041   1.925   5.379   1.268 -2.7171 -0.4764  1.9579
  679TIP3   OH2 2042   1.006   2.498   5.074 -0.3628  0.0819 -0.3049
  679TIP3    H1 2043   1.018   2.593   5.083 -0.6779 -0.0229  1.6223
  679TIP3    H2 2044   1.094   2.465   5.052 -0.0298  0.7223  0.0318
  680TIP3   OH2 2045   5.335   0.646   0.093 -0.2734  0.5579 -0.1222
  680TIP3    H1 2046   5.387   0.630   0.014  1.3752 -1.5289  1.2586
  680TIP3    H2 2047   5.369   0.729   0.127  1.9900 -0.5202  0.4953
  681TIP3   OH2 2048   2.255   3.177   0.062  0.0799 -0.4816  0.5301
  681TIP3    H1 2049   2.167   3.170   0.098  0.0941 -0.2410  0.6179
  681TIP3    H2 2050   2.300   3.238   0.121  0.5512 -1.2407  0.9659
  682TIP3   OH2 2051   2.727   0.911   3.241  0.7592 -0.0092  0.2372
  682TIP3    H1 2052   2.770   0.967   3.306  0.0484 -1.0043  1.6113
  682TIP3    H2 2053   2.793   0.847   3.216  1.0044  0.3168  0.0444
  683TIP3   OH2 2054   1.421   0.871   5.132 -0.0063  0.2126 -0.3369
  683TIP3    H1 2055   1.444   0.897   5.221  0.5282  0.8729 -0.6546
  683TIP3    H2 2056   1.478   0.797   5.113 -1.0354 -0.7798  0.3211
  684TIP3   OH2 2057   5.467   1.099   1.854  0.2206  0.6863 -0.4813
  684TIP3    H1 2058   5.514   1.097   1.770 -0.4819  0.1024 -0.8718
  684TIP3    H2 2059   5.520   1.046   1.913 -0.8902 -1.6563 -1.4580
  685TIP3   OH2 2060   2.383   1.834   1.557  0.1610 -0.5169  0.3249
  685TIP3    H1 2061   2.458   1.815   1.613  0.4352  2.7248  1.2598
  685TIP3    H2 2062   2.308   1.831   1.617 -0.4996 -3.3257 -0.5212
  686TIP3   OH2 2063   1.531   5.729   4.865  0.3872 -0.1817  0.0465
  686TIP3    H1 2064   1.503   5.666   4.931 -0.4278 -0.3785 -0.4807
  686TIP3    H2 2065   1.454   5.782   4.847  0.8965  0.5777  0.0310
  687TIP3   OH2 2066   1.225   2.116   2.370 -0.2299 -0.2371  0.0893
  687TIP3    H1 2067   1.259   2.099   2.282 -1.2288  0.5040 -0.4621
  687TIP3    H2 2068   1.238   2.210   2.382 -0.2289 -0.3142  0.6833
  688TIP3   OH2 2069   1.104   0.688   2.554 -0.0258  0.1929 -0.4283
  688TIP3    H1 2070   1.170   0.727   2.497 -1.0876 -0.0855 -1.8983
  688TIP3    H2 2071   1.154   0.634   2.615  1.2506  1.6318 -0.1360
  689TIP3   OH2 2072   4.741   4.790   5.058 -0.3088  0.0159  0.0789
  689TIP3    H1 2073   4.777   4.800   5.146 -0.1478  2.2119 -0.1630
  689TIP3    H2 2074   4.810   4.823   5.001 -0.6875 -0.7219 -0.8229
  690TIP3   OH2 2075   1.126   5.697   3.739 -0.0440 -0.1048  0.1959
  690TIP3    H1 2076   1.125   5.785   3.776 -2.1657 -0.1382  0.3153
  690TIP3    H2 2077   1.206   5.657   3.774  0.1853  1.2690  1.3238
  691TIP3   OH2 2078   0.939   2.492   2.955  0.2811 -0.3579  0.4807
  691TIP3    H1 2079   0.941   2.402   2.924 -0.5130 -0.6009  1.0938
  691TIP3    H2 2080   1.018   2.502   3.008  1.1289 -0.2390 -0.7544
  692TIP3   OH2 2081   0.765   2.327   3.462  0.8152 -0.2029  0.0211
  692TIP3    H1 2082   0.819   2.406   3.472  1.1239 -0.6028  1.8390
  692TIP3    H2 2083   0.736   2.330   3.371  1.0326  1.8732 -0.0431
  693TIP3   OH2 2084   5.321   0.025   4.064 -0.2520 -0.2147  0.3632
  693TIP3    H1 2085   5.403   0.057   4.026  0.6282 -2.8421 -0.2109
  693TIP3    H2 2086   5.313   0.072   4.147  0.4168  2.0058 -0.7691
  694TIP3   OH2 2087   3.562   3.112   4.796 -0.0966 -0.4928  0.0307
  694TIP3    H1 2088   3.655   3.103   4.818 -0.0749  0.8798  0.5837
  694TIP3    H2 2089   3.533   3.189   4.845 -1.3973 -0.5661 -0.5831
  695TIP3   OH2 2090   4.425   3.094   3.515  0.1940  0.6931 -0.0295
  695TIP3    H1 2091   4.457   3.176   3.551 -1.2879  0.5712  1.6783
  695TIP3    H2 2092   4.388   3.118   3.429  0.7091  1.6060 -0.0048
  696TIP3   OH2 2093   4.476   3.840   3.790  0.0816  0.6971 -0.1368
  696TIP3    H1 2094   4.488   3.780   3.864 -0.4628  1.8624  0.9495
  696TIP3    H2 2095   4.382   3.858   3.789 -0.4326 -1.5448 -3.0021
  697TIP3   OH2 2096   1.686   5.159   4.597  0.0651 -0.0693  0.1786
  697TIP3    H1 2097   1.751   5.225   4.622 -0.8821  0.1321  2.4179
  697TIP3    H2 2098   1.725   5.076   4.622 -0.3052  0.0106  1.0607
  698TIP3   OH2 2099   0.072   5.863   2.691 -0.5962  0.6689 -0.1549
  698TIP3    H1 2100   0.091   5.952   2.662  0.8233  0.1350 -1.0233
  698TIP3    H2 2101   0.044   5.818   2.611  1.5469 -0.3616 -0.3997
  699TIP3   OH2 2102   0.365   5.025   0.058  0.4191 -0.0890 -0.0234
  699TIP3    H1 2103   0.323   5.103   0.095  0.0925 -0.1077 -0.3451
  699TIP3    H2 2104   0.319   4.952   0.098  0.5464 -0.1138  0.0766
  700TIP3   OH2 2105   0.894   1.162   3.774  0.0424  0.2105  0.2154
  700TIP3    H1 2106   0.960   1.100   3.743 -1.1583 -0.8267 -0.3758
  700TIP3    H2 2107   0.822   1.154   3.711 -0.1665  2.2096  0.1325
  701TIP3   OH2 2108   3.551   5.844   2.109 -0.4722  0.0766 -0.1230
  701TIP3    H1 2109   3.467   5.889   2.112 -0.0762  0.8638 -0.3597
  701TIP3    H2 2110   3.548   5.781   2.180 -0.7187  1.0836  0.7848
  702TIP3   OH2 2111   1.308   4.913   0.300  0.0828  0.2135  0.3341
  702TIP3    H1 2112   1.361   4.838   0.274 -0.8201 -0.0332 -0.8712
  702TIP3    H2 2113   1.228   4.873   0.337  0.2642  0.5851  1.1582
  703TIP3   OH2 2114   6.199   5.081   0.048  0.2437  0.1498  0.5556
  703TIP3    H1 2115   6.274   5.122   0.005  0.0912 -0.8341 -0.7385
  703TIP3    H2 2116   6.137   5.152   0.063  1.2211  0.8828  1.1648
  704TIP3   OH2 2117   3.069   2.001   0.336 -0.4017  0.3594 -0.3789
  704TIP3    H1 2118   3.063   1.945   0.259 -0.0818  1.4367 -1.2291
  704TIP3    H2 2119   3.162   2.023   0.342 -0.3688 -0.0062  0.5421
  705TIP3   OH2 2120   4.325   2.000   2.565 -0.0893 -0.0328  0.2646
  705TIP3    H1 2121   4.267   1.933   2.530 -0.4334  1.2858 -1.9115
  705TIP3    H2 2122   4.282   2.031   2.644 -0.4168 -1.6357  0.7416
  706TIP3   OH2 2123   3.900   4.399   0.914 -0.1007  0.1664 -0.1838
  706TIP3    H1 2124   3.934   4.334   0.976  0.3238  0.1708 -0.4059
  706TIP3    H2 2125   3.811   4.416   0.944  0.4264  0.9139  1.0232
  707TIP3   OH2 2126   0.791   4.923   0.604 -0.4442  0.2148 -0.5192
  707TIP3    H1 2127   0.724   4.968   0.553 -0.7734 -0.1093 -0.3778
  707TIP3    H2 2128   0.863   4.985   0.610 -0.7595  0.5897 -0.6145
  708TIP3   OH2 2129   3.787   1.629   0.840 -0.4070 -0.1417 -0.0910
  708TIP3    H1 2130   3.725   1.586   0.898 -1.4994 -0.1984 -1.2656
  708TIP3    H2 2131   3.871   1.621   0.885 -1.1056 -0.7367  1.1695
  709TIP3   OH2 2132   2.188   3.869   4.593 -0.2499 -0.0037 -0.3126
  709TIP3    H1 2133   2.161   3.792   4.543 -0.2157  0.2691 -0.7532
  709TIP3    H2 2134   2.109   3.898   4.638 -0.2771 -0.2570 -0.1979
  710TIP3   OH2 2135   2.129   5.485   0.888 -0.5822 -0.1826 -0.7255
  710TIP3    H1 2136   2.077   5.510   0.964 -0.9343  1.9953 -1.6114
  710TIP3    H2 2137   2.077   5.514   0.813  0.6743 -0.4376 -1.7312
  711TIP3   OH2 2138   0.189   4.903   4.937  0.2927 -0.2840 -0.5483
  711TIP3    H1 2139   0.132   4.838   4.976  1.6564 -1.4649 -0.4240
  711TIP3    H2 2140   0.170   4.984   4.984  0.2374 -1.1444  0.9687
  712TIP3   OH2 2141   6.031   5.894   3.189 -0.2740  0.0600 -0.4008
  712TIP3    H1 2142   6.049   5.800   3.194 -1.2426 -0.0971  1.8128
  712TIP3    H2 2143   6.074   5.930   3.266 -0.0117  1.4290 -1.1699
  713TIP3   OH2 2144   4.099   1.142   4.321  0.6434 -0.8411  0.1607
  713TIP3    H1 2145   4.095   1.105   4.233  0.2814  0.4804 -0.3964
  713TIP3    H2 2146   4.084   1.235   4.309  0.1003 -0.7034  1.6791
  714TIP3   OH2 2147   0.421   5.609   2.484  0.4598  0.5261 -0.2195
  714TIP3    H1 2148   0.499   5.633   2.434  0.9538 -1.6628 -0.6360
  714TIP3    H2 2149   0.358   5.678   2.466  1.7906  1.5585 -1.1105
  715TIP3   OH2 2150   3.878   4.708  -0.010  0.0061 -0.1371 -0.0570
  715TIP3    H1 2151   3.872   4.612  -0.012 -0.2594 -0.1333  0.4415
  715TIP3    H2 2152   3.937   4.726   0.063 -0.4453  0.1054  0.2443
  716TIP3   OH2 2153   1.344   1.661   0.670 -0.3217 -0.3492 -0.2834
  716TIP3    H1 2154   1.296   1.715   0.733 -0.2405 -0.2758 -0.2846
  716TIP3    H2 2155   1.285   1.653   0.595  0.3913  1.3067 -1.0737
  717TIP3   OH2 2156   0.552   5.740   2.915 -0.6556 -0.1282  0.0941
  717TIP3    H1 2157   0.624   5.802   2.912  0.0377 -0.5856  3.2405
  717TIP3    H2 2158   0.473   5.795   2.920 -0.1640  0.5132  1.2141
  718TIP3   OH2 2159   0.868   0.935   2.482 -0.6426 -0.1368 -0.3070
  718TIP3    H1 2160   0.923   0.864   2.450 -1.3665 -0.5129 -0.7386
  718TIP3    H2 2161   0.779   0.902   2.474 -0.9583  0.6118  0.0162
  719TIP3   OH2 2162   3.327   0.139   4.451 -0.5793  0.3429 -0.1172
  719TIP3    H1 2163   3.414   0.116   4.420 -0.6094  1.0100 -0.7348
  719TIP3    H2 2164   3.342   0.196   4.526 -0.4508  1.3717 -0.8990
  720TIP3   OH2 2165   5.092   3.602   0.477 -0.1203  0.7691  0.1654
  720TIP3    H1 2166   5.178   3.644   0.475  0.0143  0.5051 -1.4397
  720TIP3    H2 2167   5.036   3.660   0.425 -0.5183  0.1783 -0.0810
  721TIP3   OH2 2168   0.548   5.097   3.732  0.4246 -0.4381  0.2642
  721TIP3    H1 2169   0.510   5.118   3.646  2.3416  0.9885 -0.2936
  721TIP3    H2 2170   0.528   5.173   3.786 -1.9090 -1.8605  1.5766
  722TIP3   OH2 2171   2.258   1.152   5.006 -0.0073  0.3382 -0.6028
  722TIP3    H1 2172   2.236   1.090   5.075 -1.3014  0.8593 -0.5219
  722TIP3    H2 2173   2.260   1.100   4.926  3.8620 -0.7878 -0.0129
  723TIP3   OH2 2174   2.687   4.565   0.985 -0.6236  0.3411 -0.0374
  723TIP3    H1 2175   2.686   4.582   0.891 -2.4959  0.6666  0.0047
  723TIP3    H2 2176   2.705   4.651   1.024 -1.5138  0.5523 -0.0697
  724TIP3   OH2 2177   5.650   2.383   1.616 -0.0661  0.0068 -0.1599
  724TIP3    H1 2178   5.586   2.448   1.589 -0.3403 -0.7219 -1.3352
  724TIP3    H2 2179   5.721   2.434   1.656 -0.4469  0.9895 -0.7173
  725TIP3   OH2 2180   6.022   5.862   1.790 -0.0137  0.0160 -0.1255
  725TIP3    H1 2181   5.989   5.879   1.702 -1.2355  1.0754  0.4956
  725TIP3    H2 2182   5.989   5.775   1.812  2.3753 -1.3489 -1.5965
  726TIP3   OH2 2183   1.569   2.588   2.596 -0.4052 -0.1297 -0.0673
  726TIP3    H1 2184   1.551   2.614   2.687 -2.4909 -0.8662 -0.2130
  726TIP3    H2 2185   1.595   2.496   2.602  2.3131  0.5633 -0.0026
  727TIP3   OH2 2186   2.130   2.705   2.844  0.0527  0.1132  0.1285
  727TIP3    H1 2187   2.137   2.739   2.933  0.2639 -1.5443  0.7600
  727TIP3    H2 2188   2.219   2.677   2.822  0.0558  0.7307 -0.7197
  728TIP3   OH2 2189   3.804   1.212   0.801 -0.1684  0.2934 -0.4634
  728TIP3    H1 2190   3.792   1.242   0.711 -2.6066  0.9129  0.0016
  728TIP3    H2 2191   3.716   1.187   0.830  0.6580 -0.4696  1.5608
  729TIP3   OH2 2192   0.561   2.659   4.719  0.3276  0.2176  0.1217
  729TIP3    H1 2193   0.628   2.593   4.738 -0.3285 -0.5102 -0.0540
  729TIP3    H2 2194   0.585   2.734   4.774  1.9161  0.3904 -0.7449
  730TIP3   OH2 2195   3.617   4.925   4.436 -0.6008 -0.0939  0.6509
  730TIP3    H1 2196   3.617   5.020   4.424 -1.8944  0.0920  1.8517
  730TIP3    H2 2197   3.696   4.908   4.489  0.5143  0.0807 -0.8939
  731TIP3   OH2 2198   4.452   1.946   3.035  0.0671  0.8367  0.4004
  731TIP3    H1 2199   4.451   1.856   3.002  0.7317  0.5181  1.2107
  731TIP3    H2 2200   4.394   1.943   3.111  0.0667  1.1057  0.4090
  732TIP3   OH2 2201   5.585   4.627   4.310 -0.4248  0.6781 -0.0929
  732TIP3    H1 2202   5.601   4.604   4.401 -1.2913 -1.4163 -0.4035
  732TIP3    H2 2203   5.489   4.631   4.303 -0.3635  1.0985 -0.8562
  733TIP3   OH2 2204   0.532   4.063   3.470  0.2509 -0.2391  0.5612
  733TIP3    H1 2205   0.615   4.076   3.424 -0.3535  3.2542  0.1665
  733TIP3    H2 2206   0.467   4.110   3.417 -1.9685 -2.4082  1.1251
  734TIP3   OH2 2207   0.052   4.959   2.301 -0.3691 -0.1772  0.0679
  734TIP3    H1 2208   0.050   4.907   2.381  0.4496 -0.6350 -0.1975
  734TIP3    H2 2209   0.078   5.047   2.330  0.3181 -0.4400  0.2623
  735TIP3   OH2 2210   4.174   4.566   2.463 -0.0779  0.2454  0.1733
  735TIP3    H1 2211   4.185   4.472   2.479  0.0021  0.4917  1.7700
  735TIP3    H2 2212   4.080   4.581   2.472 -0.2311  0.1585 -1.1526
  736TIP3   OH2 2213   6.212   2.886   3.601  0.0281  0.6227 -0.1565
  736TIP3    H1 2214   6.258   2.968   3.585 -1.0938  1.5477  1.1206
  736TIP3    H2 2215   6.119   2.909   3.597 -0.3141 -0.7450 -0.5272
  737TIP3   OH2 2216   4.391   0.505   1.652  0.2757  0.4038 -1.0120
  737TIP3    H1 2217   4.332   0.580   1.651  2.1137  1.9722  0.5392
  737TIP3    H2 2218   4.422   0.496   1.562 -0.0584  1.4187 -1.2317
  738TIP3   OH2 2219   4.185   5.690   4.299 -0.6541  0.3422  0.1057
  738TIP3    H1 2220   4.243   5.712   4.227 -1.2062 -1.6310 -1.0291
  738TIP3    H2 2221   4.192   5.763   4.360  0.4408  1.6959 -1.5721
  739TIP3   OH2 2222   4.669   1.756   3.939  0.2018 -0.1073 -0.2638
  739TIP3    H1 2223   4.615   1.804   4.002  1.8710 -1.0769  2.0667
  739TIP3    H2 2224   4.736   1.819   3.913  1.0178 -0.4207  0.9880
  740TIP3   OH2 2225   3.253   4.490   1.662 -0.4193 -0.5525  0.3629
  740TIP3    H1 2226   3.322   4.553   1.640  1.1192 -1.3294  2.5400
  740TIP3    H2 2227   3.173   4.542   1.664  0.4199  0.8261 -0.2279
  741TIP3   OH2 2228   5.256   0.871   2.967 -0.0543  0.0648  0.1765
  741TIP3    H1 2229   5.246   0.832   2.880 -0.9007  0.8077 -0.0856
  741TIP3    H2 2230   5.243   0.799   3.028  1.1520 -0.5889 -0.3049
  742TIP3   OH2 2231   3.585   2.412   5.153  0.0493 -0.0786  0.1390
  742TIP3    H1 2232   3.493   2.422   5.128  0.4375  0.0554 -1.3072
  742TIP3    H2 2233   3.613   2.331   5.111  1.2447  1.1330 -1.5105
  743TIP3   OH2 2234   0.894   5.941   4.735 -0.6419  0.1517 -0.6815
  743TIP3    H1 2235   0.924   6.023   4.695 -0.3015  0.6236  0.4818
  743TIP3    H2 2236   0.944   5.873   4.690  2.1923  0.9004  1.0290
  744TIP3   OH2 2237   5.366   4.408   0.815  0.0766 -0.4077 -0.1561
  744TIP3    H1 2238   5.414   4.484   0.849 -0.7561  0.7641 -1.5092
  744TIP3    H2 2239   5.414   4.383   0.736 -0.3616 -0.5227 -0.3856
  745TIP3   OH2 2240   4.944   0.831   0.893  0.0700  0.1415  0.3659
  745TIP3    H1 2241   5.031   0.803   0.920  0.6493  1.0897 -0.4484
  745TIP3    H2 2242   4.921   0.773   0.821 -0.3576 -0.6700  1.1345
  746TIP3   OH2 2243   1.849   4.190   4.182  0.3769  0.0642  0.1904
  746TIP3    H1 2244   1.872   4.254   4.250  2.1119 -2.8787  2.6350
  746TIP3    H2 2245   1.753   4.189   4.182  0.3244  1.3226  1.4070
  747TIP3   OH2 2246   6.019   4.266   4.110  0.5137  0.0846  0.1367
  747TIP3    H1 2247   5.968   4.249   4.031  1.2644 -0.5310 -0.2242
  747TIP3    H2 2248   6.018   4.183   4.157  0.0873  0.4423  0.7721
  748TIP3   OH2 2249   4.390   1.470   1.418 -0.0997  0.6756 -0.0370
  748TIP3    H1 2250   4.401   1.449   1.326  4.1262  0.4972  0.2795
  748TIP3    H2 2251   4.437   1.553   1.429 -0.4515  0.6602  1.9656
  749TIP3   OH2 2252   3.802   4.697   1.133 -0.5025 -0.5191 -0.2565
  749TIP3    H1 2253   3.733   4.728   1.075 -0.1058 -1.4281 -1.2474
  749TIP3    H2 2254   3.806   4.603   1.118 -0.7700 -0.8905  1.6707
  750TIP3   OH2 2255   5.919   5.108   0.324 -0.5477  0.1688  0.0939
  750TIP3    H1 2256   5.920   5.024   0.278 -0.7267 -0.2656  0.8565
  750TIP3    H2 2257   5.834   5.146   0.304 -0.3021  0.3572 -0.5878
  751TIP3   OH2 2258   2.652   4.422   4.710  0.1903 -0.5769  0.1600
  751TIP3    H1 2259   2.671   4.353   4.647  0.1958 -0.7048  0.2996
  751TIP3    H2 2260   2.561   4.405   4.737  0.3443 -0.8178  0.5482
  752TIP3   OH2 2261   3.309   4.990   4.616  0.4300  0.3714 -0.3377
  752TIP3    H1 2262   3.370   5.003   4.688 -0.1208  0.1343  0.1833
  752TIP3    H2 2263   3.330   5.059   4.553  0.6016  0.8798  0.2708
  753TIP3   OH2 2264   5.245   1.341   1.086  0.1363  0.2033 -0.0676
  753TIP3    H1 2265   5.317   1.308   1.139 -0.4609  2.6667  2.5251
  753TIP3    H2 2266   5.272   1.429   1.060 -0.9603  0.2542 -1.1440
  754TIP3   OH2 2267   2.685   4.171   3.683 -0.4044  0.2387  0.2078
  754TIP3    H1 2268   2.686   4.079   3.655 -3.0076 -0.0432  0.8472
  754TIP3    H2 2269   2.740   4.173   3.761 -0.2042 -0.7485  0.1055
  755TIP3   OH2 2270   1.463   5.277   4.765  0.0696 -0.1737  0.3735
  755TIP3    H1 2271   1.550   5.242   4.743  0.5200  0.2707  1.3689
  755TIP3    H2 2272   1.422   5.210   4.819  1.0126  0.8213  2.4534
  756TIP3   OH2 2273   5.803   3.275   3.924  0.2587 -0.2557 -0.1598
  756TIP3    H1 2274   5.775   3.186   3.901 -1.3959 -0.0651  0.9230
  756TIP3    H2 2275   5.821   3.271   4.018  0.4652  0.4807 -0.1639
  757TIP3   OH2 2276   2.685   4.535   0.188 -0.2028  0.1800  0.8827
  757TIP3    H1 2277   2.693   4.512   0.096  0.5936 -0.3030  1.0625
  757TIP3    H2 2278   2.594   4.564   0.198  0.0789  1.6266 -0.3610
  758TIP3   OH2 2279   2.070   5.315   2.089 -0.6511 -0.2566 -0.2473
  758TIP3    H1 2280   2.131   5.242   2.087  0.4341  0.5448  1.3142
  758TIP3    H2 2281   2.008   5.297   2.018  0.2401 -2.0883 -0.6154
  759TIP3   OH2 2282   0.170   4.143   2.464 -0.1942 -1.0631 -0.3285
  759TIP3    H1 2283   0.254   4.167   2.502  0.6695  0.7108 -3.0235
  759TIP3    H2 2284   0.106   4.193   2.514  0.7752  0.4129 -0.5000
  760TIP3   OH2 2285   4.345   5.035   3.767  0.0417 -0.0438 -0.0235
  760TIP3    H1 2286   4.353   4.942   3.747  0.0411 -0.3236  1.1927
  760TIP3    H2 2287   4.291   5.038   3.846 -1.4274  1.0984 -1.0093
  761TIP3   OH2 2288   0.939   5.372   1.490 -0.7273 -0.9165 -0.6384
  761TIP3    H1 2289   0.957   5.329   1.406  3.2521  1.5134 -1.2929
  761TIP3    H2 2290   0.945   5.465   1.471 -0.1516 -0.2575  2.2462
  762TIP3   OH2 2291   2.084   3.202   3.810 -0.2014  0.2992 -0.3598
  762TIP3    H1 2292   2.090   3.156   3.726  1.1565  1.5904 -1.0129
  762TIP3    H2 2293   2.090   3.133   3.875 -1.7483 -0.7853 -1.2955
  763TIP3   OH2 2294   3.288   1.893   1.501 -0.0579  0.0656  0.3178
  763TIP3    H1 2295   3.265   1.950   1.428  0.1936 -2.8034 -2.1895
  763TIP3    H2 2296   3.375   1.923   1.528  0.2411  0.6551 -1.1957
  764TIP3   OH2 2297   3.542   4.348   0.083  0.6616 -0.5183  0.1565
  764TIP3    H1 2298   3.526   4.276   0.144  1.4497 -0.6603  0.2074
  764TIP3    H2 2299   3.479   4.416   0.107  1.3597 -0.3346  1.5077
  765TIP3   OH2 2300   4.384   0.425   4.897 -0.3093 -0.1828 -0.1004
  765TIP3    H1 2301   4.319   0.387   4.956  1.0579 -2.9564 -0.2141
  765TIP3    H2 2302   4.333   0.483   4.840 -2.6598 -1.8782  0.1049
  766TIP3   OH2 2303   5.375   3.423   3.424 -0.3901  0.1397  0.3454
  766TIP3    H1 2304   5.337   3.351   3.374  2.3843 -2.0366  1.1671
  766TIP3    H2 2305   5.401   3.487   3.357 -1.0385 -0.5051 -0.5545
  767TIP3   OH2 2306   1.676   3.451   3.490  0.1613 -0.6342 -0.1117
  767TIP3    H1 2307   1.723   3.528   3.458  0.7404 -0.2539  1.5664
  767TIP3    H2 2308   1.744   3.387   3.507 -0.1486 -0.8801  0.2032
  768TIP3   OH2 2309   5.329   2.358   0.841 -0.2429 -0.4773  0.3377
  768TIP3    H1 2310   5.395   2.306   0.887  1.0422 -0.8393 -1.7897
  768TIP3    H2 2311   5.321   2.316   0.755 -0.6602  1.6487 -0.7218
  769TIP3   OH2 2312   4.563   4.075   0.702 -0.2347 -0.1930  0.1059
  769TIP3    H1 2313   4.508   4.151   0.724 -0.9562 -0.5604 -0.3905
  769TIP3    H2 2314   4.536   4.007   0.763 -0.2709 -0.3432 -0.0757
  770TIP3   OH2 2315   1.203   0.502   0.246  0.6472  0.4375 -0.0868
  770TIP3    H1 2316   1.171   0.584   0.210 -1.2665 -0.4330 -0.4841
  770TIP3    H2 2317   1.280   0.481   0.193 -1.1879 -0.0323 -2.7616
  771TIP3   OH2 2318   3.697   4.687   4.622  0.0041  0.1960 -0.0326
  771TIP3    H1 2319   3.751   4.763   4.644  0.6804 -0.3460  0.2175
  771TIP3    H2 2320   3.753   4.634   4.566 -0.4572 -0.1298 -0.1914
  772TIP3   OH2 2321   5.070   2.241   0.552  0.0135  0.1973  0.1813
  772TIP3    H1 2322   5.049   2.150   0.572 -1.1627  0.8780  2.2565
  772TIP3    H2 2323   5.165   2.245   0.557  0.0952 -0.9571 -0.1634
  773TIP3   OH2 2324   1.515   1.204   3.717  0.1243  0.9198 -0.0617
  773TIP3    H1 2325   1.483   1.143   3.783 -0.7954  1.0051 -0.4230
  773TIP3    H2 2326   1.610   1.195   3.721  0.1687 -4.3221 -3.5959
  774TIP3   OH2 2327   1.549   0.879   0.335  0.3862 -0.5616  0.2341
  774TIP3    H1 2328   1.557   0.943   0.264  1.2547 -1.1028 -0.1755
  774TIP3    H2 2329   1.527   0.932   0.412  1.5180  0.2977 -0.0064
  775TIP3   OH2 2330   1.279   1.594   1.448 -0.0916 -0.1105 -0.1121
  775TIP3    H1 2331   1.188   1.622   1.458 -0.0677 -0.1892  0.3437
  775TIP3    H2 2332   1.309   1.577   1.537  0.3348 -0.1992 -0.2692
  776TIP3   OH2 2333   2.662   4.279   2.399  0.3144  0.3942  0.0494
  776TIP3    H1 2334   2.648   4.259   2.492 -1.0573  0.3672 -0.1377
  776TIP3    H2 2335   2.697   4.198   2.362 -1.3591 -0.4130  0.1079
  777TIP3   OH2 2336   5.084   2.110   5.167 -0.2306  0.3180 -0.1205
  777TIP3    H1 2337   5.124   2.183   5.118 -0.0064 -1.0016 -2.0104
  777TIP3    H2 2338   5.143   2.096   5.241  0.4447  1.2009 -0.4690
  778TIP3   OH2 2339   4.164   4.544   3.004 -0.3979  0.0349  0.2769
  778TIP3    H1 2340   4.108   4.487   3.057 -0.2897 -0.1051  0.2382
  778TIP3    H2 2341   4.191   4.613   3.065 -1.4090  0.6524  0.0536
  779TIP3   OH2 2342   4.059   3.995   0.659 -0.2026 -0.0598  0.3808
  779TIP3    H1 2343   4.088   3.905   0.667  1.6708  0.5803  1.5750
  779TIP3    H2 2344   4.113   4.032   0.590 -2.1793 -0.2467 -1.3587
  780TIP3   OH2 2345   6.274   3.195   3.287 -1.1090 -0.3269  0.1396
  780TIP3    H1 2346   6.223   3.122   3.252 -1.7391  0.5955 -0.9325
  780TIP3    H2 2347   6.345   3.206   3.224  0.7633 -1.8882  1.8497
  781TIP3   OH2 2348   3.140   3.066   4.204  0.3758 -0.0244  0.7973
  781TIP3    H1 2349   3.231   3.087   4.219  0.3624 -0.1970  1.1365
  781TIP3    H2 2350   3.107   3.036   4.289 -0.1115  0.4532  0.7826
  782TIP3   OH2 2351   4.542   0.572   1.900 -0.0995  0.1809  0.9054
  782TIP3    H1 2352   4.553   0.556   1.806 -1.6818  1.4684  0.4677
  782TIP3    H2 2353   4.548   0.485   1.940  1.6532 -0.2703 -0.2391
  783TIP3   OH2 2354   0.080   0.477   1.775 -0.8982  0.0922 -0.7855
  783TIP3    H1 2355   0.011   0.491   1.840  0.8583 -0.4599  1.3194
  783TIP3    H2 2356   0.106   0.565   1.749 -0.8390  0.3825  0.1924
  784TIP3   OH2 2357   2.534   1.606   1.286 -0.4324 -0.4107  0.1436
  784TIP3    H1 2358   2.444   1.624   1.315  0.1562  0.5221  1.4815
  784TIP3    H2 2359   2.540   1.510   1.285 -1.3055 -0.4792  0.4317
  785TIP3   OH2 2360   1.553   2.158   3.318  0.7111 -0.3939 -0.0231
  785TIP3    H1 2361   1.484   2.122   3.263  0.0973  0.6220  0.0510
  785TIP3    H2 2362   1.507   2.206   3.386  1.4651  1.6012 -0.8335
  786TIP3   OH2 2363   0.739   4.575   1.869 -0.1519  0.6164 -0.2900
  786TIP3    H1 2364   0.695   4.660   1.878 -0.4539  0.6984 -2.1833
  786TIP3    H2 2365   0.755   4.566   1.775  3.5574  0.4085  0.2088
  787TIP3   OH2 2366   5.800   3.915   2.417 -0.2208 -0.4332 -0.0608
  787TIP3    H1 2367   5.843   3.872   2.491 -0.5451 -1.2614 -0.3435
  787TIP3    H2 2368   5.708   3.891   2.426 -0.4072  0.2027 -0.2326
  788TIP3   OH2 2369   0.343   2.517   4.645 -0.0263  0.5592 -0.2369
  788TIP3    H1 2370   0.416   2.557   4.692 -0.6040  1.1551  0.1858
  788TIP3    H2 2371   0.374   2.506   4.556  0.2743  1.6877 -0.2933
  789TIP3   OH2 2372   6.292   4.609   0.049  0.1169 -0.7670 -0.1215
  789TIP3    H1 2373   6.265   4.618  -0.042 -0.1909  0.1067  0.0440
  789TIP3    H2 2374   6.277   4.696   0.087 -1.0864 -1.4610  1.1057
  790TIP3   OH2 2375   2.652   2.429   2.711  0.1959  0.3320  0.0656
  790TIP3    H1 2376   2.597   2.432   2.633  0.1302 -2.4316 -0.0633
  790TIP3    H2 2377   2.725   2.488   2.691 -0.5372  0.7614 -1.4933
  791TIP3   OH2 2378   3.103   0.196   0.469 -0.6256 -0.0984 -0.3029
  791TIP3    H1 2379   3.023   0.240   0.442  0.3462  1.9515 -0.0270
  791TIP3    H2 2380   3.160   0.266   0.499  1.2044 -1.5142 -0.2870
  792TIP3   OH2 2381   1.137   5.752   1.372 -0.6198 -0.4771  0.1402
  792TIP3    H1 2382   1.178   5.666   1.375 -0.0038 -0.2240 -0.6779
  792TIP3    H2 2383   1.150   5.782   1.282  3.4032  2.4631  1.3912
  793TIP3   OH2 2384   1.756   0.811   5.014 -0.1116  0.0609  0.3196
  793TIP3    H1 2385   1.845   0.774   5.017 -0.0398  0.2748  1.0734
  793TIP3    H2 2386   1.733   0.810   4.921  1.0921  0.9662 -0.0187
  794TIP3   OH2 2387   1.528   1.611   2.581  0.0805 -0.1788  0.1757
  794TIP3    H1 2388   1.488   1.546   2.639  1.1371 -2.6135 -1.6207
  794TIP3    H2 2389   1.461   1.629   2.515 -0.1577  0.4793  0.5876
  795TIP3   OH2 2390   2.154   4.625   3.477 -0.1437  0.2718 -0.4340
  795TIP3    H1 2391   2.153   4.531   3.493 -1.3135  0.3065 -0.2068
  795TIP3    H2 2392   2.117   4.635   3.389  0.4664  0.4863 -0.6679
  796TIP3   OH2 2393   5.038   1.913   2.649  0.1584 -0.1113 -0.1661
  796TIP3    H1 2394   4.958   1.957   2.620  0.3155  0.3871  0.1521
  796TIP3    H2 2395   5.022   1.820   2.630 -0.9790 -0.1757  0.9654
  797TIP3   OH2 2396   1.707   3.238   1.858 -0.2094  0.3075  0.0407
  797TIP3    H1 2397   1.655   3.274   1.786 -1.4276  0.3999  0.9425
  797TIP3    H2 2398   1.720   3.146   1.834 -0.9227  0.2444 -0.1397
  798TIP3   OH2 2399   4.246   4.981   0.236  0.2636  0.2779  0.0838
  798TIP3    H1 2400   4.301   4.999   0.312 -0.0636  0.4989  0.2702
  798TIP3    H2 2401   4.308   4.974   0.163  0.5368  0.5273  0.2878
  799TIP3   OH2 2402   2.089   2.917   1.685 -0.0593  0.1761 -0.1811
  799TIP3    H1 2403   2.104   2.825   1.666 -1.4645  0.2592 -2.0029
  799TIP3    H2 2404   2.021   2.944   1.623 -0.4656  2.1738  1.0197
  800TIP3   OH2 2405   4.526   4.846   2.247 -0.4538  0.9362  0.2379
  800TIP3    H1 2406   4.586   4.829   2.174  1.2950 -2.7097  2.1898
  800TIP3    H2 2407   4.440   4.820   2.215  0.5253 -2.1893 -0.2719
  801TIP3   OH2 2408   5.799   3.266   0.893  0.3868  0.2621 -0.4488
  801TIP3    H1 2409   5.779   3.275   0.986  0.9644 -2.8691  0.1230
  801TIP3    H2 2410   5.801   3.171   0.879  2.0179  0.6058 -3.2780
  802TIP3   OH2 2411   0.882   2.873   1.330 -0.5063 -0.2507  0.1394
  802TIP3    H1 2412   0.904   2.957   1.290 -1.9497 -0.6842 -1.7162
  802TIP3    H2 2413   0.868   2.894   1.422  1.8413  1.0072  0.2822
  803TIP3   OH2 2414   2.764   1.908   2.059 -0.1123 -0.1328 -0.0118
  803TIP3    H1 2415   2.723   1.888   1.975 -1.0774  3.1523 -0.4702
  803TIP3    H2 2416   2.714   1.858   2.123 -1.8357  0.1790 -1.0508
  804TIP3   OH2 2417   0.362   3.918   4.647  0.0378  0.6763  0.0076
  804TIP3    H1 2418   0.329   3.978   4.714  1.8360  3.0612 -1.1010
  804TIP3    H2 2419   0.443   3.883   4.683 -0.3582 -0.1254  0.1361
  805TIP3   OH2 2420   6.111   3.984   2.995 -0.1702  0.0522  0.2671
  805TIP3    H1 2421   6.156   4.026   2.922 -1.1787  0.5970 -0.0718
  805TIP3    H2 2422   6.037   3.938   2.954  0.6436 -1.6956  0.6864
  806TIP3   OH2 2423   1.967   1.401   1.994  0.4340  0.5587 -0.9955
  806TIP3    H1 2424   2.032   1.344   2.034  1.0176  1.3564 -0.7808
  806TIP3    H2 2425   2.018   1.467   1.948 -0.1629  2.0610  0.3895
  807TIP3   OH2 2426   4.823   3.978   4.519 -0.2200 -0.5232 -0.5469
  807TIP3    H1 2427   4.875   4.032   4.579  0.6548  0.0623 -1.7726
  807TIP3    H2 2428   4.732   3.999   4.541  0.0819 -0.2012  0.4545
  808TIP3   OH2 2429   4.472   1.705   3.739  0.0512 -0.2083 -0.1584
  808TIP3    H1 2430   4.445   1.622   3.779 -1.2771  0.4302  0.3422
  808TIP3    H2 2431   4.533   1.743   3.802  1.1074 -1.0446 -0.6516
  809TIP3   OH2 2432   2.075   1.137   1.245  0.0497  0.6249 -0.0088
  809TIP3    H1 2433   2.021   1.212   1.270 -1.4558 -0.3480 -0.2666
  809TIP3    H2 2434   2.165   1.171   1.248 -0.5127  2.1276  0.9479
  810TIP3   OH2 2435   5.924   5.003   4.024  0.1618  0.2192 -0.4340
  810TIP3    H1 2436   5.928   4.925   3.968 -1.5435  0.0454 -0.3475
  810TIP3    H2 2437   5.889   5.072   3.968 -1.5597  0.0475  0.3663
  811TIP3   OH2 2438   2.393   3.761   3.875 -0.0390  0.3851  0.2340
  811TIP3    H1 2439   2.422   3.792   3.961 -0.2126  3.1034 -0.6152
  811TIP3    H2 2440   2.410   3.834   3.815  0.1779 -1.4474 -2.1054
  812TIP3   OH2 2441   5.881   0.171   0.936  0.1750 -0.6280  0.0527
  812TIP3    H1 2442   5.956   0.114   0.952  0.6231  0.1971  0.9902
  812TIP3    H2 2443   5.915   0.260   0.948 -0.8753 -0.2305  0.1766
  813TIP3   OH2 2444   2.020   3.209   0.893 -0.5614  0.1811  0.1620
  813TIP3    H1 2445   2.049   3.286   0.941 -3.4274  1.8901 -0.6110
  813TIP3    H2 2446   2.098   3.154   0.886  1.0124  1.8732  2.8160
  814TIP3   OH2 2447   3.837   2.697   1.087  0.1358 -0.2184 -0.0042
  814TIP3    H1 2448   3.912   2.670   1.035 -1.0221 -0.9963 -1.3455
  814TIP3    H2 2449   3.772   2.628   1.072 -1.4526  1.2789 -0.2778
  815TIP3   OH2 2450   3.560   0.881   4.149  0.4193 -0.0548  0.0726
  815TIP3    H1 2451   3.637   0.862   4.096  0.0949 -2.6420  0.4237
  815TIP3    H2 2452   3.486   0.854   4.094 -0.1336  0.6478  0.4577
  816TIP3   OH2 2453   1.888   5.583   1.696  0.0307  0.2349 -0.4010
  816TIP3    H1 2454   1.864   5.589   1.788  1.6781 -1.7012  0.2193
  816TIP3    H2 2455   1.811   5.616   1.649 -2.5512 -2.5181  1.5307
  817TIP3   OH2 2456   4.728   2.908   2.008 -0.0372  0.1621 -0.0608
  817TIP3    H1 2457   4.679   2.959   2.071  1.3786 -0.0742  1.3068
  817TIP3    H2 2458   4.773   2.973   1.954  2.3200  0.5160  2.1174
  818TIP3   OH2 2459   4.602   1.941   1.698 -0.0432 -0.5898  0.0951
  818TIP3    H1 2460   4.515   1.909   1.674 -0.8290  0.9923  0.6605
  818TIP3    H2 2461   4.619   1.901   1.784 -0.3650 -0.6347  0.1405
  819TIP3   OH2 2462   3.354   3.779   4.829  0.3969  0.0399 -0.2436
  819TIP3    H1 2463   3.326   3.719   4.899  0.1710 -0.0991 -0.4540
  819TIP3    H2 2464   3.450   3.777   4.834  0.3761  0.8966  0.7990
  820TIP3   OH2 2465   3.741   1.821   1.020 -0.3331  0.9149 -0.3701
  820TIP3    H1 2466   3.650   1.830   1.050  0.1350  0.8586  1.1347
  820TIP3    H2 2467   3.734   1.777   0.935 -1.7856  2.1945 -0.9690
  821TIP3   OH2 2468   5.564   2.047   4.690  0.1656 -0.3131  0.5399
  821TIP3    H1 2469   5.626   2.119   4.704  0.6337 -0.1400 -1.9137
  821TIP3    H2 2470   5.554   2.006   4.776  0.8373  1.9141  1.7620
  822TIP3   OH2 2471   1.947   3.723   3.949 -0.0697  0.9097  0.1060
  822TIP3    H1 2472   1.949   3.630   3.928  0.1482  0.8884  0.2239
  822TIP3    H2 2473   1.891   3.761   3.882 -0.2581  0.6755  0.1260
  823TIP3   OH2 2474   4.137   4.236   3.414  0.6421  0.4112  0.0586
  823TIP3    H1 2475   4.216   4.239   3.360  0.0711 -1.9547 -1.0427
  823TIP3    H2 2476   4.162   4.186   3.491  0.2376 -0.3933 -0.3184
  824TIP3   OH2 2477   5.861   1.749   2.174  0.7035  0.7482 -0.3599
  824TIP3    H1 2478   5.796   1.765   2.106  0.2034  1.6023  0.2969
  824TIP3    H2 2479   5.915   1.678   2.140 -0.8779 -0.3207 -0.6973
  825TIP3   OH2 2480   5.107   5.651   0.521 -0.1236  0.4308  0.3384
  825TIP3    H1 2481   5.196   5.675   0.496  0.1239 -0.3225  0.4672
  825TIP3    H2 2482   5.051   5.719   0.482  0.3250 -0.1864 -1.4691
  826TIP3   OH2 2483   2.284   1.448   5.023  0.1515 -0.4120 -0.6132
  826TIP3    H1 2484   2.199   1.489   5.037 -0.2609 -1.5523  0.2623
  826TIP3    H2 2485   2.270   1.355   5.037  1.5737 -0.6117 -0.3294
  827TIP3   OH2 2486   1.228   3.244   3.394 -0.6306  0.2806 -0.1392
  827TIP3    H1 2487   1.208   3.151   3.398 -1.0605  0.2519 -2.0061
  827TIP3    H2 2488   1.164   3.285   3.452  0.0229 -0.6129  1.2690
  828TIP3   OH2 2489   5.579   1.405   1.166 -0.2712  0.2346  0.2756
  828TIP3    H1 2490   5.608   1.327   1.213 -1.6371  0.0609  0.8815
  828TIP3    H2 2491   5.617   1.478   1.214  0.1359 -0.0149  0.3396
  829TIP3   OH2 2492   3.895   3.930   4.228 -0.7206  0.1832 -0.3699
  829TIP3    H1 2493   3.932   3.880   4.301  1.5683 -1.1127 -2.2516
  829TIP3    H2 2494   3.826   3.874   4.193 -0.2997 -0.2494 -0.5291
  830TIP3   OH2 2495   4.465   2.756   5.084 -0.2001  0.0999  0.1832
  830TIP3    H1 2496   4.378   2.726   5.112 -1.1008  2.5937  0.3757
  830TIP3    H2 2497   4.453   2.784   4.993  0.3755  0.4682  0.2140
  831TIP3   OH2 2498   3.281   5.648   4.484 -0.4468  0.7095  0.3339
  831TIP3    H1 2499   3.342   5.577   4.468  0.3578  1.2549  0.9142
  831TIP3    H2 2500   3.303   5.714   4.418 -1.0844  0.4983 -0.1001
  832TIP3   OH2 2501   4.635   0.102   0.367  0.3925  0.4294  0.9775
  832TIP3    H1 2502   4.718   0.068   0.401 -0.7165  0.3731  3.9203
  832TIP3    H2 2503   4.609   0.170   0.429  0.4197  3.8594 -2.3851
  833TIP3   OH2 2504   0.270   4.173   1.702  0.2107 -0.1948  0.7848
  833TIP3    H1 2505   0.338   4.169   1.769 -0.8297 -0.0797  1.8838
  833TIP3    H2 2506   0.272   4.263   1.671 -0.3934  0.2046  1.8613
  834TIP3   OH2 2507   0.256   5.816   2.398 -0.6049 -0.1425  0.6032
  834TIP3    H1 2508   0.247   5.803   2.303  0.8729 -0.8805  0.5343
  834TIP3    H2 2509   0.167   5.806   2.432 -0.7753 -2.8638 -0.3937
  835TIP3   OH2 2510   3.062   4.324   2.222 -0.1866 -0.6941  0.4880
  835TIP3    H1 2511   3.008   4.261   2.173  0.8205  0.4442 -2.2831
  835TIP3    H2 2512   3.141   4.275   2.246 -0.2105 -0.9846 -0.0178
  836TIP3   OH2 2513   6.151   4.727   1.405  0.7511  0.9935  0.1363
  836TIP3    H1 2514   6.060   4.756   1.405  0.8179  1.3288  2.1353
  836TIP3    H2 2515   6.198   4.796   1.357  0.3255  2.2396  1.4465
  837TIP3   OH2 2516   3.377   0.388   4.568 -0.2196  0.1264  0.0398
  837TIP3    H1 2517   3.372   0.481   4.591 -0.6012  0.2622 -0.5540
  837TIP3    H2 2518   3.470   0.371   4.557 -0.0835  0.2315  0.9560
  838TIP3   OH2 2519   1.000   1.417   0.596 -0.1811  0.2671 -0.3300
  838TIP3    H1 2520   0.921   1.470   0.602 -0.3228  0.1275 -0.9319
  838TIP3    H2 2521   1.039   1.440   0.512  0.7016  0.7248  0.1903
  839TIP3   OH2 2522   5.147   2.758   5.078 -0.5385 -0.2547  0.3460
  839TIP3    H1 2523   5.080   2.791   5.138 -0.0799  0.3591  0.5383
  839TIP3    H2 2524   5.167   2.670   5.110  0.7180  0.5712  1.9855
  840TIP3   OH2 2525   3.103   5.929   2.798  0.2005  0.1266 -0.4709
  840TIP3    H1 2526   3.074   6.013   2.834  0.8853 -0.0503  0.5179
  840TIP3    H2 2527   3.028   5.898   2.746 -0.2150  1.1303 -0.4820
  841TIP3   OH2 2528   1.377   4.837   2.990  0.1379 -0.3766  0.3455
  841TIP3    H1 2529   1.400   4.780   2.916 -0.6968 -0.7350  0.3452
  841TIP3    H2 2530   1.291   4.872   2.967  0.7871  1.1759  0.1937
  842TIP3   OH2 2531   5.960   5.281   4.560  0.3143 -0.2327  0.3916
  842TIP3    H1 2532   5.937   5.188   4.563 -0.4126 -0.0997 -0.5323
  842TIP3    H2 2533   5.893   5.320   4.503  0.3087  0.9474  1.1756
  843TIP3   OH2 2534   1.266   2.776   3.723  0.4230  0.2805 -0.1254
  843TIP3    H1 2535   1.281   2.812   3.810  0.0850 -2.4031  1.1308
  843TIP3    H2 2536   1.347   2.729   3.702 -0.1773 -0.6599 -0.4101
  844TIP3   OH2 2537   5.936   0.328   0.277 -0.4791  0.1739 -0.5862
  844TIP3    H1 2538   5.892   0.413   0.277  0.2135  0.5546  0.3257
  844TIP3    H2 2539   5.965   0.316   0.187  0.6883  1.6028 -0.4305
  845TIP3   OH2 2540   2.849   3.882   3.382  0.3261  0.0225  0.0656
  845TIP3    H1 2541   2.785   3.834   3.435 -2.3562  1.1225 -1.9916
  845TIP3    H2 2542   2.822   3.973   3.388  1.6663  0.5199 -0.9747
  846TIP3   OH2 2543   2.728   5.848   2.175 -0.0673  0.4165 -0.3637
  846TIP3    H1 2544   2.668   5.795   2.228  0.3313  1.3129  1.0572
  846TIP3    H2 2545   2.808   5.796   2.169 -0.1322  0.2861 -0.1220
  847TIP3   OH2 2546   4.098   3.080   3.990  0.0129  0.3615 -0.0287
  847TIP3    H1 2547   4.054   3.132   4.056  0.1837  2.4888 -1.4887
  847TIP3    H2 2548   4.164   3.031   4.038 -0.6002  0.9605  1.4986
  848TIP3   OH2 2549   3.434   0.832   0.248 -0.3108 -0.2284  0.0896
  848TIP3    H1 2550   3.432   0.803   0.157  1.6786 -0.2032 -0.0099
  848TIP3    H2 2551   3.522   0.811   0.278  0.7249  3.8514  0.5909
  849TIP3   OH2 2552   6.169   2.165   1.121  0.2521  0.7820  0.1600
  849TIP3    H1 2553   6.262   2.150   1.135 -0.0888 -0.5051  1.1365
  849TIP3    H2 2554   6.153   2.135   1.031  0.5901  0.0706  0.3329
  850TIP3   OH2 2555   5.991   2.670   5.103 -0.2146 -0.1622  0.2062
  850TIP3    H1 2556   6.019   2.619   5.028 -0.1824  0.4727 -0.2191
  850TIP3    H2 2557   6.055   2.741   5.110 -1.1428  0.7507 -0.1978
  851TIP3   OH2 2558   2.104   3.499   0.892  0.0469  0.0346 -0.0030
  851TIP3    H1 2559   2.173   3.452   0.939  1.6986  2.1305 -0.2126
  851TIP3    H2 2560   2.112   3.589   0.922 -0.3078  1.0183 -2.6398
  852TIP3   OH2 2561   1.578   0.384   0.856 -0.2844 -0.1688 -0.0770
  852TIP3    H1 2562   1.613   0.352   0.939 -0.5748 -1.4362 -0.4234
  852TIP3    H2 2563   1.644   0.446   0.825  0.4096 -0.5937  0.5220
  853TIP3   OH2 2564   2.516   3.240   4.021 -0.1492  0.5916 -0.3833
  853TIP3    H1 2565   2.510   3.323   3.974 -1.1141  0.5975 -0.2877
  853TIP3    H2 2566   2.492   3.262   4.111  3.2419  0.8850  0.5714
  854TIP3   OH2 2567   4.299   1.589   0.045  0.2213 -0.3656  0.0210
  854TIP3    H1 2568   4.353   1.591  -0.034  0.1455  1.1364 -0.0225
  854TIP3    H2 2569   4.362   1.591   0.117  0.2627  0.3221 -0.0259
  855TIP3   OH2 2570   5.326   0.955   2.647  0.9390  0.4720  0.1680
  855TIP3    H1 2571   5.387   0.969   2.719  1.1501  2.8013 -0.3641
  855TIP3    H2 2572   5.323   0.861   2.635  3.3862  0.2188  1.0920
  856TIP3   OH2 2573   4.997   3.850   2.599  0.3376 -0.1011 -0.4903
  856TIP3    H1 2574   4.977   3.867   2.691 -0.2309 -1.7260 -0.2818
  856TIP3    H2 2575   5.077   3.900   2.582  0.2606  0.4850  0.7804
  857TIP3   OH2 2576   1.367   2.199   1.696 -0.1860  0.2740  0.1781
  857TIP3    H1 2577   1.279   2.235   1.704 -0.5832 -0.1357 -1.8020
  857TIP3    H2 2578   1.354   2.104   1.693  0.4413  0.1542  1.0446
  858TIP3   OH2 2579   4.570   3.501   2.520 -0.1385 -0.1283  0.2178
  858TIP3    H1 2580   4.661   3.529   2.528  0.3486 -1.8566  1.3664
  858TIP3    H2 2581   4.541   3.490   2.611 -0.6182 -2.0964 -0.1170
  859TIP3   OH2 2582   4.654   3.502   2.168  0.0593  0.0439  0.1714
  859TIP3    H1 2583   4.623   3.579   2.215  0.5418  0.1599  0.2979
  859TIP3    H2 2584   4.671   3.534   2.079  2.7450  0.7152  0.8472
  860TIP3   OH2 2585   0.102   0.262   3.514  0.2105  0.1854  0.9476
  860TIP3    H1 2586   0.077   0.304   3.596  1.1791  0.3401  1.1767
  860TIP3    H2 2587   0.078   0.324   3.446 -2.6295 -0.8460  0.9060
  861TIP3   OH2 2588   2.910   4.700   1.932 -0.0067  0.0944 -0.2597
  861TIP3    H1 2589   2.839   4.636   1.936  0.0806 -0.2607 -2.6670
  861TIP3    H2 2590   2.973   4.670   1.997 -0.8881 -1.1018  0.0865
  862TIP3   OH2 2591   5.214   1.060   3.480  0.1370 -0.3372 -0.2120
  862TIP3    H1 2592   5.234   1.052   3.387 -0.8537  1.1045 -0.5842
  862TIP3    H2 2593   5.136   1.006   3.493  0.0685 -0.2613 -0.3044
  863TIP3   OH2 2594   1.513   3.822   4.056  0.6736 -0.4550  0.1272
  863TIP3    H1 2595   1.518   3.901   4.109 -1.7390 -0.1577  0.0232
  863TIP3    H2 2596   1.544   3.752   4.114  2.0210  0.4165  0.4988
  864TIP3   OH2 2597   3.827   3.318   3.461  0.1304 -0.0670 -0.2843
  864TIP3    H1 2598   3.734   3.338   3.461  0.5518  2.4114 -1.8267
  864TIP3    H2 2599   3.837   3.248   3.397 -0.6267  0.0168 -0.4969
  865TIP3   OH2 2600   2.169   0.193   2.845 -0.3561 -0.3137 -0.0555
  865TIP3    H1 2601   2.178   0.273   2.792  1.1779 -0.6301 -0.3161
  865TIP3    H2 2602   2.258   0.162   2.856 -0.8264 -1.2961  1.1534
  866TIP3   OH2 2603   2.417   5.059   0.154 -0.1440  0.1292  0.2559
  866TIP3    H1 2604   2.402   5.064   0.249  1.0426 -0.1435  0.4782
  866TIP3    H2 2605   2.352   4.996   0.123 -0.9364  0.6675  0.7904
  867TIP3   OH2 2606   5.436   4.464   2.607  0.0725 -0.4095 -0.1013
  867TIP3    H1 2607   5.368   4.468   2.540  0.4033  0.3911 -0.4108
  867TIP3    H2 2608   5.515   4.494   2.561 -0.0607  1.9937  1.0965
  868TIP3   OH2 2609   0.042   5.514   1.012  0.5163  0.3145  0.2358
  868TIP3    H1 2610   0.086   5.440   1.053  0.6667  0.2410 -0.0618
  868TIP3    H2 2611   0.028   5.576   1.084  0.0805 -0.1444  0.5557
  869TIP3   OH2 2612   1.711   1.728   2.792 -0.0119  0.3216 -0.1197
  869TIP3    H1 2613   1.649   1.711   2.720 -0.0910  1.4877 -0.3522
  869TIP3    H2 2614   1.732   1.642   2.827  0.0808 -0.2847 -1.5995
  870TIP3   OH2 2615   3.779   2.939   3.934 -0.5887 -0.0724  0.6250
  870TIP3    H1 2616   3.783   3.007   4.001 -0.3418  0.4170  0.1212
  870TIP3    H2 2617   3.848   2.877   3.957 -0.1200  0.4001  0.4963
  871TIP3   OH2 2618   3.907   1.948   1.200  0.0073  0.0665 -0.0607
  871TIP3    H1 2619   3.932   1.878   1.260  1.2701  0.2665 -0.3198
  871TIP3    H2 2620   3.854   1.904   1.133 -0.2294 -0.4126  0.4370
  872TIP3   OH2 2621   3.800   5.629   1.594 -0.5355 -0.8270 -0.2947
  872TIP3    H1 2622   3.849   5.573   1.654  0.0171 -0.3001 -0.2504
  872TIP3    H2 2623   3.708   5.618   1.619 -0.1752  1.7302  2.7236
  873TIP3   OH2 2624   1.405   3.085   4.310 -0.9016  0.3149  0.1699
  873TIP3    H1 2625   1.474   3.024   4.338 -1.7463 -1.9748 -2.3279
  873TIP3    H2 2626   1.450   3.147   4.253 -0.5948 -0.2288 -0.1992
  874TIP3   OH2 2627   5.985   3.596   0.633 -0.3599 -0.0159 -0.3493
  874TIP3    H1 2628   5.941   3.680   0.617 -1.1885 -0.1931  0.8610
  874TIP3    H2 2629   6.060   3.619   0.687 -0.9979 -0.1144  0.6067
  875TIP3   OH2 2630   5.375   3.234   0.966  0.0130 -0.0119  0.1255
  875TIP3    H1 2631   5.446   3.260   1.025 -0.2946  1.1440  0.0123
  875TIP3    H2 2632   5.349   3.316   0.923 -0.4279 -0.6696 -0.8854
  876TIP3   OH2 2633   0.229   2.225   5.052 -0.5669  0.0140  0.6135
  876TIP3    H1 2634   0.245   2.217   4.958  2.2244 -1.0246  1.0794
  876TIP3    H2 2635   0.242   2.136   5.086  3.1456  1.0710  2.4838
  877TIP3   OH2 2636   1.312   4.308   4.294 -0.4268  0.0079  0.1762
  877TIP3    H1 2637   1.225   4.272   4.309 -0.4571 -0.2433 -0.5422
  877TIP3    H2 2638   1.311   4.393   4.338 -0.9527 -0.0979  0.3728
  878TIP3   OH2 2639   1.416   5.152   4.264 -0.3668 -0.2337  0.2956
  878TIP3    H1 2640   1.365   5.110   4.333  1.1358  0.0253  1.6136
  878TIP3    H2 2641   1.442   5.081   4.206  0.2243 -0.7898  1.2337
  879TIP3   OH2 2642   3.325   0.112   1.076 -0.5131 -0.0134 -0.1864
  879TIP3    H1 2643   3.256   0.109   1.143 -1.3588  0.1121 -1.0289
  879TIP3    H2 2644   3.283   0.153   1.001  0.5705  0.2997 -0.6336
  880TIP3   OH2 2645   5.745   2.383   4.495  0.0965 -0.6867 -0.1857
  880TIP3    H1 2646   5.798   2.372   4.574  1.1448 -2.3877 -1.0785
  880TIP3    H2 2647   5.749   2.477   4.476  0.4225 -0.3596  1.3489
  881TIP3   OH2 2648   1.541   4.948   1.484  0.0007  0.0545 -0.1754
  881TIP3    H1 2649   1.598   5.024   1.477 -0.3684  0.2448 -1.4329
  881TIP3    H2 2650   1.484   4.967   1.559 -0.9477  1.6520 -1.2317
  882TIP3   OH2 2651   1.005   0.927   4.503 -0.1073 -0.1293  0.2349
  882TIP3    H1 2652   1.012   0.896   4.412 -0.0068 -0.1288  0.2421
  882TIP3    H2 2653   1.051   0.861   4.554 -0.8983 -0.5792  0.3858
  883TIP3   OH2 2654   6.255   2.326   0.124  0.2680  0.1174  0.0328
  883TIP3    H1 2655   6.305   2.250   0.153  1.1406  1.2625  1.7044
  883TIP3    H2 2656   6.319   2.396   0.116 -0.8466  1.3328  1.1265
  884TIP3   OH2 2657   3.821   3.537   4.231  0.4401  1.0747  0.4689
  884TIP3    H1 2658   3.874   3.579   4.164 -0.3718  3.9158  1.4673
  884TIP3    H2 2659   3.731   3.559   4.207 -0.0020  0.2512  1.3094
  885TIP3   OH2 2660   5.646   4.349   3.284 -0.1760 -0.5948  0.3272
  885TIP3    H1 2661   5.572   4.398   3.319 -1.1827 -1.7153 -0.1345
  885TIP3    H2 2662   5.606   4.284   3.226  1.2031 -0.9872 -0.2266
  886TIP3   OH2 2663   3.611   5.599   3.544 -0.0261  0.3378  0.2952
  886TIP3    H1 2664   3.536   5.565   3.592 -0.1463 -0.5434 -0.4926
  886TIP3    H2 2665   3.686   5.583   3.601  0.1896 -2.8947 -0.6971
  887TIP3   OH2 2666   2.191   3.708   4.050 -0.7376 -0.4074 -0.0304
  887TIP3    H1 2667   2.256   3.743   3.989 -0.3135 -0.6621  0.2697
  887TIP3    H2 2668   2.109   3.713   4.002 -0.9557  2.2974  0.4859
  888TIP3   OH2 2669   4.159   2.283   0.829  0.2796 -0.4267 -0.8596
  888TIP3    H1 2670   4.088   2.272   0.765 -0.0791 -1.6403 -0.2936
  888TIP3    H2 2671   4.161   2.200   0.876  2.1268 -0.4276 -0.8909
  889TIP3   OH2 2672   1.943   2.283   2.038  0.1941 -0.2206 -0.0056
  889TIP3    H1 2673   1.989   2.200   2.050 -2.7125 -1.7169  2.0314
  889TIP3    H2 2674   1.855   2.258   2.010 -0.5611  2.2241 -0.0664
  890TIP3   OH2 2675   4.730   0.098   2.322  0.2473  0.1871 -0.0724
  890TIP3    H1 2676   4.766   0.035   2.259  0.5106  1.0892 -0.8464
  890TIP3    H2 2677   4.806   0.146   2.354 -0.1920  2.0424 -1.6542
  891TIP3   OH2 2678   2.019   3.082   2.956  0.2992  0.2731  0.1787
  891TIP3    H1 2679   1.955   3.150   2.976  0.7181  0.9357 -0.6897
  891TIP3    H2 2680   1.986   3.004   3.002 -2.3559 -0.0447 -1.9763
  892TIP3   OH2 2681   5.285   4.620   0.989  0.4856 -0.0961 -0.4191
  892TIP3    H1 2682   5.255   4.618   1.080  1.1749  1.3463 -0.1476
  892TIP3    H2 2683   5.238   4.547   0.948 -2.9224  1.5961  0.1410
  893TIP3   OH2 2684   2.839   4.683   2.566 -0.0761  0.4342 -0.1067
  893TIP3    H1 2685   2.865   4.629   2.491  0.8891  1.7236 -0.7391
  893TIP3    H2 2686   2.824   4.620   2.637  0.5399 -0.6881 -0.9409
  894TIP3   OH2 2687   5.692   2.425   1.314  0.2018 -0.4195 -0.4824
  894TIP3    H1 2688   5.629   2.490   1.343  2.3389  2.1117 -1.1257
  894TIP3    H2 2689   5.726   2.387   1.395 -1.5097 -1.2522 -0.1165
  895TIP3   OH2 2690   0.629   3.291   1.379  0.1273 -0.0722 -0.2215
  895TIP3    H1 2691   0.552   3.348   1.391 -1.6988 -2.3205 -0.6222
  895TIP3    H2 2692   0.663   3.279   1.467 -1.5721 -1.0420  0.3668
  896TIP3   OH2 2693   1.340  -0.016   2.915 -0.0968  0.0795 -0.0647
  896TIP3    H1 2694   1.356   0.076   2.937  1.1388  0.5683 -2.5798
  896TIP3    H2 2695   1.247  -0.020   2.893  0.0517  1.0258 -0.9791
  897TIP3   OH2 2696   3.572   2.643   3.368  0.0311  0.8457  0.2662
  897TIP3    H1 2697   3.585   2.563   3.418  1.0895  0.8930  0.0922
  897TIP3    H2 2698   3.489   2.678   3.399 -0.2914 -0.1599  0.5584
  898TIP3   OH2 2699   1.002   5.656   3.508 -0.0638 -0.4494 -0.4571
  898TIP3    H1 2700   0.911   5.647   3.534  0.1666  0.0241  0.5411
  898TIP3    H2 2701   1.048   5.679   3.588  0.9630 -0.8443 -0.9193
  899TIP3   OH2 2702   2.396   0.991   1.363  0.2420  0.4541  0.3903
  899TIP3    H1 2703   2.483   1.006   1.400  0.8721 -0.2536 -0.7568
  899TIP3    H2 2704   2.375   1.071   1.315 -0.9980  1.7799  2.9551
  900TIP3   OH2 2705   0.370   0.978   3.221 -0.3774  0.3050 -0.7064
  900TIP3    H1 2706   0.391   1.028   3.143  0.9710 -0.5363 -0.9258
  900TIP3    H2 2707   0.276   0.962   3.216 -0.8801  2.8650 -0.5543
  901TIP3   OH2 2708   4.102   1.660   4.956  0.3146  0.6740 -0.1656
  901TIP3    H1 2709   4.131   1.679   4.866  0.2822  0.7773 -0.1538
  901TIP3    H2 2710   4.054   1.738   4.983  0.2171  0.5919 -0.1028
  902TIP3   OH2 2711   2.437   4.994   4.252 -0.5477 -0.2401  0.1000
  902TIP3    H1 2712   2.377   4.926   4.221 -0.8356  0.3480 -0.6415
  902TIP3    H2 2713   2.516   4.982   4.199 -0.9633  0.6298 -0.7418
  903TIP3   OH2 2714   1.870   3.684   1.976  0.3809  0.5577  0.1987
  903TIP3    H1 2715   1.830   3.598   1.989  1.0468  0.0698 -0.9051
  903TIP3    H2 2716   1.811   3.728   1.915 -1.6284  2.0828  3.0032
  904TIP3   OH2 2717   3.882   5.363   4.251 -0.1868  0.2533  0.2179
  904TIP3    H1 2718   3.859   5.290   4.193 -1.4939  0.1667  0.8025
  904TIP3    H2 2719   3.810   5.366   4.314  0.5193  1.2193  0.9989
  905TIP3   OH2 2720   3.284   1.040   1.854  0.1369  0.1199  0.0788
  905TIP3    H1 2721   3.238   0.967   1.895 -1.2270  0.5201 -0.7111
  905TIP3    H2 2722   3.340   0.999   1.788  1.2086 -0.3928  1.2580
  906TIP3   OH2 2723   5.452   5.814   4.530 -0.3762  0.5304  0.9316
  906TIP3    H1 2724   5.505   5.739   4.503  0.1505  1.6488 -1.4028
  906TIP3    H2 2725   5.509   5.863   4.589  0.2420  0.3593  0.4977
  907TIP3   OH2 2726   0.045   2.591   0.053  0.1909 -0.1667 -0.0843
  907TIP3    H1 2727   0.006   2.588  -0.034 -1.3186  1.8086  0.4563
  907TIP3    H2 2728   0.070   2.682   0.065 -1.1879 -0.0205  2.1718
  908TIP3   OH2 2729   0.981   5.151   1.340  0.2979  0.4116  0.4288
  908TIP3    H1 2730   1.006   5.080   1.399 -0.2301  1.2310  1.6770
  908TIP3    H2 2731   0.938   5.108   1.267  1.8846 -0.7185  0.1059
  909TIP3   OH2 2732   4.337   2.651   4.374 -0.0437  0.2801 -0.6077
  909TIP3    H1 2733   4.326   2.741   4.404 -0.4207  0.2579 -0.6761
  909TIP3    H2 2734   4.249   2.622   4.352 -0.1341 -0.5753  0.7758
  910TIP3   OH2 2735   2.629   1.909   1.836 -0.4479  0.3251 -0.2360
  910TIP3    H1 2736   2.662   1.956   1.759  1.6443 -1.0309 -0.2296
  910TIP3    H2 2737   2.625   1.817   1.808 -0.8077 -0.0321  0.9255
  911TIP3   OH2 2738   1.864   2.648   0.379  0.5301  0.1895  0.2753
  911TIP3    H1 2739   1.876   2.703   0.302 -0.4931  1.2349  0.8281
  911TIP3    H2 2740   1.877   2.707   0.453  0.3670 -0.5331  0.8921
  912TIP3   OH2 2741   6.145   5.138   4.982 -0.0989  0.0553  0.1520
  912TIP3    H1 2742   6.173   5.092   4.902  0.4126 -1.2023  1.0176
  912TIP3    H2 2743   6.164   5.076   5.052  2.8822  2.4091  1.6857
  913TIP3   OH2 2744   3.825   0.256   1.662 -0.1018  0.2337  0.2014
  913TIP3    H1 2745   3.842   0.210   1.580 -0.6080  0.6241 -0.1314
  913TIP3    H2 2746   3.912   0.278   1.695  0.1803 -1.4429  0.6689
  914TIP3   OH2 2747   4.877   5.907   3.340  0.4372 -0.4409  0.2680
  914TIP3    H1 2748   4.944   5.963   3.301  0.3288 -3.3960 -5.2485
  914TIP3    H2 2749   4.794   5.942   3.307 -0.0792 -0.9629  0.9747
  915TIP3   OH2 2750   0.136   3.623   3.769  0.4617  0.2906  0.2869
  915TIP3    H1 2751   0.058   3.600   3.821  1.6441  0.6942  2.3423
  915TIP3    H2 2752   0.155   3.543   3.719 -1.3588  0.2496 -0.4338
  916TIP3   OH2 2753   3.768   5.748   2.868  0.2143 -0.0667  0.8872
  916TIP3    H1 2754   3.678   5.734   2.837  0.0302 -2.2250  2.1365
  916TIP3    H2 2755   3.798   5.660   2.893  3.7490  0.0409 -2.1560
  917TIP3   OH2 2756   1.766   1.353   3.243  0.0699  0.0059 -0.0293
  917TIP3    H1 2757   1.772   1.277   3.301 -0.3608  0.2315  0.3236
  917TIP3    H2 2758   1.679   1.344   3.202  0.2837 -0.0361 -0.4774
  918TIP3   OH2 2759   4.189   5.674   3.888  0.1637  0.0388  0.0809
  918TIP3    H1 2760   4.248   5.623   3.944  0.1066 -0.0620  0.0498
  918TIP3    H2 2761   4.221   5.659   3.799  0.7172  0.8020  0.1443
  919TIP3   OH2 2762   4.543   5.824   4.425  0.0858  0.2075  0.0330
  919TIP3    H1 2763   4.588   5.746   4.457 -0.8855 -0.7541 -0.8541
  919TIP3    H2 2764   4.612   5.880   4.391  0.5878 -1.9906 -2.9477
  920TIP3   OH2 2765   1.254   5.413   2.942  0.1018 -0.1488  0.0806
  920TIP3    H1 2766   1.244   5.466   3.021 -0.7256 -1.1006  0.6375
  920TIP3    H2 2767   1.345   5.385   2.944  0.1352 -0.0168  0.5950
  921TIP3   OH2 2768   3.566   5.613   4.013  0.6137 -0.2336  0.2076
  921TIP3    H1 2769   3.482   5.581   3.980  1.1709 -0.9949 -0.5160
  921TIP3    H2 2770   3.624   5.537   4.007  1.0370 -0.0656  1.8833
  922TIP3   OH2 2771   5.936   3.179   3.456 -0.1615  0.0789  0.2874
  922TIP3    H1 2772   5.973   3.148   3.538  0.1998  0.7722  0.3997
  922TIP3    H2 2773   5.974   3.122   3.389 -0.4759 -0.5015  0.6032
  923TIP3   OH2 2774   3.232   2.643   0.189 -0.6059 -0.3192  0.3962
  923TIP3    H1 2775   3.241   2.553   0.160  0.5994 -0.0502 -0.1311
  923TIP3    H2 2776   3.144   2.668   0.162 -0.7467 -1.1583  0.0439
  924TIP3   OH2 2777   4.689   5.803   1.489  0.1033 -0.1988  0.1843
  924TIP3    H1 2778   4.599   5.789   1.460 -0.2197  1.7943  0.0434
  924TIP3    H2 2779   4.682   5.808   1.585  0.4764 -2.3797  0.3723
  925TIP3   OH2 2780   1.945   4.132   5.053 -0.2307 -0.1319 -0.9997
  925TIP3    H1 2781   2.021   4.077   5.034  0.5376  0.2545  0.8073
  925TIP3    H2 2782   1.974   4.193   5.120 -1.9315  0.5229 -0.7925
  926TIP3   OH2 2783   4.477   2.509   4.189 -0.3457 -0.5123 -0.3442
  926TIP3    H1 2784   4.426   2.547   4.261 -1.2305 -0.4253 -1.0001
  926TIP3    H2 2785   4.511   2.427   4.225 -1.8862 -1.1416 -0.2035
  927TIP3   OH2 2786   6.346   2.608   0.631 -0.1231 -0.5261 -0.2403
  927TIP3    H1 2787   6.257   2.583   0.606  0.4086 -3.5855  0.5195
  927TIP3    H2 2788   6.344   2.613   0.726  0.6746 -1.5377 -0.1501
  928TIP3   OH2 2789   1.032   0.396   2.429 -0.0311 -0.5359  0.5312
  928TIP3    H1 2790   1.070   0.436   2.507  2.4347  0.7400 -1.1575
  928TIP3    H2 2791   0.948   0.441   2.417  0.4900  0.7178  1.3540
  929TIP3   OH2 2792   3.068   4.121   1.971  0.0613 -0.5021 -0.1973
  929TIP3    H1 2793   3.118   4.185   1.920  0.5567 -0.1688  0.6812
  929TIP3    H2 2794   3.116   4.113   2.053 -0.2609 -1.6582 -0.1061
  930TIP3   OH2 2795   3.129   5.252   4.605 -0.1869  0.1529  0.0864
  930TIP3    H1 2796   3.206   5.231   4.553 -1.4062 -1.1260 -1.2583
  930TIP3    H2 2797   3.164   5.298   4.681  2.0205 -1.3605  0.0742
  931TIP3   OH2 2798   2.914   2.334   2.410  0.0412  0.2658  0.2670
  931TIP3    H1 2799   2.953   2.267   2.465  3.2113 -0.5318 -2.6126
  931TIP3    H2 2800   2.853   2.287   2.354  1.4926 -0.1354 -1.0440
  932TIP3   OH2 2801   0.262   0.347   1.598 -0.5582 -0.2494  0.1138
  932TIP3    H1 2802   0.223   0.327   1.512 -0.2400  2.2652 -0.7018
  932TIP3    H2 2803   0.187   0.370   1.653 -0.5900  0.8932 -0.3639
  933TIP3   OH2 2804   3.727   3.691   5.148 -0.1121  0.0267 -0.2981
  933TIP3    H1 2805   3.775   3.608   5.155  0.5867  0.4240 -0.2354
  933TIP3    H2 2806   3.661   3.686   5.217  1.7624  0.6952  1.6413
  934TIP3   OH2 2807   3.942   0.199   1.407 -0.0018 -0.1520 -0.2873
  934TIP3    H1 2808   3.992   0.281   1.402 -0.1454 -0.0434  0.0645
  934TIP3    H2 2809   3.932   0.172   1.316  1.0739 -0.4027 -0.3387
  935TIP3   OH2 2810   2.051   1.066   3.207  0.2777 -0.1380 -0.1487
  935TIP3    H1 2811   2.107   1.001   3.164  2.6570  1.3583  0.4822
  935TIP3    H2 2812   2.063   1.049   3.301  0.0513  0.5255  0.0054
  936TIP3   OH2 2813   0.067   0.449   2.533 -0.0615 -0.8635  0.0043
  936TIP3    H1 2814   0.109   0.431   2.449  0.1670 -0.3330 -0.0022
  936TIP3    H2 2815   0.052   0.363   2.572  0.8138 -1.0738 -0.1028
  937TIP3   OH2 2816   3.410   3.146   0.701  0.0641 -0.5484 -0.3827
  937TIP3    H1 2817   3.319   3.149   0.670  0.7165 -2.5743 -2.8452
  937TIP3    H2 2818   3.424   3.055   0.726  0.7897  0.2229  2.4132
  938TIP3   OH2 2819   0.490   5.646   3.466 -0.2188  0.6693 -0.4460
  938TIP3    H1 2820   0.521   5.561   3.497 -0.0689 -0.0456 -2.4071
  938TIP3    H2 2821   0.401   5.652   3.500  0.3035  0.4807  1.0469
  939TIP3   OH2 2822   5.320   3.903   1.356  0.1289  0.0164 -0.1844
  939TIP3    H1 2823   5.304   3.842   1.283  1.1777  2.3155 -2.4859
  939TIP3    H2 2824   5.395   3.865   1.402 -0.3423 -1.3371 -0.4845
  940TIP3   OH2 2825   0.767   2.682   1.063 -0.1999 -0.1639 -0.3354
  940TIP3    H1 2826   0.766   2.776   1.049  1.2386  0.0378  0.7186
  940TIP3    H2 2827   0.737   2.645   0.979 -0.3794  1.2053 -0.8928
  941TIP3   OH2 2828   1.969   2.446   2.387 -0.3235  0.0021  0.3591
  941TIP3    H1 2829   1.936   2.486   2.467 -2.8775 -1.4562  0.1400
  941TIP3    H2 2830   2.024   2.374   2.418  0.2633  0.6105  0.7646
  942TIP3   OH2 2831   6.160   1.772   0.710  0.4501  0.3567  0.4426
  942TIP3    H1 2832   6.175   1.681   0.734  0.9166  0.1312 -0.6681
  942TIP3    H2 2833   6.248   1.807   0.693  0.1026 -0.6314 -4.9152
  943TIP3   OH2 2834   3.368   2.400   3.395 -0.1545  0.4213  0.1698
  943TIP3    H1 2835   3.290   2.349   3.418  1.4688 -3.4187 -1.8296
  943TIP3    H2 2836   3.334   2.487   3.374 -3.3377  0.0169  2.7920
  944TIP3   OH2 2837   4.093   0.741   2.000  0.7674 -0.0206  0.2403
  944TIP3    H1 2838   4.133   0.789   2.073  0.5192  0.8475 -0.1758
  944TIP3    H2 2839   4.057   0.810   1.944  0.2480 -0.7169 -0.2893
  945TIP3   OH2 2840   2.320   0.106   2.551 -0.1696  0.2947 -0.9031
  945TIP3    H1 2841   2.286   0.171   2.490 -0.6299  1.5937  0.6640
  945TIP3    H2 2842   2.404   0.140   2.581 -0.7071  0.5406  0.4212
  946TIP3   OH2 2843   4.995   4.836   0.656  0.4175  0.4770 -0.3950
  946TIP3    H1 2844   5.078   4.793   0.677  0.7956  0.6029 -1.5622
  946TIP3    H2 2845   4.939   4.766   0.626  0.6015  0.6035 -1.0423
  947TIP3   OH2 2846   1.379   0.063   4.567  0.5160 -0.0034  0.3926
  947TIP3    H1 2847   1.318   0.101   4.504  1.0286  0.6050  0.2496
  947TIP3    H2 2848   1.426   0.138   4.603  2.0007 -0.5202 -0.3667
  948TIP3   OH2 2849   4.033   2.337   2.827 -0.0766  0.0584 -0.0168
  948TIP3    H1 2850   4.092   2.392   2.775  2.1550  0.6638  2.8819
  948TIP3    H2 2851   3.967   2.398   2.861  0.2808  0.2661  0.3120
  949TIP3   OH2 2852   4.175   3.493   0.569  0.7336 -0.0793  0.7963
  949TIP3    H1 2853   4.268   3.505   0.547  0.4815 -1.1408 -0.9581
  949TIP3    H2 2854   4.129   3.552   0.509  0.1328 -1.6892 -0.3832
  950TIP3   OH2 2855   6.002   2.330   4.688 -0.1458 -0.0386 -0.6999
  950TIP3    H1 2856   6.080   2.373   4.652 -1.1598  2.9642  0.3785
  950TIP3    H2 2857   6.014   2.334   4.783 -2.1455  1.7987 -0.4448
  951TIP3   OH2 2858   1.996   0.719   1.708 -0.2726 -0.2451  0.2448
  951TIP3    H1 2859   1.935   0.786   1.738  0.8522  2.2153 -2.4465
  951TIP3    H2 2860   2.078   0.740   1.752  0.2603  0.6928 -1.1099
  952TIP3   OH2 2861   0.267   3.495   0.827 -0.0910  0.2641 -0.1679
  952TIP3    H1 2862   0.203   3.441   0.780 -0.4639  0.3174  0.2709
  952TIP3    H2 2863   0.314   3.433   0.882  0.7161  0.1189 -1.0008
  953TIP3   OH2 2864   4.997   1.487   3.815  0.0478  0.0501  0.0852
  953TIP3    H1 2865   5.054   1.410   3.808 -0.1465 -0.2804  1.7655
  953TIP3    H2 2866   5.056   1.561   3.809  0.5825 -0.2825  1.0222
  954TIP3   OH2 2867   6.041   0.827   2.004  0.1780 -0.0226  0.2452
  954TIP3    H1 2868   6.015   0.837   2.096 -0.0141 -1.3040  0.3544
  954TIP3    H2 2869   6.096   0.903   1.986  0.2562  0.2269  1.4412
  955TIP3   OH2 2870   0.781   3.647   0.143  0.4373 -0.2752 -0.5566
  955TIP3    H1 2871   0.768   3.725   0.089 -0.5935 -0.4034 -0.5238
  955TIP3    H2 2872   0.740   3.576   0.093  1.0160 -0.7235 -0.4074
  956TIP3   OH2 2873   5.064   5.112   0.562 -0.2889  0.0972  0.2884
  956TIP3    H1 2874   5.143   5.139   0.608 -1.1236  1.5641  0.9432
  956TIP3    H2 2875   5.061   5.017   0.573 -0.2375  0.3213  3.0116
  957TIP3   OH2 2876   0.439   5.181   5.102  0.2824  0.4167 -1.0562
  957TIP3    H1 2877   0.445   5.120   5.028 -1.5966 -0.7617 -0.3208
  957TIP3    H2 2878   0.410   5.126   5.175  0.3856  1.8784  0.1252
  958TIP3   OH2 2879   3.411   5.558   1.366 -0.0596  0.7265  0.5351
  958TIP3    H1 2880   3.493   5.509   1.362 -0.6462 -0.1945 -1.2027
  958TIP3    H2 2881   3.346   5.491   1.389 -0.6489  0.9848 -0.3549
  959TIP3   OH2 2882   2.291   4.183   1.715  0.3400 -0.2547  0.8576
  959TIP3    H1 2883   2.222   4.180   1.781 -0.4340 -1.3003  0.0523
  959TIP3    H2 2884   2.311   4.091   1.697  0.3670 -0.0099 -0.4901
  960TIP3   OH2 2885   4.949   3.275   2.657  0.0129 -0.6992 -0.0350
  960TIP3    H1 2886   4.990   3.193   2.629 -2.9747 -1.7242 -1.7833
  960TIP3    H2 2887   4.985   3.341   2.598 -0.9011 -1.5996 -1.6524
  961TIP3   OH2 2888   2.345   0.119   5.049 -0.1785  0.1278  0.2121
  961TIP3    H1 2889   2.438   0.124   5.072  0.1227 -0.4027 -0.7957
  961TIP3    H2 2890   2.338   0.038   4.998 -0.8393  1.0685 -1.2569
  962TIP3   OH2 2891   3.462   4.962   3.935  0.2411  0.1284  0.2153
  962TIP3    H1 2892   3.468   5.009   4.018 -0.6614  3.3555 -1.3575
  962TIP3    H2 2893   3.371   4.971   3.909  0.1706 -2.0833 -0.5237
  963TIP3   OH2 2894   5.936   4.101   2.553 -0.0473  0.1222  0.1135
  963TIP3    H1 2895   5.932   4.076   2.460 -0.1661 -1.7844  0.6011
  963TIP3    H2 2896   6.021   4.068   2.583  0.6158  1.9560  0.3867
  964TIP3   OH2 2897   2.717   0.362   1.450  0.0339 -0.3063  0.2778
  964TIP3    H1 2898   2.693   0.455   1.457  1.7402  0.2547 -0.6844
  964TIP3    H2 2899   2.670   0.320   1.522 -2.8660  0.8301 -0.7843
  965TIP3   OH2 2900   1.057   5.719   1.755  0.4333 -0.1255  0.4826
  965TIP3    H1 2901   0.967   5.752   1.745  0.7413  0.9334  1.0542
  965TIP3    H2 2902   1.051   5.627   1.731 -0.2738  0.5239 -2.3211
  966TIP3   OH2 2903   6.011   2.099   1.972  0.0519 -0.0940 -0.0636
  966TIP3    H1 2904   6.076   2.170   1.980 -0.2249  0.0667  0.8217
  966TIP3    H2 2905   6.050   2.039   1.907  1.2605 -0.1801  0.7003
  967TIP3   OH2 2906   6.071   3.480   4.368  0.2104  0.3254  0.5034
  967TIP3    H1 2907   6.126   3.433   4.431  0.8139  0.9261  0.4393
  967TIP3    H2 2908   6.097   3.445   4.283 -0.4264 -0.3048  0.5557
  968TIP3   OH2 2909   1.997   2.656   3.891  0.2676 -0.2877 -0.1893
  968TIP3    H1 2910   2.003   2.713   3.967 -1.3585  0.4115 -0.5513
  968TIP3    H2 2911   1.995   2.567   3.928 -0.6692  0.0457  0.5909
  969TIP3   OH2 2912   1.159   2.486   1.341 -0.0412  0.1989 -0.4621
  969TIP3    H1 2913   1.171   2.571   1.382 -0.1052  0.8746 -1.8021
  969TIP3    H2 2914   1.208   2.491   1.260 -0.7878 -0.7180 -0.9949
  970TIP3   OH2 2915   0.624   5.716   5.089 -0.0849  0.1514 -0.4768
  970TIP3    H1 2916   0.645   5.711   5.183 -0.6859 -1.9581 -0.4175
  970TIP3    H2 2917   0.687   5.780   5.055  0.6034  0.4591  1.2369
  971TIP3   OH2 2918   2.358   3.357   5.101 -0.7822  0.3249 -0.1195
  971TIP3    H1 2919   2.292   3.331   5.037  0.6331  0.9679 -1.9230
  971TIP3    H2 2920   2.335   3.447   5.124 -0.7945  0.3951 -0.4039
  972TIP3   OH2 2921   2.638   3.656   2.128 -0.2316  0.0011 -0.5329
  972TIP3    H1 2922   2.581   3.612   2.191  0.3934  1.0212  0.8305
  972TIP3    H2 2923   2.724   3.657   2.171  0.2896  0.4354 -1.5551
  973TIP3   OH2 2924   0.340   0.749   2.404  0.0222 -0.1462 -0.5277
  973TIP3    H1 2925   0.356   0.666   2.357 -1.9567 -0.2102 -1.1798
  973TIP3    H2 2926   0.245   0.758   2.404  0.1820  1.9265 -0.0662
  974TIP3   OH2 2927   4.563   0.677   0.281  0.0088  0.6320 -0.0214
  974TIP3    H1 2928   4.590   0.588   0.301  3.1675  2.2342  4.3919
  974TIP3    H2 2929   4.576   0.685   0.186 -0.1444 -3.3824 -0.5450
  975TIP3   OH2 2930   5.897   5.439   0.743  0.2361  0.0203 -0.3208
  975TIP3    H1 2931   5.813   5.483   0.736  0.8324  1.5177  1.2462
  975TIP3    H2 2932   5.893   5.392   0.826  0.4847 -0.9772 -0.8606
  976TIP3   OH2 2933   5.813   1.924   2.919  0.0391  0.0787  0.2756
  976TIP3    H1 2934   5.803   2.014   2.948  0.4421  0.2912 -0.2219
  976TIP3    H2 2935   5.895   1.923   2.870 -0.2807 -0.4073 -0.2775
  977TIP3   OH2 2936   4.331   3.562   4.451 -0.1352  0.0889  0.1807
  977TIP3    H1 2937   4.363   3.490   4.506  1.4843 -0.4526 -1.3665
  977TIP3    H2 2938   4.400   3.575   4.387 -0.0624  3.5399  0.7982
  978TIP3   OH2 2939   0.076   3.846   2.645 -0.0580 -0.5348 -0.0565
  978TIP3    H1 2940   0.025   3.781   2.693 -1.6668  0.3303 -0.5122
  978TIP3    H2 2941   0.097   3.912   2.711 -0.7714 -0.2030 -0.1468
  979TIP3   OH2 2942   5.062   5.273   2.660 -0.4201 -0.3450  0.4147
  979TIP3    H1 2943   4.985   5.218   2.672 -2.0444  1.9947  1.6216
  979TIP3    H2 2944   5.126   5.239   2.722 -1.3020 -0.9817  0.9943
  980TIP3   OH2 2945   4.727   0.517   0.851 -0.0455  0.8736 -0.1137
  980TIP3    H1 2946   4.810   0.480   0.881 -0.5520 -1.2246 -1.1155
  980TIP3    H2 2947   4.744   0.545   0.761 -0.4634  0.1767 -0.4208
  981TIP3   OH2 2948   0.150   2.420   3.778 -0.5736  0.4028 -0.4391
  981TIP3    H1 2949   0.145   2.325   3.776  0.4354  0.2211  2.0157
  981TIP3    H2 2950   0.060   2.448   3.800 -0.7562 -0.0151 -0.6543
  982TIP3   OH2 2951   3.520   4.957   2.822  0.2754  0.4789 -0.3812
  982TIP3    H1 2952   3.573   4.924   2.751 -0.3919 -0.3287 -0.5194
  982TIP3    H2 2953   3.577   5.018   2.869  0.2696  2.1950 -2.4739
  983TIP3   OH2 2954   3.087   1.173   2.607  0.1315 -0.3315  0.1915
  983TIP3    H1 2955   3.104   1.186   2.700  1.0809  0.6357 -0.1073
  983TIP3    H2 2956   3.077   1.078   2.598  2.1989 -0.6616  0.9355
  984TIP3   OH2 2957   5.707   3.357   0.648 -0.5585 -0.3651  0.3953
  984TIP3    H1 2958   5.769   3.315   0.589 -0.1107  0.5183  0.2104
  984TIP3    H2 2959   5.745   3.346   0.735  0.6930  1.4835  0.1466
  985TIP3   OH2 2960   0.299   1.406   4.275  0.8452 -0.2356  0.1223
  985TIP3    H1 2961   0.288   1.362   4.359  2.4914 -0.1974  0.3943
  985TIP3    H2 2962   0.350   1.345   4.222 -1.3570 -0.8747 -1.3968
  986TIP3   OH2 2963   5.282   3.886   2.807  0.0354 -0.3018 -0.1901
  986TIP3    H1 2964   5.297   3.978   2.826 -1.0639  0.4774 -2.7398
  986TIP3    H2 2965   5.232   3.854   2.882  0.2135  1.2149  0.6166
  987TIP3   OH2 2966   1.257   3.525   3.636  0.3762  0.4315  0.9479
  987TIP3    H1 2967   1.238   3.613   3.603  1.5758 -0.6124 -3.1529
  987TIP3    H2 2968   1.175   3.477   3.627  0.5827  0.2752 -0.3538
  988TIP3   OH2 2969   3.066   0.147   4.548 -0.5650  0.8377  0.0972
  988TIP3    H1 2970   3.094   0.194   4.626 -1.0780  2.5370 -0.6747
  988TIP3    H2 2971   3.146   0.107   4.514 -0.0046  1.5285  0.5663
  989TIP3   OH2 2972   4.759   1.018   0.963 -0.1263  0.6409 -0.0963
  989TIP3    H1 2973   4.828   1.062   1.012  1.5611  0.5114 -2.2184
  989TIP3    H2 2974   4.800   0.938   0.929 -1.0486  0.9283 -2.0333
  990TIP3   OH2 2975   0.199   4.609   4.957 -0.1534 -1.1673 -0.2113
  990TIP3    H1 2976   0.158   4.527   4.928  0.4114 -0.9802 -1.6382
  990TIP3    H2 2977   0.204   4.663   4.878 -0.9213  0.4467  0.7941
  991TIP3   OH2 2978   4.612   4.885   4.578  0.3930 -0.5446  0.4268
  991TIP3    H1 2979   4.576   4.909   4.664 -0.4818  0.4957 -0.1946
  991TIP3    H2 2980   4.535   4.879   4.522  0.8962 -1.8657 -0.1537
  992TIP3   OH2 2981   0.215   2.782   1.247 -0.7359 -0.8226 -0.4444
  992TIP3    H1 2982   0.185   2.749   1.163 -0.0106  0.7959 -1.3944
  992TIP3    H2 2983   0.288   2.841   1.225 -0.7332 -0.1206  1.2815
  993TIP3   OH2 2984   5.105   2.197   3.465  0.1314  0.4358 -0.0887
  993TIP3    H1 2985   5.117   2.292   3.454  0.1851  0.4435  0.0282
  993TIP3    H2 2986   5.042   2.173   3.398  2.9724 -0.1309 -2.7357
  994TIP3   OH2 2987   6.110   0.493   1.285  0.1223 -0.3982 -0.6962
  994TIP3    H1 2988   6.042   0.543   1.330  0.4549 -0.1811 -0.4280
  994TIP3    H2 2989   6.145   0.435   1.353 -1.2605 -2.0790 -1.3460
  995TIP3   OH2 2990   1.371   1.928   1.594 -0.0477 -0.6821  0.3966
  995TIP3    H1 2991   1.410   1.858   1.645 -0.0105 -0.2869  0.9225
  995TIP3    H2 2992   1.446   1.980   1.563 -0.0555 -1.0594 -0.2746
  996TIP3   OH2 2993   0.462   1.081   3.779  0.2258  0.0781  0.2241
  996TIP3    H1 2994   0.547   1.090   3.821  1.1811 -0.4730 -1.4742
  996TIP3    H2 2995   0.457   0.988   3.754  0.3516  0.6104 -2.0285
  997TIP3   OH2 2996   2.386   3.042   4.817 -0.1304  0.1804  0.5065
  997TIP3    H1 2997   2.478   3.058   4.797 -0.8674  1.0736 -2.8402
  997TIP3    H2 2998   2.342   3.124   4.795 -1.7545 -0.2102  2.0830
  998TIP3   OH2 2999   1.271   3.467   0.395  0.3820 -0.4560  0.1204
  998TIP3    H1 3000   1.300   3.542   0.446  0.2542  0.1576 -0.6872
  998TIP3    H2 3001   1.296   3.391   0.448 -0.5455  0.1647  1.5246
  999TIP3   OH2 3002   4.934   2.723   0.184  0.0241 -0.1299  0.0210
  999TIP3    H1 3003   4.927   2.631   0.210  0.1046  0.0650  0.7290
  999TIP3    H2 3004   5.025   2.746   0.202  0.0388  0.0528 -0.2810
 1000TIP3   OH2 3005   4.708   1.590   4.310  0.4866  0.4043  0.0137
 1000TIP3    H1 3006   4.708   1.594   4.405  0.0966  0.2413  0.0253
 1000TIP3    H2 3007   4.617   1.568   4.287  0.9981 -1.5425 -0.2994
 1001TIP3   OH2 3008   4.076   4.991   3.784 -0.2376  0.8200  0.1165
 1001TIP3    H1 3009   4.021   4.915   3.804 -1.0012  1.3258 -0.0456
 1001TIP3    H2 3010   4.103   5.024   3.869  0.7970 -0.1111  0.1871
 1002TIP3   OH2 3011   5.018   0.345   3.750  0.4266 -0.1065 -0.5661
 1002TIP3    H1 3012   4.946   0.329   3.689 -0.0773  2.0189 -0.6212
 1002TIP3    H2 3013   5.089   0.376   3.694  0.0790  1.5064 -0.1708
 1003TIP3   OH2 3014   6.189   5.032   2.831  0.7074 -0.3149  0.5319
 1003TIP3    H1 3015   6.145   5.087   2.896  1.1912  0.5948  0.1103
 1003TIP3    H2 3016   6.249   5.092   2.786  1.0371 -1.1324 -0.1349
 1004TIP3   OH2 3017   4.983   1.747   4.351 -0.4855  0.1023  0.0017
 1004TIP3    H1 3018   4.988   1.817   4.286  2.6956 -0.1640 -0.2033
 1004TIP3    H2 3019   4.907   1.695   4.324 -0.2794  0.9517 -2.5347
 1005TIP3   OH2 3020   1.111   1.722   1.100  0.6248  0.4498 -0.3103
 1005TIP3    H1 3021   1.037   1.753   1.048  0.9684 -1.9873 -2.5103
 1005TIP3    H2 3022   1.088   1.742   1.190 -2.2792  0.6100 -0.9957
 1006TIP3   OH2 3023   2.223   0.766   3.490  1.0644 -0.0873 -0.2717
 1006TIP3    H1 3024   2.241   0.851   3.450  3.4659 -0.1421  0.5083
 1006TIP3    H2 3025   2.209   0.786   3.583  2.6775 -0.5793  0.1155
 1007TIP3   OH2 3026   3.694   0.055   3.523  0.3383  0.3086 -0.2546
 1007TIP3    H1 3027   3.790   0.050   3.516  0.3858 -0.3404  0.5619
 1007TIP3    H2 3028   3.674   0.148   3.523  0.8547  0.4386 -1.7087
 1008TIP3   OH2 3029   1.750   5.950   0.636  0.6559 -0.0022  0.2864
 1008TIP3    H1 3030   1.725   5.946   0.543 -1.6688 -2.3016  0.8885
 1008TIP3    H2 3031   1.695   6.020   0.672  1.0051  0.3772  0.0892
 1009TIP3   OH2 3032   0.077   5.476   1.382  0.0480  0.2238 -0.9216
 1009TIP3    H1 3033  -0.012   5.481   1.348 -0.2288  0.5281 -0.1675
 1009TIP3    H2 3034   0.103   5.385   1.367 -0.1667  0.2786 -1.6750
 1010TIP3   OH2 3035   4.525   5.586   0.118  0.0802  0.1736  0.5536
 1010TIP3    H1 3036   4.485   5.645   0.054 -0.1833 -0.1680  0.4035
 1010TIP3    H2 3037   4.619   5.600   0.107  0.0997 -0.8222 -0.8234
 1011TIP3   OH2 3038   6.175   3.430   4.116  0.4685 -0.6518  0.2546
 1011TIP3    H1 3039   6.192   3.495   4.047 -0.0869 -2.3507 -1.5781
 1011TIP3    H2 3040   6.262   3.406   4.148  0.6499  1.5015  1.5167
 1012TIP3   OH2 3041   5.963   2.896   3.336 -0.6690 -0.6765 -0.4054
 1012TIP3    H1 3042   6.040   2.905   3.280  0.8715 -1.3201  1.4782
 1012TIP3    H2 3043   5.888   2.911   3.278  0.8325 -0.8251 -2.4765
 1013TIP3   OH2 3044   6.181   5.222   1.615  0.4774  0.3176  0.0680
 1013TIP3    H1 3045   6.199   5.301   1.564 -2.0124 -1.0081 -3.2805
 1013TIP3    H2 3046   6.236   5.154   1.574 -0.3039 -0.4586  0.2706
 1014TIP3   OH2 3047   6.075   4.175   3.405  0.3175  0.1971 -0.4588
 1014TIP3    H1 3048   6.118   4.250   3.447  1.1554 -1.0518  0.9888
 1014TIP3    H2 3049   6.107   4.099   3.453 -1.6743 -0.9876 -0.9145
 1015TIP3   OH2 3050   0.931   4.495   3.426 -0.5454 -0.6179  0.0520
 1015TIP3    H1 3051   0.849   4.494   3.476 -1.7355 -1.7299 -1.7712
 1015TIP3    H2 3052   0.906   4.458   3.341  1.6197  0.1198 -0.9524
 1016TIP3   OH2 3053   2.936   1.690   4.028 -0.1059 -0.0312  0.2568
 1016TIP3    H1 3054   2.902   1.670   4.116 -0.6127  0.3899  0.1583
 1016TIP3    H2 3055   3.030   1.670   4.034  0.2741  1.8649  1.4837
 1017TIP3   OH2 3056   6.074   0.425   3.838  0.4420 -0.1686  0.1115
 1017TIP3    H1 3057   6.073   0.376   3.920 -0.2706 -2.5285 -1.2045
 1017TIP3    H2 3058   6.012   0.497   3.851  1.3131  0.2872  2.0246
 1018TIP3   OH2 3059   3.334   5.167   1.499  0.3575 -0.2715 -0.3546
 1018TIP3    H1 3060   3.343   5.213   1.582 -0.3580 -0.7936  0.0315
 1018TIP3    H2 3061   3.338   5.074   1.523 -3.6142 -0.5935 -0.3177
 1019TIP3   OH2 3062   0.528   4.714   0.386  0.6228 -0.3348 -0.2544
 1019TIP3    H1 3063   0.527   4.717   0.481 -0.0994  1.4525 -0.2765
 1019TIP3    H2 3064   0.438   4.735   0.360  0.4565 -2.2011 -1.3344
 1020TIP3   OH2 3065   2.159   3.569   0.373 -0.0637  0.5821  0.2268
 1020TIP3    H1 3066   2.069   3.574   0.342 -0.4598 -2.9422  0.4153
 1020TIP3    H2 3067   2.152   3.542   0.464  1.0855 -1.6372 -0.2611
 1021TIP3   OH2 3068   4.261   4.724   3.791  0.5533  0.2175 -0.6995
 1021TIP3    H1 3069   4.229   4.635   3.806 -1.1197  0.6562 -1.3710
 1021TIP3    H2 3070   4.309   4.747   3.870  0.3459 -0.9960 -0.2036
 1022TIP3   OH2 3071   2.849   1.764   0.703  0.1388  0.3645 -0.3942
 1022TIP3    H1 3072   2.874   1.782   0.612 -0.4069  0.3226 -0.5604
 1022TIP3    H2 3073   2.859   1.669   0.712 -2.7900 -0.1480 -1.3987
 1023TIP3   OH2 3074   2.305   2.970   2.243 -1.0112 -0.1006 -0.0361
 1023TIP3    H1 3075   2.302   2.939   2.153 -0.3252  0.8760 -0.4137
 1023TIP3    H2 3076   2.314   3.065   2.236 -0.3319 -0.0611  1.0469
 1024TIP3   OH2 3077   1.946   0.110   3.554 -0.2690 -0.3728 -0.4692
 1024TIP3    H1 3078   1.997   0.037   3.520  0.0288  0.1280 -1.1408
 1024TIP3    H2 3079   1.957   0.106   3.649 -0.3792 -1.2767 -0.4838
 1025TIP3   OH2 3080   5.609   4.886   0.656  0.2080  0.2315 -0.2381
 1025TIP3    H1 3081   5.522   4.891   0.696 -0.0082 -1.6539 -0.4175
 1025TIP3    H2 3082   5.604   4.948   0.583 -1.2552 -0.3842 -0.6961
 1026TIP3   OH2 3083   4.766   5.934   2.055  0.1984  0.0136  0.2328
 1026TIP3    H1 3084   4.785   5.955   1.964 -0.4006 -0.7490 -0.0821
 1026TIP3    H2 3085   4.733   5.844   2.052  1.3623 -0.4729  1.3521
 1027TIP3   OH2 3086   5.408   4.315   2.026  0.3968  0.0274 -0.2488
 1027TIP3    H1 3087   5.490   4.271   2.049  0.3403  0.6877  1.3255
 1027TIP3    H2 3088   5.344   4.244   2.018  1.1724 -0.5424 -1.9588
 1028TIP3   OH2 3089   6.087   3.433   2.177 -0.4185 -0.2078 -0.4181
 1028TIP3    H1 3090   6.162   3.395   2.222 -0.2647  1.0347  0.4254
 1028TIP3    H2 3091   6.018   3.435   2.244 -0.1734  1.7076 -0.1702
 1029TIP3   OH2 3092   5.202   4.743   4.836 -0.1760 -0.8787  0.4440
 1029TIP3    H1 3093   5.128   4.766   4.780  1.4370  1.6919 -0.8770
 1029TIP3    H2 3094   5.187   4.791   4.917  0.7300  1.0483 -0.4465
 1030TIP3   OH2 3095   3.706   4.809   2.991  0.2810 -0.0641 -0.5800
 1030TIP3    H1 3096   3.766   4.748   3.033  0.3630  0.6601  0.3955
 1030TIP3    H2 3097   3.756   4.845   2.917  1.1909  0.7784  0.4147
 1031TIP3   OH2 3098   0.315   5.101   2.933 -0.1716 -0.0649 -0.5835
 1031TIP3    H1 3099   0.269   5.183   2.954  0.8230  0.7908 -1.6075
 1031TIP3    H2 3100   0.372   5.124   2.859  1.4872 -1.2207  0.2870
 1032TIP3   OH2 3101   3.523   4.975   4.934 -0.1108 -0.4250 -0.1698
 1032TIP3    H1 3102   3.434   5.010   4.937 -0.5844 -1.4111 -1.5843
 1032TIP3    H2 3103   3.569   5.032   4.872  0.2592  0.0622  0.5327
 1033TIP3   OH2 3104   6.220   3.247   1.545 -0.2414  0.2979  0.4499
 1033TIP3    H1 3105   6.247   3.300   1.620 -0.3385  0.3133  0.4746
 1033TIP3    H2 3106   6.249   3.159   1.567  2.0983  0.7290 -0.6684
 1034TIP3   OH2 3107   4.594   5.121   1.510 -0.5588  0.8127  0.4469
 1034TIP3    H1 3108   4.628   5.195   1.460  2.1653 -0.0057  0.9516
 1034TIP3    H2 3109   4.655   5.111   1.583 -2.6480 -0.0129  2.1836
 1035TIP3   OH2 3110   5.212   4.456   2.428  0.2270  0.4561 -0.4175
 1035TIP3    H1 3111   5.159   4.389   2.386 -1.9096  1.9147 -0.2131
 1035TIP3    H2 3112   5.188   4.537   2.383  1.7954  1.2862  0.1725
 1036TIP3   OH2 3113   3.681   1.258   5.046  0.5015 -0.7112  0.3574
 1036TIP3    H1 3114   3.742   1.201   4.998  1.2314 -0.1633  0.6201
 1036TIP3    H2 3115   3.734   1.296   5.116  0.0743  0.4304  0.0741
 1037TIP3   OH2 3116   4.206   4.890   3.537  0.1235 -0.1000 -0.4355
 1037TIP3    H1 3117   4.123   4.864   3.498 -0.7483  2.0349 -0.1801
 1037TIP3    H2 3118   4.191   4.883   3.632  0.4168 -0.2628 -0.4028
 1038TIP3   OH2 3119   4.536   5.506   2.007  0.0229 -0.2125 -0.6481
 1038TIP3    H1 3120   4.599   5.437   1.989 -0.6610 -1.1615  0.4665
 1038TIP3    H2 3121   4.457   5.460   2.034 -0.6142  0.9951 -0.3946
 1039TIP3   OH2 3122   5.698   1.327   5.055  0.3904  0.2664 -0.3694
 1039TIP3    H1 3123   5.623   1.376   5.022 -0.1289 -0.5606 -0.4669
 1039TIP3    H2 3124   5.665   1.237   5.063  1.5860 -0.2610 -1.1073
 1040TIP3   OH2 3125   3.529   4.105   2.953  0.1000 -0.3057  0.4755
 1040TIP3    H1 3126   3.575   4.177   2.911 -0.3186  0.1857  0.8533
 1040TIP3    H2 3127   3.460   4.147   3.005  0.5137 -0.9041  1.5391
 1041TIP3   OH2 3128   1.825   5.004   0.546  0.0252  0.4065 -0.4566
 1041TIP3    H1 3129   1.822   5.099   0.558  1.5719  0.4698 -0.3071
 1041TIP3    H2 3130   1.918   4.984   0.538 -0.1265 -1.2883  1.1401
 1042TIP3   OH2 3131   2.841   4.884   4.648 -0.3272 -0.7867 -0.2028
 1042TIP3    H1 3132   2.797   4.805   4.616 -0.5251  0.1153 -2.3546
 1042TIP3    H2 3133   2.774   4.931   4.697  0.3281 -2.8272  2.9812
 1043TIP3   OH2 3134   3.454   4.251   1.104 -0.5885 -0.5616 -0.1331
 1043TIP3    H1 3135   3.459   4.161   1.138 -0.3334 -1.1443 -1.6451
 1043TIP3    H2 3136   3.362   4.263   1.082 -0.9322  0.1378  1.4982
 1044TIP3   OH2 3137   2.192   0.992   1.655 -0.0386 -0.2421  0.0318
 1044TIP3    H1 3138   2.273   0.975   1.702  2.7351  2.2453 -3.3343
 1044TIP3    H2 3139   2.202   0.945   1.572 -0.8296  2.0080 -1.4385
 1045TIP3   OH2 3140   4.876   3.588   2.868  0.1638 -0.2777  0.3076
 1045TIP3    H1 3141   4.822   3.571   2.945  0.1856 -0.1570  0.3492
 1045TIP3    H2 3142   4.965   3.567   2.896  0.3949  1.2139  0.7853
 1046TIP3   OH2 3143   2.529   0.610   3.668  0.4092  0.3097  0.3214
 1046TIP3    H1 3144   2.595   0.550   3.703  0.9452  1.0047  0.5270
 1046TIP3    H2 3145   2.578   0.669   3.612 -0.3700 -0.5079 -1.3053
 1047TIP3   OH2 3146   5.922   2.992   4.245 -0.1174  0.4363  0.2878
 1047TIP3    H1 3147   5.906   3.085   4.234  1.3899  0.9558  2.0499
 1047TIP3    H2 3148   6.017   2.982   4.237 -0.3378 -1.1555 -1.0361
 1048TIP3   OH2 3149   5.034   2.872   2.776  0.3044  0.0355 -0.3603
 1048TIP3    H1 3150   5.128   2.887   2.768  0.1774  0.1818 -2.0079
 1048TIP3    H2 3151   5.005   2.857   2.686 -1.5040  1.5559 -0.0838
 1049TIP3   OH2 3152   5.940   3.171   1.600 -0.6608 -0.0943  0.5947
 1049TIP3    H1 3153   5.910   3.122   1.523  0.6055  1.7195 -1.1421
 1049TIP3    H2 3154   6.025   3.207   1.575 -0.0855  0.3943  2.9555
 1050TIP3   OH2 3155   2.308   4.061   4.050 -0.0321  0.2317 -0.3699
 1050TIP3    H1 3156   2.349   4.112   3.980 -0.5425  0.0298 -0.8187
 1050TIP3    H2 3157   2.227   4.029   4.012  0.3794 -1.1060 -0.1647
 1051TIP3   OH2 3158   5.404   4.855   0.935  0.4556 -0.1913  0.3280
 1051TIP3    H1 3159   5.313   4.879   0.952 -0.1348 -1.6503 -0.6368
 1051TIP3    H2 3160   5.405   4.759   0.939  1.6708 -0.2576 -0.9970
 1052TIP3   OH2 3161   6.227   3.969   1.160  0.4012  0.3634  0.0102
 1052TIP3    H1 3162   6.165   3.945   1.229 -0.9482  1.8412 -0.6414
 1052TIP3    H2 3163   6.175   3.969   1.079  0.6071  3.7871 -0.2665
 1053TIP3   OH2 3164   2.205   1.194   2.008 -0.5143 -0.0193 -0.1096
 1053TIP3    H1 3165   2.299   1.189   1.993 -0.7081 -0.5095 -1.1977
 1053TIP3    H2 3166   2.165   1.158   1.929 -1.6735  2.3718 -0.6899
 1054TIP3   OH2 3167   2.773   1.974   4.002  0.1663 -0.5086  0.1186
 1054TIP3    H1 3168   2.825   1.899   3.973  0.2340 -0.4623  0.1207
 1054TIP3    H2 3169   2.793   2.044   3.939 -2.8464 -1.6002 -2.3026
 1055TIP3   OH2 3170   1.702   5.750   4.376 -0.1132  0.5477 -0.9823
 1055TIP3    H1 3171   1.691   5.840   4.346 -0.3776  1.0352  0.5284
 1055TIP3    H2 3172   1.632   5.736   4.439  0.1753 -0.5839 -0.8860
 1056TIP3   OH2 3173   4.372   1.758   3.476  0.0186  0.1249 -0.1706
 1056TIP3    H1 3174   4.416   1.764   3.561  0.9381  0.6674 -0.6722
 1056TIP3    H2 3175   4.282   1.783   3.494 -0.0021 -0.5724  0.7969
 1057TIP3   OH2 3176   3.899   0.661   5.054  0.0148  0.1116 -0.4363
 1057TIP3    H1 3177   3.826   0.668   4.992  0.5540 -1.2945 -1.2967
 1057TIP3    H2 3178   3.968   0.616   5.004  1.0973  0.4875  0.6738
 1058TIP3   OH2 3179   5.447   3.050   4.991 -0.2412  0.0830  0.5554
 1058TIP3    H1 3180   5.522   3.000   5.023  0.7410  0.8385 -0.4744
 1058TIP3    H2 3181   5.383   2.983   4.966 -0.0933 -0.5588  1.8185
 1059TIP3   OH2 3182   6.057   5.262   3.511  0.4916  0.0843  0.0767
 1059TIP3    H1 3183   6.124   5.272   3.580  0.8141 -0.6086 -0.1252
 1059TIP3    H2 3184   6.068   5.172   3.480 -0.2762  0.0930 -0.2401
 1060TIP3   OH2 3185   4.469   5.361   0.687  0.4422 -0.8584  0.3055
 1060TIP3    H1 3186   4.458   5.271   0.718  0.6032 -0.7221  0.7656
 1060TIP3    H2 3187   4.397   5.374   0.625  0.3016 -1.2381  0.3891
 1061TIP3   OH2 3188   4.543   5.309   0.245 -0.7644  0.5946 -0.8414
 1061TIP3    H1 3189   4.562   5.398   0.215  0.3753  0.8402  0.5090
 1061TIP3    H2 3190   4.626   5.263   0.239 -0.8324  0.2423  0.4904
 1062TIP3   OH2 3191   4.310   3.968   3.050 -0.5364  0.2589  0.2111
 1062TIP3    H1 3192   4.218   3.945   3.062 -0.2815 -0.8292  0.1408
 1062TIP3    H2 3193   4.358   3.902   3.100  0.2342  0.4485 -0.2654
 1063TIP3   OH2 3194   2.661   3.631   1.210  0.1042  0.0185  0.0126
 1063TIP3    H1 3195   2.713   3.698   1.167  0.1467  1.5937  2.3695
 1063TIP3    H2 3196   2.724   3.583   1.264  0.0817 -2.0325 -1.6573
 1064TIP3   OH2 3197   4.374   3.631   4.790  0.1049  0.0580  0.4793
 1064TIP3    H1 3198   4.440   3.634   4.721 -0.3054 -0.3412  0.0676
 1064TIP3    H2 3199   4.423   3.654   4.870  0.5240  0.8217  0.0265
 1065TIP3   OH2 3200   2.055   2.020   3.604 -0.3913 -0.4277  0.1938
 1065TIP3    H1 3201   2.056   2.027   3.700 -0.1220  0.2267  0.1486
 1065TIP3    H2 3202   1.962   2.015   3.581 -0.4333 -2.2084  0.5862
 1066TIP3   OH2 3203   0.331   4.736   0.099  0.3838  0.0852 -0.3820
 1066TIP3    H1 3204   0.303   4.709   0.187  0.0778  0.1644 -0.4543
 1066TIP3    H2 3205   0.292   4.671   0.041  0.0427  0.4109 -0.5171
 1067TIP3   OH2 3206   3.366   5.259   4.791 -0.0232  0.0611 -0.5828
 1067TIP3    H1 3207   3.346   5.170   4.819 -1.6456  0.4740 -0.3214
 1067TIP3    H2 3208   3.412   5.298   4.865 -1.2179  0.0791  0.1693
 1068TIP3   OH2 3209   0.783   1.603   4.353 -0.3049  0.1257  0.3233
 1068TIP3    H1 3210   0.800   1.529   4.410 -2.5511  0.4441  1.5332
 1068TIP3    H2 3211   0.763   1.564   4.268 -2.1219 -0.7468  1.1119
 1069TIP3   OH2 3212   3.539   0.949   3.337 -0.3887 -0.3374 -0.3975
 1069TIP3    H1 3213   3.575   0.922   3.422 -1.2064  0.1826  0.1285
 1069TIP3    H2 3214   3.460   0.999   3.359 -0.8950 -0.6258 -1.4891
 1070TIP3   OH2 3215   5.237   0.363   0.016 -0.1608 -0.2179  0.0756
 1070TIP3    H1 3216   5.265   0.454   0.019  1.5963 -0.7261  0.0598
 1070TIP3    H2 3217   5.157   0.360   0.069 -0.8583  1.5152 -0.8036
 1071TIP3   OH2 3218   2.550   0.733   1.901  0.0375  0.5239  0.3859
 1071TIP3    H1 3219   2.596   0.795   1.957  0.8281 -0.1981  0.5447
 1071TIP3    H2 3220   2.556   0.771   1.813  1.7226  0.0165  0.2520
 1072TIP3   OH2 3221   5.945   5.548   0.203 -0.1899  0.0402 -0.0911
 1072TIP3    H1 3222   5.871   5.582   0.153 -2.2318 -1.7598  1.4904
 1072TIP3    H2 3223   5.924   5.569   0.294  1.9906  0.7156  0.3112
 1073TIP3   OH2 3224   1.267   0.262   2.911 -0.0762 -0.7954  0.5895
 1073TIP3    H1 3225   1.218   0.245   2.831  1.2570 -1.0599 -0.2091
 1073TIP3    H2 3226   1.351   0.296   2.880  0.4695 -0.9281  1.8774
 1074TIP3   OH2 3227   0.262   5.780   3.069 -0.0466  0.4201 -0.5365
 1074TIP3    H1 3228   0.314   5.792   3.148 -0.7505  0.8237 -0.1188
 1074TIP3    H2 3229   0.194   5.847   3.075 -0.3982  0.1390 -1.2424
 1075TIP3   OH2 3230   2.423   5.263   4.189 -0.3323 -0.7267 -0.1385
 1075TIP3    H1 3231   2.423   5.255   4.093  1.7038 -1.1868 -0.1289
 1075TIP3    H2 3232   2.393   5.177   4.220 -1.1639 -0.5227 -0.3314
 1076TIP3   OH2 3233   5.465   1.113   3.635  0.1897  0.2715  0.0756
 1076TIP3    H1 3234   5.428   1.104   3.547 -0.1597 -0.4336  0.2869
 1076TIP3    H2 3235   5.537   1.175   3.624 -0.8306  1.4237 -0.4017
 1077TIP3   OH2 3236   4.403   4.448   0.466 -0.2984 -1.0686  0.4052
 1077TIP3    H1 3237   4.467   4.481   0.529  0.5748 -1.2640 -0.3498
 1077TIP3    H2 3238   4.411   4.352   0.472  1.4542 -1.1083 -1.5845
 1078TIP3   OH2 3239   0.855   0.543   3.330  0.4399 -0.1790  0.1206
 1078TIP3    H1 3240   0.933   0.523   3.382  0.6690 -1.4546 -0.6518
 1078TIP3    H2 3241   0.836   0.634   3.349  1.2387 -0.2594  1.4757
 1079TIP3   OH2 3242   1.719   3.536   2.146  0.0996 -0.3069  0.4679
 1079TIP3    H1 3243   1.722   3.607   2.209  0.1993  0.0923  0.0184
 1079TIP3    H2 3244   1.789   3.477   2.172 -0.5667 -0.7055  1.3848
 1080TIP3   OH2 3245   2.375   0.015   3.647 -0.0623 -0.1292 -0.4683
 1080TIP3    H1 3246   2.371   0.000   3.741  0.4515  1.3989 -0.1742
 1080TIP3    H2 3247   2.326   0.096   3.633  2.3025  1.3148 -1.0527
 1081TIP3   OH2 3248   1.636   1.429   0.597  0.3332 -0.1454  0.0951
 1081TIP3    H1 3249   1.730   1.421   0.609  0.3525  0.5153  0.3933
 1081TIP3    H2 3250   1.619   1.386   0.513  0.6397 -1.9318  0.8913
 1082TIP3   OH2 3251   2.694   3.904   3.897 -0.0331 -0.9786  0.1208
 1082TIP3    H1 3252   2.638   3.863   3.963 -2.0388  0.3198 -0.6993
 1082TIP3    H2 3253   2.782   3.901   3.936 -0.4537 -3.8470  1.0831
 1083TIP3   OH2 3254   3.041   0.288   2.498 -0.2802  0.1409  0.5645
 1083TIP3    H1 3255   3.051   0.277   2.404 -1.8708 -1.3404  0.5172
 1083TIP3    H2 3256   3.107   0.230   2.536 -0.9869 -0.8780  0.3085
 1084TIP3   OH2 3257   4.755   2.213   5.033  0.3182 -0.1430 -0.4058
 1084TIP3    H1 3258   4.738   2.227   5.126 -0.1373  1.5302 -0.7127
 1084TIP3    H2 3259   4.694   2.143   5.008  0.9053 -1.0703  0.6705
 1085TIP3   OH2 3260   5.856   4.887   2.025 -0.4209  0.5458  0.0383
 1085TIP3    H1 3261   5.832   4.964   2.076  1.3895  1.1981 -0.0250
 1085TIP3    H2 3262   5.951   4.881   2.033 -0.3413 -0.7180 -1.3169
 1086TIP3   OH2 3263   4.263   0.240   2.748 -0.6031  0.2147 -0.6369
 1086TIP3    H1 3264   4.329   0.171   2.749 -1.3107 -0.4727  0.3255
 1086TIP3    H2 3265   4.195   0.208   2.689 -1.5724 -0.5710  0.8426
 1087TIP3   OH2 3266   0.403   3.807   0.132 -0.2029  0.2792 -0.1286
 1087TIP3    H1 3267   0.422   3.836   0.043 -2.8660  0.9416 -0.5627
 1087TIP3    H2 3268   0.436   3.718   0.136  2.6271  1.1710 -0.7518
 1088TIP3   OH2 3269   2.518   1.552   2.920  0.0802  1.1613 -0.2963
 1088TIP3    H1 3270   2.557   1.554   3.007  0.3888  0.4058 -0.4036
 1088TIP3    H2 3271   2.583   1.506   2.866 -0.0218  1.7826 -0.9677
 1089TIP3   OH2 3272   1.130   0.166   2.313  0.6212  0.2486  0.3250
 1089TIP3    H1 3273   1.223   0.186   2.325  0.9568 -0.9352 -0.1147
 1089TIP3    H2 3274   1.085   0.247   2.336  1.8489  1.3435 -0.9031
 1090TIP3   OH2 3275   5.312   4.700   3.875  0.9942  0.3369  0.5751
 1090TIP3    H1 3276   5.265   4.724   3.795 -0.9089  0.9338  1.7921
 1090TIP3    H2 3277   5.383   4.643   3.845 -0.0861 -0.0354 -1.4592
 1091TIP3   OH2 3278   0.209   1.280   3.125 -0.4846 -0.5753  0.2806
 1091TIP3    H1 3279   0.172   1.273   3.213 -0.9730  0.6698  0.1926
 1091TIP3    H2 3280   0.190   1.370   3.098 -0.0242 -0.8311 -0.9579
 1092TIP3   OH2 3281   3.840   2.051   3.451 -0.3690  0.1798 -0.2404
 1092TIP3    H1 3282   3.926   2.091   3.464  0.5858 -1.7727 -0.1453
 1092TIP3    H2 3283   3.854   1.958   3.468 -1.9711 -0.5673 -2.4833
 1093TIP3   OH2 3284   2.843   3.381   2.669  0.0606  0.1369  0.8758
 1093TIP3    H1 3285   2.932   3.362   2.698  0.3424 -0.3973 -0.2706
 1093TIP3    H2 3286   2.814   3.300   2.627 -0.6022  0.6299  0.3707
 1094TIP3   OH2 3287   4.046   0.069   1.869 -0.5198  0.1803  0.1252
 1094TIP3    H1 3288   4.062   0.066   1.775 -0.3941 -0.7364  0.1644
 1094TIP3    H2 3289   3.963   0.023   1.881 -0.0154 -0.6328  0.5596
 1095TIP3   OH2 3290   4.439   5.715   2.301  0.5225 -0.3612 -0.0232
 1095TIP3    H1 3291   4.462   5.622   2.298  0.0020 -0.4673 -1.7130
 1095TIP3    H2 3292   4.343   5.716   2.293  0.6576  0.3470 -2.1535
 1096TIP3   OH2 3293   2.623   2.811   0.259  0.8252 -0.4794  0.2750
 1096TIP3    H1 3294   2.652   2.727   0.294  0.5716  0.3942  2.7856
 1096TIP3    H2 3295   2.700   2.866   0.262  0.9811 -0.5538 -1.3302
 1097TIP3   OH2 3296   0.495   4.352   0.257  0.0991 -0.3163 -0.0870
 1097TIP3    H1 3297   0.475   4.258   0.255  0.5267 -0.5260  2.2030
 1097TIP3    H2 3298   0.455   4.387   0.178 -1.3296 -2.1879 -0.2601
 1098TIP3   OH2 3299   4.297   2.007   4.236  0.1317 -0.7182 -0.3646
 1098TIP3    H1 3300   4.340   2.049   4.162 -2.1150  2.8382  0.1261
 1098TIP3    H2 3301   4.210   1.983   4.203  0.0557 -1.6098  0.4358
 1099TIP3   OH2 3302   2.296   4.433   1.060 -0.2088  0.2529 -0.2719
 1099TIP3    H1 3303   2.216   4.463   1.017  0.4214  0.8579 -1.0574
 1099TIP3    H2 3304   2.350   4.511   1.069  1.0694 -0.4366 -1.4925
 1100TIP3   OH2 3305   2.160   0.931   2.643  0.2351 -0.0910  0.1701
 1100TIP3    H1 3306   2.192   0.967   2.726  0.6849 -1.8507  0.8029
 1100TIP3    H2 3307   2.065   0.924   2.655  0.0835  1.2142 -0.1217
 1101TIP3   OH2 3308   1.594   4.932   4.884  0.8365  0.2135  0.1995
 1101TIP3    H1 3309   1.578   5.005   4.944 -0.0989  1.1256 -1.0908
 1101TIP3    H2 3310   1.677   4.953   4.842  1.1723 -0.0959  0.7041
 1102TIP3   OH2 3311   0.665   2.142   4.406  0.1853  0.1954 -0.4576
 1102TIP3    H1 3312   0.702   2.061   4.441  0.5000  0.1699 -0.8410
 1102TIP3    H2 3313   0.590   2.161   4.463 -0.6061 -0.9930 -1.0481
 1103TIP3   OH2 3314   0.591   4.129   2.095 -0.6654  0.2494  0.2279
 1103TIP3    H1 3315   0.590   4.139   2.190 -0.4214  0.1056  0.2460
 1103TIP3    H2 3316   0.626   4.212   2.063  0.2976 -0.1021  0.3224
 1104TIP3   OH2 3317   0.283   1.395   4.658 -0.4577 -0.4433 -0.0757
 1104TIP3    H1 3318   0.220   1.338   4.614  0.6476 -1.0780 -0.8869
 1104TIP3    H2 3319   0.238   1.479   4.664 -1.7465 -1.1222  0.2619
 1105TIP3   OH2 3320   4.102   1.850   3.038 -0.1789 -0.0535  0.7552
 1105TIP3    H1 3321   4.173   1.833   3.100  0.3791 -0.6188 -0.0162
 1105TIP3    H2 3322   4.051   1.919   3.079  0.5703  0.0676  1.5261
 1106TIP3   OH2 3323   1.551   1.701   3.061  0.1317  0.2563  0.3452
 1106TIP3    H1 3324   1.483   1.750   3.016  0.3649  0.3110  0.0503
 1106TIP3    H2 3325   1.544   1.612   3.025  0.8300  0.4846 -0.3847
 1107TIP3   OH2 3326   3.508   3.021   1.339 -0.0687  0.0212 -0.0568
 1107TIP3    H1 3327   3.536   3.006   1.429  0.1652  1.0414  0.0526
 1107TIP3    H2 3328   3.583   2.996   1.286 -0.2426 -0.6777  0.0167
 1108TIP3   OH2 3329   3.858   4.498   1.553  0.4237 -0.3935 -0.2090
 1108TIP3    H1 3330   3.769   4.475   1.578  0.7535 -1.2627  0.2211
 1108TIP3    H2 3331   3.857   4.495   1.457  0.1901 -1.2338 -0.1925
 1109TIP3   OH2 3332   5.441   0.372   0.611  0.2578 -0.0210  0.1337
 1109TIP3    H1 3333   5.518   0.328   0.576  1.0116  0.3997  1.2298
 1109TIP3    H2 3334   5.442   0.354   0.705 -0.2547  1.0502  0.3680
 1110TIP3   OH2 3335   1.412   1.426   0.828  0.1639 -0.3678 -0.1113
 1110TIP3    H1 3336   1.418   1.344   0.779 -0.6870  0.4255 -1.6051
 1110TIP3    H2 3337   1.433   1.493   0.763  1.4572  0.5815  1.2336
 1111TIP3   OH2 3338   3.822   2.068   1.652  0.5961 -0.8606  0.0938
 1111TIP3    H1 3339   3.833   2.094   1.560 -0.4237 -0.2668  0.1165
 1111TIP3    H2 3340   3.727   2.071   1.666  0.6758 -1.7677  0.9432
 1112TIP3   OH2 3341   2.140   2.149   4.973 -0.3205  0.2901  0.2851
 1112TIP3    H1 3342   2.054   2.110   4.990 -1.0386  0.9562 -1.5031
 1112TIP3    H2 3343   2.169   2.182   5.058 -1.7859 -0.0754  0.9559
 1113TIP3   OH2 3344   1.799   0.213   1.669  0.7459  0.2273 -0.2373
 1113TIP3    H1 3345   1.734   0.156   1.710  2.0781 -0.7596  0.5763
 1113TIP3    H2 3346   1.776   0.301   1.697 -0.7578  0.0115 -0.7020
 1114TIP3   OH2 3347   2.584   0.372   0.352 -0.0128  0.5650 -0.7448
 1114TIP3    H1 3348   2.566   0.311   0.423 -1.5048  1.2912 -0.4576
 1114TIP3    H2 3349   2.572   0.459   0.391 -1.1328  0.9790 -1.9061
 1115TIP3   OH2 3350   5.192   3.161   1.723 -0.1161  0.1305 -0.2711
 1115TIP3    H1 3351   5.213   3.189   1.633  0.4494 -0.1652 -0.2333
 1115TIP3    H2 3352   5.097   3.163   1.726 -0.1101  2.0463 -0.2781
 1116TIP3   OH2 3353   2.091   4.211   2.716 -0.4190 -0.0196 -0.3089
 1116TIP3    H1 3354   2.129   4.192   2.630 -0.3476 -0.2880 -0.2169
 1116TIP3    H2 3355   2.052   4.299   2.706  1.9200  1.1476  0.1516
 1117TIP3   OH2 3356   2.184   4.979   3.374  0.3853  0.1660  0.0916
 1117TIP3    H1 3357   2.105   4.955   3.423  1.4696 -1.0487  1.3179
 1117TIP3    H2 3358   2.156   4.979   3.283 -1.6069  2.0937  0.5839
 1118TIP3   OH2 3359   6.335   5.319   1.844 -0.3016  0.3597 -0.2795
 1118TIP3    H1 3360   6.365   5.229   1.827 -1.4684 -0.2412  0.6374
 1118TIP3    H2 3361   6.300   5.348   1.759 -0.7362 -0.4079 -0.3807
 1119TIP3   OH2 3362   6.257   0.238   2.652 -0.3633 -0.2259 -0.4669
 1119TIP3    H1 3363   6.281   0.205   2.738  0.7953 -1.8635 -1.3431
 1119TIP3    H2 3364   6.243   0.159   2.599  0.7240  0.6609 -2.2106
 1120TIP3   OH2 3365   4.430   3.166   1.911 -0.4102 -0.2856 -0.2786
 1120TIP3    H1 3366   4.381   3.085   1.922 -0.4757 -0.3510 -0.9708
 1120TIP3    H2 3367   4.418   3.213   1.993 -0.6056 -0.8477  0.0234
 1121TIP3   OH2 3368   5.066   0.563   1.182  0.1159  0.0895 -0.0064
 1121TIP3    H1 3369   5.077   0.475   1.219 -0.0427 -0.1599 -0.5441
 1121TIP3    H2 3370   4.990   0.556   1.125 -0.7133  0.9199  0.9615
 1122TIP3   OH2 3371   4.460   1.478   4.028  0.5572  0.6227 -0.4293
 1122TIP3    H1 3372   4.548   1.510   4.007  1.2273  1.2190  2.7742
 1122TIP3    H2 3373   4.468   1.383   4.029  1.0592  0.6614 -0.6193
 1123TIP3   OH2 3374   5.362   3.431   3.161  0.0442 -0.1623  0.1573
 1123TIP3    H1 3375   5.406   3.429   3.076 -0.7947 -0.0860 -0.2782
 1123TIP3    H2 3376   5.290   3.369   3.153  0.2353 -0.5110  0.9707
 1124TIP3   OH2 3377   0.122   2.032   1.132  0.0996 -0.0004  0.5996
 1124TIP3    H1 3378   0.138   1.966   1.064 -1.5428  1.2093 -1.0671
 1124TIP3    H2 3379   0.188   2.100   1.114 -0.2574  0.2632  0.2606
 1125TIP3   OH2 3380   3.276   0.991   0.895  0.3122 -0.7660  0.5339
 1125TIP3    H1 3381   3.225   1.049   0.839  0.3222 -0.3110  0.9962
 1125TIP3    H2 3382   3.367   1.019   0.883  0.3371 -0.8125  0.6158
 1126TIP3   OH2 3383   1.573   5.411   3.818 -0.4148 -0.0888  0.5571
 1126TIP3    H1 3384   1.635   5.429   3.889  2.8404 -2.5102 -1.4445
 1126TIP3    H2 3385   1.571   5.316   3.812  0.3867  0.0069 -3.2722
 1127TIP3   OH2 3386   1.188   0.555   3.145 -0.3040 -0.7255  0.1364
 1127TIP3    H1 3387   1.187   0.528   3.237 -2.5594 -0.5193  0.2222
 1127TIP3    H2 3388   1.115   0.508   3.104  0.2563 -0.3238 -1.4118
 1128TIP3   OH2 3389   0.718   2.702   4.316  0.5560  0.0844 -0.2470
 1128TIP3    H1 3390   0.776   2.692   4.240 -1.2232 -1.0029 -1.5657
 1128TIP3    H2 3391   0.715   2.615   4.356  0.5187  0.3499  0.3366
 1129TIP3   OH2 3392   0.345   5.677   4.461  0.0234  0.1047  0.1643
 1129TIP3    H1 3393   0.394   5.635   4.531  0.4217 -0.9486 -0.7130
 1129TIP3    H2 3394   0.320   5.605   4.403 -1.5912  0.7607 -0.0051
 1130TIP3   OH2 3395   2.558   1.882   4.136  0.6160  0.4800  0.5287
 1130TIP3    H1 3396   2.500   1.856   4.065  0.7398 -0.2222  0.6754
 1130TIP3    H2 3397   2.637   1.916   4.093  0.8176 -0.2334  0.3288
 1131TIP3   OH2 3398   1.728   3.048   3.917  0.2609 -0.1673  0.4087
 1131TIP3    H1 3399   1.801   3.102   3.947  1.1635 -1.1392 -0.0077
 1131TIP3    H2 3400   1.650   3.101   3.936  1.1910  2.2108 -1.8115
 1132TIP3   OH2 3401   3.404   2.991   5.123  0.3918 -0.0616  0.1567
 1132TIP3    H1 3402   3.355   3.073   5.126 -1.3413 -1.0731  0.8531
 1132TIP3    H2 3403   3.464   2.996   5.198  1.0299  0.9557 -0.3922
 1133TIP3   OH2 3404   4.083   3.155   3.480  0.6710 -0.0772 -0.1099
 1133TIP3    H1 3405   4.062   3.119   3.567  0.6199  0.3703  0.0664
 1133TIP3    H2 3406   4.152   3.098   3.447 -0.4345 -1.2648 -0.4766
 1134TIP3   OH2 3407   4.108   0.592   4.113  0.1693 -0.6564  0.7110
 1134TIP3    H1 3408   4.147   0.513   4.150  2.9727 -0.0751 -0.7006
 1134TIP3    H2 3409   4.039   0.616   4.175 -0.4785 -3.8815  1.4178
 1135TIP3   OH2 3410   3.641   4.030   3.937 -0.4005 -0.1065 -0.6954
 1135TIP3    H1 3411   3.565   4.032   3.996 -1.1690  0.6894 -1.6862
 1135TIP3    H2 3412   3.625   4.099   3.874  1.7832  0.9605 -0.1890
 1136TIP3   OH2 3413   4.754   0.697   2.642 -0.0244 -0.0613  0.2338
 1136TIP3    H1 3414   4.806   0.778   2.641 -0.6653  0.3986  1.6819
 1136TIP3    H2 3415   4.784   0.649   2.565 -0.3181  1.9909 -1.2756
 1137TIP3   OH2 3416   4.120   1.194   2.253 -0.5478 -0.4454  0.0099
 1137TIP3    H1 3417   4.190   1.258   2.242 -1.3670  0.4643  0.0048
 1137TIP3    H2 3418   4.051   1.222   2.193 -0.9137 -1.3543 -0.0183
 1138TIP3   OH2 3419   2.320   5.205   4.501 -0.0254  0.1520 -0.0993
 1138TIP3    H1 3420   2.381   5.273   4.530 -0.3443  0.0945  0.7122
 1138TIP3    H2 3421   2.282   5.240   4.420 -0.8520  1.3533  0.7743
 1139TIP3   OH2 3422   4.679   5.400   3.198 -0.1867  0.0523  0.2681
 1139TIP3    H1 3423   4.706   5.438   3.115  0.0042  2.1777  1.2384
 1139TIP3    H2 3424   4.739   5.326   3.211  0.7526  0.6043 -0.7688
 1140TIP3   OH2 3425   4.271   5.516   3.186  0.1909  0.3884 -0.2011
 1140TIP3    H1 3426   4.221   5.452   3.135 -1.8503  0.5607  1.4319
 1140TIP3    H2 3427   4.272   5.480   3.275  3.7475  0.0251 -0.2442
 1141TIP3   OH2 3428   2.287   3.130   3.271  0.1360 -0.1729  0.0305
 1141TIP3    H1 3429   2.195   3.106   3.270 -0.7088  2.7522 -0.9824
 1141TIP3    H2 3430   2.323   3.092   3.191  0.4009 -3.0087  1.3782
 1142TIP3   OH2 3431   3.492   4.226   3.745  0.1925 -0.1969  0.5411
 1142TIP3    H1 3432   3.485   4.295   3.678 -1.8445  0.5536  1.4412
 1142TIP3    H2 3433   3.413   4.174   3.733  1.5646 -2.3021  0.0571
 1143TIP3   OH2 3434   6.020   2.308   1.285  0.4861  0.0708 -0.1264
 1143TIP3    H1 3435   6.085   2.287   1.218  0.6299  3.4071 -1.2082
 1143TIP3    H2 3436   5.964   2.374   1.244 -1.0685  0.2876  2.1664
 1144TIP3   OH2 3437   2.935   3.408   4.523 -0.2058 -0.1178 -0.2668
 1144TIP3    H1 3438   2.884   3.480   4.560 -0.5689 -1.2500  1.5636
 1144TIP3    H2 3439   2.999   3.385   4.591  1.6888  0.1618 -1.8462
 1145TIP3   OH2 3440   1.135   4.092   2.842  0.0348  0.2954  0.1845
 1145TIP3    H1 3441   1.108   4.019   2.898  1.0384  0.3616  0.7720
 1145TIP3    H2 3442   1.144   4.053   2.755 -0.3763 -0.0676  0.3004
 1146TIP3   OH2 3443   4.648   3.821   2.445  0.3489 -0.3166 -0.6947
 1146TIP3    H1 3444   4.667   3.899   2.497  0.6212  1.0411 -2.7119
 1146TIP3    H2 3445   4.703   3.753   2.484 -0.2232  0.3211  1.4038
 1147TIP3   OH2 3446   0.778   1.478   4.101 -0.2286  0.2441 -0.2017
 1147TIP3    H1 3447   0.752   1.460   4.010  0.4698  0.9341 -0.5440
 1147TIP3    H2 3448   0.777   1.392   4.143 -1.8453  0.0816 -0.5084
 1148TIP3   OH2 3449   0.376   4.384   0.510  0.1357  0.0185 -0.4823
 1148TIP3    H1 3450   0.401   4.384   0.417 -0.5235  0.1946 -0.6686
 1148TIP3    H2 3451   0.453   4.419   0.556  0.4772 -0.0969 -0.9565
 1149TIP3   OH2 3452   3.362   4.010   1.187 -0.0628 -0.2155  0.2836
 1149TIP3    H1 3453   3.304   3.982   1.258 -0.6764 -2.1640 -0.8882
 1149TIP3    H2 3454   3.303   4.023   1.112  0.7144  0.5232 -0.2223
 1150TIP3   OH2 3455   1.993   5.257   0.672 -0.0253  0.6709 -0.3523
 1150TIP3    H1 3456   2.059   5.318   0.639 -1.7636  2.4800 -0.6116
 1150TIP3    H2 3457   2.044   5.190   0.718  2.0579  1.3165 -1.5856
 1151TIP3   OH2 3458   1.863   0.794  -0.028 -0.3947  0.4004 -0.1608
 1151TIP3    H1 3459   1.769   0.777  -0.035  0.1084 -3.0931 -0.1531
 1151TIP3    H2 3460   1.877   0.812   0.065 -0.8852 -0.9329  0.2060
 1152TIP3   OH2 3461   0.366   4.708   3.284  0.4213 -0.6462 -0.0492
 1152TIP3    H1 3462   0.291   4.697   3.343 -1.6582  0.6668 -2.2822
 1152TIP3    H2 3463   0.424   4.769   3.330 -0.9421  0.0550  0.8177
 1153TIP3   OH2 3464   0.768   2.957   0.137  0.4771  0.1140  0.5107
 1153TIP3    H1 3465   0.776   2.906   0.056 -0.3490  0.8558 -0.0702
 1153TIP3    H2 3466   0.791   2.896   0.207  0.0269 -0.8975 -0.2022
 1154TIP3   OH2 3467   1.599   2.762   1.709 -0.5779 -0.0144 -0.1171
 1154TIP3    H1 3468   1.562   2.693   1.764  0.6512 -1.0613 -0.5772
 1154TIP3    H2 3469   1.535   2.773   1.639 -1.2763  0.0635  0.5093
 1155TIP3   OH2 3470   3.548   3.295   3.933  0.1119 -0.0328  0.2524
 1155TIP3    H1 3471   3.616   3.239   3.895  0.4463  0.3683  0.2530
 1155TIP3    H2 3472   3.494   3.321   3.859  0.1538 -0.0845  0.2037
 1156TIP3   OH2 3473   2.492   3.227   3.577 -0.1649 -0.2366  0.1445
 1156TIP3    H1 3474   2.510   3.155   3.516 -0.8839  0.3257 -0.7487
 1156TIP3    H2 3475   2.479   3.184   3.662  0.2791 -1.0769 -0.2028
 1157TIP3   OH2 3476   0.128   1.719   1.443 -0.5787  0.0549 -0.2540
 1157TIP3    H1 3477   0.171   1.794   1.400  0.4280  0.3972  1.2579
 1157TIP3    H2 3478   0.179   1.643   1.416  1.8739  0.5727  2.3873
 1158TIP3   OH2 3479   5.632   5.850   2.345  0.3726 -0.2383 -0.5897
 1158TIP3    H1 3480   5.548   5.819   2.382  0.2445  0.6751 -0.0839
 1158TIP3    H2 3481   5.612   5.868   2.253  0.0730 -0.2542 -0.5313
 1159TIP3   OH2 3482   3.049   2.455   4.249 -0.3772  0.4098 -0.2463
 1159TIP3    H1 3483   3.000   2.376   4.227 -1.7203  0.9659  0.6438
 1159TIP3    H2 3484   3.015   2.483   4.334  1.0101  1.2163  0.0899
 1160TIP3   OH2 3485   2.617   4.743   1.643  0.0155  0.0532  0.0537
 1160TIP3    H1 3486   2.668   4.821   1.663  1.3188 -0.4932 -0.9262
 1160TIP3    H2 3487   2.527   4.766   1.665  0.7595  0.7504  2.7307
 1161TIP3   OH2 3488   2.797   1.626   5.066  0.2164  0.0960  0.0544
 1161TIP3    H1 3489   2.863   1.663   5.008 -1.0331  3.1674  0.4171
 1161TIP3    H2 3490   2.776   1.696   5.128 -2.4993 -1.1421  0.7206
 1162TIP3   OH2 3491   5.363   2.590   4.837 -0.0335 -0.1968 -1.0563
 1162TIP3    H1 3492   5.361   2.503   4.799 -0.4800 -0.0359 -1.4127
 1162TIP3    H2 3493   5.455   2.607   4.854 -0.0085 -1.0484 -0.2472
 1163TIP3   OH2 3494   4.636   0.341   3.730  0.4032  0.5056 -0.1779
 1163TIP3    H1 3495   4.671   0.420   3.689  1.5675  0.7696  1.2172
 1163TIP3    H2 3496   4.698   0.272   3.707  0.3493  0.3817  0.0401
 1164TIP3   OH2 3497   4.752   2.774   5.085  0.0488 -0.0290  0.2496
 1164TIP3    H1 3498   4.748   2.683   5.114 -0.6555  0.3627  1.4358
 1164TIP3    H2 3499   4.660   2.800   5.074  0.2425  0.5527 -0.0682
 1165TIP3   OH2 3500   1.238   2.507   4.628 -0.0731 -0.6085 -0.0530
 1165TIP3    H1 3501   1.254   2.597   4.656  0.0491 -0.6170 -0.0939
 1165TIP3    H2 3502   1.147   2.507   4.598  0.4852 -0.0084 -1.8924
 1166TIP3   OH2 3503   5.161   5.179   4.643 -0.3015  0.3423 -0.7597
 1166TIP3    H1 3504   5.206   5.179   4.728  1.0577  1.1819 -1.4645
 1166TIP3    H2 3505   5.170   5.268   4.610 -1.0618  0.0977 -1.6869
 1167TIP3   OH2 3506   3.786   5.250   1.903 -0.2230  0.5003  0.0932
 1167TIP3    H1 3507   3.779   5.177   1.842  0.0233  0.5390  0.0197
 1167TIP3    H2 3508   3.880   5.260   1.918 -0.2808  0.4906  0.4766
 1168TIP3   OH2 3509   3.698   0.459   3.780  0.0597 -0.3922 -0.1124
 1168TIP3    H1 3510   3.621   0.463   3.838 -0.4431  1.4224 -0.8401
 1168TIP3    H2 3511   3.757   0.526   3.813  0.2360 -0.0712 -1.0533
 1169TIP3   OH2 3512   4.626   4.099   3.422 -0.4477 -0.4445  0.0631
 1169TIP3    H1 3513   4.603   4.181   3.466  0.2574  0.1156 -0.6031
 1169TIP3    H2 3514   4.682   4.053   3.485  0.7093  0.4388 -0.2929
 1170TIP3   OH2 3515   1.238   1.470   1.086 -0.2086 -0.2016 -0.5869
 1170TIP3    H1 3516   1.183   1.404   1.045  0.0895 -2.3697  2.1903
 1170TIP3    H2 3517   1.176   1.527   1.133 -0.2713 -1.2753  0.6829
 1171TIP3   OH2 3518   5.927   0.221   1.913 -0.6230  0.5477 -0.2909
 1171TIP3    H1 3519   5.878   0.208   1.832 -0.2995  0.4284 -0.4687
 1171TIP3    H2 3520   5.896   0.305   1.947 -0.5797  0.7141 -0.6646
 1172TIP3   OH2 3521   2.041   1.112   0.162 -0.7227  0.4806  0.0894
 1172TIP3    H1 3522   2.074   1.111   0.072  2.8188 -1.8420  1.2177
 1172TIP3    H2 3523   2.106   1.161   0.212 -0.6770 -1.3115  1.9252
 1173TIP3   OH2 3524   0.689   4.090   2.833 -0.1158 -0.0375 -0.8738
 1173TIP3    H1 3525   0.768   4.123   2.790 -0.6246 -1.0180 -2.6826
 1173TIP3    H2 3526   0.715   4.007   2.873  0.0830  0.3064 -0.2835
 1174TIP3   OH2 3527   1.002   4.617   3.810  0.3990  0.2685 -0.0590
 1174TIP3    H1 3528   1.070   4.602   3.744  0.2935 -1.0408  0.1208
 1174TIP3    H2 3529   0.950   4.688   3.773  0.9425  0.2445 -0.9141
 1175TIP3   OH2 3530   2.158   3.424   0.625 -0.0643  0.0462 -0.5634
 1175TIP3    H1 3531   2.135   3.452   0.713  1.2924 -1.6434  0.3822
 1175TIP3    H2 3532   2.253   3.416   0.626 -0.2368 -3.2697 -1.0805
 1176TIP3   OH2 3533   5.544   3.112   3.817 -0.1772 -0.1399  0.1724
 1176TIP3    H1 3534   5.604   3.109   3.743  1.9069  0.7393  1.7192
 1176TIP3    H2 3535   5.486   3.186   3.799  0.8888  0.6259 -0.1874
 1177TIP3   OH2 3536   3.081   3.187   0.418 -0.4157  0.4358 -0.1156
 1177TIP3    H1 3537   3.059   3.110   0.366 -1.4918 -0.0950  1.0480
 1177TIP3    H2 3538   3.168   3.212   0.389 -0.0933 -1.1431 -0.6280
 1178TIP3   OH2 3539   5.162   3.853   0.196 -0.1685 -0.1323 -0.0818
 1178TIP3    H1 3540   5.243   3.824   0.239 -0.7744  0.2898  1.3971
 1178TIP3    H2 3541   5.186   3.860   0.103  1.9593  1.4455  0.4911
 1179TIP3   OH2 3542   2.272   0.552   3.671  0.2004  0.2239  0.0584
 1179TIP3    H1 3543   2.364   0.574   3.686  1.0450 -3.0864  0.5006
 1179TIP3    H2 3544   2.254   0.582   3.581  1.2811  1.9954  0.3878
 1180TIP3   OH2 3545   0.668   5.429   3.151  0.4796  0.2408 -0.1959
 1180TIP3    H1 3546   0.660   5.353   3.209  1.1693  1.6153  1.7688
 1180TIP3    H2 3547   0.761   5.436   3.132  0.5944  1.3648  0.7202
 1181TIP3   OH2 3548   4.840   4.185   0.662 -0.1530  0.4746  0.1480
 1181TIP3    H1 3549   4.836   4.263   0.717  1.4841  1.0208 -0.4347
 1181TIP3    H2 3550   4.757   4.140   0.678 -1.3131  2.5085  0.2243
 1182TIP3   OH2 3551   2.266   1.950   4.027 -0.4774  0.0032 -0.2078
 1182TIP3    H1 3552   2.318   1.898   3.967  0.4590 -0.0375  0.6124
 1182TIP3    H2 3553   2.191   1.895   4.049 -0.3799 -0.3127 -0.6644
 1183TIP3   OH2 3554   3.766   2.850   3.037 -0.1549 -0.6617  0.0971
 1183TIP3    H1 3555   3.808   2.847   3.123  0.7779 -1.9614 -0.3635
 1183TIP3    H2 3556   3.691   2.792   3.046 -0.4636 -0.2438  0.2302
 1184TIP3   OH2 3557   2.412   1.756   3.895  0.2776 -0.8131 -0.3059
 1184TIP3    H1 3558   2.491   1.706   3.876  0.7058 -0.8352  1.3669
 1184TIP3    H2 3559   2.369   1.766   3.810  2.0073 -0.8977 -1.2404
 1185TIP3   OH2 3560   2.726   4.823   1.075 -0.4967 -0.0523 -0.4983
 1185TIP3    H1 3561   2.649   4.879   1.081  2.5551  4.7574 -0.8521
 1185TIP3    H2 3562   2.755   4.812   1.165 -1.5657 -2.1191 -0.3358
 1186TIP3   OH2 3563   4.432   5.409   3.392 -0.5048  0.1604  0.3612
 1186TIP3    H1 3564   4.436   5.346   3.464  0.8155 -0.7524 -0.4575
 1186TIP3    H2 3565   4.500   5.380   3.331  0.1288  2.3770 -0.0674
 1187TIP3   OH2 3566   5.997   2.370   2.382  0.0246  0.2686 -0.8641
 1187TIP3    H1 3567   5.953   2.390   2.299 -0.7240  2.1952 -0.0571
 1187TIP3    H2 3568   5.936   2.313   2.428  0.0501 -0.1000 -1.2858
 1188TIP3   OH2 3569   2.286   5.777   4.970 -0.3020 -0.0576 -0.0115
 1188TIP3    H1 3570   2.373   5.749   4.945 -0.0225  0.3602  0.4705
 1188TIP3    H2 3571   2.270   5.856   4.918 -0.6297 -0.4507 -0.5228
 1189TIP3   OH2 3572   1.460   0.328   1.341  0.7959  0.4735  0.3806
 1189TIP3    H1 3573   1.418   0.404   1.301  1.7709  0.4681 -0.7095
 1189TIP3    H2 3574   1.546   0.324   1.300  2.6322  1.5453  3.8406
 1190TIP3   OH2 3575   2.703   4.615   4.911 -0.0473  0.8588  0.0693
 1190TIP3    H1 3576   2.610   4.636   4.901 -0.2627  0.6564  1.4142
 1190TIP3    H2 3577   2.721   4.552   4.842 -0.4355  2.2783 -1.3787
 1191TIP3   OH2 3578   5.624   2.319   3.962  0.0716  0.2214  0.2899
 1191TIP3    H1 3579   5.596   2.409   3.948 -0.0984  0.1816  0.3675
 1191TIP3    H2 3580   5.578   2.293   4.042 -2.3476 -0.9599 -1.3679
 1192TIP3   OH2 3581   1.353   5.472   4.157 -0.0374 -0.2848 -0.5869
 1192TIP3    H1 3582   1.385   5.408   4.221  0.1518  0.0460 -0.3485
 1192TIP3    H2 3583   1.309   5.538   4.210  0.6318  0.2963 -0.7477
 1193TIP3   OH2 3584   2.465   0.676   4.036 -0.2543 -0.0511  0.0052
 1193TIP3    H1 3585   2.480   0.716   4.121  1.1470  0.2954 -0.3931
 1193TIP3    H2 3586   2.514   0.594   4.039 -0.4860 -0.2062 -0.3520
 1194TIP3   OH2 3587   1.037   3.398   3.523  0.3143 -0.2062  0.7523
 1194TIP3    H1 3588   0.989   3.403   3.440  1.6464  4.6727  0.0119
 1194TIP3    H2 3589   0.973   3.426   3.589  0.2526 -0.6099  0.8692
 1195TIP3   OH2 3590   2.400   4.699   0.871  0.1697  0.3196  0.0220
 1195TIP3    H1 3591   2.485   4.662   0.849  0.2861 -0.0942  1.1137
 1195TIP3    H2 3592   2.340   4.662   0.806  1.0981  2.0819 -1.9376
 1196TIP3   OH2 3593   2.269   1.704   3.195 -0.1749  0.1948 -0.3396
 1196TIP3    H1 3594   2.242   1.612   3.200  0.1210  0.1359  0.1924
 1196TIP3    H2 3595   2.216   1.740   3.123 -1.8049  0.1222  0.7580
 1197TIP3   OH2 3596   0.994   1.124   2.843  0.2114 -0.6450 -0.6521
 1197TIP3    H1 3597   0.966   1.215   2.835 -0.7499 -0.9704 -1.1473
 1197TIP3    H2 3598   0.914   1.073   2.831  0.7366 -1.5607 -0.3891
 1198TIP3   OH2 3599   4.369   3.191   4.876  0.3288  0.3309 -0.3435
 1198TIP3    H1 3600   4.414   3.274   4.891 -0.2725  0.6961 -0.5228
 1198TIP3    H2 3601   4.372   3.146   4.960  1.0842  0.3231 -0.3726
 1199TIP3   OH2 3602   0.019   4.165   0.051 -0.3127 -0.1694  0.0107
 1199TIP3    H1 3603   0.024   4.113   0.132  2.7294 -0.2266 -0.0929
 1199TIP3    H2 3604  -0.007   4.252   0.080  0.0154 -0.3775  0.9613
 1200TIP3   OH2 3605   1.443   2.252   3.574 -0.1991  0.1168 -0.0961
 1200TIP3    H1 3606   1.415   2.161   3.567  0.5699 -0.1470  0.1415
 1200TIP3    H2 3607   1.466   2.263   3.666  1.0274  0.1454 -0.3956
 1201TIP3   OH2 3608  -0.027   0.900   0.085 -0.4370 -0.2049  0.1284
 1201TIP3    H1 3609   0.046   0.862   0.134 -0.5348 -1.4345 -0.6643
 1201TIP3    H2 3610   0.015   0.951   0.016 -0.3238 -0.6231 -0.1120
 1202TIP3   OH2 3611   4.991   4.767   4.089  0.2245 -0.0209 -0.3103
 1202TIP3    H1 3612   4.949   4.714   4.157  0.4662  0.8489  0.5351
 1202TIP3    H2 3613   5.069   4.804   4.132 -0.0600  1.1933 -0.8093
 1203TIP3   OH2 3614   1.722   1.010   1.559 -0.2041  0.2781  0.8094
 1203TIP3    H1 3615   1.630   0.985   1.551  0.1267 -0.8074  0.1566
 1203TIP3    H2 3616   1.731   1.087   1.503 -1.1270  1.6263  2.4320
 1204TIP3   OH2 3617   4.028   1.388   4.883 -0.0614  0.0381  0.0089
 1204TIP3    H1 3618   4.042   1.475   4.921 -1.3850 -0.0299  0.7149
 1204TIP3    H2 3619   3.994   1.406   4.795 -1.4356  0.2824  0.5607
 1205TIP3   OH2 3620   1.728   3.922   0.594  0.3786 -0.4521 -0.4100
 1205TIP3    H1 3621   1.640   3.887   0.578 -0.6793  1.1017  1.4877
 1205TIP3    H2 3622   1.715   4.017   0.598  2.5015 -0.0407 -1.9266
 1206TIP3   OH2 3623   5.632   1.235   2.913 -0.1228 -0.3430 -0.3217
 1206TIP3    H1 3624   5.665   1.314   2.956 -0.3599 -0.7728  0.6930
 1206TIP3    H2 3625   5.665   1.241   2.824  1.2281  0.1128  0.1711
 1207TIP3   OH2 3626   4.513   5.671   0.436  1.1443 -0.0028 -0.0034
 1207TIP3    H1 3627   4.496   5.579   0.416  0.7318  0.2980 -1.0993
 1207TIP3    H2 3628   4.608   5.680   0.431  1.0779  0.0969 -2.2074
 1208TIP3   OH2 3629   2.605   3.614   1.525 -0.2910 -0.3976  0.0345
 1208TIP3    H1 3630   2.659   3.569   1.460  0.5963  0.6687  0.0138
 1208TIP3    H2 3631   2.524   3.562   1.528 -0.6164 -0.1625 -2.3562
 1209TIP3   OH2 3632   4.085   3.388   3.673 -0.3377  0.8506  0.0259
 1209TIP3    H1 3633   4.146   3.331   3.720  0.9593 -0.2887 -2.7893
 1209TIP3    H2 3634   4.089   3.472   3.719  0.7509 -0.1803  1.9135
 1210TIP3   OH2 3635   5.516   4.899   1.316  0.2076  0.0186  0.1494
 1210TIP3    H1 3636   5.539   4.955   1.241  0.6247  1.6924  1.4507
 1210TIP3    H2 3637   5.466   4.827   1.278 -2.0382  2.2392 -1.4731
 1211TIP3   OH2 3638   2.222   5.087   2.026 -0.2035 -0.7747  0.9498
 1211TIP3    H1 3639   2.174   5.018   1.979 -0.5366 -0.0848  0.2450
 1211TIP3    H2 3640   2.288   5.040   2.077 -0.5382 -1.6256  0.6205
 1212TIP3   OH2 3641   1.468   1.463   4.166  0.3481 -1.0676 -0.1948
 1212TIP3    H1 3642   1.455   1.521   4.091 -1.2594 -1.9716 -0.6733
 1212TIP3    H2 3643   1.547   1.413   4.145 -1.1209 -2.7329 -2.3400
 1213TIP3   OH2 3644   4.963   3.080   3.051  0.3473  0.6507  0.3191
 1213TIP3    H1 3645   4.913   3.030   3.115 -0.8157 -0.0745 -1.0932
 1213TIP3    H2 3646   5.010   3.014   3.000 -2.0021  0.7908 -2.2374
 1214TIP3   OH2 3647   5.995   5.728   0.817  0.5395  0.0772 -0.5306
 1214TIP3    H1 3648   5.975   5.726   0.911  1.3444  0.3859 -0.3469
 1214TIP3    H2 3649   6.066   5.791   0.809 -0.6900  1.3988 -1.5930
 1215TIP3   OH2 3650   2.850   3.543   0.259  0.0247 -0.4814 -0.0616
 1215TIP3    H1 3651   2.942   3.519   0.265 -0.3989 -2.1879  0.2212
 1215TIP3    H2 3652   2.810   3.474   0.205 -1.1548  0.0143  0.1302
 1216TIP3   OH2 3653   2.574   5.710   4.896 -0.2684  0.0117 -0.2879
 1216TIP3    H1 3654   2.619   5.628   4.875  2.0299  1.6065 -2.2624
 1216TIP3    H2 3655   2.595   5.726   4.988  0.6209 -0.8522 -0.3215
 1217TIP3   OH2 3656   2.800   1.577   0.221  0.0492  0.6881  0.1845
 1217TIP3    H1 3657   2.796   1.673   0.217 -3.3188  0.6331 -0.6155
 1217TIP3    H2 3658   2.783   1.549   0.131 -2.1586 -0.6157  0.9383
 1218TIP3   OH2 3659   0.378   0.536   2.244 -0.3666  0.3654 -0.1778
 1218TIP3    H1 3660   0.313   0.468   2.262  0.0484 -0.5989 -2.0042
 1218TIP3    H2 3661   0.462   0.494   2.260 -0.1212  0.7296 -0.4797
 1219TIP3   OH2 3662   5.458   4.761   2.211 -0.0974  0.2336  0.1988
 1219TIP3    H1 3663   5.370   4.724   2.200 -0.0263  0.1974 -0.2794
 1219TIP3    H2 3664   5.509   4.689   2.247 -0.7441  0.8588  2.5357
 1220TIP3   OH2 3665   4.798   3.018   2.315  0.3668  0.4483  0.0140
 1220TIP3    H1 3666   4.708   3.011   2.285  0.8068  0.6422 -1.4164
 1220TIP3    H2 3667   4.824   3.107   2.293  0.4678  0.8933  1.7696
 1221TIP3   OH2 3668   3.890   2.444   3.620  0.1853 -0.2897  0.6120
 1221TIP3    H1 3669   3.824   2.498   3.664 -0.0720  0.0818 -0.2119
 1221TIP3    H2 3670   3.842   2.367   3.590  0.3506 -0.5194  0.9320
 1222TIP3   OH2 3671   4.545   4.963   2.724  0.1156 -0.3700  0.1914
 1222TIP3    H1 3672   4.534   4.895   2.657  0.2583  0.6688 -0.9103
 1222TIP3    H2 3673   4.639   4.969   2.737  0.1343 -0.0080 -0.1087
 1223TIP3   OH2 3674   4.419   0.342   0.463 -0.2755  0.2236 -0.2107
 1223TIP3    H1 3675   4.499   0.332   0.515 -0.4982 -1.0112 -0.0664
 1223TIP3    H2 3676   4.450   0.353   0.373  0.0693 -0.0826 -0.1332
 1224TIP3   OH2 3677   4.679   0.974   2.678 -0.4305 -0.4900 -0.6983
 1224TIP3    H1 3678   4.751   1.027   2.712 -0.3617 -2.4087  2.4645
 1224TIP3    H2 3679   4.707   0.950   2.590  2.3370 -0.3429  0.0547
 1225TIP3   OH2 3680   1.918   1.214   2.730  0.0975  0.3802 -0.3061
 1225TIP3    H1 3681   1.943   1.126   2.705 -0.6280  0.1130 -0.1103
 1225TIP3    H2 3682   1.844   1.236   2.673  0.5697  1.0438 -0.6768
 1226TIP3   OH2 3683   1.012   2.987   4.102 -0.4101 -0.2644 -0.0503
 1226TIP3    H1 3684   0.974   3.033   4.177  0.1330  1.4750 -0.7889
 1226TIP3    H2 3685   0.941   2.985   4.037  0.2676  1.7585 -0.9176
 1227TIP3   OH2 3686   3.502   1.081   2.908  0.7227 -0.2689 -0.9584
 1227TIP3    H1 3687   3.548   1.165   2.908  1.3399 -0.6015 -0.4115
 1227TIP3    H2 3688   3.556   1.024   2.963 -0.2677 -0.6992 -0.4034
 1228TIP3   OH2 3689   4.645   5.555   4.946  0.1176  0.3957 -0.2230
 1228TIP3    H1 3690   4.580   5.610   4.902 -1.5619 -2.4912 -1.6357
 1228TIP3    H2 3691   4.612   5.546   5.036 -1.1437 -0.4700 -0.7427
 1229TIP3   OH2 3692   4.096   3.977   0.105 -0.4557 -0.1506  0.2407
 1229TIP3    H1 3693   4.151   3.969   0.183 -0.6920 -0.3540  0.3881
 1229TIP3    H2 3694   4.028   3.911   0.117 -0.3980 -0.2965 -0.2177
 1230TIP3   OH2 3695   0.841   1.805   3.020 -0.2529 -0.0185  0.0291
 1230TIP3    H1 3696   0.835   1.731   2.959  1.6086 -0.1484 -0.0406
 1230TIP3    H2 3697   0.877   1.767   3.100 -1.5543  0.3868  0.8396
 1231TIP3   OH2 3698   5.167   3.234   3.144  0.0311 -0.6349 -0.6860
 1231TIP3    H1 3699   5.085   3.193   3.119 -0.9793  0.2726  0.9600
 1231TIP3    H2 3700   5.209   3.171   3.203 -0.0531 -0.6118 -0.6004
 1232TIP3   OH2 3701   1.653   2.330   4.236 -0.1099 -0.4468  0.2416
 1232TIP3    H1 3702   1.673   2.376   4.155 -1.8853 -1.2137 -0.7064
 1232TIP3    H2 3703   1.697   2.381   4.305 -1.1920  2.1385 -0.8343
 1233TIP3   OH2 3704   1.535   1.979   2.748  0.1788 -0.3295  0.0642
 1233TIP3    H1 3705   1.570   2.029   2.821  0.4605  0.1151 -0.3651
 1233TIP3    H2 3706   1.612   1.943   2.704  0.0882  0.3510 -0.6725
 1234TIP3   OH2 3707   0.825   3.566   4.809 -0.2233 -0.1588  0.1455
 1234TIP3    H1 3708   0.852   3.632   4.874 -0.5071  0.5254 -0.4144
 1234TIP3    H2 3709   0.792   3.493   4.861  1.8223 -0.6478  0.8401
 1235TIP3   OH2 3710   2.883   0.316   0.383  0.0511 -0.3549 -0.0591
 1235TIP3    H1 3711   2.801   0.364   0.397  0.0770 -0.3566  0.1023
 1235TIP3    H2 3712   2.855   0.232   0.348  0.0610  0.1492 -1.3293
 1236TIP3   OH2 3713   6.316   3.417   2.578  0.2145  0.1602  0.0577
 1236TIP3    H1 3714   6.331   3.347   2.642 -0.5420  1.0090  1.2249
 1236TIP3    H2 3715   6.228   3.400   2.545  0.5091 -0.1339 -0.5821
 1237TIP3   OH2 3716   4.800   3.305   3.146 -0.2946 -0.0426  0.6433
 1237TIP3    H1 3717   4.789   3.309   3.051  0.2779  0.5712  0.5987
 1237TIP3    H2 3718   4.721   3.261   3.178  0.1658 -1.6210 -0.2480
 1238TIP3   OH2 3719   2.221   3.379   1.306 -0.3166 -0.5428  0.3796
 1238TIP3    H1 3720   2.242   3.432   1.382  0.6914  0.1113 -0.3350
 1238TIP3    H2 3721   2.136   3.412   1.277  0.7189  1.4074 -0.6292
 1239TIP3   OH2 3722   2.682   4.246   5.008 -0.0244 -0.1172 -0.3941
 1239TIP3    H1 3723   2.675   4.168   4.952  1.7925 -1.0670  0.6101
 1239TIP3    H2 3724   2.776   4.259   5.020 -0.2905  2.1204 -0.3228
 1240TIP3   OH2 3725   2.536   3.141   2.150  0.2964  0.1835  0.4827
 1240TIP3    H1 3726   2.471   3.108   2.088  0.2320  0.8118  0.2061
 1240TIP3    H2 3727   2.614   3.088   2.134 -1.0404 -2.8562  3.0260
 1241TIP3   OH2 3728   6.076   3.234   1.271  0.2028  0.5336  0.5907
 1241TIP3    H1 3729   5.994   3.263   1.229  0.8494  0.7165 -0.5869
 1241TIP3    H2 3730   6.080   3.141   1.251 -0.4007  0.2214  1.8510
 1242TIP3   OH2 3731   1.265   1.138   0.103  0.1529  0.9088 -0.0717
 1242TIP3    H1 3732   1.258   1.079   0.179 -0.3677  0.4894 -0.4318
 1242TIP3    H2 3733   1.359   1.151   0.091  0.2634  0.4019  0.2059
 1243TIP3   OH2 3734   3.600   2.761   0.821  0.2974  0.2186 -0.1323
 1243TIP3    H1 3735   3.691   2.771   0.848  0.5603 -0.4095 -0.7716
 1243TIP3    H2 3736   3.600   2.687   0.760 -0.3658  1.2501 -1.4474
 1244TIP3   OH2 3737   2.899   2.557   2.571 -0.1461  0.0023 -0.3934
 1244TIP3    H1 3738   2.921   2.636   2.522 -0.1059 -0.5421 -1.2716
 1244TIP3    H2 3739   2.917   2.485   2.510  2.0185 -0.8568  1.1319
 1245TIP3   OH2 3740   4.557   4.240   1.856  0.1118 -0.3664  0.2553
 1245TIP3    H1 3741   4.627   4.238   1.791  1.6344 -0.4984  1.8328
 1245TIP3    H2 3742   4.486   4.289   1.814  0.3671 -1.8629 -2.1034
 1246TIP3   OH2 3743   2.419   4.628   0.185  0.0862 -0.4518 -0.0639
 1246TIP3    H1 3744   2.340   4.682   0.191  0.3596 -0.0602  0.0038
 1246TIP3    H2 3745   2.477   4.677   0.127  0.6617 -0.2701  0.6557
 1247TIP3   OH2 3746   1.835   3.995   3.761  0.0837  0.2423 -0.3581
 1247TIP3    H1 3747   1.778   3.926   3.726 -1.6717  1.0608  0.7467
 1247TIP3    H2 3748   1.775   4.060   3.797  1.6811  2.4035 -1.3747
 1248TIP3   OH2 3749   3.931   1.291   1.404 -0.8025  0.2438 -0.2493
 1248TIP3    H1 3750   3.883   1.337   1.335  0.4128  3.3577  0.8146
 1248TIP3    H2 3751   3.895   1.202   1.402 -1.9829  0.6195 -3.7349
 1249TIP3   OH2 3752   5.286   5.836   0.098 -0.3433  0.0418 -0.0926
 1249TIP3    H1 3753   5.224   5.909   0.097  0.0013  0.3741  1.0622
 1249TIP3    H2 3754   5.370   5.876   0.074 -0.3024 -0.1291 -0.2369
 1250TIP3   OH2 3755   1.540   0.276   4.378  0.0192  0.0885  0.3119
 1250TIP3    H1 3756   1.533   0.296   4.471 -0.9583  0.7936  0.1025
 1250TIP3    H2 3757   1.452   0.292   4.343 -0.2918 -2.4847 -0.2977
 1251TIP3   OH2 3758   2.588   5.815   4.654  0.1571 -0.0021 -0.0457
 1251TIP3    H1 3759   2.617   5.774   4.736 -1.2861 -0.7306  0.1364
 1251TIP3    H2 3760   2.638   5.769   4.586 -0.4340 -1.1314  0.2577
 1252TIP3   OH2 3761   1.634   2.050   4.254  0.4198 -0.7176  0.2834
 1252TIP3    H1 3762   1.659   2.142   4.245  1.4442 -1.0906 -1.1439
 1252TIP3    H2 3763   1.553   2.042   4.204  1.4315 -0.9679 -1.4110
 1253TIP3   OH2 3764   1.244   2.160   3.878 -0.0564 -0.1886  0.2132
 1253TIP3    H1 3765   1.170   2.220   3.887  0.8762  1.2249 -1.1043
 1253TIP3    H2 3766   1.320   2.216   3.868  0.8464 -1.5675 -1.1415
 1254TIP3   OH2 3767   4.376   1.397   2.628  0.4023  0.0299 -0.3599
 1254TIP3    H1 3768   4.434   1.356   2.564 -0.3661 -0.1836 -0.9459
 1254TIP3    H2 3769   4.364   1.486   2.596  0.2464  0.0116 -0.3535
 1255TIP3   OH2 3770   0.526   4.124   2.355  0.7311  0.4813 -0.2569
 1255TIP3    H1 3771   0.487   4.158   2.436  0.8013  1.2876 -0.5549
 1255TIP3    H2 3772   0.457   4.068   2.318  0.8916 -0.3193  0.6175
 1256TIP3   OH2 3773   5.350   5.475   4.311  0.0257 -0.6849  0.2319
 1256TIP3    H1 3774   5.396   5.547   4.268  0.0892 -0.8511  0.0237
 1256TIP3    H2 3775   5.410   5.401   4.307 -0.6695 -1.2197 -1.0144
 1257TIP3   OH2 3776   4.446   2.854   4.822 -0.4803  0.3299 -0.3286
 1257TIP3    H1 3777   4.490   2.917   4.765  0.5867  0.8423  0.9965
 1257TIP3    H2 3778   4.433   2.776   4.767 -0.2941  1.1002 -1.5034
 1258TIP3   OH2 3779   3.362   4.767   2.497  0.3901  0.2793 -0.2589
 1258TIP3    H1 3780   3.301   4.795   2.565  1.1152 -1.1937  1.0752
 1258TIP3    H2 3781   3.448   4.795   2.529  0.8371 -1.1503 -0.1140
 1259TIP3   OH2 3782   2.910   5.737   4.807  0.2807 -0.0729 -0.7222
 1259TIP3    H1 3783   2.978   5.795   4.772  2.4351 -0.8043  1.9187
 1259TIP3    H2 3784   2.887   5.681   4.733  0.1639  2.2324 -2.5745
 1260TIP3   OH2 3785   3.122   3.157   0.709 -0.3266 -0.2511 -0.0495
 1260TIP3    H1 3786   3.033   3.171   0.741 -0.9985 -1.8461 -1.0987
 1260TIP3    H2 3787   3.112   3.145   0.615  1.0747  0.0150 -0.2514
 1261TIP3   OH2 3788   6.085   2.494   1.490  0.0247  0.2568 -0.0096
 1261TIP3    H1 3789   6.069   2.432   1.418 -0.3586  0.5379 -0.1713
 1261TIP3    H2 3790   6.132   2.443   1.555  1.6705  0.3678 -1.0487
 1262TIP3   OH2 3791   2.211   0.830   4.138 -0.0927 -0.0073  0.1122
 1262TIP3    H1 3792   2.249   0.765   4.198 -0.6264 -0.5641 -0.1381
 1262TIP3    H2 3793   2.250   0.811   4.053 -0.6597 -0.3599 -0.0743
 1263TIP3   OH2 3794   4.487   1.199   4.268 -0.4313  0.1091 -0.0701
 1263TIP3    H1 3795   4.461   1.108   4.282 -1.7823  0.0906 -2.1749
 1263TIP3    H2 3796   4.427   1.250   4.323 -0.9042 -0.2190 -0.2694
 1264TIP3   OH2 3797   0.847   0.320   2.050  0.2914 -0.2588  0.1623
 1264TIP3    H1 3798   0.881   0.230   2.055  1.7382  0.2417 -0.2429
 1264TIP3    H2 3799   0.925   0.375   2.041 -0.4543  1.1636  1.7014
 1265TIP3   OH2 3800   0.820   0.484   0.341  0.2307  0.4628  0.7110
 1265TIP3    H1 3801   0.733   0.447   0.329  0.2990  0.0422  1.4098
 1265TIP3    H2 3802   0.807   0.578   0.344 -0.2833  0.3761  1.4176
 1266TIP3   OH2 3803   0.478   1.177   3.049 -0.5563  0.5443 -0.1776
 1266TIP3    H1 3804   0.532   1.244   3.092  0.8701 -0.8053  0.2050
 1266TIP3    H2 3805   0.388   1.205   3.067 -0.0153  1.1137  2.0360
 1267TIP3   OH2 3806   2.411   4.000   0.785  0.6532  0.3730 -0.7057
 1267TIP3    H1 3807   2.337   3.965   0.737 -0.1299 -1.6317  1.7464
 1267TIP3    H2 3808   2.373   4.058   0.851  1.3024 -0.0965  0.1095
 1268TIP3   OH2 3809   5.220   2.874   1.642 -1.0381 -0.1227  0.2508
 1268TIP3    H1 3810   5.298   2.912   1.603 -0.6899 -0.2208  0.8418
 1268TIP3    H2 3811   5.181   2.946   1.692 -0.6947 -0.3772  0.8950
 1269TIP3   OH2 3812   1.189   3.818   0.769  0.0894  0.3962 -0.5624
 1269TIP3    H1 3813   1.126   3.762   0.723  1.4170 -0.2330 -1.6974
 1269TIP3    H2 3814   1.146   3.903   0.777 -1.4258 -0.3899 -0.0486
 1270TIP3   OH2 3815   3.119   3.469   0.171  0.0534  0.2940 -0.6694
 1270TIP3    H1 3816   3.179   3.440   0.240  1.9477 -0.2242 -2.4686
 1270TIP3    H2 3817   3.170   3.464   0.090 -1.7914  1.8272 -2.0163
 1271TIP3   OH2 3818   3.775   2.624   2.269 -0.3253  0.1864  0.1356
 1271TIP3    H1 3819   3.692   2.605   2.313 -0.5458 -0.7370 -0.6245
 1271TIP3    H2 3820   3.814   2.537   2.254  1.6372  0.6659  2.0647
 1272TIP3   OH2 3821   3.173   4.364   1.891 -0.0420 -0.0935  0.1184
 1272TIP3    H1 3822   3.250   4.353   1.947 -0.3848  2.0753  1.1090
 1272TIP3    H2 3823   3.207   4.402   1.810 -0.0793  1.1149  0.6577
 1273TIP3   OH2 3824   5.211   0.323   1.953  0.1886 -0.4024  0.0327
 1273TIP3    H1 3825   5.228   0.381   2.027 -0.7532 -0.2527  0.1479
 1273TIP3    H2 3826   5.278   0.256   1.958  0.6524  0.0901  0.5156
 1274TIP3   OH2 3827   4.608   4.573   4.530 -0.4967 -0.1797 -0.3423
 1274TIP3    H1 3828   4.689   4.621   4.550 -1.5858  0.9837  1.5645
 1274TIP3    H2 3829   4.583   4.603   4.443 -0.5141  1.9008  0.3225
 1275TIP3   OH2 3830   3.640   5.376   2.708 -0.2957 -0.3380 -0.4882
 1275TIP3    H1 3831   3.619   5.342   2.795 -1.3070  0.2915 -0.4662
 1275TIP3    H2 3832   3.734   5.362   2.699  0.5021  2.3312  1.9921
 1276TIP3   OH2 3833   0.674   1.949   3.304 -0.4581 -0.3630  0.3499
 1276TIP3    H1 3834   0.614   1.896   3.251 -0.8228 -0.3076  0.6933
 1276TIP3    H2 3835   0.618   2.019   3.339 -0.1429 -0.1868  0.4997
 1277TIP3   OH2 3836   5.881   5.344   2.097  0.0751 -0.3761 -0.1315
 1277TIP3    H1 3837   5.949   5.389   2.047 -0.4984 -0.2780 -0.8478
 1277TIP3    H2 3838   5.810   5.407   2.104  0.0427 -0.4923  0.5737
 1278TIP3   OH2 3839   2.595   0.207   2.631  0.1762 -0.0407  0.1379
 1278TIP3    H1 3840   2.626   0.191   2.720  3.4050  0.1949 -0.7997
 1278TIP3    H2 3841   2.637   0.289   2.605 -2.9402  1.4381 -0.7462
 1279TIP3   OH2 3842   4.173   4.339   1.720  0.4289  0.0427 -0.4531
 1279TIP3    H1 3843   4.102   4.401   1.713 -0.4882 -0.9614 -0.2924
 1279TIP3    H2 3844   4.247   4.390   1.752 -0.7112  0.7621  1.1515
 1280TIP3   OH2 3845   3.180   2.936   3.424  0.0705 -0.2387 -0.5238
 1280TIP3    H1 3846   3.240   2.981   3.484 -1.9152  1.0250  0.6512
 1280TIP3    H2 3847   3.206   2.965   3.337  1.8576 -0.6538 -0.1718
 1281TIP3   OH2 3848   1.683   1.619   2.343  0.3323 -0.1760 -0.5816
 1281TIP3    H1 3849   1.718   1.692   2.393  0.1960 -1.5500  1.6565
 1281TIP3    H2 3850   1.702   1.542   2.397 -0.8435 -1.6257 -2.1371
 1282TIP3   OH2 3851   2.049   2.484   5.122  0.2971 -0.4612 -0.2748
 1282TIP3    H1 3852   2.083   2.492   5.032  2.5605 -1.1397  0.4609
 1282TIP3    H2 3853   2.100   2.414   5.161  1.9686  2.1216  2.6331
 1283TIP3   OH2 3854   2.327   0.455   2.555  0.3379 -0.3740  0.6265
 1283TIP3    H1 3855   2.368   0.541   2.546 -0.9110  0.1294 -0.5371
 1283TIP3    H2 3856   2.317   0.424   2.466  0.2061 -1.4780  1.0099
 1284TIP3   OH2 3857   3.771   0.047   4.753  0.2343  0.3804 -0.3279
 1284TIP3    H1 3858   3.783  -0.047   4.764 -1.1404  0.2429  0.2453
 1284TIP3    H2 3859   3.787   0.083   4.841  3.1050  1.0221 -0.9953
 1285TIP3   OH2 3860   1.633   4.386   3.949  0.2926 -0.5789  0.2587
 1285TIP3    H1 3861   1.641   4.469   3.901  1.5575 -0.6122  0.3673
 1285TIP3    H2 3862   1.581   4.408   4.026  0.3215  0.0374  0.1085
 1286TIP3   OH2 3863   5.769   2.190   4.767  0.4951  0.2454  0.2469
 1286TIP3    H1 3864   5.749   2.250   4.839 -0.3507  3.1759 -2.2115
 1286TIP3    H2 3865   5.841   2.233   4.720  0.0232 -0.8009 -1.4991
 1287TIP3   OH2 3866   5.326   0.974   1.415  0.1647  0.0070 -0.4240
 1287TIP3    H1 3867   5.336   0.891   1.461  1.0921  0.5180  0.3335
 1287TIP3    H2 3868   5.285   0.950   1.332  0.6059 -1.2330 -0.3140
 1288TIP3   OH2 3869   1.055   2.875   2.778 -0.0939  0.1175  0.2236
 1288TIP3    H1 3870   1.025   2.948   2.723 -0.5167 -0.2240 -0.0119
 1288TIP3    H2 3871   0.985   2.862   2.842  0.5680  0.7623  1.1053
 1289TIP3   OH2 3872   4.443   1.595   4.961  0.5076  0.0725 -0.1748
 1289TIP3    H1 3873   4.349   1.607   4.956  0.5487  1.6217  1.6456
 1289TIP3    H2 3874   4.470   1.579   4.871 -1.5263 -0.9070 -0.6674
 1290TIP3   OH2 3875   3.389   4.777   5.090 -0.2093  0.0727  0.2509
 1290TIP3    H1 3876   3.334   4.844   5.130  2.0990  1.2475  1.6223
 1290TIP3    H2 3877   3.457   4.825   5.043  1.0478 -1.2880  0.5882
 1291TIP3   OH2 3878   3.467   4.675   2.884  0.1454  0.1935  0.1665
 1291TIP3    H1 3879   3.534   4.733   2.921 -1.1514  2.1281 -0.3195
 1291TIP3    H2 3880   3.409   4.734   2.835 -1.2371 -1.5565 -0.4303
 1292TIP3   OH2 3881   2.999   4.159   2.513 -0.3223 -0.2241 -0.4154
 1292TIP3    H1 3882   2.939   4.140   2.441  0.0630 -1.9585 -0.3087
 1292TIP3    H2 3883   3.074   4.102   2.498  0.9981  1.3614 -0.1222
 1293TIP3   OH2 3884   1.407   0.154   3.275  0.4933  0.3429  0.4533
 1293TIP3    H1 3885   1.314   0.144   3.253  0.8229 -0.0731 -0.8538
 1293TIP3    H2 3886   1.438   0.223   3.216  1.2803 -0.3967 -0.0265
 1294TIP3   OH2 3887   5.422   4.157   5.036  0.0523 -0.3310 -0.0433
 1294TIP3    H1 3888   5.420   4.071   4.993  0.0805 -1.8576  2.8031
 1294TIP3    H2 3889   5.511   4.163   5.072  0.9306  2.0939 -2.2437
 1295TIP3   OH2 3890   4.429   3.589   0.596 -0.0511 -1.1727 -0.3559
 1295TIP3    H1 3891   4.516   3.558   0.571 -0.0101 -0.3876 -1.2305
 1295TIP3    H2 3892   4.432   3.683   0.583 -0.9249 -1.0954 -0.0526
 1296TIP3   OH2 3893   4.397   2.984   0.383 -0.3025  0.9773  0.3806
 1296TIP3    H1 3894   4.330   2.949   0.324  0.4235  0.5881 -0.2409
 1296TIP3    H2 3895   4.394   3.078   0.370 -0.3038  0.9118 -0.1146
 1297TIP3   OH2 3896   5.904   0.929   5.142  0.7979  0.1811 -0.6912
 1297TIP3    H1 3897   5.918   0.838   5.170  0.6896  0.2232 -0.4978
 1297TIP3    H2 3898   5.903   0.925   5.047  0.9692  0.0049 -0.6861
 1298TIP3   OH2 3899   0.801   5.838   1.748 -0.0183 -0.1825 -0.1359
 1298TIP3    H1 3900   0.752   5.790   1.681  0.4045 -0.3081 -0.3647
 1298TIP3    H2 3901   0.769   5.804   1.831 -0.1506 -0.4311 -0.2876
 1299TIP3   OH2 3902   3.626   0.938   2.368  0.7365  0.0263  0.1920
 1299TIP3    H1 3903   3.604   0.970   2.456 -0.2466  0.9289 -0.3516
 1299TIP3    H2 3904   3.600   0.846   2.369  1.9338 -0.3140  1.2361
 1300TIP3   OH2 3905   1.558   3.731   1.103  0.0371 -0.2381  0.7528
 1300TIP3    H1 3906   1.584   3.814   1.143 -0.2657  0.5791 -0.6859
 1300TIP3    H2 3907   1.633   3.706   1.048 -0.7486  0.2554 -0.5698
 1301TIP3   OH2 3908   1.433   4.647   2.809 -0.1206 -0.4016 -0.0662
 1301TIP3    H1 3909   1.504   4.585   2.795 -1.1358 -1.6313  0.0624
 1301TIP3    H2 3910   1.392   4.657   2.723  0.7495  1.0262 -0.3424
 1302TIP3   OH2 3911   1.371   3.632  -0.021 -0.4268 -0.1476 -0.4775
 1302TIP3    H1 3912   1.463   3.643  -0.045 -0.3049 -2.2360 -1.1507
 1302TIP3    H2 3913   1.369   3.647   0.074  0.5680  0.1015 -0.4812
 1303TIP3   OH2 3914   3.766   3.134   0.662  0.1520 -0.1686  0.1090
 1303TIP3    H1 3915   3.710   3.200   0.704  0.8583 -0.4026  1.4943
 1303TIP3    H2 3916   3.832   3.184   0.615 -0.6626  0.1046 -0.7680
 1304TIP3   OH2 3917   5.657   2.839   3.451 -0.0927 -0.1630 -0.1134
 1304TIP3    H1 3918   5.647   2.744   3.461  1.6327 -0.4224 -0.3872
 1304TIP3    H2 3919   5.667   2.852   3.357  0.5667  0.1687 -0.0019
 1305TIP3   OH2 3920   1.605   0.922   4.036  0.1854  0.4747  0.5112
 1305TIP3    H1 3921   1.641   0.844   4.078  0.8345  1.8518  2.6440
 1305TIP3    H2 3922   1.677   0.985   4.034  0.0022  0.7271 -2.1806
 1306TIP3   OH2 3923   3.746   3.041   0.242 -0.0999 -0.1294 -0.1934
 1306TIP3    H1 3924   3.836   3.074   0.246 -0.5885  1.1715  0.9366
 1306TIP3    H2 3925   3.733   3.017   0.151  0.7757  1.5235 -0.7948
 1307TIP3   OH2 3926   5.800   3.381   2.017 -0.7452  0.0529  0.5514
 1307TIP3    H1 3927   5.859   3.358   2.088 -0.4924 -0.2551  0.2454
 1307TIP3    H2 3928   5.712   3.369   2.054 -0.6180 -0.7055  0.6246
 1308TIP3   OH2 3929   3.386   3.134   0.043 -0.1149 -0.5783 -0.1230
 1308TIP3    H1 3930   3.430   3.109  -0.038 -0.5581  1.7517 -1.1446
 1308TIP3    H2 3931   3.377   3.052   0.091 -1.2560 -2.3509 -3.0801
 1309TIP3   OH2 3932   4.516   1.103   4.644 -0.3030  0.6654  0.5992
 1309TIP3    H1 3933   4.456   1.082   4.715 -2.2828 -0.5206 -1.2719
 1309TIP3    H2 3934   4.470   1.170   4.593  0.3529  0.4175 -0.3523
 1310TIP3   OH2 3935   5.868   2.571   3.838  0.2587  0.0415 -0.4603
 1310TIP3    H1 3936   5.938   2.547   3.777 -0.1155 -1.0265 -0.4850
 1310TIP3    H2 3937   5.829   2.650   3.800  0.3621 -0.3173 -1.3316
 1311TIP3   OH2 3938   4.882   5.192   4.554  0.1751 -0.7808  0.2026
 1311TIP3    H1 3939   4.951   5.220   4.616  0.3086 -0.5292 -0.0562
 1311TIP3    H2 3940   4.801   5.224   4.593  0.3431  0.1102 -0.1636
 1312TIP3   OH2 3941   3.027   2.784   2.750  0.4541  0.0304  0.0463
 1312TIP3    H1 3942   3.024   2.770   2.845  1.6216 -1.9159 -0.1390
 1312TIP3    H2 3943   2.982   2.708   2.714 -0.5755  1.0895 -0.9844
 1313TIP3   OH2 3944   0.501   3.819   1.774  0.2090 -0.7945  0.4352
 1313TIP3    H1 3945   0.577   3.857   1.731  1.1649 -2.3219  0.6986
 1313TIP3    H2 3946   0.519   3.725   1.777 -2.5196 -1.4826 -1.1331
 1314TIP3   OH2 3947   4.081   1.612   1.744 -0.4405 -0.5141  0.4190
 1314TIP3    H1 3948   4.052   1.538   1.691 -1.2370 -0.2014  0.4126
 1314TIP3    H2 3949   4.012   1.625   1.809 -0.6462  0.6492 -0.0022
 1315TIP3   OH2 3950   5.296   5.665   1.365 -0.0375  0.1446 -0.2008
 1315TIP3    H1 3951   5.235   5.724   1.409  1.7181  1.6984  0.2979
 1315TIP3    H2 3952   5.254   5.645   1.282 -0.8931  1.8172 -0.2253
 1316TIP3   OH2 3953   1.273   2.417   0.861 -0.1417 -0.4791  0.2145
 1316TIP3    H1 3954   1.188   2.387   0.892  0.1594 -0.4759  1.0533
 1316TIP3    H2 3955   1.324   2.337   0.850 -0.8140 -0.6617 -2.0891
 1317TIP3   OH2 3956   4.533   3.384   4.584 -0.2908 -0.3641  0.0847
 1317TIP3    H1 3957   4.607   3.356   4.639 -0.4293 -0.7893  0.0541
 1317TIP3    H2 3958   4.571   3.395   4.497 -0.2074 -0.3196  0.1261
 1318TIP3   OH2 3959   2.091   3.104   3.537  0.3021 -0.3226 -0.3486
 1318TIP3    H1 3960   2.184   3.085   3.524  0.3347 -0.2037 -0.2907
 1318TIP3    H2 3961   2.063   3.145   3.455  0.0345 -1.3566 -0.7874
 1319TIP3   OH2 3962   4.296   2.197   4.013  0.1788  0.0756  0.6082
 1319TIP3    H1 3963   4.214   2.245   4.010  0.3955  0.4278 -0.0515
 1319TIP3    H2 3964   4.349   2.236   3.944  1.0998  0.2159  1.3711
 1320TIP3   OH2 3965   3.941   3.899   1.807 -0.5141 -0.5726  0.1369
 1320TIP3    H1 3966   4.025   3.877   1.766 -0.8123 -0.9559 -0.2795
 1320TIP3    H2 3967   3.963   3.966   1.872  0.1080 -0.6410  0.0064
 1321TIP3   OH2 3968   2.733   3.102   4.128  0.4950  0.1750 -0.4377
 1321TIP3    H1 3969   2.673   3.173   4.106 -0.2351  0.0625  1.0696
 1321TIP3    H2 3970   2.752   3.060   4.044 -1.7538  0.0327 -0.9346
 1322TIP3   OH2 3971   1.912   4.390   4.356 -0.1166 -0.3195 -0.1136
 1322TIP3    H1 3972   1.933   4.439   4.276  2.3335 -0.2513  0.4890
 1322TIP3    H2 3973   1.844   4.442   4.398 -0.8863  0.0653 -1.7365
 1323TIP3   OH2 3974   2.195   2.544   4.273 -0.6175  0.0815  0.2864
 1323TIP3    H1 3975   2.184   2.456   4.237  0.3898 -0.2028  0.6349
 1323TIP3    H2 3976   2.116   2.559   4.325 -1.4080 -0.0866 -0.8360
 1324TIP3   OH2 3977   1.391   0.735   0.133 -0.1301 -0.5333 -0.4400
 1324TIP3    H1 3978   1.422   0.780   0.211 -0.9667 -0.5502 -0.0788
 1324TIP3    H2 3979   1.295   0.736   0.141 -0.4096  1.7556 -2.7285
 1325TIP3   OH2 3980   0.685   3.383   0.054 -0.3445  0.0408  0.1311
 1325TIP3    H1 3981   0.666   3.337  -0.027  1.0745  0.4216 -0.4563
 1325TIP3    H2 3982   0.736   3.320   0.106 -1.5871 -0.3471  0.9260
 1326TIP3   OH2 3983   3.104   2.280   1.828  0.4780 -0.1668 -0.0288
 1326TIP3    H1 3984   3.167   2.209   1.834  0.6226 -0.0307  0.0714
 1326TIP3    H2 3985   3.019   2.238   1.843  0.6693 -0.1289  1.3040
 1327TIP3   OH2 3986   5.935   2.353   5.121 -0.7185 -0.0617 -0.3712
 1327TIP3    H1 3987   6.014   2.356   5.068 -0.1244 -0.3519  0.4829
 1327TIP3    H2 3988   5.922   2.442   5.151  0.5738 -0.4107  1.3267
 1328TIP3   OH2 3989   0.569   5.394   3.474  0.6222 -0.1203 -0.1439
 1328TIP3    H1 3990   0.596   5.327   3.412  1.1280 -0.3881  0.3503
 1328TIP3    H2 3991   0.627   5.381   3.549  1.1363  1.2420 -0.2731
 1329TIP3   OH2 3992   0.401   5.466   4.315 -0.4350 -0.2595  0.8868
 1329TIP3    H1 3993   0.375   5.422   4.234 -1.5353  2.0832 -0.1468
 1329TIP3    H2 3994   0.398   5.398   4.382 -1.9746 -1.7402 -0.5891
 1330TIP3   OH2 3995  -0.024   5.201   3.641  0.1132  0.1008 -1.0125
 1330TIP3    H1 3996   0.031   5.267   3.684 -0.6313  0.7574 -1.0508
 1330TIP3    H2 3997   0.038   5.148   3.591  1.0316 -0.8008  0.9650
 1331TIP3   OH2 3998   4.419   5.128   3.225  0.0378  0.3428 -0.1874
 1331TIP3    H1 3999   4.481   5.057   3.242 -1.4668 -1.0524 -0.2780
 1331TIP3    H2 4000   4.388   5.155   3.312  0.3003  0.5903 -0.1722
 1332TIP3   OH2 4001   0.478   2.923   2.226 -0.7118  0.9307 -0.1347
 1332TIP3    H1 4002   0.462   3.017   2.214  2.6204  1.7760  0.9418
 1332TIP3    H2 4003   0.530   2.917   2.306  0.0981 -1.7086 -0.7308
 1333TIP3   OH2 4004   0.087   0.813   2.160 -0.1743  0.5238  0.1625
 1333TIP3    H1 4005   0.101   0.769   2.245  1.3589  0.9555  0.1548
 1333TIP3    H2 4006   0.161   0.785   2.106 -0.5709  1.0994 -0.6993
 1334TIP3   OH2 4007   1.699   1.831   4.448  0.5652 -0.1135 -0.4072
 1334TIP3    H1 4008   1.663   1.881   4.374 -1.0381  1.6009  1.4330
 1334TIP3    H2 4009   1.706   1.894   4.519  1.5897 -1.8161  1.0843
 1335TIP3   OH2 4010   5.683   3.626   3.509 -0.4753 -0.0150  0.4431
 1335TIP3    H1 4011   5.748   3.597   3.445 -1.3624 -1.5560  0.1774
 1335TIP3    H2 4012   5.706   3.578   3.589  1.3343  2.7639  1.7351
 1336TIP3   OH2 4013   6.069   1.998   0.842  0.3521  0.2102  0.3693
 1336TIP3    H1 4014   6.133   1.931   0.863  1.4124  0.9851 -0.2841
 1336TIP3    H2 4015   6.078   2.011   0.747 -1.0103  0.0965  0.2053
 1337TIP3   OH2 4016   6.140   0.554   2.562  0.5041  0.7136  0.5577
 1337TIP3    H1 4017   6.234   0.535   2.557  0.6076  1.2430  0.4447
 1337TIP3    H2 4018   6.099   0.468   2.577  0.8824  0.2396 -0.9386
 1338TIP3   OH2 4019   5.227   1.233   0.809  0.0858 -0.3293  0.1023
 1338TIP3    H1 4020   5.296   1.167   0.816 -0.1581 -0.8016 -1.6174
 1338TIP3    H2 4021   5.271   1.316   0.830  0.4467 -0.9518  2.0287
 1339TIP3   OH2 4022   0.046   0.481   4.165  0.6275  0.1734 -0.1166
 1339TIP3    H1 4023   0.110   0.523   4.222  0.5893  0.0989 -0.0202
 1339TIP3    H2 4024  -0.025   0.545   4.157  1.0140  0.5309 -0.7587
 1340TIP3   OH2 4025   3.165   4.941   0.187  0.1798 -0.1076  0.2749
 1340TIP3    H1 4026   3.218   4.862   0.177  2.0656  0.9105  1.4861
 1340TIP3    H2 4027   3.077   4.909   0.204  0.9376 -1.9577  1.0254
 1341TIP3   OH2 4028   3.582   2.645   3.107  0.4127  0.8376 -0.3486
 1341TIP3    H1 4029   3.507   2.585   3.099  0.1575  1.3256 -1.8508
 1341TIP3    H2 4030   3.595   2.653   3.201 -0.5224 -0.3771 -0.0798
 1342TIP3   OH2 4031   1.070   2.903   2.195  0.1498  0.0205 -0.2923
 1342TIP3    H1 4032   1.159   2.871   2.178 -0.6121 -1.5121 -1.5508
 1342TIP3    H2 4033   1.063   2.905   2.291  2.5518  3.1843 -0.0076
 1343TIP3   OH2 4034   1.209   2.948   0.802  0.5870 -0.4648  0.3938
 1343TIP3    H1 4035   1.119   2.937   0.773  0.3845  0.4974  0.6075
 1343TIP3    H2 4036   1.257   2.875   0.762 -0.3171 -1.0987  0.4481
 1344TIP3   OH2 4037   5.235   2.020   3.790 -0.1957 -0.5469  0.0093
 1344TIP3    H1 4038   5.301   2.047   3.853 -0.1107 -0.4119 -0.1388
 1344TIP3    H2 4039   5.284   1.988   3.714 -0.2979 -0.2270 -0.1952
 1345TIP3   OH2 4040   2.352   4.211   0.216 -0.3546 -0.6364  0.2028
 1345TIP3    H1 4041   2.276   4.212   0.158 -0.0423 -2.0273 -0.2818
 1345TIP3    H2 4042   2.316   4.226   0.303 -1.2941 -1.8977  0.0656
 1346TIP3   OH2 4043   1.906   5.232   3.509 -0.2098 -0.3116  0.0829
 1346TIP3    H1 4044   1.829   5.176   3.512 -0.9238  0.6849  1.4782
 1346TIP3    H2 4045   1.891   5.288   3.432  0.9175 -2.4798 -1.8441
 1347TIP3   OH2 4046   3.216   2.439   4.548  0.3950  0.3638 -0.0713
 1347TIP3    H1 4047   3.241   2.396   4.466 -1.2370  0.9056 -0.8889
 1347TIP3    H2 4048   3.245   2.378   4.616  0.7892 -0.6294 -1.0854
 1348TIP3   OH2 4049   3.084   5.046   3.656  0.1018  0.1450 -0.3429
 1348TIP3    H1 4050   2.999   5.040   3.612  0.1189  0.4723 -0.4228
 1348TIP3    H2 4051   3.149   5.037   3.586  0.1374 -0.7387 -0.1984
 1349TIP3   OH2 4052   2.134   2.996   2.487 -0.3793  0.0053  0.2614
 1349TIP3    H1 4053   2.073   2.968   2.555  0.2344  0.1341  0.8829
 1349TIP3    H2 4054   2.156   2.915   2.440 -1.9472  0.1423 -0.7623
 1350TIP3   OH2 4055   3.625   4.409   3.009  0.1589  0.2833 -0.2677
 1350TIP3    H1 4056   3.546   4.430   2.959 -0.5880 -0.5208  0.5491
 1350TIP3    H2 4057   3.609   4.448   3.095  0.1342 -0.8897  0.2670
 1351TIP3   OH2 4058   2.732   4.145   1.570  0.1434  0.3230 -0.1193
 1351TIP3    H1 4059   2.688   4.211   1.517  0.2633  0.3566 -0.1756
 1351TIP3    H2 4060   2.696   4.062   1.539 -0.8972  0.4183  0.7572
 1352TIP3   OH2 4061   1.188   0.537   1.333  0.5010 -0.0959  0.3012
 1352TIP3    H1 4062   1.138   0.473   1.383  1.5320 -1.1516  0.0247
 1352TIP3    H2 4063   1.182   0.506   1.243  0.6172  0.4745  0.0962
 1353TIP3   OH2 4064   5.713   0.148   2.190 -0.6399  0.0849 -0.3732
 1353TIP3    H1 4065   5.728   0.054   2.181 -0.4372  0.2195 -1.5759
 1353TIP3    H2 4066   5.787   0.180   2.241 -1.1705 -0.5258  0.8378
 1354TIP3   OH2 4067   3.855   2.164   0.921 -0.0858  0.0767  0.1532
 1354TIP3    H1 4068   3.813   2.096   0.973 -0.7064 -0.2897 -0.7862
 1354TIP3    H2 4069   3.802   2.168   0.841  2.8292 -1.8976 -2.0895
 1355TIP3   OH2 4070   1.141   0.134   0.371 -0.1807  0.0882  0.2298
 1355TIP3    H1 4071   1.084   0.097   0.438  0.1036  1.0962  1.0777
 1355TIP3    H2 4072   1.090   0.204   0.331  0.8027  1.8770  1.8859
 1356TIP3   OH2 4073   0.808   4.857   2.101 -0.1889 -0.0652  0.2712
 1356TIP3    H1 4074   0.720   4.860   2.138  0.7586 -1.8256  2.9969
 1356TIP3    H2 4075   0.858   4.802   2.162  2.7345  0.6017 -1.3171
 1357TIP3   OH2 4076   2.615   4.965   4.793 -0.3300  0.0518  0.5867
 1357TIP3    H1 4077   2.562   5.022   4.849 -0.8115 -0.0387  0.2281
 1357TIP3    H2 4078   2.610   4.879   4.835  1.3053  0.4836  1.7477
 1358TIP3   OH2 4079   3.906   5.318   2.742  0.6271  0.0745  0.0459
 1358TIP3    H1 4080   3.947   5.388   2.792  1.6264  0.3705 -1.1360
 1358TIP3    H2 4081   3.980   5.269   2.705 -0.0775 -0.7989 -0.2301
 1359TIP3   OH2 4082   3.834   0.517   0.041 -0.0072  0.0647 -0.1748
 1359TIP3    H1 4083   3.810   0.534  -0.050  0.2511 -0.5575 -0.3636
 1359TIP3    H2 4084   3.901   0.582   0.061 -2.0546  2.0972  0.4863
 1360TIP3   OH2 4085   4.604   4.723   4.282 -0.4568 -0.1625 -0.1007
 1360TIP3    H1 4086   4.523   4.756   4.320 -2.2088 -3.0040 -1.0629
 1360TIP3    H2 4087   4.611   4.767   4.198 -1.6494 -0.6738 -0.4901
 1361TIP3   OH2 4088   1.344   5.247   2.615 -0.8982  0.0259 -0.1436
 1361TIP3    H1 4089   1.393   5.181   2.664 -1.2488 -0.5586 -0.5646
 1361TIP3    H2 4090   1.375   5.331   2.649 -0.1039 -0.3465  0.0664
 1362TIP3   OH2 4091   1.158   4.967   4.661 -0.1255  0.5926  0.1846
 1362TIP3    H1 4092   1.066   4.947   4.642 -0.0546 -0.6038  0.9881
 1362TIP3    H2 4093   1.203   4.883   4.653  0.8214  1.0905  0.2291
 1363TIP3   OH2 4094   3.066   5.908   1.130  0.4434 -0.8459  0.0272
 1363TIP3    H1 4095   3.059   5.843   1.060 -0.8557 -1.8230  1.0059
 1363TIP3    H2 4096   3.160   5.923   1.139  1.0538 -4.4807  1.3726
 1364TIP3   OH2 4097   1.514   4.154   2.449  0.4602 -0.0308  0.1579
 1364TIP3    H1 4098   1.516   4.117   2.537  1.1629 -2.0809 -0.6684
 1364TIP3    H2 4099   1.597   4.129   2.410  0.0373  0.5846 -1.2087
 1365TIP3   OH2 4100   3.178   0.610   2.680 -0.5155 -0.1509 -0.8348
 1365TIP3    H1 4101   3.090   0.626   2.647 -1.0438 -1.2733 -0.0286
 1365TIP3    H2 4102   3.233   0.673   2.633 -1.7398  0.5790 -1.3330
 1366TIP3   OH2 4103   2.264   2.769   4.113 -0.0334  0.4481  0.3187
 1366TIP3    H1 4104   2.320   2.731   4.045  0.4924  1.1823  0.3250
 1366TIP3    H2 4105   2.264   2.704   4.183 -0.2334 -0.1269 -0.2045
 1367TIP3   OH2 4106   3.955   1.784   4.475  0.2171 -0.0624 -0.8016
 1367TIP3    H1 4107   3.943   1.879   4.473  1.7155  0.1961  0.2460
 1367TIP3    H2 4108   3.932   1.755   4.387  1.9313  1.6076 -1.8943
 1368TIP3   OH2 4109   4.744   3.247   1.986  0.7734 -0.2067 -0.6706
 1368TIP3    H1 4110   4.671   3.288   1.939 -0.0019  0.0424  0.6877
 1368TIP3    H2 4111   4.703   3.205   2.061  1.8204 -1.7621 -0.9389
 1369TIP3   OH2 4112   1.012   5.926   0.628 -0.2099  0.2399 -0.3402
 1369TIP3    H1 4113   0.957   5.969   0.694 -0.5866 -1.2931  0.3942
 1369TIP3    H2 4114   1.025   5.992   0.561 -0.8772  1.4433  0.6697
 1370TIP3   OH2 4115   4.401   3.268   2.201  0.2875 -0.3225 -0.7445
 1370TIP3    H1 4116   4.393   3.269   2.296  0.7075 -0.7329 -0.7027
 1370TIP3    H2 4117   4.418   3.360   2.178  1.1811 -0.3775 -0.3328
 1371TIP3   OH2 4118   3.928   3.367   0.612  0.2377 -0.5988 -0.7915
 1371TIP3    H1 4119   3.909   3.361   0.706  0.0118 -0.4742 -0.8298
 1371TIP3    H2 4120   4.015   3.408   0.608 -0.7868  1.7233 -0.7043
 1372TIP3   OH2 4121   3.704   2.456   2.909 -0.3716 -0.1515  0.2389
 1372TIP3    H1 4122   3.795   2.452   2.937  0.3866  3.8282 -0.9376
 1372TIP3    H2 4123   3.659   2.506   2.978 -0.9314  0.4408 -0.5219
 1373TIP3   OH2 4124   5.763   1.729   3.189  0.1865  0.6432 -0.1136
 1373TIP3    H1 4125   5.831   1.688   3.135  0.6553  1.4178 -0.1224
 1373TIP3    H2 4126   5.681   1.701   3.148  0.4614 -0.7949  0.2536
 1374TIP3   OH2 4127   1.373   2.138   2.604  0.2858  0.6600  0.1604
 1374TIP3    H1 4128   1.367   2.082   2.527 -3.0328  0.9449  0.0568
 1374TIP3    H2 4129   1.422   2.085   2.667  1.4691 -0.3308 -1.5154
 1375TIP3   OH2 4130   4.452   2.358   1.074 -0.2989  0.0320 -0.3015
 1375TIP3    H1 4131   4.527   2.304   1.050 -1.1147 -1.6043  0.6245
 1375TIP3    H2 4132   4.474   2.394   1.160 -1.9830 -3.5871  1.8728
 1376TIP3   OH2 4133   4.915   3.178   0.528  0.4506 -0.1036 -0.0510
 1376TIP3    H1 4134   4.836   3.125   0.536  0.4840 -0.3652 -1.2948
 1376TIP3    H2 4135   4.936   3.204   0.618  0.3338 -2.0493  0.5845
 1377TIP3   OH2 4136   3.795   0.680   1.199  0.7837 -0.0567  0.1680
 1377TIP3    H1 4137   3.787   0.728   1.281  1.2565  1.2716 -0.5284
 1377TIP3    H2 4138   3.864   0.726   1.151 -0.5359  0.1651 -1.6134
 1378TIP3   OH2 4139   2.833   4.979   3.175  0.0170 -0.2262 -0.6792
 1378TIP3    H1 4140   2.889   5.011   3.104  0.1797 -3.5625 -2.2182
 1378TIP3    H2 4141   2.747   4.969   3.135 -0.3766 -0.3174  0.1710
 1379TIP3   OH2 4142   2.961   2.569   3.981 -0.3672  0.5315  0.6990
 1379TIP3    H1 4143   2.990   2.660   3.968 -0.1558  0.6114  1.6237
 1379TIP3    H2 4144   3.005   2.542   4.062 -0.3624 -0.4283  0.3829
 1380TIP3   OH2 4145   5.635   3.133   2.561  0.6332 -0.0758  0.5365
 1380TIP3    H1 4146   5.557   3.144   2.615 -0.4556 -3.3046 -0.2115
 1380TIP3    H2 4147   5.698   3.090   2.618  1.7909  2.0379  0.9719
 1381TIP3   OH2 4148   5.519   5.753   1.025 -0.0866 -0.2364 -0.5854
 1381TIP3    H1 4149   5.575   5.710   0.961 -1.9041 -3.4193 -0.2141
 1381TIP3    H2 4150   5.431   5.751   0.986 -0.7060  0.7027  0.6655
 1382TIP3   OH2 4151   5.750   0.448   1.313  0.1838 -0.6007  0.5648
 1382TIP3    H1 4152   5.782   0.476   1.398  2.6439 -0.4925 -0.3221
 1382TIP3    H2 4153   5.714   0.528   1.274  0.4840 -0.3045  0.8870
 1383TIP3   OH2 4154   2.157   5.093   0.817 -0.5478  0.4787 -0.2515
 1383TIP3    H1 4155   2.242   5.084   0.774 -1.7446  0.5130 -2.7635
 1383TIP3    H2 4156   2.130   5.003   0.835  1.3930  0.4646  3.7411
 1384TIP3   OH2 4157   4.130   4.458   0.773 -0.3873  0.3311 -0.2784
 1384TIP3    H1 4158   4.044   4.466   0.812  0.0458 -1.2211  1.1186
 1384TIP3    H2 4159   4.114   4.460   0.678 -2.0644 -0.6624 -0.0522
 1385TIP3   OH2 4160   3.419   2.889   2.901  0.0730 -0.3746 -0.6714
 1385TIP3    H1 4161   3.482   2.919   2.836  0.2701 -0.4295 -0.5085
 1385TIP3    H2 4162   3.448   2.931   2.983  1.7325 -2.7325  0.0879
 1386TIP3   OH2 4163   1.733   5.289   4.143  0.6436  0.2971 -0.8083
 1386TIP3    H1 4164   1.778   5.256   4.220  0.1216  1.5265  0.0670
 1386TIP3    H2 4165   1.725   5.383   4.158  1.3634  0.7461 -2.8168
 1387TIP3   OH2 4166   2.080   4.342   0.374  0.8418 -0.7598 -0.1562
 1387TIP3    H1 4167   2.074   4.341   0.278  0.8031  0.7973 -0.1983
 1387TIP3    H2 4168   1.992   4.362   0.404  0.5086 -2.7295  0.3031
 1388TIP3   OH2 4169   2.647   5.687   1.466 -0.7161  0.4730  0.2975
 1388TIP3    H1 4170   2.672   5.778   1.454 -1.5788  0.6352 -0.2994
 1388TIP3    H2 4171   2.557   5.682   1.434 -0.8622 -0.4679  0.8332
 1389TIP3   OH2 4172   2.011   5.621   4.986  0.0541  0.3706  0.3014
 1389TIP3    H1 4173   1.937   5.595   4.931 -0.1857 -0.3849  0.9435
 1389TIP3    H2 4174   2.024   5.714   4.968  0.5381 -0.0319 -1.6412
 1390TIP3   OH2 4175   5.630   3.865   3.013 -0.6406 -0.2399 -0.2658
 1390TIP3    H1 4176   5.674   3.813   3.080 -0.2670  1.3179  0.7364
 1390TIP3    H2 4177   5.569   3.804   2.972 -1.5688 -1.0267  2.1128
 1391TIP3   OH2 4178   4.618   3.858   1.482  0.5545  0.3484 -0.3633
 1391TIP3    H1 4179   4.607   3.952   1.490  0.5649  0.3194 -0.0053
 1391TIP3    H2 4180   4.710   3.846   1.459  0.8455  0.3629  0.7646
 1392TIP3   OH2 4181   2.686   2.015   2.693 -0.0709 -0.5103 -0.3310
 1392TIP3    H1 4182   2.624   2.056   2.633 -0.4305 -1.9009 -0.9701
 1392TIP3    H2 4183   2.772   2.045   2.663 -0.3505  0.2984 -0.3399
 1393TIP3   OH2 4184   4.547   4.573   0.115  0.5288 -0.0871 -0.4909
 1393TIP3    H1 4185   4.579   4.549   0.028 -1.0550  2.3284 -1.8535
 1393TIP3    H2 4186   4.497   4.653   0.101 -1.4597 -0.6773  2.3401
 1394TIP3   OH2 4187   4.675   4.476   4.224  0.3157  0.0282 -0.0792
 1394TIP3    H1 4188   4.674   4.571   4.235  0.7238  0.1069 -0.6401
 1394TIP3    H2 4189   4.748   4.446   4.278 -0.0375 -0.0050  0.3788
 1395TIP3   OH2 4190   5.144   2.705   3.963  0.1938  0.4340 -0.3562
 1395TIP3    H1 4191   5.061   2.732   3.924  0.4579  1.6395 -0.1308
 1395TIP3    H2 4192   5.120   2.643   4.031 -0.6569  1.6936  0.5427
 1396TIP3   OH2 4193   5.637   1.191   0.827 -0.1535 -0.3493 -0.2069
 1396TIP3    H1 4194   5.563   1.208   0.885  0.0258 -0.0487 -0.0602
 1396TIP3    H2 4195   5.602   1.134   0.759 -1.0601  1.3825 -1.2807
 1397TIP3   OH2 4196   3.256   2.419   0.507  0.4627  0.0412 -0.3709
 1397TIP3    H1 4197   3.169   2.390   0.480  0.1704 -0.1123  0.7192
 1397TIP3    H2 4198   3.306   2.337   0.516 -0.3964 -0.2383  2.8299
 1398TIP3   OH2 4199   1.595   0.500   3.582  0.2544  0.0095 -0.0393
 1398TIP3    H1 4200   1.672   0.476   3.634  1.6216 -1.0900 -2.4060
 1398TIP3    H2 4201   1.551   0.416   3.565  0.5368  0.1623 -1.6412
 1399TIP3   OH2 4202   3.748   5.540   3.199 -0.8649  0.3839  0.0348
 1399TIP3    H1 4203   3.689   5.613   3.220 -0.0317  1.1680 -0.2995
 1399TIP3    H2 4204   3.813   5.541   3.269 -0.6743  0.1563 -0.1369
 1400TIP3   OH2 4205   2.467   1.113   2.797  0.3558 -0.1750 -0.2355
 1400TIP3    H1 4206   2.382   1.072   2.783 -0.0456 -0.3109  2.1955
 1400TIP3    H2 4207   2.503   1.069   2.874  0.7161  2.6914  1.3874
 1401TIP3   OH2 4208   0.796   3.001   4.805 -0.2510 -0.0063  0.0951
 1401TIP3    H1 4209   0.834   2.926   4.851  0.5135  1.2086  1.5750
 1401TIP3    H2 4210   0.872   3.056   4.784 -0.7139 -0.0036 -1.6796
 1402TIP3   OH2 4211   2.282   2.353   4.079  0.1825  0.0026  0.0526
 1402TIP3    H1 4212   2.316   2.284   4.136  0.6847  1.2351  1.3167
 1402TIP3    H2 4213   2.339   2.352   4.002  0.3112 -0.8403  0.1563
 1403TIP3   OH2 4214   1.522   3.736   2.313  0.3015 -0.3256 -1.1168
 1403TIP3    H1 4215   1.489   3.658   2.359  2.4230 -0.6741 -0.0650
 1403TIP3    H2 4216   1.444   3.774   2.271 -1.7876 -0.0909  2.5703
 1404TIP3   OH2 4217   2.660   5.444   0.210 -0.2433 -0.2512 -0.0173
 1404TIP3    H1 4218   2.721   5.396   0.267 -0.0190  0.2827  0.1980
 1404TIP3    H2 4219   2.599   5.378   0.179 -0.6779 -0.4574  1.2443
 1405TIP3   OH2 4220   6.269   1.291   4.087 -0.0895 -0.5140  0.5289
 1405TIP3    H1 4221   6.244   1.378   4.118  0.9491 -1.1378  3.4708
 1405TIP3    H2 4222   6.253   1.293   3.993 -0.8807  2.5627  0.6344
 1406TIP3   OH2 4223   3.023   0.634   1.777  0.4878  0.2740 -0.0755
 1406TIP3    H1 4224   3.002   0.688   1.701  0.4913  1.9840  1.0904
 1406TIP3    H2 4225   2.943   0.632   1.828  1.1373  1.1186  1.0211
 1407TIP3   OH2 4226   1.705   2.920   1.327  0.6590  0.0304  0.4615
 1407TIP3    H1 4227   1.688   2.936   1.234 -0.9905  2.4451  1.0792
 1407TIP3    H2 4228   1.657   2.839   1.346 -1.8299  1.2407 -0.1632
 1408TIP3   OH2 4229   0.722   1.709   1.621 -0.1985  0.3354  0.2871
 1408TIP3    H1 4230   0.738   1.777   1.556 -0.9593 -0.2174 -0.5088
 1408TIP3    H2 4231   0.629   1.687   1.609  0.4092 -2.0000 -0.6527
 1409TIP3   OH2 4232   4.252   3.537   0.860  0.4260  0.5604  0.8062
 1409TIP3    H1 4233   4.194   3.557   0.787  0.4396  1.1624  0.9601
 1409TIP3    H2 4234   4.311   3.470   0.826  0.2940  0.6818  0.3321
 1410TIP3   OH2 4235   4.392   3.421   2.981  0.8273  0.6817 -0.0125
 1410TIP3    H1 4236   4.379   3.326   2.987 -1.9010  0.9408 -0.5781
 1410TIP3    H2 4237   4.480   3.431   2.944  1.1647 -1.6072  0.0166
 1411TIP3   OH2 4238   5.312   2.897   2.699 -0.6629 -0.5583  0.7337
 1411TIP3    H1 4239   5.340   2.949   2.775 -1.7409 -1.0087  1.4530
 1411TIP3    H2 4240   5.393   2.859   2.665  0.4965  2.9091 -0.8941
 1412TIP3   OH2 4241   1.780   3.639   2.473  0.0940  0.0471 -0.1265
 1412TIP3    H1 4242   1.740   3.552   2.482  0.9431 -0.2336  1.3386
 1412TIP3    H2 4243   1.725   3.696   2.528  1.0816 -0.1506  1.1237
 1413TIP3   OH2 4244   4.929   5.448   4.121 -0.0707  0.7823 -0.2339
 1413TIP3    H1 4245   4.945   5.397   4.041 -0.4805  0.1983  0.0507
 1413TIP3    H2 4246   4.926   5.383   4.191 -1.7044  1.0645 -0.0096
 1414TIP3   OH2 4247   3.759   2.360   0.060 -0.5457  0.2032  0.3715
 1414TIP3    H1 4248   3.781   2.362  -0.033 -0.0604 -1.6452  0.4016
 1414TIP3    H2 4249   3.799   2.439   0.096  2.6846 -0.9580 -0.3132
 1415TIP3   OH2 4250   0.018   2.889   2.190  1.0740  0.0827 -0.0920
 1415TIP3    H1 4251  -0.040   2.813   2.186  2.0043 -0.6079 -1.0227
 1415TIP3    H2 4252   0.106   2.852   2.183  1.5370  1.2521 -0.7761
 1416TIP3   OH2 4253   3.023   3.777   4.852  0.5002  0.3644  0.0929
 1416TIP3    H1 4254   3.019   3.805   4.943  2.4058 -1.3417  0.7949
 1416TIP3    H2 4255   3.117   3.770   4.833  0.1895 -2.2591 -0.9610
 1417TIP3   OH2 4256  -0.017   3.124   3.993 -0.6032 -0.1667 -0.2691
 1417TIP3    H1 4257   0.029   3.195   4.036  0.8107 -1.7765  1.0037
 1417TIP3    H2 4258   0.050   3.057   3.977 -1.7556 -0.9989 -1.9666
 1418TIP3   OH2 4259   5.845   5.654   4.393  0.0470 -0.0616  0.6255
 1418TIP3    H1 4260   5.837   5.702   4.310 -1.2216 -0.0742  0.7203
 1418TIP3    H2 4261   5.802   5.710   4.458  0.4706 -0.3447  1.1585
 1419TIP3   OH2 4262   1.930   0.290   2.318  0.1057 -0.6611 -0.1398
 1419TIP3    H1 4263   2.006   0.261   2.268 -0.3076  0.0100 -1.2118
 1419TIP3    H2 4264   1.958   0.370   2.361  0.2894 -0.9268  0.2353
 1420TIP3   OH2 4265   1.321   2.923   1.919 -0.5530 -0.2485  0.0599
 1420TIP3    H1 4266   1.400   2.892   1.963 -0.6918 -1.0003 -0.1973
 1420TIP3    H2 4267   1.307   3.011   1.953  0.3275 -0.1519  0.1975
 1421TIP3   OH2 4268   5.577   4.452   4.119  0.8148  0.1585 -0.1573
 1421TIP3    H1 4269   5.485   4.425   4.122  0.9041 -0.3771 -1.5699
 1421TIP3    H2 4270   5.587   4.509   4.195 -0.5892 -0.0624  0.2340
 1422TIP3   OH2 4271   0.920   4.529   2.091 -0.1671 -0.1050  0.6264
 1422TIP3    H1 4272   0.892   4.607   2.138 -1.0187  0.5996 -0.9730
 1422TIP3    H2 4273   0.887   4.541   2.002  1.0693 -1.5428 -0.0828
 1423TIP3   OH2 4274   4.407   0.249   3.616 -0.2806 -0.2691  0.2318
 1423TIP3    H1 4275   4.455   0.248   3.699  2.2399  0.1506 -1.1152
 1423TIP3    H2 4276   4.454   0.188   3.560 -2.2123 -0.9028 -0.7778
 1424TIP3   OH2 4277   0.596   1.638   3.410 -0.4609  0.3813 -0.2305
 1424TIP3    H1 4278   0.590   1.705   3.342  0.2787  2.3959  1.5725
 1424TIP3    H2 4279   0.684   1.601   3.401 -0.3908  0.5945 -0.4101
 1425TIP3   OH2 4280   3.270   0.609   4.847 -0.2412  0.2058  0.2073
 1425TIP3    H1 4281   3.366   0.617   4.848 -0.0251 -1.7554  1.4132
 1425TIP3    H2 4282   3.248   0.581   4.936 -1.9061  0.3295 -0.1500
 1426TIP3   OH2 4283   1.550   3.174   0.902  0.3961 -0.5383  0.0535
 1426TIP3    H1 4284   1.491   3.115   0.947 -0.7789  0.3811 -0.2333
 1426TIP3    H2 4285   1.571   3.129   0.820 -1.9837  0.1826 -1.0311
 1427TIP3   OH2 4286   1.313   3.502   0.815  0.5350  0.3405 -0.0205
 1427TIP3    H1 4287   1.303   3.407   0.817 -0.1198  0.4107  0.5309
 1427TIP3    H2 4288   1.246   3.535   0.875  1.1290  1.1233  0.2337
 1428TIP3   OH2 4289   2.549   0.069   1.223 -0.6497  0.2563  0.0532
 1428TIP3    H1 4290   2.579   0.097   1.137  0.0397 -1.5660 -0.3329
 1428TIP3    H2 4291   2.457   0.043   1.209 -0.6364  0.2725 -0.0635
 1429TIP3   OH2 4292   6.125   0.892   3.010 -0.3322 -0.2106  0.1631
 1429TIP3    H1 4293   6.059   0.827   3.034  0.6458 -1.1427  0.3573
 1429TIP3    H2 4294   6.178   0.904   3.089 -0.3998  0.7141  0.0825
 1430TIP3   OH2 4295   3.883   4.954   2.135  0.1246  0.4595  0.1399
 1430TIP3    H1 4296   3.792   4.952   2.105 -0.0787 -1.0194  0.7532
 1430TIP3    H2 4297   3.879   4.995   2.222  0.0172  0.2716  0.2249
 1431TIP3   OH2 4298   4.218   3.664   5.053  0.2750 -0.0271 -0.1143
 1431TIP3    H1 4299   4.143   3.722   5.063  0.4610  0.3585 -0.8580
 1431TIP3    H2 4300   4.260   3.693   4.972 -0.0877 -1.7085 -0.9538
 1432TIP3   OH2 4301   4.403   0.141   1.111  0.1884  0.2599  0.4838
 1432TIP3    H1 4302   4.466   0.184   1.169 -0.2531  0.0271  1.1455
 1432TIP3    H2 4303   4.318   0.178   1.135 -0.0384 -0.0588  0.1896
 1433TIP3   OH2 4304  -0.010   4.929   1.984  0.1808 -0.7378 -0.3535
 1433TIP3    H1 4305   0.056   4.860   1.981  0.2805 -0.6318 -2.5136
 1433TIP3    H2 4306   0.024   4.997   1.926 -0.1453  0.9585  1.3353
 1434TIP3   OH2 4307   3.685   4.718   2.328  0.2895 -0.1985 -0.2150
 1434TIP3    H1 4308   3.662   4.627   2.344 -1.9024  0.5198  1.2600
 1434TIP3    H2 4309   3.780   4.717   2.313  0.2780 -2.7131 -0.5371
 1435TIP3   OH2 4310   4.772   4.754   2.671  0.1169 -0.0294 -0.4220
 1435TIP3    H1 4311   4.849   4.703   2.647  2.3770  2.6939  0.5458
 1435TIP3    H2 4312   4.743   4.794   2.589  1.8627  1.5662 -0.3218
 1436TIP3   OH2 4313   3.492   5.521   4.356  0.2540  0.7423  0.2217
 1436TIP3    H1 4314   3.552   5.465   4.405  0.7083  0.8443 -0.2085
 1436TIP3    H2 4315   3.546   5.595   4.326 -0.7630  2.6148  2.6380
 1437TIP3   OH2 4316   1.583   1.500   1.868  0.0783  0.2246  0.1070
 1437TIP3    H1 4317   1.624   1.507   1.954 -1.3690 -0.8333  0.9116
 1437TIP3    H2 4318   1.633   1.432   1.823  1.4392  1.4334 -0.2792
 1438TIP3   OH2 4319   6.346   0.099   0.770 -0.8675 -0.0053 -0.3252
 1438TIP3    H1 4320   6.255   0.070   0.768 -0.6605 -0.7411  0.4232
 1438TIP3    H2 4321   6.346   0.172   0.832 -0.6358 -1.2069  1.1375
 1439TIP3   OH2 4322   5.204   3.696   4.608  0.0361  0.2956 -0.7822
 1439TIP3    H1 4323   5.160   3.613   4.625 -0.4306  0.6012 -0.4750
 1439TIP3    H2 4324   5.242   3.685   4.520 -0.3209 -0.1147 -0.8899
 1440TIP3   OH2 4325   1.022   3.255   1.049  0.1351  0.2680 -0.3927
 1440TIP3    H1 4326   0.973   3.290   1.124  0.6719 -0.2664  0.2268
 1440TIP3    H2 4327   1.072   3.182   1.086 -0.2115 -0.5257 -1.4539
 1441TIP3   OH2 4328   2.131   4.364   3.533  0.1434 -0.2037  0.3174
 1441TIP3    H1 4329   2.205   4.342   3.590  1.5187  0.7622 -1.0355
 1441TIP3    H2 4330   2.057   4.316   3.572  0.6653  1.3885  3.6614
 1442TIP3   OH2 4331   5.097   5.818   4.983 -0.3368  0.2080  0.2871
 1442TIP3    H1 4332   5.165   5.797   5.047  0.3083  0.1747 -0.3894
 1442TIP3    H2 4333   5.130   5.780   4.901 -1.0086  0.4992 -0.1183
 1443TIP3   OH2 4334   5.735   0.755   2.163  0.7617 -0.0938  0.0588
 1443TIP3    H1 4335   5.692   0.670   2.170 -0.5312  0.6167  1.1384
 1443TIP3    H2 4336   5.809   0.750   2.223  1.1890 -0.7259 -0.5083
 1444TIP3   OH2 4337   3.405   4.365   2.031 -0.4808  0.1035  0.1246
 1444TIP3    H1 4338   3.433   4.276   2.051  0.7068  0.1540 -1.1322
 1444TIP3    H2 4339   3.416   4.413   2.113 -0.0168 -0.6577  0.5131
 1445TIP3   OH2 4340   5.535   0.816   0.207  0.3170 -0.0876 -0.1975
 1445TIP3    H1 4341   5.576   0.893   0.168  1.5338 -0.2588  0.6745
 1445TIP3    H2 4342   5.454   0.849   0.246  0.6446  0.6857 -0.1492
 1446TIP3   OH2 4343   0.042   0.205   1.169 -0.3467  0.3571  0.1496
 1446TIP3    H1 4344   0.042   0.176   1.260 -0.3995 -0.9520 -0.2502
 1446TIP3    H2 4345   0.084   0.133   1.121 -1.4884  0.4467 -1.0311
 1447TIP3   OH2 4346   4.897   5.520   4.867  0.1773  0.4244 -0.4903
 1447TIP3    H1 4347   4.804   5.536   4.881  0.2006  0.7113 -0.6514
 1447TIP3    H2 4348   4.903   5.481   4.780  0.2559  0.9486 -0.7282
 1448TIP3   OH2 4349   4.784   1.188   3.273 -0.4434  0.8716 -0.3114
 1448TIP3    H1 4350   4.825   1.206   3.188 -0.1094  1.0368 -0.1230
 1448TIP3    H2 4351   4.836   1.240   3.335  0.9673 -1.2201  0.3663
 1449TIP3   OH2 4352   5.748   2.147   2.021  0.4320 -0.2879  0.3677
 1449TIP3    H1 4353   5.841   2.124   2.015 -0.1431 -2.4385 -1.6843
 1449TIP3    H2 4354   5.733   2.205   1.946 -0.3083 -1.8534 -0.7540
 1450TIP3   OH2 4355   4.609   2.160   1.267 -0.1760 -0.2305 -1.0479
 1450TIP3    H1 4356   4.686   2.155   1.211  0.6506  0.0460  0.0386
 1450TIP3    H2 4357   4.644   2.169   1.356 -1.4204  2.5398 -0.7259
 1451TIP3   OH2 4358   5.469   5.673   3.418  0.1709  0.2143 -0.4616
 1451TIP3    H1 4359   5.418   5.737   3.368  0.1379  0.2436 -0.3914
 1451TIP3    H2 4360   5.476   5.711   3.505  0.0272  0.0577 -0.3800
 1452TIP3   OH2 4361   3.725   4.695   1.944  0.2418  0.3511 -0.7519
 1452TIP3    H1 4362   3.738   4.734   1.858  0.8243  0.6710 -0.5202
 1452TIP3    H2 4363   3.786   4.622   1.947  1.4528  1.3584  0.0230
 1453TIP3   OH2 4364   1.428   0.345   5.094 -0.4771 -0.3330  0.1434
 1453TIP3    H1 4365   1.391   0.353   5.182  1.5287 -0.1931  1.0215
 1453TIP3    H2 4366   1.511   0.392   5.099 -0.5308  0.0871 -1.9807
 1454TIP3   OH2 4367   4.604   3.295   5.147  0.0297  0.4073 -0.3224
 1454TIP3    H1 4368   4.561   3.364   5.097  1.5519  0.9654 -0.9393
 1454TIP3    H2 4369   4.625   3.228   5.081  0.9532  0.5985 -0.2456
 1455TIP3   OH2 4370   3.123   3.886   4.106  0.4283  0.2459 -0.0026
 1455TIP3    H1 4371   3.204   3.936   4.104  0.0611  0.8576  0.1205
 1455TIP3    H2 4372   3.055   3.951   4.127 -0.0091 -0.3658  0.5257
 1456TIP3   OH2 4373   2.606   5.412   4.312  0.2010 -0.0797  0.3142
 1456TIP3    H1 4374   2.525   5.377   4.275 -0.4632  2.4172 -0.8155
 1456TIP3    H2 4375   2.675   5.381   4.253 -0.4619  1.0015 -1.1000
 1457TIP3   OH2 4376   0.874   3.421   1.687  0.6560 -0.2736 -0.0635
 1457TIP3    H1 4377   0.946   3.362   1.707  1.1859 -0.5586 -2.5555
 1457TIP3    H2 4378   0.875   3.430   1.592 -0.9032  1.8871  0.0422
 1458TIP3   OH2 4379   2.521   2.810   1.192  0.4534 -0.2828 -0.1899
 1458TIP3    H1 4380   2.439   2.846   1.227 -0.2269 -0.8855 -1.1390
 1458TIP3    H2 4381   2.496   2.728   1.150  1.8208 -1.3749  1.0129
 1459TIP3   OH2 4382   2.008   1.495   0.764  0.6244 -0.2933  0.1055
 1459TIP3    H1 4383   2.066   1.482   0.689 -1.3065 -1.8480 -1.2265
 1459TIP3    H2 4384   1.955   1.571   0.742  1.3252  0.4073  0.7853
 1460TIP3   OH2 4385   6.061   2.549   0.568 -0.1066 -0.7160  0.4002
 1460TIP3    H1 4386   5.998   2.607   0.610  0.2885 -0.0525  0.0900
 1460TIP3    H2 4387   6.059   2.575   0.476  3.1625  1.8082  0.8627
 1461TIP3   OH2 4388   2.342   2.010   4.843  0.1965  0.1894 -0.4772
 1461TIP3    H1 4389   2.276   2.073   4.871  0.8306  1.3957 -1.5721
 1461TIP3    H2 4390   2.307   1.974   4.761  0.2757 -0.1897 -0.3459
 1462TIP3   OH2 4391   2.531   2.012   3.421 -0.1157  0.6072  0.1477
 1462TIP3    H1 4392   2.506   1.929   3.380  0.6971  0.6261 -0.4178
 1462TIP3    H2 4393   2.589   1.986   3.493  1.1071  0.7172 -0.7636
 1463TIP3   OH2 4394   5.404   2.911   3.585  0.3606 -0.3721 -0.2406
 1463TIP3    H1 4395   5.402   2.917   3.681 -0.3812  2.1866 -0.3344
 1463TIP3    H2 4396   5.497   2.914   3.563  0.4995  0.8810  0.3839
 1464TIP3   OH2 4397   0.607   5.208   0.676  0.2093 -0.2696  0.5049
 1464TIP3    H1 4398   0.524   5.204   0.630  0.8981  0.1866 -0.8435
 1464TIP3    H2 4399   0.673   5.204   0.606  1.3551 -1.8086  1.5849
 1465TIP3   OH2 4400   2.298   4.932   4.952  0.2310  0.1580  0.6413
 1465TIP3    H1 4401   2.317   4.983   4.873  0.4627 -0.6074  0.1895
 1465TIP3    H2 4402   2.210   4.960   4.978 -0.2583 -0.2818 -0.4655
 1466TIP3   OH2 4403   1.164   2.398   0.376  0.2540 -0.7568 -0.0618
 1466TIP3    H1 4404   1.251   2.397   0.337  1.1481 -1.3126  1.8103
 1466TIP3    H2 4405   1.162   2.478   0.429 -0.1341 -1.0507  0.3777
 1467TIP3   OH2 4406   4.296   1.156   3.016  0.4275 -0.5818  0.1093
 1467TIP3    H1 4407   4.379   1.128   2.979 -0.7662 -1.9416 -1.7475
 1467TIP3    H2 4408   4.258   1.213   2.950  0.0213  0.3456  1.1049
 1468TIP3   OH2 4409   2.495   2.212   0.400  0.1911  0.1641 -0.2098
 1468TIP3    H1 4410   2.568   2.273   0.386  0.1197  0.5859  1.1100
 1468TIP3    H2 4411   2.436   2.228   0.326  0.2102  1.6509  0.0587
 1469TIP3   OH2 4412   1.792   0.332   4.474 -0.2098  0.1671  0.1288
 1469TIP3    H1 4413   1.850   0.337   4.398  1.3942  1.2588  1.3499
 1469TIP3    H2 4414   1.707   0.308   4.438  1.0168 -1.7270 -1.7162
 1470TIP3   OH2 4415   1.629   1.236   4.719 -0.7167 -0.2369  0.3265
 1470TIP3    H1 4416   1.715   1.241   4.676  0.5292  2.9685  2.7729
 1470TIP3    H2 4417   1.642   1.176   4.792 -1.1679 -1.2724 -0.4303
 1471TIP3   OH2 4418   1.059   1.134   0.805 -0.1255 -0.2042  0.0230
 1471TIP3    H1 4419   0.984   1.133   0.745 -0.0102 -0.6128 -0.1129
 1471TIP3    H2 4420   1.050   1.217   0.852 -1.8039 -1.1388  1.4601
 1472TIP3   OH2 4421   3.685   2.519   4.839 -0.0725  0.3497 -0.1734
 1472TIP3    H1 4422   3.750   2.450   4.852  0.2564  0.4204 -1.3285
 1472TIP3    H2 4423   3.728   2.583   4.782 -0.0345  1.9961  1.6014
 1473TIP3   OH2 4424   2.903   2.895   0.766 -0.7287 -0.0822 -0.4071
 1473TIP3    H1 4425   2.942   2.820   0.721  1.3535  2.0904 -2.4545
 1473TIP3    H2 4426   2.945   2.895   0.853  0.6776 -0.2252 -1.0648
 1474TIP3   OH2 4427   5.869   1.143   4.022  0.4497 -0.0566  0.2611
 1474TIP3    H1 4428   5.777   1.117   4.033  1.1952 -2.6586  1.0244
 1474TIP3    H2 4429   5.868   1.205   3.948 -1.7799 -0.9089 -0.5065
 1475TIP3   OH2 4430   0.804   4.405   3.201 -0.0161 -0.0874 -0.2888
 1475TIP3    H1 4431   0.844   4.321   3.178  0.4115 -0.0614  0.3296
 1475TIP3    H2 4432   0.796   4.451   3.118  3.3247  0.8225 -0.2722
 1476TIP3   OH2 4433   0.140   5.045   2.624  0.2704  0.3672 -0.2480
 1476TIP3    H1 4434   0.134   5.077   2.534 -0.1117 -0.0590 -0.3748
 1476TIP3    H2 4435   0.092   5.109   2.676  0.6848  0.7348 -0.3159
 1477TIP3   OH2 4436   6.245   2.274   4.902 -0.0585  0.0999  0.3257
 1477TIP3    H1 4437   6.261   2.315   4.987  3.9114  1.0270 -0.6485
 1477TIP3    H2 4438   6.270   2.182   4.914 -1.1129 -0.1768  0.5139
 1478TIP3   OH2 4439   6.208   1.130   3.188 -0.0614 -0.3979  0.2986
 1478TIP3    H1 4440   6.252   1.176   3.260  0.4412 -1.1411  0.4751
 1478TIP3    H2 4441   6.221   1.187   3.112  1.0149 -0.4856  0.4022
 1479TIP3   OH2 4442   0.240   0.644   4.263  0.3046  0.4038 -0.3647
 1479TIP3    H1 4443   0.185   0.653   4.341 -0.5439  0.9852 -1.0081
 1479TIP3    H2 4444   0.326   0.619   4.297 -0.8452 -2.7790  0.5570
 1480TIP3   OH2 4445   2.297   2.252   3.821  0.0353 -0.1614 -0.0443
 1480TIP3    H1 4446   2.365   2.198   3.781 -0.4442 -0.1338 -0.9142
 1480TIP3    H2 4447   2.228   2.190   3.846  0.8605 -0.3641  1.9840
 1481TIP3   OH2 4448   6.261   5.409   3.324 -0.1499  0.7915 -0.0231
 1481TIP3    H1 4449   6.222   5.446   3.245 -0.2202  0.4193 -0.1632
 1481TIP3    H2 4450   6.187   5.376   3.375 -0.0147 -0.2325 -0.4516
 1482TIP3   OH2 4451   0.547   1.918   1.996  0.1560  0.4110 -0.1321
 1482TIP3    H1 4452   0.635   1.929   1.961 -0.9024 -1.6553 -4.0491
 1482TIP3    H2 4453   0.494   1.984   1.952 -0.8609 -0.8766 -0.9459
 1483TIP3   OH2 4454   4.422   3.228   0.272 -0.5197 -0.0948 -0.0461
 1483TIP3    H1 4455   4.348   3.263   0.223 -0.2255  1.0221  0.2841
 1483TIP3    H2 4456   4.482   3.302   0.283  0.4494 -0.8639  0.0758
 1484TIP3   OH2 4457   1.433   4.418   0.669  0.0408 -0.2474  0.2428
 1484TIP3    H1 4458   1.483   4.496   0.643  0.7690 -0.3309  1.3037
 1484TIP3    H2 4459   1.494   4.345   0.657 -0.1246 -0.4635  0.6985
 1485TIP3   OH2 4460   1.966   1.115   5.034 -0.0760 -0.3203  0.4859
 1485TIP3    H1 4461   1.971   1.072   5.119  0.7657  1.5805  1.4557
 1485TIP3    H2 4462   1.978   1.208   5.053 -1.7572  0.3884 -1.5128
 1486TIP3   OH2 4463   3.802   0.012   0.985  0.3371 -0.4344  0.1004
 1486TIP3    H1 4464   3.726   0.052   1.027  0.1560 -2.0647  1.4100
 1486TIP3    H2 4465   3.767  -0.030   0.907 -0.1530 -1.2866  0.7666
 1487TIP3   OH2 4466   0.233   2.089   3.767  0.2089  0.1866  0.5390
 1487TIP3    H1 4467   0.175   2.024   3.728  0.9754 -1.2297  1.6585
 1487TIP3    H2 4468   0.200   2.100   3.857 -0.3502  1.9390  0.1782
 1488TIP3   OH2 4469   4.675   5.559   0.901  0.5150 -0.7755 -1.1360
 1488TIP3    H1 4470   4.695   5.556   0.807 -1.1053 -1.6516 -1.4925
 1488TIP3    H2 4471   4.644   5.470   0.921  0.6378 -0.5378  0.1874
 1489TIP3   OH2 4472   3.452   0.952   1.444 -0.4704  0.2779 -0.2403
 1489TIP3    H1 4473   3.468   1.042   1.417  1.8696  0.9742  2.8034
 1489TIP3    H2 4474   3.472   0.952   1.538 -0.5539 -3.3788 -0.0827
 1490TIP3   OH2 4475   5.634   2.650   4.986 -0.3057 -0.6470  0.3174
 1490TIP3    H1 4476   5.650   2.745   4.981 -0.0518 -0.6582  0.9112
 1490TIP3    H2 4477   5.703   2.612   4.933  0.2170 -0.5545  0.9215
 1491TIP3   OH2 4478   4.271   4.369   0.168  0.0137  0.1860 -0.5840
 1491TIP3    H1 4479   4.354   4.403   0.134 -0.1797  0.3828 -0.8633
 1491TIP3    H2 4480   4.210   4.377   0.094 -0.2066 -0.1313 -0.4394
 1492TIP3   OH2 4481   4.033   3.888   2.288  0.5073 -0.1816  0.8149
 1492TIP3    H1 4482   4.062   3.830   2.218  1.8642  2.1307 -0.6644
 1492TIP3    H2 4483   4.102   3.884   2.354  1.4047  0.8939 -0.0242
 1493TIP3   OH2 4484   2.165   3.902   3.704  0.5288 -0.1152  0.5913
 1493TIP3    H1 4485   2.116   3.936   3.780 -1.1972 -0.3170 -0.3816
 1493TIP3    H2 4486   2.254   3.935   3.717  0.2987 -0.1424  2.7006
 1494TIP3   OH2 4487   6.223   1.062   1.100  0.3618 -0.0142  0.3705
 1494TIP3    H1 4488   6.294   1.040   1.160 -0.0497 -1.3046  0.4114
 1494TIP3    H2 4489   6.239   1.008   1.023  0.4161  1.0142 -0.3729
 1495TIP3   OH2 4490   2.631   1.584   3.883  0.4092  0.2833  0.4255
 1495TIP3    H1 4491   2.575   1.512   3.909 -0.8049  1.4109  1.0627
 1495TIP3    H2 4492   2.703   1.584   3.946 -2.3999  2.8880  4.0434
 1496TIP3   OH2 4493   1.604   3.032   0.664 -0.1672  0.4490 -0.1593
 1496TIP3    H1 4494   1.558   3.105   0.622  0.5704  2.2027  1.8973
 1496TIP3    H2 4495   1.657   2.994   0.595 -0.3785  2.0477 -1.2526
 1497TIP3   OH2 4496   5.587   0.964   1.260  0.3429 -0.0412  0.0170
 1497TIP3    H1 4497   5.506   0.976   1.309 -1.4148 -1.7970 -2.2159
 1497TIP3    H2 4498   5.627   1.052   1.256  0.2946  0.2897  3.8525
 1498TIP3   OH2 4499   3.754   2.197   5.012 -0.0179 -0.2807  0.0474
 1498TIP3    H1 4500   3.822   2.230   4.954 -0.1277  0.3902  0.2954
 1498TIP3    H2 4501   3.706   2.133   4.959  0.5870 -0.5031 -0.2339
 1499TIP3   OH2 4502   3.546   5.439   4.650  0.2426  0.0565  0.0439
 1499TIP3    H1 4503   3.582   5.376   4.587  0.3321 -0.1704  0.3187
 1499TIP3    H2 4504   3.473   5.392   4.691 -0.4392  0.5532 -0.5878
 1500TIP3   OH2 4505   4.093   0.481   3.260  0.0678  0.2574 -0.3370
 1500TIP3    H1 4506   4.054   0.548   3.203 -0.2043 -0.0941 -0.5701
 1500TIP3    H2 4507   4.061   0.398   3.224  0.3387  0.0067 -0.0008
 1501TIP3   OH2 4508   3.541   4.628   4.841 -0.6536 -0.3598 -0.1847
 1501TIP3    H1 4509   3.446   4.632   4.825 -0.4728  0.2693 -1.2022
 1501TIP3    H2 4510   3.577   4.701   4.789  0.6499 -2.1338 -1.9340
 1502TIP3   OH2 4511   4.170   1.468   4.012 -0.3432 -0.3331 -0.4143
 1502TIP3    H1 4512   4.262   1.491   4.019 -0.7490  1.6448 -0.8795
 1502TIP3    H2 4513   4.165   1.411   3.935  0.2163  1.5533 -1.9401
 1503TIP3   OH2 4514   5.418   4.073   2.205 -0.0858 -0.0181  0.0093
 1503TIP3    H1 4515   5.473   4.070   2.127  0.9380 -0.3225  0.7256
 1503TIP3    H2 4516   5.448   4.000   2.259  1.6144  2.1484  2.2329
 1504TIP3   OH2 4517   3.910   4.175   1.686 -0.0534 -0.2979  0.1074
 1504TIP3    H1 4518   3.877   4.086   1.693  0.2551 -0.5967 -1.7443
 1504TIP3    H2 4519   3.983   4.179   1.748  1.1800 -1.9579 -1.1591
 1505TIP3   OH2 4520   1.006   2.298   2.294  0.4051 -0.4135 -0.0085
 1505TIP3    H1 4521   0.927   2.349   2.276 -0.1686 -0.7805  1.3071
 1505TIP3    H2 4522   0.973   2.214   2.326  1.3356 -0.9751 -0.5000
 1506TIP3   OH2 4523   4.077   5.958   2.532 -0.5540 -0.1344  0.4087
 1506TIP3    H1 4524   3.991   5.941   2.494 -0.2671 -1.0117  0.1251
 1506TIP3    H2 4525   4.068   5.932   2.624 -0.8489  0.6782  0.6254
 1507TIP3   OH2 4526   3.621   4.863   2.560 -0.1502  0.3983  0.3366
 1507TIP3    H1 4527   3.652   4.814   2.484 -0.1492  0.5151  0.2610
 1507TIP3    H2 4528   3.676   4.941   2.562 -1.1848  1.1821 -0.4877
 1508TIP3   OH2 4529   3.782   5.855   0.575 -0.3271  0.5918  0.0250
 1508TIP3    H1 4530   3.796   5.770   0.617  1.1266 -0.6364 -2.6448
 1508TIP3    H2 4531   3.755   5.833   0.485 -0.0856  2.9539 -0.6859
 1509TIP3   OH2 4532   0.819   0.741   3.003  0.1938 -0.3306 -0.1856
 1509TIP3    H1 4533   0.790   0.650   3.003  1.2551 -0.6884  0.2796
 1509TIP3    H2 4534   0.760   0.785   3.064 -3.3802  0.3974 -3.7381
 1510TIP3   OH2 4535   1.425   0.027   2.585 -0.6968  0.3742  0.1189
 1510TIP3    H1 4536   1.459   0.109   2.621 -0.5924  0.5298 -0.3203
 1510TIP3    H2 4537   1.401   0.050   2.495 -2.7315  0.4913  0.6452
 1511TIP3   OH2 4538   2.836   0.075   0.237 -0.1504 -0.3754 -0.2110
 1511TIP3    H1 4539   2.791   0.007   0.187 -0.8695  1.0988 -1.6557
 1511TIP3    H2 4540   2.896   0.115   0.175 -2.8145  3.1717 -0.8202
 1512TIP3   OH2 4541   1.287   0.663   1.803  0.3949  0.3289 -0.4258
 1512TIP3    H1 4542   1.270   0.757   1.806  0.3809  0.3275 -0.4700
 1512TIP3    H2 4543   1.217   0.627   1.749  1.4958  0.5296 -2.0405
 1513TIP3   OH2 4544   5.239   5.882   3.880 -0.9583 -0.0576 -0.0957
 1513TIP3    H1 4545   5.299   5.928   3.940 -1.5746  0.1794  0.3480
 1513TIP3    H2 4546   5.283   5.800   3.861 -0.0024  0.5513 -0.6064
 1514TIP3   OH2 4547   3.016   5.210   0.099 -0.4014  0.4117  0.0976
 1514TIP3    H1 4548   2.973   5.135   0.058 -0.4847 -0.7756  2.2462
 1514TIP3    H2 4549   3.065   5.173   0.172  0.1872  2.3612  0.7404
 1515TIP3   OH2 4550   0.111   4.067   2.804  0.3772 -0.0049 -0.0461
 1515TIP3    H1 4551   0.099   4.162   2.798 -0.2155 -0.1256 -1.1383
 1515TIP3    H2 4552   0.114   4.049   2.898  2.0278  1.2649  0.1794
 1516TIP3   OH2 4553   1.853   4.131   1.154  0.8987 -0.1866  0.1773
 1516TIP3    H1 4554   1.900   4.085   1.223 -1.7931 -0.6670  1.8574
 1516TIP3    H2 4555   1.834   4.218   1.191  0.0825 -0.1875 -0.2047
 1517TIP3   OH2 4556   5.254   5.440   4.019  0.5829 -0.2945 -0.1336
 1517TIP3    H1 4557   5.214   5.353   4.018  0.3231 -0.2159  1.3670
 1517TIP3    H2 4558   5.219   5.482   4.098  0.7141  1.1736 -0.8249
 1518TIP3   OH2 4559   3.680   2.892   2.794  0.0719  0.1415  0.0687
 1518TIP3    H1 4560   3.724   2.973   2.767  0.8632 -0.7571 -1.5013
 1518TIP3    H2 4561   3.721   2.868   2.877  0.2233  1.0356  0.2631
 1519TIP3   OH2 4562   4.685   1.646   1.702  0.2906 -0.9945  0.0213
 1519TIP3    H1 4563   4.659   1.616   1.615  0.5061 -0.9779 -0.0505
 1519TIP3    H2 4564   4.616   1.614   1.760  0.2659 -1.2059 -0.1217
 1520TIP3   OH2 4565   4.575   4.458   2.524  0.1377 -0.3758  0.2777
 1520TIP3    H1 4566   4.657   4.479   2.480  0.1030  0.6759  0.6823
 1520TIP3    H2 4567   4.601   4.422   2.609  0.1968  1.2939  0.9967
 1521TIP3   OH2 4568   1.736   4.222   3.100  0.4922  0.2440  0.0655
 1521TIP3    H1 4569   1.763   4.176   3.179  0.4363  0.8318  0.4343
 1521TIP3    H2 4570   1.641   4.231   3.108  0.5194  0.5467  0.0681
 1522TIP3   OH2 4571  -0.002   1.636   4.360  0.1557 -0.2039  0.0053
 1522TIP3    H1 4572   0.040   1.679   4.285  0.5807 -0.7767 -0.0974
 1522TIP3    H2 4573   0.053   1.661   4.434 -0.6494  0.9086  0.2433
 1523TIP3   OH2 4574   2.056   1.789   0.933  0.1335  0.5435 -0.5334
 1523TIP3    H1 4575   2.091   1.706   0.899 -0.5736  0.2104 -0.4776
 1523TIP3    H2 4576   1.989   1.762   0.996  0.3837  1.1618  0.0031
 1524TIP3   OH2 4577   3.162   2.521   1.644 -0.7281  0.0339  0.0260
 1524TIP3    H1 4578   3.247   2.544   1.681 -1.1902 -0.0025  1.1384
 1524TIP3    H2 4579   3.139   2.439   1.687 -1.5565  0.3091  0.1129
 1525TIP3   OH2 4580   5.335   4.980   1.547  0.6082  0.5123 -0.2145
 1525TIP3    H1 4581   5.371   5.032   1.619  1.5876 -2.6984  1.8083
 1525TIP3    H2 4582   5.403   4.982   1.479  1.2945  0.6410  0.4624
 1526TIP3   OH2 4583   5.189   2.757   0.298  0.1068  0.7387  0.0257
 1526TIP3    H1 4584   5.272   2.802   0.289 -0.4842  1.8708  0.0473
 1526TIP3    H2 4585   5.210   2.677   0.346  1.5402 -0.1359 -1.9231
 1527TIP3   OH2 4586   3.061   3.222   4.689  0.0230 -0.3355  0.0128
 1527TIP3    H1 4587   3.125   3.218   4.618  1.5698 -1.0767  1.3624
 1527TIP3    H2 4588   3.112   3.251   4.765 -1.1883 -1.2040  1.2159
 1528TIP3   OH2 4589   5.584   3.404   2.558  0.0708 -0.1286 -0.8559
 1528TIP3    H1 4590   5.623   3.332   2.509 -0.5028 -0.9139 -0.2045
 1528TIP3    H2 4591   5.552   3.363   2.639 -0.2473  0.8633 -0.4596
 1529TIP3   OH2 4592   4.524   2.893   2.653  0.5786  0.5580 -0.2976
 1529TIP3    H1 4593   4.474   2.895   2.572  1.7691  1.6215 -1.0468
 1529TIP3    H2 4594   4.459   2.910   2.722 -0.2444  0.8921 -1.1374
 1530TIP3   OH2 4595   6.357   3.374   0.209 -0.0022  0.3709  0.0473
 1530TIP3    H1 4596   6.349   3.298   0.266 -0.2474 -0.1334 -0.6382
 1530TIP3    H2 4597   6.304   3.441   0.251 -0.7662 -0.2189  0.0526
 1531TIP3   OH2 4598   1.727   3.698   3.273 -0.2665  0.1205 -0.2642
 1531TIP3    H1 4599   1.654   3.637   3.262 -0.7739  0.6983 -0.1459
 1531TIP3    H2 4600   1.716   3.762   3.203 -1.0440  1.3548  0.9329
 1532TIP3   OH2 4601   4.725   5.402   0.654  0.2130  0.2494  0.0948
 1532TIP3    H1 4602   4.747   5.327   0.600  0.8846  2.1778 -2.5256
 1532TIP3    H2 4603   4.637   5.383   0.687 -0.4298 -0.8756 -2.0778
 1533TIP3   OH2 4604   1.385   4.058   0.029  0.7411  0.3137  0.1262
 1533TIP3    H1 4605   1.453   4.012   0.078  1.1441 -0.1334 -0.8275
 1533TIP3    H2 4606   1.311   4.063   0.089  0.8639 -1.1290  0.4248
 1534TIP3   OH2 4607   0.407   2.407   0.473  0.0376  0.0310 -0.9096
 1534TIP3    H1 4608   0.397   2.314   0.453  1.6751 -1.0826  2.5635
 1534TIP3    H2 4609   0.332   2.427   0.529  1.7403 -0.4925  1.7614
 1535TIP3   OH2 4610   4.781   1.919   0.416 -0.5149 -0.5061  0.0337
 1535TIP3    H1 4611   4.876   1.905   0.419 -0.3100  0.5435 -0.9921
 1535TIP3    H2 4612   4.759   1.955   0.502 -0.1051 -1.4170  0.5309
 1536TIP3   OH2 4613   2.511   4.092   3.187 -0.0158 -0.0787  0.4729
 1536TIP3    H1 4614   2.566   4.170   3.188 -1.3453  0.8695  1.4309
 1536TIP3    H2 4615   2.476   4.088   3.098 -0.6711  0.9414  0.6823
 1537TIP3   OH2 4616   1.528   3.860   1.982 -0.1695 -0.4976 -0.0084
 1537TIP3    H1 4617   1.547   3.827   1.894 -4.0029  1.0329 -1.6472
 1537TIP3    H2 4618   1.534   3.955   1.973  0.1430 -0.3379  1.6468
 1538TIP3   OH2 4619   0.553   1.466   2.810  0.3178 -0.3902 -0.8199
 1538TIP3    H1 4620   0.477   1.462   2.752  0.8438 -2.6019 -1.4440
 1538TIP3    H2 4621   0.592   1.380   2.803  1.8345  0.1127  0.9430
 1539TIP3   OH2 4622   5.425   0.862   4.037 -0.6684 -0.4286  0.4408
 1539TIP3    H1 4623   5.476   0.932   3.996 -0.8813 -0.4290  0.1719
 1539TIP3    H2 4624   5.431   0.879   4.131 -1.7582  0.6941  0.3357
 1540TIP3   OH2 4625   6.243   5.610   0.420 -0.0431 -0.6074 -0.0085
 1540TIP3    H1 4626   6.325   5.569   0.449  0.4263  0.4598  0.2543
 1540TIP3    H2 4627   6.176   5.572   0.477  0.3583 -1.0668  0.1681
 1541TIP3   OH2 4628   5.229   0.765   1.227  0.3991 -0.2197  0.6609
 1541TIP3    H1 4629   5.305   0.717   1.259 -0.2577 -0.9749  1.1317
 1541TIP3    H2 4630   5.166   0.697   1.204  0.0649  0.3833 -0.2390
 1542TIP3   OH2 4631   4.376   3.357   4.042  0.0287 -0.2535  0.3614
 1542TIP3    H1 4632   4.315   3.354   3.969  1.4871 -1.8387 -0.8500
 1542TIP3    H2 4633   4.320   3.358   4.120 -1.5717 -1.9658 -0.6866
 1543TIP3   OH2 4634   0.442   5.924   4.502  0.2247 -0.0828  0.2380
 1543TIP3    H1 4635   0.416   5.911   4.594  0.6919 -3.0021  0.0819
 1543TIP3    H2 4636   0.406   5.848   4.457  0.2158  1.1856 -1.9928
 1544TIP3   OH2 4637   4.181   2.314   2.280 -0.0252  0.0041 -0.3384
 1544TIP3    H1 4638   4.144   2.397   2.251 -3.4467 -1.4800 -0.6643
 1544TIP3    H2 4639   4.122   2.247   2.244  2.6924 -2.6293 -0.3045
 1545TIP3   OH2 4640   1.863   4.320   2.431  0.7034 -0.1321 -0.2135
 1545TIP3    H1 4641   1.843   4.309   2.338  1.3465  2.3893 -0.7208
 1545TIP3    H2 4642   1.958   4.311   2.437  0.7554  0.5403  0.0554
 1546TIP3   OH2 4643   4.904   4.941   3.228 -0.1404  0.1779 -0.0177
 1546TIP3    H1 4644   4.898   4.890   3.147  1.1831 -1.0780  0.6094
 1546TIP3    H2 4645   4.913   4.874   3.297 -1.1547  1.2150  1.1614
 1547TIP3   OH2 4646   1.853   5.305   1.038 -0.1515 -0.2008  0.2156
 1547TIP3    H1 4647   1.939   5.264   1.050 -0.1501  0.0964  1.2716
 1547TIP3    H2 4648   1.870   5.399   1.042 -0.6775 -0.1379  1.7587
 1548TIP3   OH2 4649   4.511   3.914   1.790  0.0086  0.1087  0.2799
 1548TIP3    H1 4650   4.437   3.968   1.818  0.0187 -0.5783  1.7501
 1548TIP3    H2 4651   4.471   3.832   1.762  0.0559  0.5595 -1.2002
 1549TIP3   OH2 4652   4.035   2.962   0.641  0.1043 -0.4505 -0.4846
 1549TIP3    H1 4653   4.107   3.006   0.687 -2.0155  0.1312  2.5533
 1549TIP3    H2 4654   4.010   3.024   0.572  1.2508  0.1913 -0.3485
 1550TIP3   OH2 4655   1.085   4.292   2.487  0.2893  0.2549  0.0593
 1550TIP3    H1 4656   1.153   4.252   2.434 -0.2937 -0.8643  0.1042
 1550TIP3    H2 4657   1.018   4.320   2.424  0.0540 -0.1574  0.1191
 1551TIP3   OH2 4658   1.880   3.983   0.345  0.5347 -0.1270  0.2571
 1551TIP3    H1 4659   1.934   3.997   0.268  1.8815  0.0704  1.2059
 1551TIP3    H2 4660   1.925   4.029   0.415 -0.7144 -0.2071  1.1536
 1552TIP3   OH2 4661   0.151   3.946   2.071  0.3986  0.2858 -0.0658
 1552TIP3    H1 4662   0.117   3.918   1.986  1.3398  1.6737 -0.9349
 1552TIP3    H2 4663   0.228   3.999   2.050  0.7172  0.5614  1.6616
 1553TIP3   OH2 4664   2.322   4.324   2.268  0.5522  0.2556 -0.2120
 1553TIP3    H1 4665   2.336   4.328   2.173  0.4055 -2.0077 -0.3858
 1553TIP3    H2 4666   2.383   4.258   2.298  0.1642  0.5157  1.2047
 1554TIP3   OH2 4667   0.866   5.109   2.418 -0.1939 -0.1724  0.4945
 1554TIP3    H1 4668   0.957   5.085   2.404  0.6506  1.4515  2.7674
 1554TIP3    H2 4669   0.866   5.205   2.421 -1.9704 -0.1393  0.5877
 1555TIP3   OH2 4670   0.878   5.917   3.431 -0.2748  0.7299  0.8273
 1555TIP3    H1 4671   0.871   5.830   3.390 -2.7827  1.1106  0.2736
 1555TIP3    H2 4672   0.825   5.910   3.510 -0.8047  1.8435  0.5878
 1556TIP3   OH2 4673   1.454   1.810   0.284 -0.6040  0.0594 -0.1576
 1556TIP3    H1 4674   1.442   1.893   0.238 -0.0511  0.0591 -0.3064
 1556TIP3    H2 4675   1.366   1.771   0.287 -0.9949  0.9452  0.4755
 1557TIP3   OH2 4676   5.476   0.031   2.558  0.3768 -0.2070 -0.7524
 1557TIP3    H1 4677   5.491  -0.060   2.583  0.6740  0.1707  0.5303
 1557TIP3    H2 4678   5.420   0.067   2.627 -1.1075  0.1739 -2.0863
 1558TIP3   OH2 4679   5.016   1.053   4.420 -0.3440  0.2973 -0.1365
 1558TIP3    H1 4680   4.980   1.051   4.508  0.3068  1.6063  0.1734
 1558TIP3    H2 4681   5.102   1.012   4.428  0.7521  2.5536  0.3716
 1559TIP3   OH2 4682   6.322   3.129   3.557  0.1101  0.0309 -0.4465
 1559TIP3    H1 4683   6.278   3.207   3.590 -0.8582 -0.5455 -0.3497
 1559TIP3    H2 4684   6.310   3.133   3.462  1.4014  0.7809 -0.6156
 1560TIP3   OH2 4685   0.468   1.416   5.130 -0.6412  0.1346  0.0027
 1560TIP3    H1 4686   0.450   1.436   5.038  0.2297  1.7957  0.1569
 1560TIP3    H2 4687   0.386   1.435   5.175 -0.0260  3.0856  0.0578
 1561TIP3   OH2 4688   5.479   4.997   4.873  0.0036 -0.2549  0.6116
 1561TIP3    H1 4689   5.552   5.059   4.879 -0.0137 -0.3504  2.7239
 1561TIP3    H2 4690   5.434   5.021   4.792  1.6549  0.6083 -0.1014
 1562TIP3   OH2 4691   2.085   0.576   4.748  0.4133  0.3301 -0.1808
 1562TIP3    H1 4692   2.127   0.564   4.663  1.1052 -3.0209  0.4718
 1562TIP3    H2 4693   2.153   0.615   4.803  0.4295  1.1749 -0.7788
 1563TIP3   OH2 4694   5.040   0.691   1.742 -0.1555 -0.2133 -0.1966
 1563TIP3    H1 4695   5.035   0.677   1.648 -0.8047  0.4551 -0.2708
 1563TIP3    H2 4696   5.034   0.603   1.780 -3.0642 -0.2896 -0.6723
 1564TIP3   OH2 4697   1.514   5.131   3.858 -0.0414  0.1821 -0.2710
 1564TIP3    H1 4698   1.490   5.081   3.780  0.3328 -1.5605  0.6576
 1564TIP3    H2 4699   1.509   5.067   3.929  1.0230  1.3527  0.9128
 1565TIP3   OH2 4700   5.909   2.708   3.547 -0.0272 -0.3837 -0.5109
 1565TIP3    H1 4701   5.849   2.773   3.584 -0.2930 -1.4496  1.0196
 1565TIP3    H2 4702   5.942   2.749   3.467 -0.8930  1.2413 -0.0847
 1566TIP3   OH2 4703   2.670   2.919   1.960 -1.0299 -0.3333  0.0516
 1566TIP3    H1 4704   2.706   3.007   1.956 -0.2348 -0.6413  0.2795
 1566TIP3    H2 4705   2.576   2.931   1.949 -0.7742  0.3931 -1.8135
 1567TIP3   OH2 4706   2.081   2.897   3.358 -0.3908 -0.3997 -0.0297
 1567TIP3    H1 4707   2.027   2.818   3.361  1.1663 -1.4774  1.0182
 1567TIP3    H2 4708   2.062   2.942   3.440  1.0779 -1.3780  0.9015
 1568TIP3   OH2 4709   0.011   5.274   3.979 -0.5189 -0.5977  0.2283
 1568TIP3    H1 4710   0.020   5.368   3.994 -0.9144 -0.3004 -1.1773
 1568TIP3    H2 4711   0.100   5.243   3.965 -0.5221  0.6947 -4.9188
 1569TIP3   OH2 4712   5.326   2.058   4.348  0.4699 -0.1504  0.1957
 1569TIP3    H1 4713   5.278   2.082   4.427  0.8590 -0.3707  0.5047
 1569TIP3    H2 4714   5.302   1.967   4.332  1.6338 -0.6380  1.0092
 1570TIP3   OH2 4715   1.043   3.454   2.527 -0.0931 -0.0532  0.6752
 1570TIP3    H1 4716   1.118   3.456   2.587  0.5741 -1.2417 -0.0824
 1570TIP3    H2 4717   0.967   3.461   2.584  0.5700  0.6800  1.5080
 1571TIP3   OH2 4718   2.178   1.446   3.182  0.0064  0.3368  0.1874
 1571TIP3    H1 4719   2.137   1.409   3.104 -0.5635  1.7757 -0.2283
 1571TIP3    H2 4720   2.107   1.452   3.246  0.5454 -1.1596  0.9719
 1572TIP3   OH2 4721   5.568   0.326   0.278 -0.3650  0.0387  0.2191
 1572TIP3    H1 4722   5.648   0.279   0.301  0.3363  1.5218  0.8883
 1572TIP3    H2 4723   5.498   0.265   0.301  0.5165 -0.8634  0.6180
 1573TIP3   OH2 4724   2.610   4.477   5.151  0.0874  0.5131  0.5417
 1573TIP3    H1 4725   2.639   4.527   5.075 -1.0607 -0.5921 -0.6893
 1573TIP3    H2 4726   2.622   4.386   5.125 -1.1772  0.0971  1.3227
 1574TIP3   OH2 4727   3.490   1.048   4.357  0.0682  0.2371  0.0943
 1574TIP3    H1 4728   3.485   1.122   4.297 -2.0038 -0.6889 -0.9986
 1574TIP3    H2 4729   3.488   0.971   4.299 -0.9762 -0.6813  1.3064
 1575TIP3   OH2 4730   6.295   5.735   4.668  0.4661 -0.2306 -0.0670
 1575TIP3    H1 4731   6.256   5.723   4.755  0.2558  1.1337  0.0522
 1575TIP3    H2 4732   6.381   5.695   4.675  0.7426  0.5131  1.0122
 1576TIP3   OH2 4733   0.211   5.973   1.068 -0.3131 -0.1175  0.3764
 1576TIP3    H1 4734   0.197   5.893   1.017  0.9860  0.7150 -1.3719
 1576TIP3    H2 4735   0.196   6.044   1.006  0.8467  0.9540  1.2834
 1577TIP3   OH2 4736   3.612   3.866   2.424 -0.1388 -0.4322  0.3947
 1577TIP3    H1 4737   3.579   3.951   2.398 -2.0654 -1.7691 -1.8466
 1577TIP3    H2 4738   3.692   3.855   2.372 -0.5880 -0.4958 -0.2992
 1578TIP3   OH2 4739   3.440   0.462   0.713  0.4973 -0.5765 -0.3620
 1578TIP3    H1 4740   3.469   0.540   0.664  1.2076 -0.8877 -0.4600
 1578TIP3    H2 4741   3.501   0.456   0.786  1.1710 -1.6769 -0.9850
 1579TIP3   OH2 4742   5.230   3.053   2.316 -0.4191 -0.3831  0.4732
 1579TIP3    H1 4743   5.212   3.059   2.410 -2.8096 -0.3266  0.0687
 1579TIP3    H2 4744   5.159   2.999   2.282  0.8967 -1.1257 -1.1988
 1580TIP3   OH2 4745   0.170   2.464   1.609 -0.0776 -0.2194 -0.4159
 1580TIP3    H1 4746   0.172   2.556   1.634  0.9345 -0.6995  1.4114
 1580TIP3    H2 4747   0.077   2.441   1.612 -0.4813  1.0014 -2.0737
 1581TIP3   OH2 4748   5.691   5.193   4.943 -0.2638  0.1554  0.3159
 1581TIP3    H1 4749   5.604   5.213   4.979 -1.5280 -1.0439 -1.7950
 1581TIP3    H2 4750   5.709   5.265   4.883  0.5459  0.7400  1.2373
 1582TIP3   OH2 4751   1.585   2.711   3.444  0.2534 -0.2276 -0.3115
 1582TIP3    H1 4752   1.504   2.716   3.495 -1.0591 -4.5919 -1.4789
 1582TIP3    H2 4753   1.646   2.666   3.501  0.3871 -0.8036 -0.8970
 1583TIP3   OH2 4754   1.788   5.589   2.275 -0.3481  0.0808 -0.1898
 1583TIP3    H1 4755   1.800   5.678   2.241  0.0752 -0.2089 -0.8171
 1583TIP3    H2 4756   1.736   5.601   2.355  1.1152  1.0544  0.6598
 1584TIP3   OH2 4757   3.804   5.913   3.205  0.1963  0.1296  0.2628
 1584TIP3    H1 4758   3.895   5.934   3.183  0.2217 -1.6856 -1.5772
 1584TIP3    H2 4759   3.810   5.845   3.272  0.2059 -0.4330 -0.3071
 1585TIP3   OH2 4760   1.141   3.776   1.652  0.3715 -0.1189  0.1160
 1585TIP3    H1 4761   1.058   3.741   1.684  0.2392  1.6603  1.9208
 1585TIP3    H2 4762   1.120   3.863   1.619  1.7306  1.2168  2.4692
 1586TIP3   OH2 4763   1.237   4.998   5.114  0.0518  0.3808 -0.0396
 1586TIP3    H1 4764   1.155   5.023   5.158  0.1052  0.6185 -0.0761
 1586TIP3    H2 4765   1.243   4.903   5.127  0.7603  0.6364  1.6480
 1587TIP3   OH2 4766   4.067   4.247   0.325 -0.1677 -0.2922  0.4213
 1587TIP3    H1 4767   4.105   4.170   0.368 -0.8561 -1.1918 -0.5483
 1587TIP3    H2 4768   4.124   4.262   0.250 -0.3885 -0.2236  0.2676
 1588TIP3   OH2 4769   0.355   2.056   4.138 -0.0543 -0.5024  0.9185
 1588TIP3    H1 4770   0.449   2.044   4.130 -0.2150 -1.3170  0.0598
 1588TIP3    H2 4771   0.335   2.034   4.229  0.4807 -1.1103  0.8960
 1589TIP3   OH2 4772   0.615   4.070   3.773  0.6271  0.0085 -0.6040
 1589TIP3    H1 4773   0.530   4.073   3.818  1.6178 -2.2492  1.6873
 1589TIP3    H2 4774   0.593   4.056   3.681 -1.5092 -0.6442 -0.0598
 1590TIP3   OH2 4775   5.031   1.979   2.289  0.1524  0.0008 -0.0356
 1590TIP3    H1 4776   4.973   2.044   2.329 -3.0637 -1.4458 -1.9237
 1590TIP3    H2 4777   5.097   1.961   2.356 -0.9406  2.5085  1.9022
 1591TIP3   OH2 4778   1.650   5.414   2.076 -0.0378 -0.2318 -0.0200
 1591TIP3    H1 4779   1.586   5.465   2.027 -0.6369  0.1606  1.1343
 1591TIP3    H2 4780   1.685   5.475   2.141 -0.1003 -1.0276  0.7815
 1592TIP3   OH2 4781   4.221   2.217   0.370  0.3989  0.3394 -0.1938
 1592TIP3    H1 4782   4.225   2.307   0.403 -0.0825 -0.5647  2.6213
 1592TIP3    H2 4783   4.304   2.178   0.397  0.1910 -0.3474 -0.5125
 1593TIP3   OH2 4784   5.770   0.021   0.142 -0.0737 -0.8412  0.7094
 1593TIP3    H1 4785   5.796  -0.071   0.153  3.4904  0.2364  2.7948
 1593TIP3    H2 4786   5.781   0.060   0.229  0.1873  1.9310 -0.4631
 1594TIP3   OH2 4787   5.322   1.457   4.025 -0.2600 -0.2571  0.1133
 1594TIP3    H1 4788   5.250   1.399   3.999 -1.1177  0.6906  0.2855
 1594TIP3    H2 4789   5.325   1.450   4.120 -1.1335  0.8045  0.2474
 1595TIP3   OH2 4790   1.148   2.954   0.048 -0.3826  0.7148 -0.2146
 1595TIP3    H1 4791   1.185   2.984  -0.036 -1.0339  0.1303 -0.7214
 1595TIP3    H2 4792   1.114   2.867   0.029  0.6703  0.0044  1.0165
 1596TIP3   OH2 4793   3.244   0.930   4.420 -0.5293 -0.4312 -0.1597
 1596TIP3    H1 4794   3.173   0.980   4.460 -0.9176 -1.0518 -0.0589
 1596TIP3    H2 4795   3.288   0.993   4.363 -1.2128 -0.0619 -0.2929
 1597TIP3   OH2 4796   4.178   0.670   1.697 -0.1673  0.3286 -0.0463
 1597TIP3    H1 4797   4.090   0.650   1.666 -0.8002  1.9305  0.6129
 1597TIP3    H2 4798   4.165   0.714   1.781  1.3482 -0.8129  0.8605
 1598TIP3   OH2 4799   5.038   5.287   1.806  0.5869  0.5183  0.4632
 1598TIP3    H1 4800   5.046   5.227   1.880 -0.9559  0.8139  0.9153
 1598TIP3    H2 4801   5.128   5.308   1.782  1.1435  0.6383  2.4537
 1599TIP3   OH2 4802   2.251   2.796   4.436  0.1701  0.0221  0.1586
 1599TIP3    H1 4803   2.192   2.863   4.470  0.5451  0.2565  0.3628
 1599TIP3    H2 4804   2.219   2.714   4.474 -0.5427  0.0245 -0.4280
 1600TIP3   OH2 4805   0.223   5.468   3.998 -0.0100  0.0071 -0.4439
 1600TIP3    H1 4806   0.209   5.523   3.921  2.1228 -1.4845 -2.0003
 1600TIP3    H2 4807   0.269   5.525   4.060 -1.3566  1.0891 -0.4007
 1601TIP3   OH2 4808   1.874   4.083   2.925  0.0423  0.2681 -0.1905
 1601TIP3    H1 4809   1.857   4.120   2.838 -0.0145  1.6317  0.3734
 1601TIP3    H2 4810   1.847   4.152   2.986 -0.9337 -1.0701  0.9560
 1602TIP3   OH2 4811   1.101   1.958   2.005  0.3904 -0.3003  0.1192
 1602TIP3    H1 4812   1.018   1.945   2.050 -0.5442 -0.8955 -1.6984
 1602TIP3    H2 4813   1.154   1.882   2.029 -0.4318 -1.0783 -0.4806
 1603TIP3   OH2 4814   4.890   1.734   4.685  0.7816 -0.1263  0.4658
 1603TIP3    H1 4815   4.864   1.812   4.735  0.3901  0.4988 -0.6853
 1603TIP3    H2 4816   4.940   1.769   4.611  1.0888 -1.0179  0.2482
 1604TIP3   OH2 4817   3.255   1.309   4.762 -0.9948  0.4051 -0.3125
 1604TIP3    H1 4818   3.239   1.221   4.796 -1.1571  0.6260  0.2029
 1604TIP3    H2 4819   3.305   1.352   4.832 -1.2630  0.8467 -0.3933
 1605TIP3   OH2 4820   3.441   1.993   0.101 -0.2891 -0.5755  0.1093
 1605TIP3    H1 4821   3.518   1.988   0.044 -0.6887  0.9568 -0.6092
 1605TIP3    H2 4822   3.389   1.915   0.079  1.2579 -1.9462  0.9952
 1606TIP3   OH2 4823   6.236   4.843   0.185 -0.0550 -0.0138 -0.3505
 1606TIP3    H1 4824   6.289   4.860   0.263 -0.2401  2.4666 -0.6916
 1606TIP3    H2 4825   6.208   4.929   0.155 -3.4101 -1.0899 -0.8187
 1607TIP3   OH2 4826   0.860   1.914   2.144  0.3874 -0.1778  0.5754
 1607TIP3    H1 4827   0.811   1.847   2.190 -0.0864 -0.8485 -0.8473
 1607TIP3    H2 4828   0.801   1.989   2.140 -0.1258 -0.6029 -0.1493
 1608TIP3   OH2 4829   0.064   0.986   1.416 -0.2413 -1.4047 -0.3864
 1608TIP3    H1 4830   0.144   0.952   1.456  1.1178 -0.8384 -2.4562
 1608TIP3    H2 4831   0.070   0.957   1.324 -2.1872 -0.9430 -0.6893
 1609TIP3   OH2 4832   6.060   3.311   0.766  0.1019  0.0734  0.0010
 1609TIP3    H1 4833   5.976   3.344   0.799 -0.0253 -0.3142  0.0754
 1609TIP3    H2 4834   6.077   3.233   0.818  0.6579  0.3092  0.1852
 1610TIP3   OH2 4835   5.733   1.478   0.449 -0.7617  0.1508  0.6693
 1610TIP3    H1 4836   5.665   1.521   0.398 -1.3309 -1.0747  0.3661
 1610TIP3    H2 4837   5.691   1.458   0.533 -0.3026  0.7384  1.0529
 1611TIP3   OH2 4838   2.668   4.259   0.973 -0.0336 -0.8867  0.1070
 1611TIP3    H1 4839   2.666   4.232   0.881  0.1302  0.5388 -0.3390
 1611TIP3    H2 4840   2.617   4.339   0.976  3.7867  1.8022  0.2857
 1612TIP3   OH2 4841   0.110   4.029   1.541  0.1229  0.1535  0.2116
 1612TIP3    H1 4842   0.188   4.047   1.594  2.1596 -1.2329 -2.1184
 1612TIP3    H2 4843   0.086   4.115   1.505  1.9814  0.3103 -0.7815
 1613TIP3   OH2 4844   1.038   0.131   1.676  0.2046  0.0235 -0.2185
 1613TIP3    H1 4845   1.126   0.095   1.671  0.2812  0.2993 -0.8875
 1613TIP3    H2 4846   0.991   0.090   1.604 -0.1042  0.1846 -0.1103
 1614TIP3   OH2 4847   1.298   0.240   1.840 -0.6650  0.0500  0.3703
 1614TIP3    H1 4848   1.282   0.303   1.770 -1.2536 -0.3009  0.1771
 1614TIP3    H2 4849   1.267   0.156   1.805 -2.6390  0.1664  1.6611
 1615TIP3   OH2 4850   4.938   3.760   0.312 -0.2034 -0.5699  0.0613
 1615TIP3    H1 4851   4.879   3.736   0.241 -1.0665 -0.6885  0.7936
 1615TIP3    H2 4852   5.016   3.794   0.269 -0.4579 -1.2219 -0.9426
 1616TIP3   OH2 4853   3.098   1.210   1.409 -0.4402 -0.0121  0.6265
 1616TIP3    H1 4854   3.122   1.131   1.362 -0.6997 -0.5638  1.3941
 1616TIP3    H2 4855   3.066   1.178   1.494 -1.6491  0.8263  0.5132
 1617TIP3   OH2 4856   0.942   0.211   3.967 -0.0547 -0.4098 -0.0395
 1617TIP3    H1 4857   1.011   0.180   4.025 -0.7772  0.2466  1.2330
 1617TIP3    H2 4858   0.861   0.196   4.016 -0.8869 -1.6072 -1.6835
 1618TIP3   OH2 4859   4.922   4.678   0.906  0.0073 -0.1497  0.4170
 1618TIP3    H1 4860   4.934   4.641   0.819  0.3019  0.8161  0.0315
 1618TIP3    H2 4861   4.834   4.650   0.932 -1.3035  1.9115 -1.4295
 1619TIP3   OH2 4862   5.425   0.490   2.764 -0.2511  0.1550  0.0413
 1619TIP3    H1 4863   5.378   0.407   2.771 -1.1989  0.7528  1.2567
 1619TIP3    H2 4864   5.381   0.537   2.693 -0.0159 -0.1940 -0.3364
 1620TIP3   OH2 4865   3.846   0.002   0.362  0.2278 -0.3647  0.0929
 1620TIP3    H1 4866   3.919  -0.028   0.309  0.3460 -1.3645  0.8027
 1620TIP3    H2 4867   3.817   0.083   0.319  1.3296 -0.2987 -0.5574
 1621TIP3   OH2 4868   0.020   3.364   1.318 -0.3269  0.5303  0.3312
 1621TIP3    H1 4869   0.105   3.320   1.326 -1.0716 -0.9217  0.6743
 1621TIP3    H2 4870   0.027   3.415   1.238  0.8939  0.4909  0.3944
 1622TIP3   OH2 4871   5.938   5.621   3.932 -0.1987 -0.1815 -0.2044
 1622TIP3    H1 4872   6.026   5.660   3.929 -0.6230  0.9255  0.9909
 1622TIP3    H2 4873   5.943   5.556   4.001 -0.0127 -0.9648 -0.9368
 1623TIP3   OH2 4874   4.277   5.541   0.249 -0.5769  0.7590  0.0217
 1623TIP3    H1 4875   4.225   5.613   0.212  0.7013  1.0662 -1.2456
 1623TIP3    H2 4876   4.362   5.548   0.206 -0.1143 -0.9411  0.5900
 1624TIP3   OH2 4877   5.671   4.159   0.631 -0.0327 -0.3742  0.5142
 1624TIP3    H1 4878   5.753   4.124   0.596 -0.4964  0.1507 -1.1987
 1624TIP3    H2 4879   5.689   4.175   0.724  2.5844  2.0047 -0.2760
 1625TIP3   OH2 4880   2.267   1.114   4.195  0.9102  0.6343  0.1264
 1625TIP3    H1 4881   2.252   1.160   4.278 -0.5877  0.9654 -0.2931
 1625TIP3    H2 4882   2.188   1.061   4.182  0.9420  0.8706 -1.2483
 1626TIP3   OH2 4883   0.912   5.041   3.582 -0.3934 -0.6363 -0.6175
 1626TIP3    H1 4884   0.910   5.060   3.488 -1.3426  0.6367 -0.3630
 1626TIP3    H2 4885   0.894   5.125   3.624  0.7908 -1.0289  0.7400
 1627TIP3   OH2 4886   5.876   5.183   3.822 -0.3287  0.5435  0.2226
 1627TIP3    H1 4887   5.813   5.247   3.855 -0.4929  0.5329 -0.0748
 1627TIP3    H2 4888   5.962   5.224   3.835 -0.3533  0.3186  1.1747
 1628TIP3   OH2 4889   2.631   1.656   3.598  0.2794  0.1863  0.2743
 1628TIP3    H1 4890   2.645   1.621   3.686 -1.1315  0.5522  0.6694
 1628TIP3    H2 4891   2.639   1.751   3.609  0.3207  0.2196 -0.0407
 1629TIP3   OH2 4892   2.411   4.697   4.632  0.4060 -0.6269 -0.3427
 1629TIP3    H1 4893   2.353   4.640   4.582 -2.8194  1.1060  1.0863
 1629TIP3    H2 4894   2.397   4.784   4.595 -0.0306  0.2550  1.7360
 1630TIP3   OH2 4895   4.949   5.314   2.114  0.3381  0.0103  0.3461
 1630TIP3    H1 4896   4.892   5.385   2.084  0.9187 -0.9150 -3.4208
 1630TIP3    H2 4897   5.035   5.355   2.125  0.3484  0.1906 -0.3673
 1631TIP3   OH2 4898   3.393   3.175   2.126  0.2128  0.1044  0.8285
 1631TIP3    H1 4899   3.370   3.262   2.095 -0.9317 -0.4062  0.1720
 1631TIP3    H2 4900   3.451   3.190   2.200  0.9624  1.3993  0.0124
 1632TIP3   OH2 4901   4.623   4.564   1.135  0.2223 -0.3871 -0.2994
 1632TIP3    H1 4902   4.607   4.604   1.220  0.4304 -1.2218  0.1405
 1632TIP3    H2 4903   4.696   4.503   1.150 -0.0272 -0.8667 -0.9755
 1633TIP3   OH2 4904   2.488   2.486   4.474 -0.7097  0.0493 -0.2430
 1633TIP3    H1 4905   2.422   2.554   4.457 -0.2907  0.5258  0.0139
 1633TIP3    H2 4906   2.533   2.516   4.553 -1.0731 -0.9627  0.3635
 1634TIP3   OH2 4907   1.576   1.919   3.786 -0.4712 -0.0883 -0.4717
 1634TIP3    H1 4908   1.484   1.903   3.808 -0.4271 -0.1446 -0.3237
 1634TIP3    H2 4909   1.600   1.845   3.730 -0.3214 -0.4464  0.0594
 1635TIP3   OH2 4910   2.558   4.537   2.410  0.1059 -0.2249 -0.3097
 1635TIP3    H1 4911   2.483   4.515   2.465  0.7194 -1.5094  0.0497
 1635TIP3    H2 4912   2.613   4.458   2.411  1.2907  0.5592 -0.8457
 1636TIP3   OH2 4913   5.639   1.625   4.201  0.2526  0.3498  0.6808
 1636TIP3    H1 4914   5.571   1.585   4.255  0.2803 -1.7611 -0.7433
 1636TIP3    H2 4915   5.599   1.704   4.165 -1.2557 -0.5249  0.3712
 1637TIP3   OH2 4916   5.850   2.945   3.928 -0.2788 -0.1438 -0.0239
 1637TIP3    H1 4917   5.928   2.900   3.959  0.9586  1.5655 -0.4979
 1637TIP3    H2 4918   5.809   2.980   4.008  1.6897  2.3533  0.0377
 1638TIP3   OH2 4919   2.481   2.018   0.062  0.0622 -0.0487  0.6314
 1638TIP3    H1 4920   2.474   2.005  -0.033 -0.6715  2.1683  0.3265
 1638TIP3    H2 4921   2.397   2.057   0.087  0.0741 -1.0148  2.3045
 1639TIP3   OH2 4922   0.135   1.216   4.513 -0.2649 -0.4673  0.4828
 1639TIP3    H1 4923   0.040   1.217   4.518 -0.3026 -1.1806  0.0739
 1639TIP3    H2 4924   0.154   1.199   4.421  0.2775  1.3673  0.2256
 1640TIP3   OH2 4925   4.641   1.383   3.546  0.2337  0.3032 -0.2842
 1640TIP3    H1 4926   4.678   1.350   3.629  1.1693  0.2563 -0.7077
 1640TIP3    H2 4927   4.553   1.346   3.543 -0.0648  0.8585  1.0192
 1641TIP3   OH2 4928   0.794   1.190   3.060  0.4936  0.4609 -0.1481
 1641TIP3    H1 4929   0.811   1.277   3.096 -1.1039  0.9845 -0.5657
 1641TIP3    H2 4930   0.735   1.205   2.987 -0.2940 -1.0352  0.1314
 1642TIP3   OH2 4931   5.651   2.582   3.466 -0.1547 -0.1599  0.0245
 1642TIP3    H1 4932   5.604   2.532   3.534 -0.3290  0.1120  0.1045
 1642TIP3    H2 4933   5.742   2.555   3.475 -0.0718  0.3458  0.7887
 1643TIP3   OH2 4934   0.302   2.527   3.158  0.2942  0.2249  0.2517
 1643TIP3    H1 4935   0.367   2.491   3.218 -0.6127 -1.5277  0.2457
 1643TIP3    H2 4936   0.218   2.500   3.195 -0.3645  0.8315 -0.7464
 1644TIP3   OH2 4937   1.531   1.776   4.169  0.2734 -0.3467  0.2409
 1644TIP3    H1 4938   1.623   1.787   4.193  0.4450 -1.5547  0.2282
 1644TIP3    H2 4939   1.530   1.698   4.114 -0.7816 -0.4452  0.3704
 1645TIP3   OH2 4940   0.732   4.497   4.591  0.1166  0.1898  0.3748
 1645TIP3    H1 4941   0.648   4.524   4.553 -0.2294  1.2229  1.7917
 1645TIP3    H2 4942   0.772   4.441   4.524 -0.7035  1.4860 -1.2777
 1646TIP3   OH2 4943   2.988   3.074   1.020 -0.6530  0.2269 -0.1928
 1646TIP3    H1 4944   3.001   2.996   1.075  0.3637  0.2878 -0.3301
 1646TIP3    H2 4945   3.075   3.112   1.011 -0.7254  0.0042 -2.1837
 1647TIP3   OH2 4946   6.099   1.094   2.818  0.1184 -0.3933 -0.0874
 1647TIP3    H1 4947   6.185   1.115   2.854 -0.7379  0.6549  1.4704
 1647TIP3    H2 4948   6.065   1.024   2.875 -0.1191 -0.7153 -0.6127
 1648TIP3   OH2 4949   5.419   2.303   3.042 -0.0196  0.1981 -0.1528
 1648TIP3    H1 4950   5.459   2.362   2.979  1.0045 -0.5516 -0.2364
 1648TIP3    H2 4951   5.337   2.346   3.067  0.9800  1.9752  0.2888
 1649TIP3   OH2 4952   5.831   0.575   0.972  0.2830 -0.2104 -0.8462
 1649TIP3    H1 4953   5.889   0.500   0.980 -2.2037 -2.4362 -1.8880
 1649TIP3    H2 4954   5.806   0.576   0.879 -2.0538 -0.0653 -0.2950
 1650TIP3   OH2 4955   2.468   3.433   1.966 -0.1561 -0.8579 -0.2472
 1650TIP3    H1 4956   2.498   3.416   2.055  1.1294 -2.1655 -0.9010
 1650TIP3    H2 4957   2.542   3.412   1.910 -1.0251 -0.3317 -1.6724
 1651TIP3   OH2 4958   3.497   2.202   1.724 -0.2843  1.0478  0.6923
 1651TIP3    H1 4959   3.521   2.230   1.812 -1.4222  2.5950  0.5540
 1651TIP3    H2 4960   3.510   2.279   1.670  0.2167  0.1696 -0.4829
 1652TIP3   OH2 4961   5.308   1.025   2.388 -0.1654 -0.0630  0.3257
 1652TIP3    H1 4962   5.378   0.962   2.372 -0.6920 -0.7265  0.5846
 1652TIP3    H2 4963   5.320   1.051   2.480  0.7531  1.1111 -0.1030
 1653TIP3   OH2 4964   4.450   4.135   2.713 -0.0041  0.0682 -0.2799
 1653TIP3    H1 4965   4.399   4.137   2.633 -0.0896  1.8410 -0.2062
 1653TIP3    H2 4966   4.390   4.163   2.781  0.5270  0.2145  0.1364
 1654TIP3   OH2 4967   1.883   3.659   0.553  0.1034  0.2528 -0.0750
 1654TIP3    H1 4968   1.945   3.639   0.623  0.5543 -0.7429 -0.7314
 1654TIP3    H2 4969   1.879   3.755   0.550 -1.0332  0.3618  2.2540
 1655TIP3   OH2 4970   4.066   2.909   2.993  0.3937  0.9541 -0.3338
 1655TIP3    H1 4971   4.074   3.004   2.980 -0.8601  1.9645  4.3470
 1655TIP3    H2 4972   3.978   2.888   2.960 -0.4395  2.0648  1.0796
 1656TIP3   OH2 4973   0.949   2.314   4.726  0.3160 -0.2452  0.0671
 1656TIP3    H1 4974   0.980   2.369   4.654 -2.0325 -0.7444 -1.4257
 1656TIP3    H2 4975   0.957   2.225   4.694  0.6754 -0.5819  1.0493
 1657TIP3   OH2 4976   4.466   2.022   3.392 -0.9018  0.1898 -0.0533
 1657TIP3    H1 4977   4.490   1.932   3.370  0.4635  0.3522  0.6698
 1657TIP3    H2 4978   4.542   2.056   3.438 -1.6642  1.5114  0.2690
 1658TIP3   OH2 4979   1.339   1.227   4.709 -0.0162  0.0615  0.1649
 1658TIP3    H1 4980   1.332   1.239   4.803  0.6261 -0.8476  0.3427
 1658TIP3    H2 4981   1.433   1.217   4.693 -0.1700 -0.4847 -0.4761
 1659TIP3   OH2 4982   0.221   3.233   2.761 -0.4374  0.4391  0.3059
 1659TIP3    H1 4983   0.183   3.199   2.680 -0.7129 -0.1535  0.6885
 1659TIP3    H2 4984   0.303   3.184   2.771  0.2053  1.3533 -0.2438
 1660TIP3   OH2 4985   0.256   1.628   4.884 -0.1391 -0.0420 -0.4457
 1660TIP3    H1 4986   0.327   1.566   4.865 -0.0711 -0.1277  0.0676
 1660TIP3    H2 4987   0.258   1.690   4.812 -1.3448 -1.6429 -1.9337
 1661TIP3   OH2 4988   2.190   3.526   3.302  0.4490  0.2321 -0.3858
 1661TIP3    H1 4989   2.236   3.531   3.218 -0.2778 -1.4823 -0.9340
 1661TIP3    H2 4990   2.247   3.571   3.364  1.9873 -0.2352 -1.4114
 1662TIP3   OH2 4991   3.635   0.165   2.927  0.2339  0.2626  0.2357
 1662TIP3    H1 4992   3.624   0.246   2.878  0.3460  0.3753  0.3949
 1662TIP3    H2 4993   3.607   0.187   3.016 -3.9476 -0.9619 -0.5486
 1663TIP3   OH2 4994   3.216   5.752   3.669  0.3837  0.1132 -0.0844
 1663TIP3    H1 4995   3.292   5.795   3.707  0.6431 -0.0830 -0.3720
 1663TIP3    H2 4996   3.230   5.659   3.687 -1.3328  0.2687  2.6480
 1664TIP3   OH2 4997   2.935   0.965   4.068 -0.3308  0.4318 -0.6777
 1664TIP3    H1 4998   2.939   0.874   4.097  0.2811  0.5026 -0.5268
 1664TIP3    H2 4999   3.026   0.993   4.065 -0.3972  0.5771 -2.2015
 1665TIP3   OH2 5000   5.910   1.033   2.599  0.3390 -0.4821  0.1049
 1665TIP3    H1 5001   5.976   1.026   2.668 -0.2565  0.9105  0.8558
 1665TIP3    H2 5002   5.937   1.109   2.547 -0.6276  0.0729  0.3911
 1666TIP3   OH2 5003   5.884   2.852   0.357  0.1168 -0.4511 -0.6514
 1666TIP3    H1 5004   5.821   2.888   0.295 -0.5935 -0.0345  0.2817
 1666TIP3    H2 5005   5.884   2.758   0.340  4.1165 -0.0174 -5.1194
 1667TIP3   OH2 5006   0.096   3.070   5.153  0.1779 -0.5057 -0.1137
 1667TIP3    H1 5007   0.089   2.998   5.090 -0.7874 -0.9057  0.4365
 1667TIP3    H2 5008   0.166   3.043   5.212  0.4552 -0.5572 -0.4610
 1668TIP3   OH2 5009   5.384   1.002   0.781 -0.0093  0.2376 -0.0508
 1668TIP3    H1 5010   5.443   0.927   0.774 -0.6418 -0.3687  0.9908
 1668TIP3    H2 5011   5.297   0.966   0.769 -0.3685  0.6986  1.0672
 1669TIP3   OH2 5012   1.344   1.816   4.370  0.0403 -0.2208 -0.4337
 1669TIP3    H1 5013   1.399   1.855   4.302  1.4065 -0.2041  0.6270
 1669TIP3    H2 5014   1.371   1.724   4.372  2.4066  0.3740  2.1608
 1670TIP3   OH2 5015   2.931   4.432   1.132  0.1986 -0.2854 -0.5177
 1670TIP3    H1 5016   2.993   4.458   1.064 -0.7476 -2.6403 -2.4585
 1670TIP3    H2 5017   2.846   4.429   1.087 -0.4478 -1.9997  0.6868
 1671TIP3   OH2 5018   5.759   2.767   2.417 -0.0306 -0.0215  0.1453
 1671TIP3    H1 5019   5.711   2.754   2.500 -0.7142  0.9047 -0.0925
 1671TIP3    H2 5020   5.851   2.768   2.443 -0.2838  1.4879  1.0852
 1672TIP3   OH2 5021   0.622   3.059   3.392  0.1068  0.4413 -0.3061
 1672TIP3    H1 5022   0.713   3.043   3.370 -0.1426  0.4708 -1.4093
 1672TIP3    H2 5023   0.572   3.016   3.323 -0.7112  0.5120  0.2256
 1673TIP3   OH2 5024   0.123   1.307   0.612  0.0558 -0.7064  0.2201
 1673TIP3    H1 5025   0.169   1.326   0.530 -0.2215  0.1594  0.2599
 1673TIP3    H2 5026   0.193   1.293   0.676  0.3925  2.5720  0.7656
 1674TIP3   OH2 5027   6.245   1.481   0.735  0.0525  0.3391  0.4121
 1674TIP3    H1 5028   6.300   1.529   0.798  0.5659 -0.3470  0.5031
 1674TIP3    H2 5029   6.298   1.405   0.711  0.3078  1.1316 -1.6817
 1675TIP3   OH2 5030   4.396   4.319   0.790 -0.7397 -0.8738  0.0458
 1675TIP3    H1 5031   4.376   4.411   0.778  1.4397  0.2331  3.3238
 1675TIP3    H2 5032   4.421   4.312   0.883  0.2792 -4.5364 -0.3330
 1676TIP3   OH2 5033   6.216   4.686   5.059 -0.5496  0.2565 -0.5170
 1676TIP3    H1 5034   6.285   4.638   5.105 -0.6755  1.0274  0.5253
 1676TIP3    H2 5035   6.188   4.627   4.990 -0.3889 -0.9967  0.4479
 1677TIP3   OH2 5036   1.838   2.966   2.110 -0.4232  0.0588  0.0013
 1677TIP3    H1 5037   1.867   3.029   2.044  0.3734  0.3213  0.5928
 1677TIP3    H2 5038   1.808   3.019   2.183  0.1032 -0.2367  0.4404
 1678TIP3   OH2 5039   0.857   5.403   1.955 -0.6050  0.0406 -0.0874
 1678TIP3    H1 5040   0.787   5.440   1.901 -0.5814  2.5881  1.4278
 1678TIP3    H2 5041   0.812   5.355   2.024 -0.8193  0.4181  0.0397
 1679TIP3   OH2 5042   0.366   1.897   3.274 -0.2623 -0.1915  0.5004
 1679TIP3    H1 5043   0.355   1.824   3.336  1.7886 -0.9321  0.0514
 1679TIP3    H2 5044   0.391   1.971   3.329 -0.8151 -0.2087  0.7882
 1680TIP3   OH2 5045   6.201   4.914   0.712 -0.4325  0.1191  0.0151
 1680TIP3    H1 5046   6.208   4.846   0.645 -0.9557 -0.4141  0.4945
 1680TIP3    H2 5047   6.280   4.904   0.764 -0.6363 -0.3077  0.2494
 1681TIP3   OH2 5048   2.858   0.455   4.496 -0.5011  0.3461  0.6786
 1681TIP3    H1 5049   2.953   0.464   4.488 -0.5965 -0.4133 -3.0394
 1681TIP3    H2 5050   2.831   0.535   4.541  1.8794  0.2109  2.5866
 1682TIP3   OH2 5051   3.506   0.715   1.123 -0.1486  0.3594  0.5911
 1682TIP3    H1 5052   3.586   0.673   1.153 -0.7939 -1.5498 -0.1762
 1682TIP3    H2 5053   3.447   0.711   1.199  0.4743  1.8511  1.1848
 1683TIP3   OH2 5054   4.190   4.388   1.051  0.2477 -0.2630 -0.2556
 1683TIP3    H1 5055   4.184   4.293   1.058  0.3940 -0.3215 -0.8719
 1683TIP3    H2 5056   4.186   4.406   0.957  1.2694  0.2561 -0.2206
 1684TIP3   OH2 5057   2.695   3.893   3.629  0.1312  0.3657 -0.0323
 1684TIP3    H1 5058   2.694   3.801   3.602  1.4061  0.0987  0.7915
 1684TIP3    H2 5059   2.669   3.891   3.721  0.1663  0.8346 -0.0120
 1685TIP3   OH2 5060   1.889   0.553   0.535 -0.0743  0.1412  0.0030
 1685TIP3    H1 5061   1.893   0.602   0.453 -0.1043 -2.1740 -1.4586
 1685TIP3    H2 5062   1.901   0.462   0.509 -1.7362 -0.8452  2.3982
 1686TIP3   OH2 5063   2.675   1.868   0.157  0.1098 -0.2843  0.2113
 1686TIP3    H1 5064   2.653   1.841   0.246  1.1644 -0.5227  0.4233
 1686TIP3    H2 5065   2.607   1.930   0.133  0.1842  0.3196  1.4519
 1687TIP3   OH2 5066   0.846   4.769   3.623  0.6860 -0.1779 -0.1213
 1687TIP3    H1 5067   0.876   4.859   3.607  0.8683 -0.1605  0.2943
 1687TIP3    H2 5068   0.793   4.747   3.546 -0.0167  0.5659  0.1385
 1688TIP3   OH2 5069   1.237   2.932   1.613  0.9339  0.0492 -0.0641
 1688TIP3    H1 5070   1.313   2.975   1.574  0.6719  0.2192 -0.3891
 1688TIP3    H2 5071   1.255   2.934   1.707  1.7384 -0.6897 -0.1842
 1689TIP3   OH2 5072   6.200   1.068   1.965  0.3009 -0.2464  0.2018
 1689TIP3    H1 5073   6.288   1.102   1.981 -0.5789  2.6439 -0.5292
 1689TIP3    H2 5074   6.196   1.057   1.870  0.5038 -2.4251  0.4062
 1690TIP3   OH2 5075   2.484   0.506   3.081  0.3421  0.0567  0.5667
 1690TIP3    H1 5076   2.413   0.562   3.049  1.8282  2.4166  1.1559
 1690TIP3    H2 5077   2.470   0.502   3.176  0.3913 -0.3961  0.5556
 1691TIP3   OH2 5078   0.660   1.164   4.435 -0.0692 -0.2011 -0.2906
 1691TIP3    H1 5079   0.593   1.107   4.397  1.1157 -2.2961  0.5544
 1691TIP3    H2 5080   0.717   1.187   4.361 -0.7675  0.1880 -0.7078
 1692TIP3   OH2 5081   4.877   0.218   1.514  0.8121  0.3537  0.1522
 1692TIP3    H1 5082   4.862   0.276   1.440  0.1345 -0.3368 -0.2609
 1692TIP3    H2 5083   4.950   0.259   1.562  1.1766  0.8660 -0.8182
 1693TIP3   OH2 5084   4.752   3.740   4.419 -0.2483  0.0802  0.1213
 1693TIP3    H1 5085   4.792   3.750   4.332 -2.3619  1.5295 -0.7566
 1693TIP3    H2 5086   4.775   3.820   4.465  1.7298 -1.1077  1.3719
 1694TIP3   OH2 5087   4.881   5.814   2.936 -0.5220 -0.2202  0.3544
 1694TIP3    H1 5088   4.818   5.758   2.981 -0.3510 -0.1219  0.7234
 1694TIP3    H2 5089   4.834   5.897   2.922 -0.5393 -0.2121  0.4570
 1695TIP3   OH2 5090   4.665   1.402   0.105 -0.6291  0.2021 -0.1351
 1695TIP3    H1 5091   4.614   1.483   0.105  0.0583  0.7048  2.2229
 1695TIP3    H2 5092   4.757   1.431   0.102 -0.3370 -0.3809  1.6931
 1696TIP3   OH2 5093   0.354   2.434   1.932  0.1729 -0.4685  0.3210
 1696TIP3    H1 5094   0.447   2.414   1.920  0.3724 -1.5388  3.0282
 1696TIP3    H2 5095   0.309   2.351   1.912 -0.4527  0.4462 -2.5388
 1697TIP3   OH2 5096   4.627   4.294   3.614 -0.5976 -0.0607  0.2718
 1697TIP3    H1 5097   4.562   4.363   3.624 -0.1769  0.4917 -0.7174
 1697TIP3    H2 5098   4.634   4.255   3.702 -1.3069  0.7167  0.6835
 1698TIP3   OH2 5099   2.087   0.098   3.234 -0.3426 -0.0535  0.6025
 1698TIP3    H1 5100   2.151   0.161   3.265  1.0690 -1.1703  0.0524
 1698TIP3    H2 5101   2.092   0.026   3.296 -0.3032 -0.6058 -0.0285
 1699TIP3   OH2 5102   4.433   5.467   2.445 -0.6728 -0.7407  0.7363
 1699TIP3    H1 5103   4.416   5.510   2.529  0.4283 -2.1913  1.7593
 1699TIP3    H2 5104   4.510   5.413   2.461  0.7749  0.3849 -1.7708
 1700TIP3   OH2 5105   1.709   5.012   3.592 -0.8053 -0.2483  0.1726
 1700TIP3    H1 5106   1.703   4.955   3.669 -0.8427 -0.9132 -0.3145
 1700TIP3    H2 5107   1.618   5.033   3.571 -0.8058 -0.2518  0.1718
 1701TIP3   OH2 5108   2.919   5.320   4.444  0.8415 -0.6303 -0.3525
 1701TIP3    H1 5109   2.942   5.396   4.391  1.6590 -0.5549  0.0870
 1701TIP3    H2 5110   2.993   5.310   4.505  0.7138 -1.7233 -0.3488
 1702TIP3   OH2 5111   0.282   5.766   2.112 -0.1069 -0.0337 -0.0149
 1702TIP3    H1 5112   0.218   5.701   2.083  0.0794 -0.5125  0.6453
 1702TIP3    H2 5113   0.327   5.793   2.031 -0.2016 -0.6941 -0.2912
 1703TIP3   OH2 5114   4.620   5.929   3.204  0.4570 -0.6776 -0.2015
 1703TIP3    H1 5115   4.547   5.890   3.252  1.4914 -1.5265  0.7264
 1703TIP3    H2 5116   4.626   5.878   3.124  0.1734 -0.7356 -0.1867
 1704TIP3   OH2 5117   0.474   2.135   3.378  0.0319  0.1007 -0.1582
 1704TIP3    H1 5118   0.518   2.151   3.461  2.7075 -0.6608 -1.3130
 1704TIP3    H2 5119   0.440   2.221   3.352  0.7831  0.7277  0.8675
 1705TIP3   OH2 5120   1.598   2.318   2.635 -0.3256  0.2080 -0.9008
 1705TIP3    H1 5121   1.608   2.320   2.730 -0.9219 -0.3541 -0.8183
 1705TIP3    H2 5122   1.506   2.295   2.621  0.1297 -1.3734 -1.5947
 1706TIP3   OH2 5123   0.359   0.210   4.006 -0.2693 -0.1564 -0.2909
 1706TIP3    H1 5124   0.406   0.250   3.933  1.2903  2.4219  1.9117
 1706TIP3    H2 5125   0.267   0.227   3.986  0.2240  2.8926 -0.5168
 1707TIP3   OH2 5126   2.402   5.860   3.465 -0.2193 -0.1702  0.0768
 1707TIP3    H1 5127   2.368   5.860   3.555  0.0468  0.0046  0.1777
 1707TIP3    H2 5128   2.356   5.787   3.423 -0.4487 -0.1667  0.3138
 1708TIP3   OH2 5129   5.727   4.968   3.108  0.3920  1.0496 -0.4412
 1708TIP3    H1 5130   5.807   4.916   3.103 -0.8078 -1.0928  1.1620
 1708TIP3    H2 5131   5.687   4.958   3.021 -1.0652 -3.0130  0.5012
 1709TIP3   OH2 5132   2.488   2.990   2.773  0.3329 -0.4547  0.0994
 1709TIP3    H1 5133   2.479   3.004   2.679  2.4969  0.6296 -0.0037
 1709TIP3    H2 5134   2.424   3.049   2.812  0.8233  0.6259 -0.6758
 1710TIP3   OH2 5135   5.764   4.507   0.103  0.1033  0.6162 -0.1558
 1710TIP3    H1 5136   5.785   4.539   0.015 -0.7800  0.2479 -0.5177
 1710TIP3    H2 5137   5.668   4.502   0.104  0.1148  0.4519  0.7713
 1711TIP3   OH2 5138   0.775   5.403   2.427 -0.0258  0.1490  0.5858
 1711TIP3    H1 5139   0.842   5.387   2.494 -0.5271  0.8354  1.2667
 1711TIP3    H2 5140   0.774   5.498   2.417 -0.0025  0.0542 -0.3645
 1712TIP3   OH2 5141   4.614   5.262   0.953 -0.4654  0.3612  0.2550
 1712TIP3    H1 5142   4.569   5.209   1.018 -1.4444  0.8065 -0.0461
 1712TIP3    H2 5143   4.634   5.201   0.882 -0.6602  0.1782  0.3553
 1713TIP3   OH2 5144   6.162   5.423   1.323 -0.0099  0.5971  0.5264
 1713TIP3    H1 5145   6.096   5.493   1.326 -0.3369  0.3365 -0.3306
 1713TIP3    H2 5146   6.117   5.350   1.282  0.2180 -0.2613  1.7472
 1714TIP3   OH2 5147   2.367   4.202   1.204  0.2934  0.6870 -0.3550
 1714TIP3    H1 5148   2.343   4.224   1.294 -1.0217 -1.9607  0.0551
 1714TIP3    H2 5149   2.355   4.284   1.156 -2.6274  1.3702  1.2351
 1715TIP3   OH2 5150   1.306   0.418   0.881 -0.1232  0.0644 -0.5280
 1715TIP3    H1 5151   1.283   0.379   0.797 -1.0569 -0.2732 -0.1311
 1715TIP3    H2 5152   1.401   0.406   0.888 -0.0118  0.2301 -1.5905
 1716TIP3   OH2 5153   6.057   1.599   2.039 -0.1233 -0.3086 -0.2535
 1716TIP3    H1 5154   6.110   1.656   1.983  0.8076 -1.0531 -0.1652
 1716TIP3    H2 5155   6.104   1.515   2.039 -1.6584 -1.2026 -0.6998
 1717TIP3   OH2 5156   5.184   4.135   1.981 -0.0700  0.1754 -0.1935
 1717TIP3    H1 5157   5.203   4.062   1.923 -1.5502  0.9050 -1.6790
 1717TIP3    H2 5158   5.172   4.096   2.067  0.5523 -1.1293 -0.6799
 1718TIP3   OH2 5159   3.406   4.719   3.600  0.4069  0.1702  0.4729
 1718TIP3    H1 5160   3.429   4.641   3.650  1.4025  0.7477  0.9595
 1718TIP3    H2 5161   3.358   4.686   3.524 -1.2104 -0.7177  1.8205
 1719TIP3   OH2 5162   0.890   1.570   0.150 -0.0178  0.4645 -0.0045
 1719TIP3    H1 5163   0.866   1.614   0.068  0.0207 -0.9100 -0.7948
 1719TIP3    H2 5164   0.811   1.576   0.204 -0.5382  0.1411 -0.7114
 1720TIP3   OH2 5165   1.155   0.824   1.288  0.1742 -0.0238 -0.0910
 1720TIP3    H1 5166   1.059   0.831   1.288  0.1593  2.1925  3.0378
 1720TIP3    H2 5167   1.173   0.732   1.308 -1.2549 -0.5800 -1.2300
 1721TIP3   OH2 5168   0.162   5.119   4.473  0.5099  0.3918  0.4051
 1721TIP3    H1 5169   0.209   5.095   4.394  1.1898  1.3438  0.5057
 1721TIP3    H2 5170   0.070   5.126   4.445  0.5343 -0.5947  0.0186
 1722TIP3   OH2 5171   3.229   2.982   2.446 -0.5101 -0.2282 -0.6442
 1722TIP3    H1 5172   3.202   3.011   2.533  0.5674 -0.9444 -0.0464
 1722TIP3    H2 5173   3.304   3.037   2.425 -0.0306 -0.8582 -0.5957
 1723TIP3   OH2 5174   0.200   3.128   0.080  0.0470  0.0924  0.3451
 1723TIP3    H1 5175   0.292   3.106   0.098  0.1011  0.3089  0.3354
 1723TIP3    H2 5176   0.188   3.215   0.118  0.5673  1.2181 -1.8719
 1724TIP3   OH2 5177   5.807   3.619   2.954 -0.2894 -0.7063 -0.1849
 1724TIP3    H1 5178   5.717   3.649   2.967  0.0952 -0.0033  0.9750
 1724TIP3    H2 5179   5.838   3.597   3.042  1.5058  1.5299 -0.1710
 1725TIP3   OH2 5180   4.174   4.079   3.636 -0.2585  0.4920 -0.1339
 1725TIP3    H1 5181   4.178   3.984   3.623  1.2463  0.4733  0.3016
 1725TIP3    H2 5182   4.203   4.092   3.726 -0.1688  1.3887 -0.2849
 1726TIP3   OH2 5183   2.670   2.263   3.407  0.2639  0.2840 -0.8589
 1726TIP3    H1 5184   2.607   2.331   3.383 -1.2356  0.0294  1.9028
 1726TIP3    H2 5185   2.620   2.182   3.402  0.3129  0.0685  1.2911
 1727TIP3   OH2 5186   4.123   5.262   4.223 -0.6629  0.1748 -0.5920
 1727TIP3    H1 5187   4.086   5.175   4.209 -0.7207  0.2145 -0.6835
 1727TIP3    H2 5188   4.047   5.320   4.234 -0.6204  0.0784  0.2868
 1728TIP3   OH2 5189   5.000   2.552   4.727 -0.0476  0.3062  0.0958
 1728TIP3    H1 5190   5.080   2.605   4.722  0.7723 -0.9667 -1.3243
 1728TIP3    H2 5191   4.934   2.611   4.762  1.2768  1.6952  0.3612
 1729TIP3   OH2 5192   2.604   0.506   1.174  0.4739 -0.6791  0.2718
 1729TIP3    H1 5193   2.607   0.557   1.093 -1.1593 -0.1351  0.5077
 1729TIP3    H2 5194   2.695   0.481   1.191  1.3961  2.2153  0.1624
 1730TIP3   OH2 5195   5.052   1.210   1.818 -0.8971 -0.0638  0.0006
 1730TIP3    H1 5196   4.998   1.263   1.760 -0.2434 -0.0656 -0.6175
 1730TIP3    H2 5197   5.125   1.181   1.764 -1.1441 -1.4542  0.3688
 1731TIP3   OH2 5198   5.796   1.863   2.407 -0.3813  0.2699  0.0229
 1731TIP3    H1 5199   5.817   1.863   2.314 -0.8666 -1.5074 -0.1266
 1731TIP3    H2 5200   5.745   1.783   2.420  1.1131 -0.4376  2.1218
 1732TIP3   OH2 5201   1.440   5.596   3.677 -0.1170 -0.8402  0.0880
 1732TIP3    H1 5202   1.490   5.518   3.703  0.8351 -0.6226 -1.0167
 1732TIP3    H2 5203   1.412   5.634   3.760  3.4756  0.2620  0.9850
 1733TIP3   OH2 5204   5.419   1.712   1.914 -0.1807 -0.1651  0.5931
 1733TIP3    H1 5205   5.377   1.777   1.858  2.2580  0.0021 -1.2503
 1733TIP3    H2 5206   5.493   1.759   1.953  1.2543 -1.5898 -0.2887
 1734TIP3   OH2 5207   3.388   2.907   4.868 -0.0341 -0.6394  0.4580
 1734TIP3    H1 5208   3.402   2.934   4.959 -1.0617 -0.0100  0.4550
 1734TIP3    H2 5209   3.444   2.964   4.817 -0.4041 -0.1201  0.6222
 1735TIP3   OH2 5210   3.295   1.222   4.508  0.5142  0.8980 -0.1163
 1735TIP3    H1 5211   3.315   1.130   4.493 -1.5048  0.8131 -3.2388
 1735TIP3    H2 5212   3.275   1.227   4.601  0.7123 -1.8220  0.1489
 1736TIP3   OH2 5213   3.506   1.240   4.161  0.0724  0.3228  0.2387
 1736TIP3    H1 5214   3.534   1.223   4.071  0.2520  0.2096  0.3174
 1736TIP3    H2 5215   3.413   1.260   4.153  0.2390  1.0475 -0.0696
 1737TIP3   OH2 5216   0.555   5.861   3.971 -0.5180 -0.1034 -0.1420
 1737TIP3    H1 5217   0.601   5.789   4.015 -1.0062  0.0592  0.6413
 1737TIP3    H2 5218   0.595   5.940   4.006 -0.8217  0.0269 -0.0896
 1738TIP3   OH2 5219   2.926   5.263   2.424  0.4635  0.2981  0.0227
 1738TIP3    H1 5220   2.863   5.194   2.445  0.1497  0.8204  0.8729
 1738TIP3    H2 5221   2.876   5.344   2.435  1.6324  0.8116  2.2458
 1739TIP3   OH2 5222   4.295   0.202   1.463 -0.0077 -0.3719 -0.7950
 1739TIP3    H1 5223   4.390   0.205   1.453 -0.1253  0.2532 -1.8400
 1739TIP3    H2 5224   4.268   0.294   1.470 -0.5169 -0.5530 -0.2480
 1740TIP3   OH2 5225   0.670   4.175   4.572 -0.1336 -0.4654  0.0251
 1740TIP3    H1 5226   0.661   4.148   4.664 -3.3742  1.5719  0.4565
 1740TIP3    H2 5227   0.615   4.113   4.524  2.9164 -2.6472 -0.9724
 1741TIP3   OH2 5228   5.934   1.515   1.632  0.0972 -0.0213 -0.4067
 1741TIP3    H1 5229   5.872   1.580   1.598 -0.1376 -1.0037 -1.9742
 1741TIP3    H2 5230   6.015   1.531   1.584  0.5584  0.1769  0.4209
 1742TIP3   OH2 5231   0.353   5.728   4.146 -0.2088 -0.5139 -0.1756
 1742TIP3    H1 5232   0.410   5.691   4.214 -0.3230  0.3032  0.3811
 1742TIP3    H2 5233   0.401   5.804   4.113 -0.9934  0.2344  0.3553
 1743TIP3   OH2 5234   5.393   0.219   4.630 -0.0183 -0.2608  0.2622
 1743TIP3    H1 5235   5.326   0.285   4.613  1.5238  1.3645  0.1671
 1743TIP3    H2 5236   5.421   0.236   4.720  0.8366 -0.3578  0.0253
 1744TIP3   OH2 5237   3.557   2.332   4.460  0.1083 -0.3554 -0.2969
 1744TIP3    H1 5238   3.568   2.376   4.375  1.3170 -0.7720 -0.3728
 1744TIP3    H2 5239   3.481   2.274   4.447 -0.8120  0.8748 -0.5299
 1745TIP3   OH2 5240   2.282   1.075   4.634  0.4217  0.3254 -0.0843
 1745TIP3    H1 5241   2.347   1.126   4.586  0.4013 -0.0154 -0.4778
 1745TIP3    H2 5242   2.247   1.136   4.699  1.2505  0.4655  0.2415
 1746TIP3   OH2 5243   2.340   4.606   3.169  0.1404  0.5806  0.2840
 1746TIP3    H1 5244   2.370   4.536   3.228 -0.6751 -0.2041 -0.1945
 1746TIP3    H2 5245   2.322   4.680   3.226  1.0449  0.4138  0.8034
 1747TIP3   OH2 5246   0.123   1.055   4.791  0.3372 -0.4949 -0.2609
 1747TIP3    H1 5247   0.139   0.986   4.855  0.3783  1.7807  2.3520
 1747TIP3    H2 5248   0.210   1.088   4.769  0.2274 -0.0982 -0.1062
 1748TIP3   OH2 5249   3.104   5.645   2.888  0.0613 -0.3571 -0.2653
 1748TIP3    H1 5250   3.192   5.642   2.925  0.2911 -1.1935 -0.8374
 1748TIP3    H2 5251   3.089   5.737   2.867  1.1648 -0.3194 -0.9674
 1749TIP3   OH2 5252   6.289   0.619   4.830 -0.0742 -0.1040  0.0141
 1749TIP3    H1 5253   6.244   0.677   4.892 -1.1524 -0.1027 -0.7345
 1749TIP3    H2 5254   6.218   0.569   4.790  0.5475  0.2355 -1.5509
 1750TIP3   OH2 5255   3.022   0.970   2.252  0.1717  0.3014  0.3811
 1750TIP3    H1 5256   2.978   0.970   2.167  1.4473  0.6834 -0.3093
 1750TIP3    H2 5257   2.993   0.889   2.294 -0.8548  0.3517 -0.1995
 1751TIP3   OH2 5258   2.619   2.311   0.026  0.4310 -0.1143  0.0294
 1751TIP3    H1 5259   2.667   2.393   0.039  0.6311 -0.3967  1.2599
 1751TIP3    H2 5260   2.532   2.328   0.062 -0.1804  0.1562 -1.5075
 1752TIP3   OH2 5261   4.160   4.112   1.155  0.2533  0.0958 -0.5296
 1752TIP3    H1 5262   4.210   4.045   1.201  0.1159 -0.0287 -0.5596
 1752TIP3    H2 5263   4.162   4.084   1.063 -0.6094 -0.3856 -0.4119
 1753TIP3   OH2 5264   1.376   1.411   2.071 -0.2088 -0.0497  0.2335
 1753TIP3    H1 5265   1.347   1.374   2.154  0.2592 -2.2196 -0.5141
 1753TIP3    H2 5266   1.471   1.416   2.078 -0.2471  0.9114  0.2485
 1754TIP3   OH2 5267   0.884   0.825   1.370 -0.0837  0.1235 -0.4466
 1754TIP3    H1 5268   0.837   0.745   1.351  0.4617 -0.1322 -0.7339
 1754TIP3    H2 5269   0.829   0.895   1.333  0.6855 -0.3117 -2.5141
 1755TIP3   OH2 5270   0.674   3.923   0.748 -0.1339  0.1856  0.0395
 1755TIP3    H1 5271   0.716   3.963   0.672 -0.7913 -1.2324 -1.1284
 1755TIP3    H2 5272   0.724   3.844   0.765 -1.7193 -1.0533 -0.8054
 1756TIP3   OH2 5273   5.726   5.780   4.595 -0.2222 -0.8138  0.0985
 1756TIP3    H1 5274   5.718   5.875   4.587  0.0375 -0.7958  0.0323
 1756TIP3    H2 5275   5.808   5.767   4.643 -0.8420 -0.9713  1.1456
 1757TIP3   OH2 5276   2.077   2.887   3.727 -0.0634  0.1387 -0.1148
 1757TIP3    H1 5277   2.067   2.803   3.773  1.3607  0.0638  0.1032
 1757TIP3    H2 5278   2.009   2.886   3.661  0.4095 -1.5702 -0.6296
 1758TIP3   OH2 5279   3.274   4.474   3.735  0.2855 -0.2392  0.5608
 1758TIP3    H1 5280   3.221   4.413   3.787  0.2700  0.0387  0.8716
 1758TIP3    H2 5281   3.306   4.538   3.798  0.0159  0.2791  0.1708
 1759TIP3   OH2 5282   3.475   2.767   4.004  0.6123  0.8233 -0.5290
 1759TIP3    H1 5283   3.559   2.722   4.004  0.0406 -0.2696 -0.2894
 1759TIP3    H2 5284   3.470   2.810   4.090  1.3397  1.7153 -0.9193
 1760TIP3   OH2 5285   1.813   4.419   0.436 -0.4324 -0.0720 -0.4867
 1760TIP3    H1 5286   1.752   4.372   0.492 -0.2558 -2.2212 -1.9936
 1760TIP3    H2 5287   1.756   4.462   0.371 -0.4605 -0.2448 -0.5765
 1761TIP3   OH2 5288   4.934   4.775   2.996 -0.2706  0.2636 -0.5426
 1761TIP3    H1 5289   4.984   4.697   2.972  0.4652  0.1679  1.1336
 1761TIP3    H2 5290   4.976   4.846   2.948  2.6566  0.4547  2.0093
 1762TIP3   OH2 5291   6.048   3.510   0.152 -0.5593 -0.3218 -0.4916
 1762TIP3    H1 5292   6.083   3.599   0.161  0.1914 -0.5703 -0.8082
 1762TIP3    H2 5293   6.011   3.490   0.238  0.7097 -0.2898  0.0858
 1763TIP3   OH2 5294   4.570   1.712   1.407 -0.0118 -0.2554  0.0521
 1763TIP3    H1 5295   4.615   1.769   1.468  0.1615  1.6137 -1.7073
 1763TIP3    H2 5296   4.636   1.648   1.381  0.4371  0.0349  0.4682
 1764TIP3   OH2 5297   5.172   4.831   2.583 -0.3442  0.7103  0.1712
 1764TIP3    H1 5298   5.136   4.745   2.605 -0.6523  1.3537  2.4047
 1764TIP3    H2 5299   5.095   4.884   2.561 -0.4280  1.0936  1.3441
 1765TIP3   OH2 5300   0.169   1.491   2.332 -0.0244 -0.3100  0.1461
 1765TIP3    H1 5301   0.237   1.491   2.265  1.1835 -1.0394  1.3281
 1765TIP3    H2 5302   0.157   1.398   2.354  1.0111 -0.0072  2.2732
 1766TIP3   OH2 5303   4.144   0.904   3.846  0.5767 -0.6027 -0.1035
 1766TIP3    H1 5304   4.165   0.895   3.753  1.4039 -0.1443  0.0260
 1766TIP3    H2 5305   4.049   0.914   3.849  0.3822 -1.9614 -0.7862
 1767TIP3   OH2 5306   0.157   2.425   4.416 -0.6533  0.5675 -0.1774
 1767TIP3    H1 5307   0.126   2.337   4.437  0.5496  0.3900  0.9189
 1767TIP3    H2 5308   0.156   2.472   4.499  0.5804  0.9968 -0.3965
 1768TIP3   OH2 5309   4.936   5.297   0.844 -0.1690  0.2821  0.2131
 1768TIP3    H1 5310   4.950   5.203   0.833  0.8821  0.2528  1.5837
 1768TIP3    H2 5311   4.857   5.316   0.793 -0.1077 -1.2424 -0.4819
 1769TIP3   OH2 5312   3.769   2.438   0.972 -0.6786 -0.5183 -0.1790
 1769TIP3    H1 5313   3.717   2.392   0.906  0.5285 -1.0449 -0.8072
 1769TIP3    H2 5314   3.848   2.466   0.925 -1.0412  1.5924  0.3690
 1770TIP3   OH2 5315   4.165   1.469   2.399 -0.0231 -0.4600 -0.6033
 1770TIP3    H1 5316   4.086   1.428   2.432  0.7278 -0.3042  1.5700
 1770TIP3    H2 5317   4.143   1.497   2.310 -3.1610  1.5340  0.6300
 1771TIP3   OH2 5318   4.320   4.384   2.825  0.5641  0.0663 -0.0088
 1771TIP3    H1 5319   4.375   4.458   2.799  2.2877 -0.9652  0.4711
 1771TIP3    H2 5320   4.272   4.415   2.902 -0.0520  1.2134 -0.8347
 1772TIP3   OH2 5321   5.502   5.083   3.820 -0.1239  0.2187 -0.0612
 1772TIP3    H1 5322   5.447   5.146   3.775 -1.6649 -0.4898  0.7341
 1772TIP3    H2 5323   5.570   5.060   3.757 -1.5017  0.1549 -1.5728
 1773TIP3   OH2 5324   1.165   1.350   2.264 -0.2403 -0.0604 -0.6856
 1773TIP3    H1 5325   1.135   1.259   2.269 -1.4749  0.3772  0.4443
 1773TIP3    H2 5326   1.120   1.385   2.186 -1.0071 -0.0103 -0.2356
 1774TIP3   OH2 5327   5.565   3.437   2.173 -0.0411 -0.1783 -0.4123
 1774TIP3    H1 5328   5.507   3.513   2.173  1.5873  1.1625  1.5548
 1774TIP3    H2 5329   5.509   3.365   2.202 -1.3404  0.4993 -1.1445
 1775TIP3   OH2 5330   2.344   3.536   1.530  0.1356 -0.1254  0.4561
 1775TIP3    H1 5331   2.255   3.548   1.564  0.6224 -2.4173  2.8226
 1775TIP3    H2 5332   2.376   3.457   1.573  2.4789 -0.7853 -2.2068
 1776TIP3   OH2 5333   3.934   4.954   1.558  0.1435 -0.4544  0.5032
 1776TIP3    H1 5334   3.887   5.021   1.510  2.2812  0.5559 -0.3200
 1776TIP3    H2 5335   3.970   4.896   1.491  1.0284 -0.5158  1.0014
 1777TIP3   OH2 5336   5.203   3.440   1.913 -0.2479 -0.4898 -0.5681
 1777TIP3    H1 5337   5.169   3.364   1.959  0.5171 -0.3461  0.2507
 1777TIP3    H2 5338   5.293   3.416   1.891  0.6045  0.8085  1.2517
 1778TIP3   OH2 5339   3.956   3.844   1.026  0.3383 -0.8409  0.0726
 1778TIP3    H1 5340   3.918   3.780   0.966 -1.4309 -0.2504  0.4794
 1778TIP3    H2 5341   3.894   3.918   1.024  2.4466  1.0335 -0.6388
 1779TIP3   OH2 5342   6.287   4.933   1.600 -0.8617 -0.3319 -0.3603
 1779TIP3    H1 5343   6.193   4.944   1.613 -0.8274 -0.8310  0.3447
 1779TIP3    H2 5344   6.296   4.845   1.565 -0.6785 -0.1516 -0.7823
 1780TIP3   OH2 5345   1.553   3.236   4.698 -0.3832 -0.2969  0.6415
 1780TIP3    H1 5346   1.573   3.319   4.654 -0.7714  0.8996  2.5871
 1780TIP3    H2 5347   1.468   3.252   4.741 -1.5949 -2.4936 -0.7593
 1781TIP3   OH2 5348   3.653   4.465   2.383 -0.1804 -0.5986  0.0504
 1781TIP3    H1 5349   3.655   4.488   2.476  1.3922  1.0214 -0.3168
 1781TIP3    H2 5350   3.712   4.390   2.376  0.9595  0.2640  0.1629
 1782TIP3   OH2 5351   4.497   4.992   4.805 -0.2299 -0.0572  0.3585
 1782TIP3    H1 5352   4.470   5.029   4.889 -0.1729 -2.8551  1.7194
 1782TIP3    H2 5353   4.419   4.948   4.771  0.1322 -0.1723 -0.3419
 1783TIP3   OH2 5354   4.283   0.354   2.058  0.5623  0.4920 -0.6241
 1783TIP3    H1 5355   4.313   0.345   2.148 -0.5852 -1.0222 -0.3527
 1783TIP3    H2 5356   4.358   0.327   2.005  1.1528  1.1354 -0.1334
 1784TIP3   OH2 5357   4.840   1.240   1.178 -0.3481 -0.5761 -0.4988
 1784TIP3    H1 5358   4.899   1.218   1.251 -1.6516 -1.5703  0.3057
 1784TIP3    H2 5359   4.889   1.304   1.126  0.7625 -0.0988  1.0544
 1785TIP3   OH2 5360   0.874   0.658   5.029 -0.1801 -1.0060 -0.1459
 1785TIP3    H1 5361   0.861   0.719   5.102  0.5676  0.5432 -1.2694
 1785TIP3    H2 5362   0.838   0.575   5.061 -0.9186 -0.0796  1.5510
 1786TIP3   OH2 5363   3.540   0.023   0.412  0.2904 -0.3377 -0.7823
 1786TIP3    H1 5364   3.627   0.057   0.389 -0.0879  1.3281  0.1084
 1786TIP3    H2 5365   3.500   0.093   0.464 -1.3428 -1.3464 -0.6256
 1787TIP3   OH2 5366   3.302   2.338   5.102 -0.0416 -0.7428  0.1665
 1787TIP3    H1 5367   3.291   2.342   5.197  0.5072  1.2871  0.1817
 1787TIP3    H2 5368   3.218   2.368   5.067 -0.4695 -2.0895 -0.0458
 1788TIP3   OH2 5369   3.951   1.427   2.893 -0.2179 -0.6702  0.0432
 1788TIP3    H1 5370   3.878   1.480   2.925  0.0524 -0.4080  0.2258
 1788TIP3    H2 5371   3.928   1.338   2.917 -1.1980 -0.7829 -1.2093
 1789TIP3   OH2 5372   3.683   5.171   4.135  0.1370  0.4589  0.2472
 1789TIP3    H1 5373   3.653   5.080   4.135 -1.8434  1.0488  1.1417
 1789TIP3    H2 5374   3.656   5.205   4.221  1.3646  1.7401  0.1620
 1790TIP3   OH2 5375   2.258   0.633   2.316  0.5912  0.2767 -0.2771
 1790TIP3    H1 5376   2.230   0.661   2.229  0.3661 -1.2151 -0.7050
 1790TIP3    H2 5377   2.339   0.583   2.300  0.5059 -0.0718  0.3558
 1791TIP3   OH2 5378   0.935   3.059   1.999 -0.2576  0.2349  0.4665
 1791TIP3    H1 5379   1.017   3.032   2.041 -0.6094  0.7007  1.5092
 1791TIP3    H2 5380   0.874   3.071   2.073 -1.6134 -1.2335 -0.3490
 1792TIP3   OH2 5381   0.716   3.632   1.547  0.4392  0.1062 -0.5087
 1792TIP3    H1 5382   0.746   3.722   1.563  2.1808 -0.3847 -0.8194
 1792TIP3    H2 5383   0.624   3.642   1.521  0.6946  1.8233 -0.8977
 1793TIP3   OH2 5384   5.562   5.436   3.738  0.2186  0.6666  0.0789
 1793TIP3    H1 5385   5.576   5.361   3.796 -0.0915  0.2153 -0.4140
 1793TIP3    H2 5386   5.594   5.407   3.652  0.8371  1.3887  0.0575
 1794TIP3   OH2 5387   4.452   0.805   1.490  0.2074  0.0286 -0.3935
 1794TIP3    H1 5388   4.434   0.829   1.581  1.8279 -0.1217  0.0061
 1794TIP3    H2 5389   4.367   0.780   1.454 -0.7425  1.6844  0.5792
 1795TIP3   OH2 5390   4.205   3.819   0.962  0.4166  0.0646  0.3351
 1795TIP3    H1 5391   4.118   3.842   0.995  1.1397  0.7018  1.9185
 1795TIP3    H2 5392   4.235   3.749   1.020  0.5735 -0.8821 -0.8460
 1796TIP3   OH2 5393   4.540   2.717   0.219  0.1866  0.2121  0.0183
 1796TIP3    H1 5394   4.574   2.670   0.143 -2.8811  0.3685 -1.5761
 1796TIP3    H2 5395   4.519   2.804   0.186 -0.1591  0.6556  1.3385
 1797TIP3   OH2 5396   4.159   4.554   4.101 -0.7472 -0.4279 -0.2154
 1797TIP3    H1 5397   4.167   4.615   4.174 -0.7330 -1.2637  0.5026
 1797TIP3    H2 5398   4.066   4.552   4.080 -0.8316 -0.6081  0.1645
 1798TIP3   OH2 5399   2.256   2.277   4.458 -0.4534 -0.2126 -0.0574
 1798TIP3    H1 5400   2.301   2.244   4.380  0.9414 -1.2878  1.1380
 1798TIP3    H2 5401   2.283   2.369   4.465  4.6132 -1.5037  2.4311
 1799TIP3   OH2 5402   0.027   2.162   2.517 -0.6455 -0.1465 -0.2045
 1799TIP3    H1 5403   0.085   2.217   2.569  0.8703 -1.4244 -0.4708
 1799TIP3    H2 5404   0.002   2.091   2.576  1.9429 -2.2085 -1.3541
 1800TIP3   OH2 5405   0.907   0.227   1.090 -0.0484 -0.4830  1.0174
 1800TIP3    H1 5406   0.978   0.284   1.119 -0.7254 -0.1747  2.1287
 1800TIP3    H2 5407   0.944   0.179   1.016  1.1373  0.0490  1.2332
 1801TIP3   OH2 5408   5.389   5.646   3.841 -0.3705  0.0559  0.2446
 1801TIP3    H1 5409   5.457   5.595   3.796 -1.3287 -0.8449 -0.2137
 1801TIP3    H2 5410   5.369   5.595   3.920 -2.5122 -1.2005 -1.0394
 1802TIP3   OH2 5411   4.886   5.591   2.052 -0.5607  0.1099  0.8606
 1802TIP3    H1 5412   4.803   5.625   2.087  0.0442  0.4040  2.0820
 1802TIP3    H2 5413   4.897   5.636   1.969 -2.3507 -1.0535 -0.0820
 1803TIP3   OH2 5414   5.724   1.548   0.118  0.3948 -0.4940 -0.9632
 1803TIP3    H1 5415   5.803   1.602   0.115 -1.1484  2.0089  0.3417
 1803TIP3    H2 5416   5.702   1.534   0.026  1.2120  0.5544 -1.3411
 1804TIP3   OH2 5417   5.022   2.890   2.223 -0.0493  0.2935 -0.5098
 1804TIP3    H1 5418   4.940   2.930   2.253  0.4225  0.5264  0.5228
 1804TIP3    H2 5419   4.994   2.820   2.165 -1.0428 -0.3590  0.6985
 1805TIP3   OH2 5420   1.158   2.060   4.706  0.3856  0.7206 -0.4602
 1805TIP3    H1 5421   1.159   2.120   4.631  0.8938  0.1901 -0.8843
 1805TIP3    H2 5422   1.226   1.996   4.686  1.3632  1.2458  1.0047
 1806TIP3   OH2 5423   3.328   1.258   1.633  0.1481  0.2558  0.2636
 1806TIP3    H1 5424   3.330   1.229   1.725 -0.9621  2.5431  1.0741
 1806TIP3    H2 5425   3.397   1.324   1.627 -0.7093  1.1442 -0.1405
 1807TIP3   OH2 5426   6.182   2.573   4.606 -0.0707 -0.0353  0.4166
 1807TIP3    H1 5427   6.163   2.606   4.518 -1.8394  0.4996  0.9536
 1807TIP3    H2 5428   6.189   2.653   4.659 -1.1504 -0.4151  1.1415
 1808TIP3   OH2 5429   5.160   2.466   2.701 -0.0732 -0.1377 -0.0882
 1808TIP3    H1 5430   5.072   2.441   2.672 -0.3790  0.5357  0.2377
 1808TIP3    H2 5431   5.145   2.532   2.768  0.7164  1.3112 -1.2867
 1809TIP3   OH2 5432   4.775   0.406   3.066  0.5079 -0.2735 -0.5284
 1809TIP3    H1 5433   4.699   0.449   3.027  0.8869  1.0654  0.1560
 1809TIP3    H2 5434   4.755   0.402   3.159  1.5937  0.7975 -0.2308
 1810TIP3   OH2 5435   5.766   4.387   3.941  0.4335 -0.4644  0.1576
 1810TIP3    H1 5436   5.702   4.409   4.008  2.3580 -0.8015  2.2079
 1810TIP3    H2 5437   5.795   4.298   3.963  0.9246 -0.7088 -1.3071
 1811TIP3   OH2 5438   3.683   2.381   2.650 -0.1746  0.7473 -0.2057
 1811TIP3    H1 5439   3.689   2.395   2.745 -1.9189  1.5306 -0.1829
 1811TIP3    H2 5440   3.657   2.289   2.642  1.2174  0.3094  0.0025
 1812TIP3   OH2 5441   2.982   5.955   3.500  0.6655 -0.1178 -0.2481
 1812TIP3    H1 5442   2.990   6.035   3.448  1.0858  0.1013  0.1429
 1812TIP3    H2 5443   2.901   5.914   3.470  1.4888 -0.5993 -1.8842
 1813TIP3   OH2 5444   0.854   0.645   1.048  0.4184  0.1888  0.1258
 1813TIP3    H1 5445   0.901   0.604   1.120  1.6102  0.0914 -0.6853
 1813TIP3    H2 5446   0.843   0.736   1.075  0.1710 -0.0216  0.7527
 1814TIP3   OH2 5447   5.238   5.767   4.748  0.0261 -0.1271 -0.0181
 1814TIP3    H1 5448   5.308   5.828   4.772 -0.5380  0.6377 -0.2586
 1814TIP3    H2 5449   5.170   5.823   4.710  0.3981 -1.1596 -2.3261
 1815TIP3   OH2 5450   4.091   3.425   4.999 -0.0626  0.0199 -0.0899
 1815TIP3    H1 5451   4.148   3.487   5.045 -1.3450  1.0139  0.2179
 1815TIP3    H2 5452   4.133   3.413   4.913  2.2648 -1.7102  1.1649
 1816TIP3   OH2 5453   4.124   0.574   4.510  0.1860 -0.2159  0.0763
 1816TIP3    H1 5454   4.187   0.604   4.444  0.0890 -1.4444 -0.5979
 1816TIP3    H2 5455   4.172   0.511   4.563 -0.1367 -0.2734  0.3024
 1817TIP3   OH2 5456   3.783   4.275   4.780 -0.5499  0.3266  0.2216
 1817TIP3    H1 5457   3.828   4.264   4.696 -2.1817  0.3194 -0.6819
 1817TIP3    H2 5458   3.698   4.311   4.757 -0.7314  1.0917  1.9583
 1818TIP3   OH2 5459   2.236   4.921   0.030  0.0785  0.2373 -0.1253
 1818TIP3    H1 5460   2.152   4.966   0.037  0.1944  0.8441 -2.0716
 1818TIP3    H2 5461   2.214   4.835  -0.006  0.1975  0.0129  0.3321
 1819TIP3   OH2 5462   5.022   4.168   2.978  0.2880 -0.0383  0.6654
 1819TIP3    H1 5463   5.026   4.237   3.044 -0.7448 -0.0909  0.7923
 1819TIP3    H2 5464   4.987   4.092   3.025 -0.4672 -0.0736  0.0644
 1820TIP3   OH2 5465   0.806   1.405   4.533 -0.2521 -0.9338  0.4875
 1820TIP3    H1 5466   0.737   1.346   4.503 -0.2321 -0.8716  0.3200
 1820TIP3    H2 5467   0.835   1.367   4.616 -0.0809 -1.2892  0.2694
 1821TIP3   OH2 5468   6.086   5.277   2.927  0.1971 -0.0188 -0.1586
 1821TIP3    H1 5469   6.072   5.354   2.872  1.1850  0.7864  0.6741
 1821TIP3    H2 5470   6.055   5.303   3.013 -0.2691 -0.8737 -0.0541
 1822TIP3   OH2 5471   5.236   2.436   2.430  0.1521 -0.6877  0.3906
 1822TIP3    H1 5472   5.202   2.473   2.512  0.8290  0.0093  0.3733
 1822TIP3    H2 5473   5.318   2.483   2.416  0.1096 -0.9042 -0.6149
 1823TIP3   OH2 5474   1.766   2.434   5.094 -0.0358 -0.0680  0.5325
 1823TIP3    H1 5475   1.855   2.470   5.099  0.0574 -0.0234 -1.0069
 1823TIP3    H2 5476   1.760   2.375   5.168  2.4877 -2.6812 -1.1296
 1824TIP3   OH2 5477   3.747   3.188   3.753 -0.1052  0.2684 -0.0755
 1824TIP3    H1 5478   3.695   3.107   3.751  0.9042 -0.5396  2.2073
 1824TIP3    H2 5479   3.699   3.249   3.697 -2.2622 -1.1246  0.1214
 1825TIP3   OH2 5480   4.388   1.062   1.345  0.3307  0.0610 -0.4306
 1825TIP3    H1 5481   4.446   0.986   1.350  3.5094  2.2802  0.0341
 1825TIP3    H2 5482   4.402   1.096   1.257 -2.7670 -0.9945 -1.4358
 1826TIP3   OH2 5483   5.070   1.466   4.602 -0.2136 -0.1257 -0.0955
 1826TIP3    H1 5484   5.004   1.447   4.537  0.7575  0.2923 -1.2419
 1826TIP3    H2 5485   5.136   1.397   4.592 -0.6709 -0.8302  1.3671
 1827TIP3   OH2 5486   2.223   4.795   2.622 -0.1578 -0.0843 -0.1836
 1827TIP3    H1 5487   2.214   4.762   2.711  0.6805  2.0745  0.7691
 1827TIP3    H2 5488   2.142   4.768   2.579 -0.0766 -2.2005  0.8239
 1828TIP3   OH2 5489   1.491   1.125   0.780 -0.8891  0.0081 -0.1525
 1828TIP3    H1 5490   1.496   1.106   0.686  2.0941 -0.4465  0.0273
 1828TIP3    H2 5491   1.451   1.046   0.817 -1.2206 -0.1993 -0.9244
 1829TIP3   OH2 5492   0.714   1.371   0.995 -0.0142  0.3340 -0.4961
 1829TIP3    H1 5493   0.778   1.319   1.044 -0.8754 -1.3199 -1.0474
 1829TIP3    H2 5494   0.725   1.460   1.028  0.7114 -0.3877  1.3454
 1830TIP3   OH2 5495   3.686   4.036   3.214 -0.3454 -0.1230  0.1451
 1830TIP3    H1 5496   3.618   3.988   3.167 -0.8156  0.8417 -0.1860
 1830TIP3    H2 5497   3.646   4.120   3.237  0.7041  0.4532 -0.0157
 1831TIP3   OH2 5498   5.403   0.612   4.699 -0.6221 -0.1397 -0.3695
 1831TIP3    H1 5499   5.436   0.527   4.670  2.0051 -0.1392  2.2294
 1831TIP3    H2 5500   5.341   0.591   4.769 -0.5798  0.0601 -0.2719
 1832TIP3   OH2 5501   3.094   5.648   3.208  0.3970  0.8680 -0.2159
 1832TIP3    H1 5502   3.072   5.558   3.234  1.4022  1.1386  1.7674
 1832TIP3    H2 5503   3.030   5.669   3.140 -1.6807 -0.3774  1.2340
 1833TIP3   OH2 5504   0.447   3.011   3.724 -0.0548  0.4360 -0.0533
 1833TIP3    H1 5505   0.379   2.999   3.657 -0.6463  1.7013  0.2904
 1833TIP3    H2 5506   0.453   3.105   3.735 -0.4644  0.2574  2.1681
 1834TIP3   OH2 5507   1.445   0.481   0.489 -0.1386 -0.6032 -0.2881
 1834TIP3    H1 5508   1.509   0.539   0.447 -0.8677 -0.1816 -0.8378
 1834TIP3    H2 5509   1.400   0.537   0.552 -0.2555 -0.7894 -0.2070
 1835TIP3   OH2 5510   3.364   0.024   3.002  0.1046 -0.2750 -0.4466
 1835TIP3    H1 5511   3.446   0.070   3.022  0.0671 -0.3524 -0.1131
 1835TIP3    H2 5512   3.299   0.093   2.991 -0.4003 -0.2774  1.9937
 1836TIP3   OH2 5513   0.381   4.114   0.141  0.0929  0.0362  0.0867
 1836TIP3    H1 5514   0.383   4.114   0.045 -2.8612  0.4630 -0.0528
 1836TIP3    H2 5515   0.374   4.022   0.165  0.1403 -0.0220 -0.1159
 1837TIP3   OH2 5516   3.339   1.855   4.938  0.2680  0.0014  0.5397
 1837TIP3    H1 5517   3.414   1.798   4.953 -0.4458 -1.0079  0.3665
 1837TIP3    H2 5518   3.374   1.944   4.944  0.9257 -0.3674  3.4201
 1838TIP3   OH2 5519   2.902   2.122   3.775 -0.0572 -0.4889  0.1331
 1838TIP3    H1 5520   2.883   2.215   3.789  1.6575 -0.2506  1.0320
 1838TIP3    H2 5521   2.986   2.121   3.731 -0.2058 -1.6270 -0.1539
 1839TIP3   OH2 5522   5.909   1.987   5.192  0.5676 -0.3370 -0.7243
 1839TIP3    H1 5523   5.838   1.923   5.202 -1.7238  1.7742 -2.2945
 1839TIP3    H2 5524   5.941   1.974   5.103  2.8102 -1.7600  0.1955
 1840TIP3   OH2 5525   2.009   3.426   4.236 -0.2771  0.2779 -0.1171
 1840TIP3    H1 5526   1.943   3.414   4.305 -0.9833  0.7791 -0.6864
 1840TIP3    H2 5527   2.051   3.510   4.257  0.2148 -0.0571  0.2644
 1841TIP3   OH2 5528   1.397   3.578   3.055  0.2774 -0.8037 -0.1392
 1841TIP3    H1 5529   1.332   3.520   3.095 -0.1230  0.5080  1.1788
 1841TIP3    H2 5530   1.482   3.542   3.083  0.0366 -0.7864  0.6312
 1842TIP3   OH2 5531   4.892   1.671   2.323  0.1593 -0.8231 -0.0818
 1842TIP3    H1 5532   4.985   1.678   2.305  0.4908  1.5946  2.0033
 1842TIP3    H2 5533   4.886   1.667   2.419 -1.8756 -1.4578 -0.1830
 1843TIP3   OH2 5534   1.102   4.478   1.445  1.2505 -0.5757 -0.1279
 1843TIP3    H1 5535   1.116   4.550   1.506  1.0035 -1.7219  1.3133
 1843TIP3    H2 5536   1.190   4.444   1.428  1.2006 -1.1733  0.7513
 1844TIP3   OH2 5537   5.363   1.835   2.180 -0.0241  0.0402  0.1236
 1844TIP3    H1 5538   5.430   1.872   2.123 -1.2559 -0.1566 -1.5621
 1844TIP3    H2 5539   5.359   1.894   2.255  1.0150  0.8493 -0.4288
 1845TIP3   OH2 5540   0.368   0.964   0.977  0.0037 -0.0743  0.3146
 1845TIP3    H1 5541   0.367   1.030   1.046 -0.0333 -0.7679  0.9897
 1845TIP3    H2 5542   0.359   0.881   1.023 -0.7588 -0.5034 -0.5815
 1846TIP3   OH2 5543   5.014   4.923   4.663  0.0143  0.7832 -0.0154
 1846TIP3    H1 5544   5.016   4.938   4.758 -1.9683  0.6330  0.0977
 1846TIP3    H2 5545   5.024   5.010   4.625  1.9394  0.7302  0.2573
 1847TIP3   OH2 5546   0.821   1.612   0.859  0.1765 -0.1617 -0.0853
 1847TIP3    H1 5547   0.798   1.697   0.823  1.8261  0.2543 -0.2726
 1847TIP3    H2 5548   0.853   1.630   0.947  0.8192 -0.5300 -0.2311
 1848TIP3   OH2 5549   1.775   4.288   1.880  0.2720  0.4223  0.2075
 1848TIP3    H1 5550   1.757   4.379   1.856 -0.6229  0.6376  1.5385
 1848TIP3    H2 5551   1.774   4.240   1.798  0.2297  1.5417 -0.4613
 1849TIP3   OH2 5552   1.988   2.918   2.710 -0.2382  0.1208 -0.1023
 1849TIP3    H1 5553   1.999   2.973   2.787  0.1852  0.9358 -0.7235
 1849TIP3    H2 5554   2.035   2.837   2.730 -0.0413  0.3675  0.4403
 1850TIP3   OH2 5555   1.857   1.739   0.732  0.1541 -0.0980  0.5673
 1850TIP3    H1 5556   1.764   1.762   0.737  0.2070  0.1731  0.2495
 1850TIP3    H2 5557   1.894   1.775   0.813  0.5046  2.1339 -0.5302
 1851TIP3   OH2 5558   3.100   4.703   1.728  0.6012  0.0775 -0.4101
 1851TIP3    H1 5559   3.017   4.729   1.768  1.2671  1.5927  0.0898
 1851TIP3    H2 5560   3.165   4.758   1.772  2.3899 -3.3707  1.6467
 1852TIP3   OH2 5561   1.132   3.331   2.172  0.0878  0.6751 -0.0851
 1852TIP3    H1 5562   1.208   3.322   2.230  0.4939  0.8191 -0.5878
 1852TIP3    H2 5563   1.061   3.357   2.231  0.2923  0.0087  0.4727
 1853TIP3   OH2 5564   1.909   1.793   3.754  0.0926  0.5436 -0.4911
 1853TIP3    H1 5565   1.820   1.778   3.721 -0.2971  2.1455 -0.2662
 1853TIP3    H2 5566   1.966   1.748   3.692 -0.7711  1.2124 -1.8004
 1854TIP3   OH2 5567   4.877   2.191   3.888 -0.2810  0.0469 -0.0736
 1854TIP3    H1 5568   4.828   2.271   3.871 -0.1055  0.4497  1.1677
 1854TIP3    H2 5569   4.904   2.160   3.802  0.3917  1.7869 -0.5317
 1855TIP3   OH2 5570   6.079   3.785   0.102  0.2113 -0.0744  0.3786
 1855TIP3    H1 5571   6.056   3.743   0.019 -0.6871 -0.8520  1.0083
 1855TIP3    H2 5572   6.062   3.878   0.087 -1.6248 -0.4103  0.2348
 1856TIP3   OH2 5573   4.947   0.372   4.023 -0.0890 -0.4388 -0.2393
 1856TIP3    H1 5574   4.995   0.380   3.941  0.7649  1.6733  0.3964
 1856TIP3    H2 5575   4.865   0.419   4.007  0.6291  1.1255  0.4561
 1857TIP3   OH2 5576   0.283   3.561   4.028  0.2051  0.2134 -0.0420
 1857TIP3    H1 5577   0.304   3.650   4.054  0.3360 -0.0110  0.6273
 1857TIP3    H2 5578   0.288   3.562   3.932 -1.0543  1.2338 -0.1193
 1858TIP3   OH2 5579   5.734   3.814   2.165 -0.1001  0.3705 -0.6706
 1858TIP3    H1 5580   5.650   3.804   2.209 -0.6241  1.3618 -1.4153
 1858TIP3    H2 5581   5.787   3.866   2.224 -0.8984  1.9492 -1.2833
 1859TIP3   OH2 5582   1.184   4.365   0.169  0.4765  0.3533  0.1003
 1859TIP3    H1 5583   1.177   4.357   0.074  1.5713 -0.1578  0.0553
 1859TIP3    H2 5584   1.261   4.314   0.192  0.5806  0.9832  1.2036
 1860TIP3   OH2 5585   0.849   1.303   0.240 -0.1099  0.3582 -0.1064
 1860TIP3    H1 5586   0.861   1.387   0.194 -0.0575  0.3704 -0.0700
 1860TIP3    H2 5587   0.786   1.323   0.309  0.8781  0.6686  0.7143
 1861TIP3   OH2 5588   4.379   1.287   1.639 -0.6804 -0.6999  0.5076
 1861TIP3    H1 5589   4.369   1.366   1.585  0.8656  0.8932  2.4292
 1861TIP3    H2 5590   4.448   1.237   1.596 -0.8484 -0.4507 -0.0631
 1862TIP3   OH2 5591   2.893   0.396   0.915  0.2145 -0.3897  0.4953
 1862TIP3    H1 5592   2.891   0.358   1.004 -0.3818  2.2397  1.6900
 1862TIP3    H2 5593   2.801   0.394   0.887  0.5316 -2.1957 -0.5912
 1863TIP3   OH2 5594   4.798   5.630   2.566  0.0101  0.1128 -0.4345
 1863TIP3    H1 5595   4.867   5.606   2.629 -0.2294  1.3702  0.3537
 1863TIP3    H2 5596   4.839   5.617   2.481  1.4039  1.2150  0.0167
 1864TIP3   OH2 5597   0.973   3.630   1.367  0.1837  0.0452 -0.3928
 1864TIP3    H1 5598   0.886   3.613   1.402 -0.0806 -0.0880 -1.0878
 1864TIP3    H2 5599   1.015   3.686   1.432 -1.0384  1.5734 -0.8392
 1865TIP3   OH2 5600   1.338   2.051   0.142 -0.1315 -0.1949 -0.3507
 1865TIP3    H1 5601   1.309   2.110   0.212 -1.2077 -1.9759  0.7740
 1865TIP3    H2 5602   1.262   2.042   0.084 -0.0332 -0.5806 -0.4259
 1866TIP3   OH2 5603   0.106   4.812   3.945 -0.4002  0.3670 -0.3241
 1866TIP3    H1 5604   0.065   4.895   3.969 -1.9648 -0.5584  0.3828
 1866TIP3    H2 5605   0.131   4.773   4.029 -0.3059 -0.1852 -0.6068
 1867TIP3   OH2 5606   0.984   2.173   3.497 -0.4238 -0.1210 -0.1858
 1867TIP3    H1 5607   1.045   2.232   3.453 -0.0958 -1.4432 -1.6329
 1867TIP3    H2 5608   0.900   2.219   3.496  0.2555  1.1940  0.6995
 1868TIP3   OH2 5609   0.032   3.825   4.061  0.0882 -0.2736  0.1401
 1868TIP3    H1 5610   0.084   3.857   4.134  1.5652 -3.4675  0.6760
 1868TIP3    H2 5611   0.086   3.844   3.983  0.2186 -0.1122  0.2691
 1869TIP3   OH2 5612   3.691   2.980   1.953 -0.2199 -0.2842 -0.7929
 1869TIP3    H1 5613   3.694   2.884   1.952 -0.4106 -0.2914 -0.7198
 1869TIP3    H2 5614   3.598   3.001   1.963 -0.0605 -0.1075  0.5965
 1870TIP3   OH2 5615   2.454   0.818   3.301 -0.2618  0.0597  0.6962
 1870TIP3    H1 5616   2.410   0.876   3.362  0.2397 -1.7933  2.9509
 1870TIP3    H2 5617   2.539   0.859   3.286 -0.6240  0.8445  0.7462
 1871TIP3   OH2 5618   1.980   5.886   2.755  0.1763  0.0452  0.3002
 1871TIP3    H1 5619   1.982   5.792   2.740  1.7052 -0.0996  1.1866
 1871TIP3    H2 5620   1.896   5.902   2.799  0.5654 -1.1684  1.5678
 1872TIP3   OH2 5621   0.097   5.082   1.782 -0.2026 -0.1490 -0.7070
 1872TIP3    H1 5622   0.189   5.069   1.761  0.1389 -0.3520  0.7932
 1872TIP3    H2 5623   0.050   5.025   1.722  0.6623 -0.2347 -1.3221
 1873TIP3   OH2 5624   3.321   3.877   5.096  0.2340  0.8198 -0.3738
 1873TIP3    H1 5625   3.388   3.822   5.138 -0.3894 -0.2986 -0.8033
 1873TIP3    H2 5626   3.371   3.950   5.058  1.2438 -0.1136 -0.8945
 1874TIP3   OH2 5627   2.417   4.688   4.897 -0.6281  0.3852  0.0070
 1874TIP3    H1 5628   2.371   4.763   4.934 -1.2862 -0.5385  1.1252
 1874TIP3    H2 5629   2.412   4.700   4.802 -2.8156  0.5438  0.1016
 1875TIP3   OH2 5630   6.078   3.956   0.936 -0.5016 -0.4089 -0.1167
 1875TIP3    H1 5631   5.984   3.943   0.952 -0.1562  0.1404  3.0516
 1875TIP3    H2 5632   6.083   4.039   0.889 -1.6051 -0.1403  0.2071
 1876TIP3   OH2 5633   4.673   2.902   4.317 -0.2704  0.1781 -0.3912
 1876TIP3    H1 5634   4.654   2.994   4.335 -0.3085  0.1682 -0.3807
 1876TIP3    H2 5635   4.726   2.873   4.391  1.3145  0.6928 -1.2942
 1877TIP3   OH2 5636   3.579   1.044   2.125 -0.1138  0.2095  0.4644
 1877TIP3    H1 5637   3.606   1.011   2.210 -0.4626 -0.7849  0.2066
 1877TIP3    H2 5638   3.491   1.077   2.138  0.2841  1.2072  0.7529
 1878TIP3   OH2 5639   2.581   3.057   1.631 -0.2746  0.2174  0.1248
 1878TIP3    H1 5640   2.527   2.978   1.627 -0.6429  0.4055  1.1173
 1878TIP3    H2 5641   2.669   3.026   1.611 -0.3616 -0.5183  0.8175
 1879TIP3   OH2 5642   5.638   1.164   2.086 -0.1688  0.1033  0.4771
 1879TIP3    H1 5643   5.625   1.255   2.060  0.5380 -0.1863 -0.9582
 1879TIP3    H2 5644   5.624   1.164   2.181 -3.2599  1.1386  0.1300
 1880TIP3   OH2 5645   1.125   3.497  -0.020 -0.2899 -0.8625 -0.0241
 1880TIP3    H1 5646   1.096   3.489   0.071 -3.1545  0.1996 -0.7412
 1880TIP3    H2 5647   1.205   3.549  -0.015 -0.4096 -0.7931  1.8846
 1881TIP3   OH2 5648   2.465   5.433   2.740 -0.4521 -0.0387  0.7843
 1881TIP3    H1 5649   2.463   5.431   2.645 -0.9759 -0.1597  0.7966
 1881TIP3    H2 5650   2.454   5.342   2.767  3.0036 -0.5597  0.9316
 1882TIP3   OH2 5651   5.834   2.972   2.056  0.3451 -0.0858  0.1668
 1882TIP3    H1 5652   5.825   3.038   2.125 -1.1305 -1.3746  1.2680
 1882TIP3    H2 5653   5.747   2.967   2.016  0.4906 -1.1932 -0.0379
 1883TIP3   OH2 5654   6.118   5.206   0.854 -0.5437 -0.5437  0.2159
 1883TIP3    H1 5655   6.064   5.188   0.777  1.0587 -0.5666 -0.9587
 1883TIP3    H2 5656   6.145   5.297   0.843 -1.1281 -0.2094  1.3266
 1884TIP3   OH2 5657   0.426   5.631   1.765  0.4276  0.4722  0.7803
 1884TIP3    H1 5658   0.382   5.553   1.798  1.7591 -0.7362 -0.1364
 1884TIP3    H2 5659   0.383   5.650   1.682  0.9623 -0.1105  0.3613
 1885TIP3   OH2 5660   2.449   3.355   0.630  0.3444 -0.0836  0.4176
 1885TIP3    H1 5661   2.495   3.299   0.692  1.3270  1.5864  1.2751
 1885TIP3    H2 5662   2.477   3.324   0.544 -0.9080 -2.3223  0.7240
 1886TIP3   OH2 5663   3.192   5.703   0.687  0.3173 -0.2951 -0.3966
 1886TIP3    H1 5664   3.279   5.680   0.655  0.2706 -2.8415  1.0103
 1886TIP3    H2 5665   3.134   5.686   0.613  0.6141 -2.6607 -0.1923
 1887TIP3   OH2 5666   4.063   3.737   4.758 -0.4232  0.9310 -0.1792
 1887TIP3    H1 5667   4.009   3.805   4.798  1.3948  0.5785  3.2584
 1887TIP3    H2 5668   4.138   3.783   4.722 -0.6779  0.9871 -0.6490
 1888TIP3   OH2 5669   5.313   3.831   5.081  0.7942  0.2936  0.3284
 1888TIP3    H1 5670   5.301   3.824   4.986  0.0425  0.0640  0.4357
 1888TIP3    H2 5671   5.408   3.839   5.092  1.1516 -2.1845 -0.3106
 1889TIP3   OH2 5672   2.785   5.868   2.962 -0.4769  0.2097 -0.2439
 1889TIP3    H1 5673   2.862   5.853   2.907 -1.5529 -0.5058 -1.6028
 1889TIP3    H2 5674   2.792   5.802   3.031  0.0321  0.0333 -0.4582
 1890TIP3   OH2 5675   4.495   3.766   3.083  0.0576  0.1595 -0.1380
 1890TIP3    H1 5676   4.480   3.738   2.992  0.9618  1.1304 -0.6094
 1890TIP3    H2 5677   4.570   3.714   3.111 -0.0658  0.0396 -0.0307
 1891TIP3   OH2 5678   1.744   1.272   1.866 -0.0847 -0.5441  0.3976
 1891TIP3    H1 5679   1.799   1.331   1.917 -0.8470  1.6352 -1.1400
 1891TIP3    H2 5680   1.806   1.225   1.809  0.3354  1.9571 -1.3905
 1892TIP3   OH2 5681   3.603   3.693   4.783 -0.2031 -0.0259  0.4187
 1892TIP3    H1 5682   3.681   3.684   4.838 -0.8274 -0.3838  1.2572
 1892TIP3    H2 5683   3.638   3.702   4.694  0.9066  2.2992  1.0120
 1893TIP3   OH2 5684   1.394   3.916   0.572 -0.2087 -0.1765 -0.6448
 1893TIP3    H1 5685   1.365   3.833   0.610  0.4664 -0.4137 -0.6448
 1893TIP3    H2 5686   1.416   3.970   0.647  2.0295 -0.9641 -0.6499
 1894TIP3   OH2 5687   3.622   3.602   1.648  0.2902 -0.4148 -0.4876
 1894TIP3    H1 5688   3.666   3.517   1.645 -0.2248 -0.7048  0.0465
 1894TIP3    H2 5689   3.660   3.646   1.724 -0.8182 -0.9439  0.3994
 1895TIP3   OH2 5690   0.284   2.440   0.200  0.4831  0.0071  0.8070
 1895TIP3    H1 5691   0.326   2.519   0.231 -0.8341  0.4952  1.4180
 1895TIP3    H2 5692   0.216   2.421   0.264  0.8191 -1.6855  0.7313
 1896TIP3   OH2 5693   3.526   2.460   3.613  0.6920  0.1794 -0.2274
 1896TIP3    H1 5694   3.581   2.386   3.588  0.5779 -0.0835  0.2827
 1896TIP3    H2 5695   3.443   2.445   3.568 -0.2805 -1.4606  1.9735
 1897TIP3   OH2 5696   5.254   1.356   4.289  0.1179  0.3648 -0.5292
 1897TIP3    H1 5697   5.169   1.360   4.246 -0.9902 -2.3598  1.1850
 1897TIP3    H2 5698   5.237   1.315   4.373  2.7292  2.3247  1.1133
 1898TIP3   OH2 5699   1.463   5.784   3.026  0.4046 -0.1232  0.7772
 1898TIP3    H1 5700   1.490   5.856   3.084  0.7914  0.4385 -0.0833
 1898TIP3    H2 5701   1.382   5.752   3.064  0.0302  1.0130  0.9823
 1899TIP3   OH2 5702   2.624   0.127   5.028  0.1796  0.0807  0.1961
 1899TIP3    H1 5703   2.700   0.117   5.085  1.3305  1.2551 -1.0416
 1899TIP3    H2 5704   2.659   0.168   4.949 -2.0007  2.4066  0.2849
 1900TIP3   OH2 5705   4.160   5.138   3.450  0.2133  0.3141 -0.2056
 1900TIP3    H1 5706   4.210   5.086   3.512  1.0767  0.6859 -0.5632
 1900TIP3    H2 5707   4.111   5.074   3.399 -0.0465 -0.0295  0.4663
 1901TIP3   OH2 5708   2.355   1.217   1.221  0.0809  0.2530 -0.0180
 1901TIP3    H1 5709   2.334   1.242   1.131  0.2916 -2.2118 -0.8224
 1901TIP3    H2 5710   2.434   1.268   1.242 -0.4665  1.5070 -0.8716
 1902TIP3   OH2 5711   4.493   2.174   0.448 -0.0865  0.7919 -0.6658
 1902TIP3    H1 5712   4.538   2.205   0.370  2.3642  0.2904  0.4548
 1902TIP3    H2 5713   4.534   2.222   0.520  1.4931 -2.4651  0.8014
 1903TIP3   OH2 5714   5.534   1.866   4.069 -0.4047 -0.2678  0.0914
 1903TIP3    H1 5715   5.535   1.923   3.992 -0.5392 -1.9718 -1.2244
 1903TIP3    H2 5716   5.443   1.868   4.098 -0.4531  0.0222 -0.0712
 1904TIP3   OH2 5717   4.399   2.689   3.032  0.2998 -0.0481 -0.0847
 1904TIP3    H1 5718   4.445   2.690   3.117  1.3233 -1.0430 -0.6023
 1904TIP3    H2 5719   4.470   2.690   2.967 -0.4358 -0.6729 -0.9168
 1905TIP3   OH2 5720   2.946   0.396   3.877 -0.2587  0.0480 -0.1591
 1905TIP3    H1 5721   2.950   0.321   3.937 -0.4550  0.7046  0.6896
 1905TIP3    H2 5722   3.030   0.393   3.831 -0.4259 -0.9285 -0.4358
 1906TIP3   OH2 5723   0.979   4.197   3.158 -0.0082 -0.1931 -0.1141
 1906TIP3    H1 5724   1.074   4.185   3.163 -0.0512 -0.9306 -0.8552
 1906TIP3    H2 5725   0.947   4.119   3.114 -0.7645  0.7983 -1.4276
 1907TIP3   OH2 5726   0.593   1.383   3.156 -0.3335  0.0825  0.2750
 1907TIP3    H1 5727   0.567   1.475   3.145 -0.4446  0.1430  0.9784
 1907TIP3    H2 5728   0.674   1.388   3.208  0.5676 -0.1492 -1.0537
 1908TIP3   OH2 5729   0.071   5.511   4.467  0.7695 -0.1415  0.0442
 1908TIP3    H1 5730   0.094   5.483   4.555 -0.4643  0.6617  0.6634
 1908TIP3    H2 5731   0.012   5.443   4.435 -0.1863  0.4291  0.5475
 1909TIP3   OH2 5732   1.862   1.392   2.996  0.0467  0.7549 -0.7718
 1909TIP3    H1 5733   1.932   1.456   2.982  2.3959 -1.3706  0.2350
 1909TIP3    H2 5734   1.835   1.406   3.087  0.1125  0.7695 -0.7537
 1910TIP3   OH2 5735   1.632   1.708   3.622  0.0969  0.1473  0.8167
 1910TIP3    H1 5736   1.621   1.692   3.529  1.5033  0.9811  0.4683
 1910TIP3    H2 5737   1.610   1.625   3.664 -0.5705 -0.2286 -0.2486
 1911TIP3   OH2 5738   1.371   4.469   1.401 -0.1834 -0.5240 -0.4810
 1911TIP3    H1 5739   1.424   4.542   1.370  1.8992 -1.4710  0.7093
 1911TIP3    H2 5740   1.404   4.393   1.352  1.4783 -1.5966  2.1129
 1912TIP3   OH2 5741   2.772   1.826   4.575 -0.1702 -0.6077  0.1374
 1912TIP3    H1 5742   2.705   1.793   4.634 -2.4449  2.4947 -0.5003
 1912TIP3    H2 5743   2.835   1.870   4.631 -2.1344  2.0201  0.4218
 1913TIP3   OH2 5744   2.524   1.901   3.083 -0.3095 -0.2140 -0.0920
 1913TIP3    H1 5745   2.522   1.994   3.060 -1.6090  0.4622  2.3941
 1913TIP3    H2 5746   2.524   1.856   2.999 -0.2261  2.0151 -1.3813
 1914TIP3   OH2 5747   4.438   3.270   0.808  0.3862  0.5159  0.1363
 1914TIP3    H1 5748   4.380   3.202   0.772  0.1763 -0.1080  1.5860
 1914TIP3    H2 5749   4.501   3.286   0.738  1.7323 -2.7048  0.4244
 1915TIP3   OH2 5750   3.990   1.540   4.646 -0.1109  0.0410 -0.0353
 1915TIP3    H1 5751   3.944   1.467   4.605 -0.4751  0.1460  0.1869
 1915TIP3    H2 5752   3.983   1.612   4.583  0.4731 -0.1884 -0.3703
 1916TIP3   OH2 5753   4.892   4.506   2.044  0.7808  0.2352 -0.2993
 1916TIP3    H1 5754   4.797   4.521   2.042  0.6146 -0.6943 -0.0948
 1916TIP3    H2 5755   4.905   4.449   2.120  1.5275  0.4952 -0.2321
 1917TIP3   OH2 5756   4.547   4.254   4.138  0.4511  0.4103 -0.5746
 1917TIP3    H1 5757   4.578   4.328   4.190 -0.5828  0.7030 -0.3474
 1917TIP3    H2 5758   4.589   4.178   4.178 -0.2364  0.6407  0.6475
 1918TIP3   OH2 5759   0.465   5.123   0.898 -0.0935 -0.4305  0.0808
 1918TIP3    H1 5760   0.508   5.040   0.920 -0.3394 -0.2322  1.4457
 1918TIP3    H2 5761   0.525   5.165   0.836  1.3001 -0.5375  1.2851
 1919TIP3   OH2 5762   1.297   4.293   2.870  0.1156  0.1274 -0.1875
 1919TIP3    H1 5763   1.365   4.274   2.935 -0.2301  2.1224  0.8230
 1919TIP3    H2 5764   1.255   4.208   2.854  0.7440 -0.5650  1.5829
 1920TIP3   OH2 5765   2.195   0.539   3.319  0.1613  0.5594  0.0823
 1920TIP3    H1 5766   2.194   0.575   3.230  0.3119 -0.7021 -0.4518
 1920TIP3    H2 5767   2.223   0.612   3.374  2.9608  0.6356 -1.2588
 1921TIP3   OH2 5768   1.174   2.871   4.854 -0.0635 -0.3615  0.0703
 1921TIP3    H1 5769   1.233   2.831   4.791 -0.8783 -1.5098  0.0173
 1921TIP3    H2 5770   1.224   2.874   4.935  0.2972 -0.7165 -0.1380
 1922TIP3   OH2 5771   2.548   4.285   3.929  0.1339 -0.1747 -0.7888
 1922TIP3    H1 5772   2.584   4.363   3.886  1.2806  0.5506  1.2970
 1922TIP3    H2 5773   2.623   4.226   3.937  0.3808  0.3133  1.3715
 1923TIP3   OH2 5774   3.608   0.074   4.233 -0.1424 -0.1331 -0.9456
 1923TIP3    H1 5775   3.678   0.030   4.184 -1.5554  0.7468 -4.0108
 1923TIP3    H2 5776   3.574   0.140   4.172 -0.8564  2.3911  1.9725
 1924TIP3   OH2 5777   4.114   0.095   0.708 -0.8275 -0.3332 -0.0604
 1924TIP3    H1 5778   4.081   0.151   0.638 -1.5864  0.4850  0.9288
 1924TIP3    H2 5779   4.043   0.033   0.725 -1.2950  0.4680  1.0333
 1925TIP3   OH2 5780   0.222   5.024   4.149  0.1423  0.4450  0.0314
 1925TIP3    H1 5781   0.244   4.941   4.107 -0.0811  1.0572 -1.3339
 1925TIP3    H2 5782   0.291   5.084   4.120 -0.0705  0.9109  0.4784
 1926TIP3   OH2 5783   2.530   5.023   5.055 -0.5208 -0.1025  0.6495
 1926TIP3    H1 5784   2.502   5.109   5.086 -1.1872 -0.1090  0.1048
 1926TIP3    H2 5785   2.451   4.969   5.062 -0.2347 -0.5394  0.5236
 1927TIP3   OH2 5786   3.741   4.942   5.075 -0.3265 -0.1170 -0.0017
 1927TIP3    H1 5787   3.670   4.972   5.018  0.6018 -0.4742 -1.3702
 1927TIP3    H2 5788   3.720   4.850   5.092  0.1568 -0.4161 -0.9718
 1928TIP3   OH2 5789   1.520   0.547   3.867 -0.3996  0.2834 -0.1116
 1928TIP3    H1 5790   1.509   0.452   3.868 -1.7438  0.4090 -0.6002
 1928TIP3    H2 5791   1.564   0.565   3.783  1.0358  0.0027  0.5598
 1929TIP3   OH2 5792   5.625   3.893   3.681  0.3459  0.2955 -0.3732
 1929TIP3    H1 5793   5.719   3.911   3.691  0.5130 -0.8244  0.2165
 1929TIP3    H2 5794   5.621   3.808   3.638 -0.3116 -1.3032  2.5546
 1930TIP3   OH2 5795   6.345   4.284   3.281  1.1225 -0.5811 -0.1413
 1930TIP3    H1 5796   6.399   4.343   3.229  1.2402 -1.5248 -1.1161
 1930TIP3    H2 5797   6.256   4.315   3.267  1.3762  1.3691  1.9654
 1931TIP3   OH2 5798   0.839   4.895   1.265  0.0183  0.5049  0.5409
 1931TIP3    H1 5799   0.835   4.804   1.293  1.4049  0.7854  1.7766
 1931TIP3    H2 5800   0.902   4.896   1.193 -1.5916  0.1971 -0.9411
 1932TIP3   OH2 5801   2.711   3.995   0.506  0.5281  0.4171 -0.2184
 1932TIP3    H1 5802   2.690   4.050   0.431  0.1816  0.2313 -0.2588
 1932TIP3    H2 5803   2.693   4.051   0.582 -1.2395 -0.0934 -0.2125
 1933TIP3   OH2 5804   0.816   5.515   0.585 -0.0878  0.5654  0.2550
 1933TIP3    H1 5805   0.808   5.564   0.503  1.6711  1.2889  0.4673
 1933TIP3    H2 5806   0.872   5.570   0.640 -0.4719 -0.3446  1.6052
 1934TIP3   OH2 5807   1.177   5.901   2.580  0.2061  0.0649 -0.3663
 1934TIP3    H1 5808   1.148   5.861   2.662 -0.0946 -0.8076 -0.8960
 1934TIP3    H2 5809   1.160   5.994   2.592  1.5534  0.1697  1.1540
 1935TIP3   OH2 5810   4.552   3.392   4.879  0.4252 -0.4449 -0.2634
 1935TIP3    H1 5811   4.517   3.427   4.797  1.5027  1.0405 -0.1326
 1935TIP3    H2 5812   4.647   3.398   4.869  0.5867 -1.2280  0.6880
 1936TIP3   OH2 5813   4.448   2.855   3.626 -0.0007 -0.2879  0.2843
 1936TIP3    H1 5814   4.367   2.809   3.605 -1.4549  1.9903  0.5994
 1936TIP3    H2 5815   4.446   2.934   3.571  1.1044  0.6955  1.5924
 1937TIP3   OH2 5816   1.057   5.037   2.105 -0.3649  0.3456  0.0072
 1937TIP3    H1 5817   0.999   4.966   2.132 -0.3728 -0.3250 -1.5967
 1937TIP3    H2 5818   1.046   5.042   2.010  1.8529  0.4802 -0.3134
 1938TIP3   OH2 5819   2.447   3.684   3.368 -0.2061 -0.3675  0.5123
 1938TIP3    H1 5820   2.416   3.749   3.305  0.7996 -0.2571  0.1090
 1938TIP3    H2 5821   2.542   3.693   3.367 -0.1068 -1.2019  1.1543
 1939TIP3   OH2 5822   4.745   0.891   1.643 -0.2497  0.2857  0.1977
 1939TIP3    H1 5823   4.737   0.818   1.581  1.1352 -0.3181  0.6840
 1939TIP3    H2 5824   4.739   0.849   1.729  0.9049  0.6853  0.4879
 1940TIP3   OH2 5825   4.518   5.485   4.277  0.3992  0.0288  0.1013
 1940TIP3    H1 5826   4.437   5.476   4.327  1.2722 -0.9151  1.4096
 1940TIP3    H2 5827   4.580   5.525   4.338  1.4127 -0.8783 -0.3008
 1941TIP3   OH2 5828   5.284   3.731   3.856 -0.3986  0.6963 -0.5473
 1941TIP3    H1 5829   5.368   3.760   3.894  0.1366 -0.8686 -0.4502
 1941TIP3    H2 5830   5.224   3.803   3.873  0.4586  1.0774  1.0938
 1942TIP3   OH2 5831   2.562   1.883   4.952 -0.4383 -0.3367  1.1400
 1942TIP3    H1 5832   2.545   1.789   4.946  2.1850 -0.8101 -2.7088
 1942TIP3    H2 5833   2.491   1.924   4.902 -0.3340 -0.5191  0.8382
 1943TIP3   OH2 5834   1.894   5.210   4.352 -0.8055  0.4880  0.0097
 1943TIP3    H1 5835   1.876   5.117   4.365 -2.2853  0.7022 -0.3947
 1943TIP3    H2 5836   1.988   5.214   4.333 -0.4427 -0.7702  1.3666
 1944TIP3   OH2 5837   3.961   5.983   0.778 -0.0119 -0.2265  0.5686
 1944TIP3    H1 5838   3.911   5.954   0.703 -0.1232 -1.2185  1.0055
 1944TIP3    H2 5839   3.976   5.903   0.829 -0.4417  0.5077  1.8968
 1945TIP3   OH2 5840   4.772   3.265   2.874 -0.7303 -0.2859 -0.0016
 1945TIP3    H1 5841   4.754   3.171   2.869 -0.7380 -0.3813  1.4421
 1945TIP3    H2 5842   4.849   3.277   2.818 -0.2888 -1.2821  0.3655
 1946TIP3   OH2 5843   5.638   4.793   3.311  0.2199 -0.2039 -0.2384
 1946TIP3    H1 5844   5.649   4.732   3.238 -2.0993 -0.3416 -0.5576
 1946TIP3    H2 5845   5.670   4.876   3.277  1.9295 -0.8838 -0.3509
 1947TIP3   OH2 5846   5.503   1.591   1.567 -0.0695  0.2566  0.2526
 1947TIP3    H1 5847   5.496   1.675   1.614 -3.0760 -0.7106  1.7329
 1947TIP3    H2 5848   5.468   1.609   1.480  0.5921  0.8216  0.0912
 1948TIP3   OH2 5849   0.688   0.034   2.288 -0.2925 -0.1678 -0.1006
 1948TIP3    H1 5850   0.655   0.027   2.198 -1.2958 -1.6654  0.3486
 1948TIP3    H2 5851   0.782   0.018   2.280 -0.0206  1.7412 -1.1101
 1949TIP3   OH2 5852   0.722   2.209   1.288  0.5098 -0.4040 -0.5910
 1949TIP3    H1 5853   0.694   2.295   1.257  0.2978  0.1578  1.0456
 1949TIP3    H2 5854   0.800   2.227   1.341 -1.1947 -0.7601  2.2381
 1950TIP3   OH2 5855   3.491   3.778   0.854  0.4279  0.0686  0.1799
 1950TIP3    H1 5856   3.419   3.720   0.831  1.5764 -0.8752 -1.1865
 1950TIP3    H2 5857   3.535   3.797   0.771  1.2660  1.2921  0.8625
 1951TIP3   OH2 5858   3.323   1.968   3.916  0.1653  0.2294 -0.2671
 1951TIP3    H1 5859   3.354   1.920   3.838  2.2210 -0.4299  0.8894
 1951TIP3    H2 5860   3.267   2.037   3.880  0.2821 -0.6197 -2.2589
 1952TIP3   OH2 5861   4.617   1.893   2.426  0.1076 -0.3931 -0.5230
 1952TIP3    H1 5862   4.615   1.986   2.404 -1.8150 -0.0588  0.7989
 1952TIP3    H2 5863   4.625   1.849   2.342  2.3661  0.9501 -1.0893
 1953TIP3   OH2 5864   1.680   3.573   4.803  0.5847 -0.0254 -0.1411
 1953TIP3    H1 5865   1.774   3.566   4.791  0.7886  0.6282  0.9388
 1953TIP3    H2 5866   1.667   3.661   4.839 -0.5714  0.4110 -1.5213
 1954TIP3   OH2 5867   5.766   0.155   0.399 -0.1871 -0.6007  0.0222
 1954TIP3    H1 5868   5.845   0.200   0.368  1.6475 -2.7461  1.2395
 1954TIP3    H2 5869   5.765   0.172   0.494 -2.3097  0.9103 -0.1881
 1955TIP3   OH2 5870   0.445   0.366   3.800  0.0066  0.0637 -0.3055
 1955TIP3    H1 5871   0.482   0.444   3.841 -1.7024 -0.0890  1.6649
 1955TIP3    H2 5872   0.520   0.310   3.782  0.8778 -0.2043  3.4289
 1956TIP3   OH2 5873   4.464   0.446   3.927 -0.3960  0.3345 -0.5196
 1956TIP3    H1 5874   4.489   0.525   3.878 -1.1818  0.3857 -0.8546
 1956TIP3    H2 5875   4.520   0.377   3.891 -0.2745  0.5764 -0.8031
 1957TIP3   OH2 5876   4.599   2.348   0.254  0.3613  0.0808  0.4310
 1957TIP3    H1 5877   4.669   2.411   0.234 -0.5441  1.3849  1.2110
 1957TIP3    H2 5878   4.549   2.341   0.172 -0.1617  1.2442  0.6238
 1958TIP3   OH2 5879   5.779   0.293   3.511  0.5594 -0.3247 -0.6910
 1958TIP3    H1 5880   5.845   0.352   3.547 -0.4248  1.0530 -1.0353
 1958TIP3    H2 5881   5.818   0.259   3.431  1.4252 -0.7075 -0.1144
 1959TIP3   OH2 5882   5.903   3.702   4.346  0.0353 -0.0456 -0.4916
 1959TIP3    H1 5883   5.961   3.627   4.337  0.6439  0.1447  1.3877
 1959TIP3    H2 5884   5.928   3.742   4.429 -0.9770  1.6379 -0.9407
 1960TIP3   OH2 5885   2.574   5.480   0.879 -0.3047 -0.3130  0.6173
 1960TIP3    H1 5886   2.609   5.481   0.790 -0.4556  0.4220  0.5654
 1960TIP3    H2 5887   2.508   5.411   0.877 -0.9735  0.3320 -0.1064
 1961TIP3   OH2 5888   5.313   0.630   3.989  0.0562  0.5047 -0.0684
 1961TIP3    H1 5889   5.356   0.714   4.000 -1.3083  1.1781  0.2809
 1961TIP3    H2 5890   5.322   0.587   4.075 -1.5626  1.4351  0.6091
 1962TIP3   OH2 5891   5.688   4.187   0.926  0.1990 -0.4120  0.0690
 1962TIP3    H1 5892   5.691   4.261   0.987 -0.8764  0.6670 -1.1085
 1962TIP3    H2 5893   5.748   4.123   0.963  0.2986  0.5832  1.7418
 1963TIP3   OH2 5894   0.576   0.591   3.885  0.5789 -0.1629  0.1091
 1963TIP3    H1 5895   0.665   0.583   3.852  0.5658 -1.2865  0.3240
 1963TIP3    H2 5896   0.585   0.636   3.969  0.7125  1.7337 -0.8498
 1964TIP3   OH2 5897   0.092   1.613   3.819 -0.3777 -0.0577  0.5186
 1964TIP3    H1 5898   0.184   1.637   3.807 -0.2242 -0.6288  0.4964
 1964TIP3    H2 5899   0.073   1.633   3.910  0.0844 -0.9210  0.8193
 1965TIP3   OH2 5900   0.703   2.769   2.661 -0.5920 -0.1873 -0.6327
 1965TIP3    H1 5901   0.651   2.720   2.598 -1.7233 -1.7802  1.4250
 1965TIP3    H2 5902   0.749   2.703   2.712  0.2331  1.0347  0.2840
 1966TIP3   OH2 5903   2.473   3.490   3.878 -0.2774  0.0970  0.4655
 1966TIP3    H1 5904   2.443   3.581   3.875  0.4268  0.3337  0.3714
 1966TIP3    H2 5905   2.392   3.438   3.877 -0.6731  0.6978 -0.1437
 1967TIP3   OH2 5906   3.953   4.487   4.870  0.0188  0.3666  0.4447
 1967TIP3    H1 5907   3.915   4.400   4.865 -1.4784  1.0114 -3.3522
 1967TIP3    H2 5908   3.891   4.538   4.922 -0.2188 -0.3608  0.8804
 1968TIP3   OH2 5909   4.053   5.665   1.393  0.2253 -0.4961  0.3950
 1968TIP3    H1 5910   4.135   5.620   1.411  1.0006 -0.0398 -1.6321
 1968TIP3    H2 5911   3.985   5.598   1.405  1.0355 -1.2809  0.6813
 1969TIP3   OH2 5912   2.935   1.423   1.356 -0.4207 -0.3821  0.1457
 1969TIP3    H1 5913   2.971   1.334   1.359 -2.3359 -1.1955  0.7657
 1969TIP3    H2 5914   2.932   1.450   1.448 -0.0926  0.2378 -0.0191
 1970TIP3   OH2 5915   5.761   1.725   1.538 -0.0104 -0.1455 -0.3840
 1970TIP3    H1 5916   5.805   1.800   1.579  0.0178  0.2397 -1.1033
 1970TIP3    H2 5917   5.669   1.735   1.564  0.2618 -0.8584  0.9797
 1971TIP3   OH2 5918   3.293   3.037   3.168 -0.1513 -0.2489  0.0287
 1971TIP3    H1 5919   3.326   3.088   3.094 -2.1244  2.0892  0.6251
 1971TIP3    H2 5920   3.338   3.072   3.244 -2.0581  1.2620  0.5399
 1972TIP3   OH2 5921   3.581   0.029   1.649 -0.4929  0.0188 -0.0582
 1972TIP3    H1 5922   3.621   0.057   1.566  0.9616 -0.8583  0.3095
 1972TIP3    H2 5923   3.493  -0.001   1.624  0.1208 -0.7913 -1.3966
 1973TIP3   OH2 5924   3.262   3.374   1.139  0.3354 -0.1854 -0.2782
 1973TIP3    H1 5925   3.257   3.405   1.048 -1.4751 -1.4074 -0.6640
 1973TIP3    H2 5926   3.250   3.279   1.132  2.4419 -0.6035  1.0911
 1974TIP3   OH2 5927   0.660   4.466   2.722 -0.2430  0.3455 -1.1369
 1974TIP3    H1 5928   0.713   4.521   2.664  0.8125  0.7676  0.1534
 1974TIP3    H2 5929   0.686   4.376   2.701  0.7445  0.5324 -0.7853
 1975TIP3   OH2 5930   4.651   1.690   2.183 -0.1215 -0.2748 -0.0039
 1975TIP3    H1 5931   4.638   1.598   2.160 -0.0891 -0.2723 -0.0308
 1975TIP3    H2 5932   4.737   1.693   2.224 -0.9520 -0.6315  1.8908
 1976TIP3   OH2 5933   5.931   1.586   3.025  0.2293 -0.1644 -0.0582
 1976TIP3    H1 5934   5.996   1.650   3.054  1.4672 -1.3295 -0.1671
 1976TIP3    H2 5935   5.982   1.512   2.994 -1.1601 -1.0117 -0.4284
 1977TIP3   OH2 5936   3.835   1.669   2.666 -0.4514  0.1287 -0.3737
 1977TIP3    H1 5937   3.840   1.738   2.599  1.2616  1.3895  0.9431
 1977TIP3    H2 5938   3.912   1.614   2.650  0.0781  0.5470  0.6260
 1978TIP3   OH2 5939   1.116   3.271   0.217  0.1797  0.2990 -0.6088
 1978TIP3    H1 5940   1.204   3.281   0.182  0.2503  1.8738 -0.0816
 1978TIP3    H2 5941   1.077   3.359   0.209 -1.3263 -0.3481 -0.8002
 1979TIP3   OH2 5942   1.414   4.733   4.901  0.3243  0.0243  0.0174
 1979TIP3    H1 5943   1.489   4.792   4.892 -0.3081  1.0459  1.1756
 1979TIP3    H2 5944   1.368   4.764   4.979 -1.4615 -0.4258 -0.8141
 1980TIP3   OH2 5945   5.234   0.275   0.963  0.0143  0.5871  0.2128
 1980TIP3    H1 5946   5.221   0.240   1.051  1.1853  0.7682  0.4766
 1980TIP3    H2 5947   5.177   0.223   0.907 -1.2027  0.8697  1.1582
 1981TIP3   OH2 5948   0.244   3.256   0.460  0.3734 -0.2088 -0.2872
 1981TIP3    H1 5949   0.190   3.332   0.480 -0.9802 -1.0618 -0.5095
 1981TIP3    H2 5950   0.180   3.186   0.441  1.5588 -1.0816 -1.2524
 1982TIP3   OH2 5951   1.265   4.764   0.928  0.2553 -0.4359  0.4660
 1982TIP3    H1 5952   1.198   4.736   0.989  0.9478 -0.8492  1.0508
 1982TIP3    H2 5953   1.246   4.716   0.847 -0.8105  0.3036  0.2691
 1983TIP3   OH2 5954   5.884   3.404   0.326 -0.1267  0.0518  0.1089
 1983TIP3    H1 5955   5.798   3.424   0.363 -0.3249 -1.2585  0.4019
 1983TIP3    H2 5956   5.924   3.345   0.389  1.6426  1.8085  0.7376
 1984TIP3   OH2 5957   1.798   1.120   3.398 -0.6512 -0.3280  0.5247
 1984TIP3    H1 5958   1.888   1.089   3.387 -0.5534 -0.6013  1.8858
 1984TIP3    H2 5959   1.766   1.075   3.477 -1.1043  1.6610  1.5514
 1985TIP3   OH2 5960   0.857   0.802   0.305 -0.5078  0.2766 -0.3713
 1985TIP3    H1 5961   0.792   0.798   0.234  0.4190  0.7179 -1.2589
 1985TIP3    H2 5962   0.874   0.896   0.317 -4.4635  0.8621  4.0475
 1986TIP3   OH2 5963   3.281   5.349   3.113  0.4201  0.9809 -0.1460
 1986TIP3    H1 5964   3.356   5.307   3.072  0.1595 -0.4839  0.8127
 1986TIP3    H2 5965   3.284   5.439   3.081  2.3269  0.8470 -0.4822
 1987TIP3   OH2 5966   5.725   4.744   0.895 -0.0833  0.8228 -0.3119
 1987TIP3    H1 5967   5.804   4.798   0.900  0.1129  0.5474 -0.3903
 1987TIP3    H2 5968   5.685   4.768   0.812 -0.4177  1.4152  0.0131
 1988TIP3   OH2 5969   3.434   1.374   2.682 -0.5595 -0.0597 -0.1605
 1988TIP3    H1 5970   3.497   1.380   2.754  0.3000  0.0039 -0.8996
 1988TIP3    H2 5971   3.479   1.322   2.615 -1.3118 -0.0458 -0.6836
 1989TIP3   OH2 5972   5.217   0.396   4.548  0.1578 -0.1398  0.3136
 1989TIP3    H1 5973   5.163   0.474   4.541  1.2769  0.5872 -0.8027
 1989TIP3    H2 5974   5.158   0.324   4.527 -0.4932  0.5728 -0.3749
 1990TIP3   OH2 5975   0.054   2.156   3.979 -0.1619  0.0270 -0.0161
 1990TIP3    H1 5976   0.105   2.078   3.998 -1.7906 -0.7871  1.2033
 1990TIP3    H2 5977   0.056   2.207   4.060 -0.5288  0.4204 -0.2476
 1991TIP3   OH2 5978   2.640   2.939   0.569  0.4245  0.2352  0.2408
 1991TIP3    H1 5979   2.701   2.995   0.521  1.3542 -0.2958  0.7850
 1991TIP3    H2 5980   2.688   2.912   0.647 -1.1552  1.3103  1.6545
 1992TIP3   OH2 5981   2.858   3.315   1.060  0.8587  0.0953 -0.0625
 1992TIP3    H1 5982   2.903   3.236   1.031  0.2333  0.4964 -2.2587
 1992TIP3    H2 5983   2.788   3.283   1.117  1.1510 -0.8513 -0.2222
 1993TIP3   OH2 5984   5.308   3.223   5.135 -0.2474 -0.1407 -0.0520
 1993TIP3    H1 5985   5.237   3.201   5.195  0.4608  1.5023  1.4531
 1993TIP3    H2 5986   5.343   3.138   5.107 -1.9427 -0.9500  0.1828
 1994TIP3   OH2 5987   4.158   3.541   1.894 -0.0868 -0.3252 -0.3632
 1994TIP3    H1 5988   4.250   3.558   1.871 -0.2200 -0.7190 -1.2418
 1994TIP3    H2 5989   4.150   3.445   1.890 -0.7328 -0.2520 -1.1485
 1995TIP3   OH2 5990   0.548   0.683   0.983  0.1438 -0.3690  0.2636
 1995TIP3    H1 5991   0.642   0.673   0.994  0.2215  0.0169 -0.0261
 1995TIP3    H2 5992   0.527   0.631   0.906  0.1787 -0.1695  0.1182
 1996TIP3   OH2 5993   3.924   3.758   0.124  0.1788  0.5747  0.6117
 1996TIP3    H1 5994   3.913   3.670   0.160  2.0923  0.8098  1.8988
 1996TIP3    H2 5995   3.919   3.746   0.029  1.1745 -1.0546  0.7305
 1997TIP3   OH2 5996   5.644   3.323   3.396 -0.5792  0.0651  0.4535
 1997TIP3    H1 5997   5.556   3.342   3.427 -0.1782  0.6989  1.2254
 1997TIP3    H2 5998   5.679   3.261   3.460 -0.4690 -0.2050  0.1343
 1998TIP3   OH2 5999   3.611   4.433   0.964 -0.1313 -0.5949 -0.0110
 1998TIP3    H1 6000   3.544   4.368   0.984  0.4861 -1.6246 -1.1962
 1998TIP3    H2 6001   3.601   4.499   1.033 -1.2126 -1.5871  0.8240
 1999TIP3   OH2 6002   4.498   1.685   2.925 -0.6057 -0.5462  0.0586
 1999TIP3    H1 6003   4.494   1.721   2.836  1.4971  1.7074  0.7637
 1999TIP3    H2 6004   4.478   1.592   2.914 -2.4551  0.0384 -2.4484
 2000TIP3   OH2 6005   5.583   5.282   0.959  0.1663 -0.7081 -0.0056
 2000TIP3    H1 6006   5.597   5.215   0.893 -0.0377 -1.6397  0.8750
 2000TIP3    H2 6007   5.497   5.262   0.996  0.2464 -0.1625  0.4894
 2001TIP3   OH2 6008   4.763   3.845   4.078 -0.1685 -0.1683 -0.2156
 2001TIP3    H1 6009   4.831   3.908   4.104  0.9790 -0.3939 -2.4324
 2001TIP3    H2 6010   4.800   3.800   4.002 -1.0310 -3.4408  1.1426
 2002TIP3   OH2 6011   4.024   2.015   4.142 -0.2334 -0.4852 -0.2586
 2002TIP3    H1 6012   4.001   2.058   4.059 -0.5821  0.2718  0.2283
 2002TIP3    H2 6013   4.058   1.930   4.115 -1.2809 -0.6501 -1.1328
 2003TIP3   OH2 6014   4.971   2.531   3.408 -0.3847  0.5206  0.0740
 2003TIP3    H1 6015   4.949   2.586   3.483  2.3601  1.5767  0.2193
 2003TIP3    H2 6016   5.062   2.505   3.423 -0.6656 -1.6818 -1.4700
 2004TIP3   OH2 6017   3.697   3.951   0.167 -0.0834  0.4257  0.0440
 2004TIP3    H1 6018   3.731   3.912   0.247 -0.7474  0.6087  0.4184
 2004TIP3    H2 6019   3.768   3.939   0.103  0.6898  0.7992  0.8037
 2005TIP3   OH2 6020   3.040   4.390   2.628 -0.4880 -0.1315 -0.3370
 2005TIP3    H1 6021   3.101   4.439   2.572 -1.1114 -0.3559 -1.2303
 2005TIP3    H2 6022   3.025   4.308   2.580 -1.9920  0.1907 -0.4393
 2006TIP3   OH2 6023   5.052   4.551   1.515  0.2179 -0.2631 -0.0713
 2006TIP3    H1 6024   5.104   4.470   1.512 -0.3905 -0.6313 -1.6382
 2006TIP3    H2 6025   5.114   4.618   1.543  0.8513 -1.1642  0.7858
 2007TIP3   OH2 6026   2.051   2.082   3.027 -0.3070 -0.0907 -0.3279
 2007TIP3    H1 6027   2.116   2.118   3.087 -2.5404 -0.5042  2.5519
 2007TIP3    H2 6028   1.990   2.155   3.013  0.5616  0.2410 -2.8531
 2008TIP3   OH2 6029   4.479   4.369   2.279  0.2990 -0.0020  0.6426
 2008TIP3    H1 6030   4.490   4.415   2.362 -0.1423  2.3655 -0.5179
 2008TIP3    H2 6031   4.553   4.398   2.225 -0.9033  0.7393 -0.6968
 2009TIP3   OH2 6032   1.479   4.822   1.097 -0.4935  0.0803 -0.2245
 2009TIP3    H1 6033   1.403   4.816   1.039 -0.8058 -0.4766  0.2366
 2009TIP3    H2 6034   1.546   4.866   1.044 -0.4102 -1.3985 -1.4057
 2010TIP3   OH2 6035   2.945   5.295   3.212  0.2012 -0.2171 -0.0195
 2010TIP3    H1 6036   2.905   5.355   3.149  1.4256  0.5827 -0.0681
 2010TIP3    H2 6037   2.945   5.210   3.169  0.4229  0.1885 -0.8339
 2011TIP3   OH2 6038   2.952   4.551   1.532 -0.7924 -0.0861 -0.3771
 2011TIP3    H1 6039   2.899   4.613   1.480 -0.9788 -1.0315 -1.3472
 2011TIP3    H2 6040   3.037   4.550   1.488 -1.2150 -1.5373 -1.2188
 2012TIP3   OH2 6041   3.235   1.986   3.136 -0.3496  0.8382  0.3511
 2012TIP3    H1 6042   3.163   2.041   3.166 -0.0592  1.2726  0.2566
 2012TIP3    H2 6043   3.244   2.007   3.043 -0.8730 -0.0833  0.0755
 2013TIP3   OH2 6044   2.485   2.321   5.095 -0.2667 -0.5651 -0.2820
 2013TIP3    H1 6045   2.532   2.287   5.171  0.0423  0.3949 -0.0225
 2013TIP3    H2 6046   2.392   2.308   5.116 -0.1761 -0.4500  0.1890
 2014TIP3   OH2 6047   4.527   2.760   1.636 -0.2663  0.0110 -0.4067
 2014TIP3    H1 6048   4.492   2.836   1.683  0.9821  0.6965 -0.5271
 2014TIP3    H2 6049   4.622   2.766   1.650 -0.1195 -1.2959 -0.7785
 2015TIP3   OH2 6050   1.691  -0.003   3.510  0.8394 -0.1423  0.3577
 2015TIP3    H1 6051   1.774   0.037   3.538 -0.2230  3.3133 -0.9214
 2015TIP3    H2 6052   1.624   0.061   3.533 -0.9946 -0.8230 -2.4895
 2016TIP3   OH2 6053   5.958   2.246   4.322 -0.6707 -0.0224  0.0786
 2016TIP3    H1 6054   5.912   2.320   4.363 -0.6819  0.3591 -0.5994
 2016TIP3    H2 6055   5.915   2.235   4.237 -0.8110 -0.9588  0.2584
 2017TIP3   OH2 6056   0.942   5.460   3.103 -0.6754 -0.8258 -0.0728
 2017TIP3    H1 6057   0.917   5.503   3.022 -0.7407  0.8163  0.7935
 2017TIP3    H2 6058   1.038   5.461   3.102 -0.6765 -0.4381  0.0516
 2018TIP3   OH2 6059   0.440   0.245   5.077  0.1598 -0.6518  0.6186
 2018TIP3    H1 6060   0.361   0.241   5.024  0.5734 -1.1314  0.0340
 2018TIP3    H2 6061   0.441   0.163   5.126 -0.6858  0.1487  2.0829
 2019TIP3   OH2 6062   1.754   4.977   2.002  0.2085  0.2069 -0.1449
 2019TIP3    H1 6063   1.724   4.952   2.089  0.7812 -0.0206 -0.0063
 2019TIP3    H2 6064   1.757   4.895   1.953 -1.4273  0.5171 -0.8012
 2020TIP3   OH2 6065   0.567   3.441   2.294 -0.4442 -0.3330 -0.3924
 2020TIP3    H1 6066   0.526   3.453   2.208 -2.0036  0.1714  0.3797
 2020TIP3    H2 6067   0.570   3.529   2.331  0.0711 -0.5705  0.1380
 2021TIP3   OH2 6068   5.965   4.614   2.860  0.1219 -0.1951  0.2205
 2021TIP3    H1 6069   5.980   4.527   2.823  1.6462  0.5087 -0.9428
 2021TIP3    H2 6070   5.991   4.675   2.791  0.8526  1.1852  1.6354
 2022TIP3   OH2 6071   2.528   1.034   3.047  0.1054  0.4819  0.0499
 2022TIP3    H1 6072   2.545   1.118   3.090 -0.6809 -0.3841  2.1647
 2022TIP3    H2 6073   2.578   0.971   3.098 -1.5470 -0.7129  0.2413
 2023TIP3   OH2 6074   4.716   3.583   1.924  0.2722  1.2082 -0.2887
 2023TIP3    H1 6075   4.715   3.531   1.844 -1.0457  1.8288 -0.7012
 2023TIP3    H2 6076   4.743   3.670   1.896  0.4953  1.2512  0.0577
 2024TIP3   OH2 6077   3.366   1.515   3.698 -0.6131  0.1281 -0.0878
 2024TIP3    H1 6078   3.447   1.480   3.738 -0.4685  0.3763 -0.1611
 2024TIP3    H2 6079   3.309   1.439   3.689 -0.0208 -0.2261 -0.9295
 2025TIP3   OH2 6080   4.381   1.752   1.708 -0.3306  0.2783 -0.0030
 2025TIP3    H1 6081   4.434   1.686   1.753  0.3887 -0.5503 -1.9616
 2025TIP3    H2 6082   4.305   1.704   1.676  0.1390  0.4002 -1.3412
 2026TIP3   OH2 6083   4.955   1.182   2.510  0.2823 -0.3217  1.0757
 2026TIP3    H1 6084   5.003   1.162   2.590  2.8376  1.3785  0.0854
 2026TIP3    H2 6085   4.945   1.277   2.511  0.2153 -0.2894 -0.5237
 2027TIP3   OH2 6086   2.177   3.531   2.976 -0.4396 -0.6000  0.1256
 2027TIP3    H1 6087   2.108   3.473   2.944 -0.6334  0.7246 -2.0598
 2027TIP3    H2 6088   2.132   3.614   2.992  0.2669 -0.3570  0.9238
 2028TIP3   OH2 6089   2.049   0.922   4.536  0.5040 -0.6317  0.2719
 2028TIP3    H1 6090   2.144   0.918   4.538  0.4966 -0.5196  2.1774
 2028TIP3    H2 6091   2.022   0.912   4.627 -1.3021 -0.3444 -0.1865
 2029TIP3   OH2 6092   2.144   5.806   4.405  0.1279  0.0135  0.1692
 2029TIP3    H1 6093   2.158   5.845   4.491  0.6699  0.7815 -0.2531
 2029TIP3    H2 6094   2.217   5.745   4.394  1.1762  1.3194 -0.5093
 2030TIP3   OH2 6095   5.691   1.958   0.509  0.0967  0.3640 -0.5030
 2030TIP3    H1 6096   5.617   1.962   0.570 -0.9877  1.9188 -1.8339
 2030TIP3    H2 6097   5.666   1.892   0.445  1.4771 -1.6685  0.9444
 2031TIP3   OH2 6098   4.064   3.820   1.296 -0.1636  0.3806  0.3940
 2031TIP3    H1 6099   4.041   3.728   1.309  0.0276  0.1295 -0.9134
 2031TIP3    H2 6100   4.029   3.842   1.209  0.3768  1.3481  0.3983
 2032TIP3   OH2 6101   5.019   5.668   3.338  0.2328 -0.0131  0.1514
 2032TIP3    H1 6102   5.065   5.708   3.412  0.3644 -1.4003  0.8515
 2032TIP3    H2 6103   4.937   5.717   3.333  0.0800 -0.0860  1.4331
 2033TIP3   OH2 6104   2.592   2.276   1.440  0.3627  0.2065  0.6612
 2033TIP3    H1 6105   2.555   2.356   1.404  0.6781  0.2368  0.3964
 2033TIP3    H2 6106   2.667   2.256   1.383 -0.4469 -0.9500 -0.0302
 2034TIP3   OH2 6107   4.047   2.136   2.559 -0.1525 -0.0621  0.1974
 2034TIP3    H1 6108   4.131   2.171   2.529 -0.1554  1.5065  1.8266
 2034TIP3    H2 6109   4.052   2.140   2.654 -1.9097 -0.3458  0.3337
 2035TIP3   OH2 6110   1.215   5.148   1.604  0.6802 -0.3819 -0.1284
 2035TIP3    H1 6111   1.230   5.218   1.541  0.4302 -1.5803 -1.5674
 2035TIP3    H2 6112   1.152   5.090   1.562 -1.4604  0.0546  2.2511
 2036TIP3   OH2 6113   5.201   4.606   2.184 -0.4297  0.0254  0.3516
 2036TIP3    H1 6114   5.121   4.658   2.178  0.8886  2.0773 -0.7555
 2036TIP3    H2 6115   5.238   4.610   2.096  2.0253  1.0924  1.3470
 2037TIP3   OH2 6116   5.441   0.598   1.390 -0.3455  0.3024 -0.0319
 2037TIP3    H1 6117   5.417   0.670   1.449 -2.0178 -0.8941  0.8303
 2037TIP3    H2 6118   5.467   0.527   1.449  3.9500  0.9110 -0.8694
 2038TIP3   OH2 6119   4.725   4.279   3.035  0.7976 -0.4768 -0.3198
 2038TIP3    H1 6120   4.732   4.191   3.072  0.2182 -0.3267  0.1572
 2038TIP3    H2 6121   4.809   4.320   3.055  0.6274 -0.5230  0.5171
 2039TIP3   OH2 6122   3.085   2.979   3.928  0.2525 -0.6307  0.1605
 2039TIP3    H1 6123   2.996   2.945   3.937  0.1295 -0.0727  1.2529
 2039TIP3    H2 6124   3.099   3.030   4.007  0.7077  1.1981 -1.0244
 2040TIP3   OH2 6125   0.820   4.321   4.399  0.1138  0.2111  0.6272
 2040TIP3    H1 6126   0.791   4.306   4.309 -1.1981  1.6051  0.7769
 2040TIP3    H2 6127   0.768   4.259   4.451  0.5790 -0.3117  0.4801
 2041TIP3   OH2 6128   3.656   5.287   0.412 -0.4230  0.3045 -0.4190
 2041TIP3    H1 6129   3.685   5.254   0.497 -0.2958  0.6259 -0.3365
 2041TIP3    H2 6130   3.585   5.228   0.387  0.7584 -0.9292 -0.9625
 2042TIP3   OH2 6131   3.911   0.665   3.213 -0.0707 -0.2805  0.1969
 2042TIP3    H1 6132   3.888   0.758   3.221 -0.2519 -0.2309 -0.7599
 2042TIP3    H2 6133   3.892   0.643   3.122  2.5771 -0.5139 -0.3963
 2043TIP3   OH2 6134   5.492   5.679   4.140 -0.5387  0.1914  0.3516
 2043TIP3    H1 6135   5.530   5.675   4.052 -0.0724  0.0792  0.5520
 2043TIP3    H2 6136   5.507   5.770   4.168 -1.1426  0.3678  0.1228
 2044TIP3   OH2 6137   1.585   2.567   2.900 -0.0649  0.2609 -0.1478
 2044TIP3    H1 6138   1.607   2.540   2.989  1.5171 -0.2533 -0.6619
 2044TIP3    H2 6139   1.567   2.661   2.906 -1.9872 -0.1415  1.0362
 2045TIP3   OH2 6140   2.901   2.801   2.435  0.1406  0.2647 -0.2418
 2045TIP3    H1 6141   2.869   2.773   2.349 -2.7689 -1.7725  1.3379
 2045TIP3    H2 6142   2.855   2.883   2.452  0.7469  0.6890 -0.5923
 2046TIP3   OH2 6143   2.083   0.884   3.717 -0.3069  0.0308 -0.0277
 2046TIP3    H1 6144   2.153   0.889   3.783 -0.5077  0.1296  0.1788
 2046TIP3    H2 6145   2.017   0.827   3.756 -0.3145 -0.1176 -0.2516
 2047TIP3   OH2 6146   5.654   5.469   4.803  0.1145 -1.0915  0.4882
 2047TIP3    H1 6147   5.560   5.483   4.812  0.4644  0.6636  2.0188
 2047TIP3    H2 6148   5.681   5.528   4.732 -0.0998 -2.6065 -0.9089
 2048TIP3   OH2 6149   5.615   1.791   0.288 -0.3777 -0.3961  0.1231
 2048TIP3    H1 6150   5.559   1.821   0.217  2.0176  0.6190 -1.4811
 2048TIP3    H2 6151   5.653   1.710   0.256 -1.9672 -1.8891  1.8142
 2049TIP3   OH2 6152   1.369   3.634   0.584  0.3661  0.4296  0.1232
 2049TIP3    H1 6153   1.463   3.627   0.601  0.2312 -2.4731  0.1753
 2049TIP3    H2 6154   1.329   3.576   0.649 -1.1750 -0.8733 -1.8636
 2050TIP3   OH2 6155   5.602   3.607   0.705  0.0306  0.1157  0.8507
 2050TIP3    H1 6156   5.590   3.513   0.719 -0.1626  0.1163  0.7038
 2050TIP3    H2 6157   5.631   3.614   0.614 -0.0591  0.2046  0.8286
 2051TIP3   OH2 6158   0.756   2.041   1.841 -0.1632 -0.3560  0.1454
 2051TIP3    H1 6159   0.752   2.104   1.769 -0.7195  1.4313  1.6376
 2051TIP3    H2 6160   0.833   1.987   1.822  0.7553  1.2275 -0.8589
 2052TIP3   OH2 6161   5.833   3.335   1.154 -0.5392 -0.7609  0.2008
 2052TIP3    H1 6162   5.864   3.422   1.131 -1.7556 -0.3452  0.0720
 2052TIP3    H2 6163   5.753   3.350   1.204 -1.5387 -1.8273 -0.9905
 2053TIP3   OH2 6164   4.313   1.582   4.411  0.5132  0.0397 -0.4607
 2053TIP3    H1 6165   4.381   1.619   4.355  1.2498 -0.3038  0.1956
 2053TIP3    H2 6166   4.288   1.655   4.469 -0.7613  0.6097 -1.6791
 2054TIP3   OH2 6167   0.399   2.550   0.794  0.0106 -0.0250 -0.4602
 2054TIP3    H1 6168   0.363   2.623   0.744 -0.7065 -0.1073 -0.0760
 2054TIP3    H2 6169   0.335   2.479   0.783  0.4811 -0.4586 -0.4705
 2055TIP3   OH2 6170   1.768   1.131   0.830 -0.3955  0.4213  0.0268
 2055TIP3    H1 6171   1.784   1.125   0.735 -1.5319 -0.0119 -0.1540
 2055TIP3    H2 6172   1.672   1.135   0.837 -0.2667  2.6668  1.0411
 2056TIP3   OH2 6173   2.218   5.406   0.641 -0.0674  0.1608 -0.1716
 2056TIP3    H1 6174   2.225   5.490   0.595 -1.6406  0.4638  0.0759
 2056TIP3    H2 6175   2.189   5.429   0.729  0.6590 -0.5766  0.2747
 2057TIP3   OH2 6176   5.238   1.160   5.054  0.2321  0.4203 -0.2263
 2057TIP3    H1 6177   5.277   1.098   4.993  0.1917  0.2243 -0.0562
 2057TIP3    H2 6178   5.183   1.216   5.000 -1.5961 -1.1532 -0.1184
 2058TIP3   OH2 6179   5.056   0.475   3.504 -0.1312 -0.1649  0.2401
 2058TIP3    H1 6180   5.024   0.543   3.444  3.3796  0.1160 -1.5706
 2058TIP3    H2 6181   5.084   0.523   3.582 -1.5122 -0.1271  0.7496
 2059TIP3   OH2 6182   1.525   5.792   3.899 -0.2119  0.1470 -0.3845
 2059TIP3    H1 6183   1.569   5.849   3.963  0.4505 -0.9530  0.1634
 2059TIP3    H2 6184   1.555   5.825   3.814  1.5523 -0.4526 -0.0302
 2060TIP3   OH2 6185   3.535   3.271   1.489  0.2698 -0.2022 -0.6629
 2060TIP3    H1 6186   3.534   3.179   1.516 -0.6736 -0.2648 -0.8744
 2060TIP3    H2 6187   3.625   3.300   1.505  0.7389 -1.3326 -1.1950
 2061TIP3   OH2 6188   3.567   3.012   1.608  0.1254  0.0828  0.1170
 2061TIP3    H1 6189   3.500   2.987   1.671 -0.2667 -0.4735 -0.5053
 2061TIP3    H2 6190   3.634   2.945   1.615 -0.4420 -0.6124 -0.8232
 2062TIP3   OH2 6191   0.168   1.059   3.600  0.4890 -0.1581  0.4481
 2062TIP3    H1 6192   0.250   1.105   3.619  0.2124 -0.1744  1.7232
 2062TIP3    H2 6193   0.180   0.972   3.637  0.0350 -0.2943  0.2825
 2063TIP3   OH2 6194   1.760   5.677   0.326  0.1384  0.2881  0.2249
 2063TIP3    H1 6195   1.693   5.634   0.379  0.2031  1.7117  1.5372
 2063TIP3    H2 6196   1.738   5.770   0.330  2.0916  0.7840  0.5871
 2064TIP3   OH2 6197   4.349   2.573   0.918  0.2880  0.5183  0.4317
 2064TIP3    H1 6198   4.324   2.610   1.002 -0.6637 -2.1489  1.4278
 2064TIP3    H2 6199   4.370   2.481   0.937 -0.4864 -0.3268 -2.2947
 2065TIP3   OH2 6200   4.330   2.371   4.512  0.1651  0.0377  0.6594
 2065TIP3    H1 6201   4.272   2.425   4.566 -0.6371 -1.4079  1.2958
 2065TIP3    H2 6202   4.285   2.364   4.428 -0.3256 -0.6092  0.9675
 2066TIP3   OH2 6203   1.955   3.335   1.576  0.1751  0.0654 -0.8081
 2066TIP3    H1 6204   1.941   3.272   1.505 -0.9761 -0.2338 -0.3408
 2066TIP3    H2 6205   1.869   3.343   1.618  0.2226  2.1860 -1.0415
 2067TIP3   OH2 6206   0.276   4.968   2.112  0.3734 -0.2617  0.9871
 2067TIP3    H1 6207   0.189   4.981   2.150 -0.3156 -1.9817  0.0980
 2067TIP3    H2 6208   0.285   4.873   2.105  1.3519 -0.0762 -1.0827
 2068TIP3   OH2 6209   3.493   0.451   5.074  0.3828  0.2706 -0.1472
 2068TIP3    H1 6210   3.541   0.513   5.129 -0.0167  0.6099 -0.1771
 2068TIP3    H2 6211   3.497   0.368   5.122 -1.3863  0.9190  1.2536
 2069TIP3   OH2 6212   4.771   1.058   3.979  0.0603 -0.0505  0.2537
 2069TIP3    H1 6213   4.799   0.998   3.910 -1.6262 -1.4230  0.6785
 2069TIP3    H2 6214   4.836   1.048   4.048 -0.2976 -1.5970  0.4012
 2070TIP3   OH2 6215   0.105   2.511   2.751 -0.0215  0.2926  0.5823
 2070TIP3    H1 6216   0.094   2.544   2.841  0.8709 -2.1016  1.6482
 2070TIP3    H2 6217   0.167   2.439   2.760  0.9211  0.6744 -2.1637
 2071TIP3   OH2 6218   3.062   5.880   3.852  0.2798  0.1907  0.1885
 2071TIP3    H1 6219   3.105   5.846   3.773 -0.4596  0.1695 -0.2126
 2071TIP3    H2 6220   3.133   5.921   3.901  0.7462  0.2605 -0.5158
 2072TIP3   OH2 6221   2.630   2.141   2.996  0.3679 -0.4250 -0.7995
 2072TIP3    H1 6222   2.652   2.115   2.907  1.7871  1.2691 -1.0011
 2072TIP3    H2 6223   2.715   2.155   3.038 -0.2900  1.3202  0.0313
 2073TIP3   OH2 6224   3.723   2.630   3.726 -0.2982  0.0409 -0.4349
 2073TIP3    H1 6225   3.696   2.720   3.744 -0.9764 -0.2583  0.0904
 2073TIP3    H2 6226   3.649   2.592   3.678  0.3389  0.0058 -1.4220
 2074TIP3   OH2 6227   3.315   3.312   0.288  0.0337 -0.0928 -0.7273
 2074TIP3    H1 6228   3.384   3.281   0.229 -0.0350 -0.9190 -0.3901
 2074TIP3    H2 6229   3.362   3.349   0.362  0.1299 -1.0735 -0.2831
 2075TIP3   OH2 6230   5.920   5.878   2.432  0.3245  1.0183  0.0299
 2075TIP3    H1 6231   5.919   5.974   2.437 -0.6720  1.1391 -1.6660
 2075TIP3    H2 6232   5.829   5.853   2.446  0.2358  0.4843 -1.3050
 2076TIP3   OH2 6233   5.641   5.500   5.148  0.7399  0.4615 -0.5408
 2076TIP3    H1 6234   5.708   5.432   5.138 -0.1210 -0.2627 -1.6132
 2076TIP3    H2 6235   5.688   5.574   5.187  1.4989 -1.0184  1.5417
 2077TIP3   OH2 6236   3.992   3.093   3.722 -0.6753 -0.3431  0.0413
 2077TIP3    H1 6237   4.009   3.066   3.812 -0.0651 -0.0209  0.0259
 2077TIP3    H2 6238   3.906   3.135   3.726  0.5165  2.1813  1.0269
 2078TIP3   OH2 6239   4.482   1.529   1.835 -0.5605 -0.1430  0.0502
 2078TIP3    H1 6240   4.443   1.523   1.922 -1.5186  0.6345 -0.3109
 2078TIP3    H2 6241   4.507   1.439   1.814 -2.0532 -0.6543  0.3512
 2079TIP3   OH2 6242   1.474   5.297   3.102  0.1219  0.0183  0.4654
 2079TIP3    H1 6243   1.485   5.233   3.173  0.7642  0.9832  1.2515
 2079TIP3    H2 6244   1.486   5.382   3.144  1.3981  0.5765 -0.9645
 2080TIP3   OH2 6245   5.405   5.502   4.785  0.6788 -0.0054 -0.4007
 2080TIP3    H1 6246   5.373   5.592   4.780  2.3749  0.8608  2.3609
 2080TIP3    H2 6247   5.330   5.451   4.817  0.0983  0.6688 -0.6826
 2081TIP3   OH2 6248   5.993   4.341   0.586  0.5128  0.3931 -0.0919
 2081TIP3    H1 6249   6.063   4.361   0.523 -0.5122  2.5174 -0.6382
 2081TIP3    H2 6250   5.913   4.342   0.533 -0.0998 -0.7496  0.7607
 2082TIP3   OH2 6251   0.638   2.006   4.106 -0.0013  0.3484  0.5112
 2082TIP3    H1 6252   0.683   1.970   4.029  0.4019  0.0044  0.9063
 2082TIP3    H2 6253   0.687   1.972   4.181  0.0733  1.3023  0.9096
 2083TIP3   OH2 6254   0.830   1.266   2.262 -0.2419  0.1410  0.1971
 2083TIP3    H1 6255   0.782   1.327   2.206  0.5605  2.2527  1.6709
 2083TIP3    H2 6256   0.913   1.252   2.216 -0.3807  0.2324 -0.0875
 2084TIP3   OH2 6257   4.650   4.867   4.063  0.3180  0.6153  0.1502
 2084TIP3    H1 6258   4.609   4.950   4.087 -0.1404  0.1755  0.9037
 2084TIP3    H2 6259   4.723   4.892   4.006  1.1752  1.6552  1.6514
 2085TIP3   OH2 6260   3.970   1.655   0.136 -0.0244 -0.0436  0.3952
 2085TIP3    H1 6261   4.013   1.594   0.196  3.1157  2.0972  0.5538
 2085TIP3    H2 6262   4.036   1.673   0.069 -1.2845  2.1507 -0.3524
 2086TIP3   OH2 6263   0.642   1.777   3.892 -0.6747  0.3249  0.1447
 2086TIP3    H1 6264   0.731   1.811   3.879  0.2591 -1.6987  0.8513
 2086TIP3    H2 6265   0.625   1.725   3.814 -1.6563  1.4331 -0.4175
 2087TIP3   OH2 6266   1.592   4.603   1.241  0.2821  0.5397 -0.5146
 2087TIP3    H1 6267   1.559   4.684   1.204  0.2802  0.4252 -0.7637
 2087TIP3    H2 6268   1.586   4.539   1.169  1.4247  0.6142 -0.6861
 2088TIP3   OH2 6269   3.626   4.146   0.559 -0.3630 -0.3451  0.1232
 2088TIP3    H1 6270   3.693   4.132   0.626 -0.1177 -1.4174 -0.3231
 2088TIP3    H2 6271   3.554   4.089   0.586 -0.8947  0.4206  0.3281
 2089TIP3   OH2 6272   4.823   2.400   1.185  0.2387 -0.2829  0.1945
 2089TIP3    H1 6273   4.847   2.493   1.183  1.6654 -0.6215 -2.8916
 2089TIP3    H2 6274   4.822   2.379   1.279  1.1885  2.4829  0.9494
 2090TIP3   OH2 6275   1.957   1.540   1.054 -0.5935 -0.8084  0.3927
 2090TIP3    H1 6276   1.959   1.502   0.966 -2.1429  1.1461 -0.5736
 2090TIP3    H2 6277   2.049   1.560   1.073 -0.4215  1.2512 -2.0200
 2091TIP3   OH2 6278   0.920   1.453   4.831  0.2234 -0.0831  0.1464
 2091TIP3    H1 6279   0.986   1.461   4.900 -0.6005  0.7732  0.8592
 2091TIP3    H2 6280   0.895   1.543   4.812 -0.0367 -0.3517 -0.8156
 2092TIP3   OH2 6281   4.240   2.695   1.150 -0.4725  0.0226 -0.2032
 2092TIP3    H1 6282   4.193   2.683   1.232  0.2905  1.7664  0.5417
 2092TIP3    H2 6283   4.310   2.757   1.171  0.6314 -0.5794 -1.8459
 2093TIP3   OH2 6284   2.807   0.228   1.191  0.1670 -0.0549 -0.4975
 2093TIP3    H1 6285   2.771   0.231   1.280 -1.9216 -0.2603 -1.2891
 2093TIP3    H2 6286   2.815   0.134   1.172  1.7408 -0.0205 -0.1319
 2094TIP3   OH2 6287   0.468   0.336   4.246  0.2290  0.1407 -0.2321
 2094TIP3    H1 6288   0.435   0.306   4.161  3.0645 -1.6093 -0.8474
 2094TIP3    H2 6289   0.399   0.313   4.308 -0.8940 -0.7666 -1.7593
 2095TIP3   OH2 6290   1.371   2.253   2.977  0.4678 -0.4214  0.7100
 2095TIP3    H1 6291   1.459   2.291   2.976  0.3170 -0.0830  0.0635
 2095TIP3    H2 6292   1.329   2.287   2.899 -0.7112  0.4955  1.7075
 2096TIP3   OH2 6293   4.502   1.786   2.674  0.4505  0.0421  0.3280
 2096TIP3    H1 6294   4.486   1.706   2.624 -0.3902 -0.4262  1.3102
 2096TIP3    H2 6295   4.461   1.855   2.622  1.4372 -0.0830 -0.6755
 2097TIP3   OH2 6296   2.809   3.167   1.910 -0.2872  0.0207 -0.2285
 2097TIP3    H1 6297   2.831   3.243   1.964  0.1853  0.4961 -1.0697
 2097TIP3    H2 6298   2.884   3.108   1.920  0.0908  0.3847 -0.8429
 2098TIP3   OH2 6299   2.479   1.407   4.010 -0.0981 -0.0681  0.3483
 2098TIP3    H1 6300   2.499   1.371   4.097  0.3550 -0.1481  0.2136
 2098TIP3    H2 6301   2.454   1.330   3.958  1.1149 -0.2535 -0.0100
 2099TIP3   OH2 6302   1.040   5.334   0.227  0.1186  0.1395 -0.2033
 2099TIP3    H1 6303   1.023   5.422   0.192 -2.4361 -0.3676 -0.4832
 2099TIP3    H2 6304   1.074   5.350   0.315  2.0465  1.3761 -1.1050
 2100TIP3   OH2 6305   1.965   3.791   2.339  0.5111  0.1265 -0.2979
 2100TIP3    H1 6306   1.955   3.860   2.404  0.1256  1.6943 -1.9496
 2100TIP3    H2 6307   1.882   3.743   2.341  0.2016  0.6672 -0.1836
 2101TIP3   OH2 6308   4.873   2.446   1.944  0.6864 -0.1000  0.0084
 2101TIP3    H1 6309   4.824   2.497   1.880  0.8575 -0.3956 -0.3659
 2101TIP3    H2 6310   4.868   2.356   1.912  0.5041 -0.2998  0.5826
 2102TIP3   OH2 6311   0.534   1.968   2.735  0.0694 -0.6388  0.0952
 2102TIP3    H1 6312   0.496   2.033   2.674 -0.2303  1.1451  2.0591
 2102TIP3    H2 6313   0.628   1.980   2.727  0.0284 -0.3489  0.0228
 2103TIP3   OH2 6314   5.682   4.642   3.102  0.4018  0.2234  0.2663
 2103TIP3    H1 6315   5.639   4.593   3.033  1.6848  2.0046 -1.9196
 2103TIP3    H2 6316   5.722   4.575   3.158 -0.4783 -1.2609 -0.8390
 2104TIP3   OH2 6317   4.936   5.980   1.847 -0.0066  0.1326 -0.1642
 2104TIP3    H1 6318   4.923   5.892   1.811  0.4453  0.6478 -1.6589
 2104TIP3    H2 6319   5.031   5.987   1.860  0.0805  0.7399 -1.0254
 2105TIP3   OH2 6320   3.660   3.788   0.654  0.2014  0.2569  0.9698
 2105TIP3    H1 6321   3.622   3.709   0.615 -1.6266  1.1899  0.7489
 2105TIP3    H2 6322   3.688   3.841   0.579 -0.6792  0.7980  1.0118
 2106TIP3   OH2 6323   3.021   3.421   2.959  0.4394 -0.1375  0.2986
 2106TIP3    H1 6324   3.012   3.364   2.882 -1.3634  1.5726 -0.8356
 2106TIP3    H2 6325   3.035   3.360   3.032 -0.2689 -1.9696 -1.0124
 2107TIP3   OH2 6326   0.252   5.182   4.760  0.1281 -0.2844  0.9521
 2107TIP3    H1 6327   0.215   5.164   4.674 -1.6729  0.2138  1.5778
 2107TIP3    H2 6328   0.184   5.154   4.822  1.0261  0.1564  2.1780
 2108TIP3   OH2 6329   4.275   1.524   3.068 -0.1816  0.4333 -0.3106
 2108TIP3    H1 6330   4.256   1.521   2.974  2.1203 -1.8954 -0.7833
 2108TIP3    H2 6331   4.362   1.486   3.077 -0.6769 -0.2055  2.8809
 2109TIP3   OH2 6332   1.467   5.727   2.753  0.4230 -0.7299  0.4929
 2109TIP3    H1 6333   1.429   5.792   2.695  0.9881 -0.3103  0.5873
 2109TIP3    H2 6334   1.476   5.771   2.838  0.8454 -0.9143  0.5470
 2110TIP3   OH2 6335   0.846   4.947   2.940 -0.1738 -0.2458 -0.1527
 2110TIP3    H1 6336   0.835   5.041   2.926 -0.0294 -0.2169 -0.0717
 2110TIP3    H2 6337   0.769   4.908   2.898 -0.3517 -0.0772  0.0169
 2111TIP3   OH2 6338   0.559   5.305   2.273  0.8128  0.1204  0.2399
 2111TIP3    H1 6339   0.540   5.389   2.231 -0.3232  0.1328  0.7507
 2111TIP3    H2 6340   0.633   5.324   2.332  1.5885  0.3847 -0.7923
 2112TIP3   OH2 6341   0.324   4.645   2.283  0.2882 -0.3670  1.2261
 2112TIP3    H1 6342   0.309   4.726   2.332 -0.7792 -0.2720  0.7784
 2112TIP3    H2 6343   0.287   4.576   2.339 -2.3028 -0.1014 -0.0080
 2113TIP3   OH2 6344   5.804   1.985   0.817  0.5936  0.6301 -0.0501
 2113TIP3    H1 6345   5.794   1.905   0.765  1.5176  0.4172  0.0727
 2113TIP3    H2 6346   5.898   1.990   0.835  0.9332  2.9667 -2.0070
 2114TIP3   OH2 6347   3.991   5.146   0.944  0.6213  0.2077 -0.2625
 2114TIP3    H1 6348   3.920   5.174   0.886  1.0376  1.2069 -0.2970
 2114TIP3    H2 6349   3.948   5.085   1.005 -0.0086 -0.1311 -1.0219
 2115TIP3   OH2 6350   2.725   5.138   1.195 -0.2952 -0.0361 -0.6680
 2115TIP3    H1 6351   2.819   5.140   1.179 -0.4997  0.1437 -1.9837
 2115TIP3    H2 6352   2.699   5.230   1.196 -0.3685 -0.0641  0.3009
 2116TIP3   OH2 6353   1.898   1.626   4.269 -0.0285 -0.1032  0.4415
 2116TIP3    H1 6354   1.860   1.666   4.347  0.1331  1.1188 -0.0805
 2116TIP3    H2 6355   1.989   1.655   4.268  0.1728 -0.7198  0.1907
 2117TIP3   OH2 6356   5.685   1.465   3.105 -0.1301  0.1192 -1.0073
 2117TIP3    H1 6357   5.712   1.407   3.177 -0.9139  0.5620 -0.3464
 2117TIP3    H2 6358   5.768   1.489   3.062  0.4997  0.8603  0.5285
 2118TIP3   OH2 6359   2.360   4.941   4.507  0.5785  0.1783 -0.3923
 2118TIP3    H1 6360   2.397   4.957   4.420 -0.3939  0.0789 -0.8374
 2118TIP3    H2 6361   2.329   5.027   4.536 -2.3461 -0.2985 -1.7076
 2119TIP3   OH2 6362   6.153   1.515   1.064  0.2490  0.1205 -1.1322
 2119TIP3    H1 6363   6.248   1.523   1.069  0.2407 -0.2980 -0.2041
 2119TIP3    H2 6364   6.133   1.434   1.110 -0.3188 -1.4508 -3.9221
 2120TIP3   OH2 6365   3.144   3.722   4.382 -0.2537 -0.2150 -0.2870
 2120TIP3    H1 6366   3.092   3.649   4.348  0.2396 -0.7957  0.1858
 2120TIP3    H2 6367   3.217   3.681   4.428 -0.1327  0.5705  0.2549
 2121TIP3   OH2 6368   1.918   1.113   1.710  0.1980 -0.1371  0.1517
 2121TIP3    H1 6369   1.870   1.105   1.627 -0.5703  0.9277  0.4804
 2121TIP3    H2 6370   2.009   1.094   1.686 -0.1468 -0.7249 -0.7614
 2122TIP3   OH2 6371   1.740   0.144   0.436  0.1243 -0.0313  0.2394
 2122TIP3    H1 6372   1.719   0.159   0.528  1.8837 -0.9716  0.8527
 2122TIP3    H2 6373   1.759   0.050   0.431 -0.8032 -0.1739 -1.2832
 2123TIP3   OH2 6374   1.436   5.494   4.933  0.3236 -0.4325 -0.2170
 2123TIP3    H1 6375   1.500   5.454   4.992  1.1120 -0.1248 -0.8419
 2123TIP3    H2 6376   1.429   5.434   4.860 -0.0439 -0.4241 -0.1902
 2124TIP3   OH2 6377   4.014   1.476   0.482 -0.1095  0.1734 -0.2643
 2124TIP3    H1 6378   4.096   1.476   0.532  0.9420 -0.7661 -1.8998
 2124TIP3    H2 6379   3.963   1.548   0.520  0.5477 -0.5773  2.2199
 2125TIP3   OH2 6380   6.068   5.546   2.889  0.2846 -0.5599 -0.0314
 2125TIP3    H1 6381   5.983   5.553   2.845 -0.2975 -1.2147  0.9715
 2125TIP3    H2 6382   6.124   5.609   2.843 -1.1996  1.0986  0.3527
 2126TIP3   OH2 6383   2.493   1.511   3.426 -0.2229 -0.1335 -0.1402
 2126TIP3    H1 6384   2.557   1.566   3.470  1.9681 -0.5575 -2.5665
 2126TIP3    H2 6385   2.503   1.425   3.466 -0.3241  0.1375  0.4738
 2127TIP3   OH2 6386   2.239   5.959   2.759 -0.6154 -0.2550 -0.0385
 2127TIP3    H1 6387   2.147   5.931   2.758 -0.6655 -0.1222 -1.2659
 2127TIP3    H2 6388   2.279   5.912   2.686  0.0635  0.4172 -0.1141
 2128TIP3   OH2 6389   1.425   0.087   1.471 -0.0990  0.0723 -0.0686
 2128TIP3    H1 6390   1.330   0.079   1.476 -0.2161  0.9832  4.8780
 2128TIP3    H2 6391   1.440   0.175   1.438 -1.0476  0.3423  0.1824
 2129TIP3   OH2 6392   2.085   1.748   4.066 -0.6638 -0.2137 -0.0564
 2129TIP3    H1 6393   2.074   1.675   4.005 -2.3272  0.2955 -0.4081
 2129TIP3    H2 6394   2.007   1.802   4.054  0.6263  1.7765  0.0023
 2130TIP3   OH2 6395   0.287   4.270   0.725  0.4026 -1.1255  0.2683
 2130TIP3    H1 6396   0.364   4.239   0.773  0.4830  2.4882  2.8325
 2130TIP3    H2 6397   0.322   4.322   0.653  0.3179 -1.1791  0.1872
 2131TIP3   OH2 6398   5.187   2.307   4.941  0.2662 -0.7603 -0.4123
 2131TIP3    H1 6399   5.124   2.285   4.872  0.2586 -0.3102 -0.5493
 2131TIP3    H2 6400   5.268   2.264   4.913 -0.1607 -1.9931  0.1519
 2132TIP3   OH2 6401   2.680   1.294   3.535  0.2758 -0.2470  0.2494
 2132TIP3    H1 6402   2.670   1.226   3.601 -1.9683 -0.3057 -0.0661
 2132TIP3    H2 6403   2.727   1.364   3.579 -1.1100 -0.3057  1.9200
 2133TIP3   OH2 6404   2.735   5.504   0.661 -0.0639  0.1881 -0.5196
 2133TIP3    H1 6405   2.771   5.476   0.577 -1.4106 -1.3629 -0.6101
 2133TIP3    H2 6406   2.806   5.491   0.724 -0.0409 -1.7492 -0.8892
 2134TIP3   OH2 6407   2.421   1.290   4.481 -0.3743 -0.0276 -0.3869
 2134TIP3    H1 6408   2.465   1.323   4.559 -0.0722  3.6136 -1.9218
 2134TIP3    H2 6409   2.336   1.335   4.481 -0.5744 -0.3518 -1.8597
 2135TIP3   OH2 6410   0.649   3.830   2.928  0.3628  0.2661  0.5429
 2135TIP3    H1 6411   0.629   3.858   2.838  0.1295  0.4524  0.6516
 2135TIP3    H2 6412   0.606   3.745   2.936 -0.4675  0.6985  0.7996
 2136TIP3   OH2 6413   2.763   4.645   1.376 -0.0292 -0.6442  0.3369
 2136TIP3    H1 6414   2.707   4.580   1.335  0.1053  0.2655 -1.4236
 2136TIP3    H2 6415   2.710   4.685   1.445 -1.2849 -0.3477 -0.7726
 2137TIP3   OH2 6416   1.305   2.139   2.069  0.0514 -0.3563 -0.1730
 2137TIP3    H1 6417   1.268   2.226   2.056 -1.8102 -1.0698  0.0707
 2137TIP3    H2 6418   1.233   2.079   2.051  1.4323 -1.8883 -0.8469
 2138TIP3   OH2 6419   0.236   4.552   2.540  0.1652  0.1819 -0.4954
 2138TIP3    H1 6420   0.242   4.530   2.633  1.0642 -1.4700 -0.9185
 2138TIP3    H2 6421   0.287   4.633   2.532  1.7142 -0.6804  0.1522
 2139TIP3   OH2 6422   1.836   3.245   4.072 -0.4673  0.4539  0.8051
 2139TIP3    H1 6423   1.777   3.285   4.136  0.6437  0.8951  1.5906
 2139TIP3    H2 6424   1.917   3.232   4.120 -0.6063 -2.2671  0.4204
 2140TIP3   OH2 6425   0.492   4.572   4.458 -0.0515 -0.2513 -0.1414
 2140TIP3    H1 6426   0.467   4.526   4.378 -3.0007 -0.9372  1.0458
 2140TIP3    H2 6427   0.479   4.665   4.438  0.2783 -0.3298 -0.7571
 2141TIP3   OH2 6428   2.354   5.638   4.455  0.4281  0.0667  0.0637
 2141TIP3    H1 6429   2.380   5.568   4.514  1.3312  1.0397  0.8468
 2141TIP3    H2 6430   2.436   5.668   4.415 -0.0569  0.0619 -0.9555
 2142TIP3   OH2 6431   4.457   5.164   5.013 -0.2760  0.0320 -0.1537
 2142TIP3    H1 6432   4.405   5.166   5.093  2.2713  0.6093  1.6225
 2142TIP3    H2 6433   4.424   5.237   4.961 -3.6582 -1.8404 -0.8907
 2143TIP3   OH2 6434   0.994   3.518   0.243  1.0695  0.2646 -0.2326
 2143TIP3    H1 6435   0.923   3.565   0.201  1.8958  0.6498 -1.2380
 2143TIP3    H2 6436   0.965   3.507   0.334 -0.6712 -0.4311 -0.8320
 2144TIP3   OH2 6437   0.958   5.367   2.618 -0.8888  0.3682 -0.1587
 2144TIP3    H1 6438   0.971   5.306   2.690  0.1627 -0.2226 -0.8273
 2144TIP3    H2 6439   1.046   5.402   2.600 -1.2375  0.9741 -0.7426
 2145TIP3   OH2 6440   3.479   5.685   0.663  0.2469 -0.5953  0.2040
 2145TIP3    H1 6441   3.509   5.721   0.747  2.1315  0.8234 -0.9852
 2145TIP3    H2 6442   3.541   5.615   0.643  0.8062  0.1510 -0.7425
 2146TIP3   OH2 6443   4.621   1.667   0.391 -0.2470  0.0716 -0.3287
 2146TIP3    H1 6444   4.666   1.751   0.388  0.5879 -0.3713 -0.4767
 2146TIP3    H2 6445   4.635   1.636   0.481  0.5574 -0.4888 -0.6322
 2147TIP3   OH2 6446   1.287   5.871   0.641  0.2717 -0.0337  0.2738
 2147TIP3    H1 6447   1.193   5.886   0.647  0.2474  0.4304 -1.0857
 2147TIP3    H2 6448   1.320   5.944   0.588  1.7400  1.0718  2.5464
 2148TIP3   OH2 6449   1.164   5.819   1.089 -0.2104 -0.7406  0.1110
 2148TIP3    H1 6450   1.097   5.791   1.028 -1.2280  0.4696  0.6407
 2148TIP3    H2 6451   1.170   5.914   1.078 -2.2411 -0.0417  3.5716
 2149TIP3   OH2 6452   5.819   0.086   2.644  0.4986  0.0611 -0.1420
 2149TIP3    H1 6453   5.749   0.139   2.683 -0.7009 -1.7146  0.2418
 2149TIP3    H2 6454   5.848   0.029   2.715  2.0530  0.4609 -0.4318
 2150TIP3   OH2 6455   3.390   1.024   4.802  0.1943 -0.3468  0.2503
 2150TIP3    H1 6456   3.307   0.979   4.818 -1.2511  1.7813 -0.6840
 2150TIP3    H2 6457   3.452   0.955   4.783 -1.5698 -1.9852  0.1217
 2151TIP3   OH2 6458   2.326   4.506   2.901  0.2846  0.0421 -0.4459
 2151TIP3    H1 6459   2.274   4.487   2.979  0.4098 -2.8265 -0.9238
 2151TIP3    H2 6460   2.416   4.509   2.933  0.3167 -0.9519 -0.3829
 2152TIP3   OH2 6461   2.908   0.731   3.104  0.4662 -0.1904 -0.1158
 2152TIP3    H1 6462   2.906   0.811   3.052 -0.8405 -0.1063  0.0456
 2152TIP3    H2 6463   2.875   0.663   3.046  0.4936 -0.3971  0.1098
 2153TIP3   OH2 6464   1.988   3.219   3.310 -0.6343 -0.2803 -0.0286
 2153TIP3    H1 6465   1.944   3.179   3.235 -0.1543 -2.1064  0.6205
 2153TIP3    H2 6466   1.965   3.312   3.304 -2.6304 -0.7815 -1.0300
 2154TIP3   OH2 6467   3.221   2.357   0.132 -0.5572 -0.1514  0.0274
 2154TIP3    H1 6468   3.170   2.299   0.074 -0.3697  0.8008 -1.1170
 2154TIP3    H2 6469   3.214   2.315   0.218  0.1815 -2.2849 -0.8700
 2155TIP3   OH2 6470   6.124   4.461   3.215  0.5644 -0.5791 -0.0734
 2155TIP3    H1 6471   6.030   4.445   3.216  0.3896  0.3244  1.1791
 2155TIP3    H2 6472   6.133   4.555   3.234  1.7250 -0.9750  1.6790
 2156TIP3   OH2 6473   5.267   3.638   1.705  0.1908 -0.0190  0.1365
 2156TIP3    H1 6474   5.185   3.684   1.686  0.2046 -0.1957 -0.3453
 2156TIP3    H2 6475   5.247   3.587   1.784 -0.0623  0.1900  0.2134
 2157TIP3   OH2 6476   4.713   0.675   5.053  0.8661  0.0019  0.8831
 2157TIP3    H1 6477   4.690   0.618   5.126  0.5844  0.3638  1.0821
 2157TIP3    H2 6478   4.685   0.627   4.975  1.8509 -0.7143  0.9586
 2158TIP3   OH2 6479   3.252   3.111   1.281  0.0744 -0.0897 -0.6360
 2158TIP3    H1 6480   3.343   3.088   1.299  0.2612  0.5450 -0.7600
 2158TIP3    H2 6481   3.208   3.027   1.267  0.6486 -0.3933 -0.6204
 2159TIP3   OH2 6482   3.794   5.596   0.751 -0.6881  0.3519 -0.2868
 2159TIP3    H1 6483   3.752   5.644   0.822  1.3729  1.2401  0.4047
 2159TIP3    H2 6484   3.787   5.504   0.776 -1.4368  0.5317  0.2021
 2160TIP3   OH2 6485   2.688   4.694   4.568 -0.0550  0.1105 -0.1092
 2160TIP3    H1 6486   2.718   4.603   4.571 -1.0960 -0.2436  0.0868
 2160TIP3    H2 6487   2.596   4.689   4.594  0.4882  1.5050  2.3891
 2161TIP3   OH2 6488   5.806   3.400   2.301 -0.1278 -0.2098  0.2594
 2161TIP3    H1 6489   5.725   3.376   2.256 -0.3277 -0.6570  0.8434
 2161TIP3    H2 6490   5.783   3.476   2.354 -0.0089  0.0306 -0.0282
 2162TIP3   OH2 6491   3.271   5.899   2.054 -0.3864  0.1137 -0.1223
 2162TIP3    H1 6492   3.289   5.973   2.113  0.3658 -0.3944  0.3031
 2162TIP3    H2 6493   3.194   5.857   2.091 -0.9656  0.8304 -0.5071
 2163TIP3   OH2 6494   1.491   2.020   4.839  0.2261  1.3531 -0.4091
 2163TIP3    H1 6495   1.469   2.005   4.747 -1.8368  1.0864  0.0769
 2163TIP3    H2 6496   1.417   1.983   4.888  2.4212 -0.8906  1.5276
 2164TIP3   OH2 6497   5.024   4.377   3.137 -0.2780  0.7541 -0.0206
 2164TIP3    H1 6498   5.102   4.410   3.182  0.6902 -0.8876 -0.3985
 2164TIP3    H2 6499   4.952   4.428   3.174  0.9095  2.0474  0.6355
 2165TIP3   OH2 6500   5.106   1.304   0.575 -0.4350 -0.4165 -0.2569
 2165TIP3    H1 6501   5.171   1.291   0.506 -2.9604  0.1981 -2.9707
 2165TIP3    H2 6502   5.157   1.321   0.653  2.6625  0.5999 -2.3104
 2166TIP3   OH2 6503   5.685   5.715   4.969 -0.4806 -0.1738 -0.2523
 2166TIP3    H1 6504   5.667   5.622   4.983 -1.5240 -0.0914 -0.8824
 2166TIP3    H2 6505   5.599   5.752   4.949 -0.0330  0.8804 -0.2474
 2167TIP3   OH2 6506   5.848   5.017   5.094  0.1604  0.2903 -0.0124
 2167TIP3    H1 6507   5.808   5.077   5.032  0.6694  1.5342  0.8224
 2167TIP3    H2 6508   5.840   5.060   5.179  1.2465 -0.4521  0.5002
 2168TIP3   OH2 6509   6.055   5.191   4.206 -0.3132  0.5406 -0.0357
 2168TIP3    H1 6510   6.036   5.160   4.117  2.1792 -1.5012  0.0355
 2168TIP3    H2 6511   6.000   5.137   4.262 -0.0052  0.0200 -0.2260
 2169TIP3   OH2 6512   5.432   2.487   2.842  0.0125  0.1143 -0.5900
 2169TIP3    H1 6513   5.493   2.547   2.800  0.9165 -0.5054 -0.2236
 2169TIP3    H2 6514   5.355   2.485   2.786  0.3417  0.9078 -1.0739
 2170TIP3   OH2 6515   1.675   3.392   2.496  0.5555  0.1558  0.3291
 2170TIP3    H1 6516   1.579   3.398   2.497  0.5686  1.7355 -1.6075
 2170TIP3    H2 6517   1.693   3.299   2.511 -1.3503 -0.4731 -0.8778
 2171TIP3   OH2 6518   0.525   3.491   0.674  0.3062  0.4419  1.0806
 2171TIP3    H1 6519   0.534   3.583   0.698 -0.3662  0.9605 -0.5289
 2171TIP3    H2 6520   0.454   3.459   0.731 -0.2492  1.2326  0.8565
 2172TIP3   OH2 6521   1.854   0.292   1.425  0.3177  0.4548  0.2650
 2172TIP3    H1 6522   1.898   0.370   1.459  0.4844  0.0370  1.0404
 2172TIP3    H2 6523   1.818   0.249   1.503  0.7102 -0.5358 -0.0829
 2173TIP3   OH2 6524   4.071   3.201   2.408  0.1750  0.4148  0.7388
 2173TIP3    H1 6525   4.056   3.134   2.474  0.1463 -0.8307 -0.5047
 2173TIP3    H2 6526   4.140   3.166   2.352 -0.7809  0.7879 -0.7504
 2174TIP3   OH2 6527   2.002   4.886   2.905 -0.7187  0.7271  0.4573
 2174TIP3    H1 6528   1.913   4.853   2.913 -1.0891  1.9000  1.6146
 2174TIP3    H2 6529   2.056   4.808   2.890 -1.9392  0.0280 -0.4505
 2175TIP3   OH2 6530   5.492   5.950   1.728 -0.0477  0.1179  0.4273
 2175TIP3    H1 6531   5.473   5.871   1.678  1.2449  0.2791 -0.3790
 2175TIP3    H2 6532   5.552   5.922   1.796  0.2322  0.3520  0.2804
 2176TIP3   OH2 6533   5.452   4.404   0.122 -0.6939  0.4241  0.0352
 2176TIP3    H1 6534   5.469   4.480   0.178  0.6737  0.4458 -0.3499
 2176TIP3    H2 6535   5.358   4.406   0.105 -0.9075  1.1967  1.2001
 2177TIP3   OH2 6536   6.202   3.832   0.500 -0.0101 -0.0141 -0.7242
 2177TIP3    H1 6537   6.255   3.912   0.505 -1.9697  1.3297 -0.2047
 2177TIP3    H2 6538   6.207   3.794   0.588  1.0534 -0.5677 -1.0159
 2178TIP3   OH2 6539   1.493   4.533   2.479 -0.0896 -0.3097  0.3561
 2178TIP3    H1 6540   1.523   4.624   2.484  1.1287 -0.7515  1.8671
 2178TIP3    H2 6541   1.425   4.534   2.413  0.6754  1.4927 -0.4679
 2179TIP3   OH2 6542   0.260   4.704   1.649 -0.2080 -0.1448 -0.7483
 2179TIP3    H1 6543   0.172   4.705   1.611 -0.8432  1.3144  0.6425
 2179TIP3    H2 6544   0.308   4.771   1.599 -1.1083  1.9340  1.0413
 2180TIP3   OH2 6545   2.488   3.739   4.699  0.7630  0.1372  0.3631
 2180TIP3    H1 6546   2.395   3.761   4.703  0.0374 -2.0994 -1.6560
 2180TIP3    H2 6547   2.526   3.808   4.644 -0.7128 -1.3196 -2.7637
 2181TIP3   OH2 6548   3.401   1.714   2.906 -0.1425  0.1551  0.1225
 2181TIP3    H1 6549   3.449   1.674   2.834 -1.0467 -1.5965  0.4493
 2181TIP3    H2 6550   3.340   1.775   2.863  3.0348  3.4501 -0.2596
 2182TIP3   OH2 6551   0.550   3.470   4.112  0.8387 -0.5390  0.3078
 2182TIP3    H1 6552   0.595   3.464   4.196  2.6203  0.8512 -0.4806
 2182TIP3    H2 6553   0.467   3.512   4.133  0.8159 -1.1288  1.5009
 2183TIP3   OH2 6554   1.176   5.687   2.191  0.4256 -0.5203 -0.4824
 2183TIP3    H1 6555   1.173   5.756   2.125 -0.1532  0.8389  0.9141
 2183TIP3    H2 6556   1.187   5.606   2.141  1.0365  0.5648 -2.1629
 2184TIP3   OH2 6557   3.908   2.801   3.631 -0.0655  0.6133 -0.2622
 2184TIP3    H1 6558   3.859   2.738   3.684 -0.5614  0.2930 -1.0808
 2184TIP3    H2 6559   3.902   2.883   3.679 -0.8703  0.4311 -0.0347
 2185TIP3   OH2 6560   3.983   5.613   0.344  0.1966  0.3220 -0.1471
 2185TIP3    H1 6561   4.033   5.630   0.424 -0.6975 -2.1383  1.0334
 2185TIP3    H2 6562   4.044   5.632   0.273  0.8969  2.9335  1.0366
 2186TIP3   OH2 6563   0.526   4.191   4.831  0.4982 -0.1255  0.7418
 2186TIP3    H1 6564   0.521   4.286   4.817  1.5807 -0.4110 -2.5041
 2186TIP3    H2 6565   0.436   4.163   4.843 -0.6234  0.8141 -3.6218
 2187TIP3   OH2 6566   2.117   3.689   4.326 -0.0144 -0.3600  0.0953
 2187TIP3    H1 6567   2.174   3.695   4.250 -0.4327  0.5561 -0.1477
 2187TIP3    H2 6568   2.039   3.739   4.303 -1.1644 -2.0168  0.2249
 2188TIP3   OH2 6569   2.405   5.659   1.309  0.1485 -0.3748 -0.1838
 2188TIP3    H1 6570   2.327   5.708   1.283 -0.9962 -1.8249  0.3595
 2188TIP3    H2 6571   2.465   5.668   1.236 -1.0889 -0.3567 -1.2290
 2189TIP3   OH2 6572   0.298   0.054   2.233 -0.1960 -0.4343  0.1946
 2189TIP3    H1 6573   0.292  -0.027   2.284 -0.1733 -0.6961 -0.2195
 2189TIP3    H2 6574   0.389   0.056   2.202  0.1731  0.3709  1.2189
 2190TIP3   OH2 6575   5.863   5.627   1.810  0.7156 -0.3460 -0.3539
 2190TIP3    H1 6576   5.777   5.669   1.803  1.1458  0.6480  0.0351
 2190TIP3    H2 6577   5.844   5.535   1.829 -0.2700 -0.5112 -1.9526
 2191TIP3   OH2 6578   2.720   5.115   0.653 -0.1368 -0.1756  0.4181
 2191TIP3    H1 6579   2.745   5.052   0.721 -0.4345  0.0156  0.7064
 2191TIP3    H2 6580   2.671   5.183   0.699  0.4869  0.4594  0.1671
 2192TIP3   OH2 6581   6.276   4.529   1.093 -0.3823 -0.1974 -0.3229
 2192TIP3    H1 6582   6.328   4.541   1.014 -0.3602 -0.7415 -0.3956
 2192TIP3    H2 6583   6.185   4.534   1.063 -0.4486  2.9589  0.1268
 2193TIP3   OH2 6584   0.422   5.348   1.879  0.2065  0.2226  0.3025
 2193TIP3    H1 6585   0.441   5.255   1.891 -0.2838 -0.0712 -1.0311
 2193TIP3    H2 6586   0.376   5.374   1.959  0.1336 -0.7302  0.5825
 2194TIP3   OH2 6587   0.533   0.899   0.483 -0.4794 -0.2608 -0.1504
 2194TIP3    H1 6588   0.492   0.985   0.495 -1.7057 -0.8942  0.3056
 2194TIP3    H2 6589   0.533   0.860   0.570  1.5002 -0.1331 -0.0495
 2195TIP3   OH2 6590   0.448   2.491   4.386 -0.0249 -0.1988 -0.0652
 2195TIP3    H1 6591   0.362   2.451   4.372 -0.4110 -0.0190  1.5657
 2195TIP3    H2 6592   0.457   2.555   4.315 -1.1181 -0.4073 -0.4061
 2196TIP3   OH2 6593   5.999   2.328   0.264  0.2211 -0.1404 -0.0600
 2196TIP3    H1 6594   6.091   2.337   0.238  0.1183 -1.1127 -0.7920
 2196TIP3    H2 6595   5.968   2.250   0.219 -1.2377  0.6811 -0.5581
 2197TIP3   OH2 6596   0.330   1.182   4.969 -0.4926 -0.3996  0.3668
 2197TIP3    H1 6597   0.355   1.183   4.876 -1.2924 -1.2461  0.1281
 2197TIP3    H2 6598   0.279   1.262   4.981  0.4586  0.2274  0.3318
 2198TIP3   OH2 6599   4.098   0.057   1.595  0.1383 -0.4712  0.0471
 2198TIP3    H1 6600   4.032   0.083   1.531  1.3535  1.7453 -0.3844
 2198TIP3    H2 6601   4.181   0.086   1.558  1.0083 -0.1523  2.1106
 2199TIP3   OH2 6602   2.634   1.961   0.456  0.4775 -0.3317 -0.4590
 2199TIP3    H1 6603   2.599   1.938   0.542  1.5312  0.3736  0.1778
 2199TIP3    H2 6604   2.583   2.038   0.430 -0.4426 -1.0671 -0.8788
 2200TIP3   OH2 6605   6.166   5.783   2.805  0.4908 -0.4348  0.4909
 2200TIP3    H1 6606   6.130   5.870   2.787  1.6948 -0.0398 -0.1295
 2200TIP3    H2 6607   6.260   5.798   2.818  0.8513 -1.7234 -0.3991
 2201TIP3   OH2 6608   1.865   2.511   2.867 -0.3669  0.3857  0.1508
 2201TIP3    H1 6609   1.929   2.580   2.853  0.1697  0.0056  0.6577
 2201TIP3    H2 6610   1.789   2.555   2.905  0.5090  0.5045  1.8305
 2202TIP3   OH2 6611   2.017   3.797   2.741  0.2585 -0.0586 -0.1626
 2202TIP3    H1 6612   2.022   3.740   2.665  0.1391  0.8760 -0.8976
 2202TIP3    H2 6613   1.975   3.877   2.708  0.3516  0.4240  0.8466
 2203TIP3   OH2 6614   4.817   0.688   0.656 -0.3299 -0.4911  0.2937
 2203TIP3    H1 6615   4.758   0.756   0.625 -2.1774 -2.4469 -0.7243
 2203TIP3    H2 6616   4.880   0.677   0.585  0.9367  1.1023  1.0874
 2204TIP3   OH2 6617   3.382   4.690   4.544  0.0395 -0.3702  0.3297
 2204TIP3    H1 6618   3.445   4.760   4.526 -2.1663  1.5645 -0.3018
 2204TIP3    H2 6619   3.366   4.696   4.638  0.7556 -0.8478  0.4863
 2205TIP3   OH2 6620   3.161   1.932   2.493 -0.0596 -0.6356  0.1455
 2205TIP3    H1 6621   3.182   1.842   2.467 -1.3052 -0.5001 -1.5115
 2205TIP3    H2 6622   3.245   1.967   2.524  0.8923 -1.7887 -0.9605
 2206TIP3   OH2 6623   3.383   3.257   2.693 -0.1425  0.1901  0.2879
 2206TIP3    H1 6624   3.397   3.206   2.614 -1.2281 -0.7384  0.6641
 2206TIP3    H2 6625   3.471   3.275   2.727  0.4702  2.3612 -2.1600
 2207TIP3   OH2 6626   4.471   2.466   5.164  0.0869 -0.5986 -0.0329
 2207TIP3    H1 6627   4.433   2.540   5.117 -1.3305  0.7678  2.9660
 2207TIP3    H2 6628   4.564   2.488   5.174 -0.1354  0.3322  0.0372
 2208TIP3   OH2 6629   2.525   3.348   3.213 -0.0287 -0.2397  0.3594
 2208TIP3    H1 6630   2.485   3.343   3.126  1.0648 -1.7231 -0.0953
 2208TIP3    H2 6631   2.466   3.298   3.269  0.5653 -1.4622 -0.0765
 2209TIP3   OH2 6632   0.536   5.550   2.160  0.3735 -0.8146  0.2970
 2209TIP3    H1 6633   0.595   5.601   2.216 -0.8827  0.0694  0.8940
 2209TIP3    H2 6634   0.525   5.604   2.082 -0.7392 -0.2523  0.8092
 2210TIP3   OH2 6635   3.146   1.933   0.966 -0.2842 -0.1163 -0.0586
 2210TIP3    H1 6636   3.084   1.938   1.039 -1.1759 -0.0177 -0.7938
 2210TIP3    H2 6637   3.178   1.843   0.967 -1.1128 -0.4240 -0.1841
 2211TIP3   OH2 6638   2.042   0.517   2.434  0.1443  0.8762  0.3420
 2211TIP3    H1 6639   1.986   0.590   2.460 -0.3041 -0.0727  2.1951
 2211TIP3    H2 6640   2.112   0.558   2.383 -0.3284  2.5341  0.9540
 2212TIP3   OH2 6641   6.213   5.497   0.179 -0.2070  0.0869  0.2130
 2212TIP3    H1 6642   6.189   5.498   0.272 -0.4996  2.5445  0.1646
 2212TIP3    H2 6643   6.130   5.485   0.133 -0.0337 -1.3858  0.2237
 2213TIP3   OH2 6644   2.613   3.138   1.309 -0.6265  0.0910 -0.5988
 2213TIP3    H1 6645   2.520   3.117   1.317 -0.6410 -0.5385 -2.0670
 2213TIP3    H2 6646   2.658   3.054   1.320 -0.4370 -0.1311 -2.6503
 2214TIP3   OH2 6647   3.572   3.510   4.119 -0.2198  0.0615  0.4370
 2214TIP3    H1 6648   3.536   3.428   4.083  2.0101 -0.2111 -1.4032
 2214TIP3    H2 6649   3.504   3.575   4.103 -0.6605 -0.7669 -1.2936
 2215TIP3   OH2 6650   4.248   3.212   3.810 -0.2279  0.2594 -0.4658
 2215TIP3    H1 6651   4.167   3.180   3.850 -0.2213  0.7714 -0.0300
 2215TIP3    H2 6652   4.308   3.138   3.815 -0.1225  0.4099  0.7900
 2216TIP3   OH2 6653   5.641   0.801   4.763 -0.4191 -0.0218 -0.7895
 2216TIP3    H1 6654   5.547   0.799   4.744 -0.5408  0.5895 -0.2980
 2216TIP3    H2 6655   5.683   0.787   4.678 -0.9541  1.1982 -1.2816
 2217TIP3   OH2 6656   2.593   0.438   5.202  0.1946 -0.0775  0.5690
 2217TIP3    H1 6657   2.637   0.357   5.178  0.9331  0.3853  0.3219
 2217TIP3    H2 6658   2.524   0.448   5.136  1.3134  0.4582 -0.5495
 2218TIP3   OH2 6659   3.425   3.083   3.429  0.8199 -0.3521  0.4528
 2218TIP3    H1 6660   3.499   3.040   3.472  1.2128  0.3041  0.4503
 2218TIP3    H2 6661   3.457   3.171   3.409 -0.7955  0.8768  2.8252
 2219TIP3   OH2 6662   6.130   5.298   0.437 -0.0068 -0.4998 -0.0002
 2219TIP3    H1 6663   6.053   5.258   0.397 -1.2375 -1.0602  2.7002
 2219TIP3    H2 6664   6.096   5.371   0.488  1.1335 -1.0405  1.6311
 2220TIP3   OH2 6665   5.953   2.066   1.369 -0.1433 -0.2863  0.6058
 2220TIP3    H1 6666   5.928   2.016   1.291 -0.0498  1.3410 -0.5154
 2220TIP3    H2 6667   5.975   2.153   1.336 -1.4618  0.8927  2.6135
 2221TIP3   OH2 6668   6.112   0.583   4.166  0.0670 -0.2126 -0.2527
 2221TIP3    H1 6669   6.052   0.515   4.193  0.9067 -0.7466  0.3174
 2221TIP3    H2 6670   6.068   0.665   4.189 -0.4767 -0.5893  0.0595
 2222TIP3   OH2 6671   3.272   4.685   4.829 -0.0548  0.5708  0.4312
 2222TIP3    H1 6672   3.311   4.695   4.916  0.5439  0.4847  0.1785
 2222TIP3    H2 6673   3.185   4.724   4.838 -0.9377 -1.5388  1.7063
 2223TIP3   OH2 6674   1.238   0.085   0.804 -0.7886 -0.3749  0.0451
 2223TIP3    H1 6675   1.273   0.160   0.756 -0.7194 -0.6719 -0.3732
 2223TIP3    H2 6676   1.251   0.011   0.745  3.3200 -1.6070  2.1568
 2224TIP3   OH2 6677   0.934   2.358   1.872 -0.3423 -0.2467  0.3442
 2224TIP3    H1 6678   0.909   2.395   1.788  0.7739  0.3183  0.2411
 2224TIP3    H2 6679   0.865   2.387   1.933 -1.1658 -0.6801 -0.3558
 2225TIP3   OH2 6680   5.273   4.043   3.384 -0.0308  0.0693 -0.1257
 2225TIP3    H1 6681   5.237   3.965   3.343  0.6690 -0.1271 -0.3768
 2225TIP3    H2 6682   5.366   4.024   3.394 -0.0917  0.3180  1.0757
 2226TIP3   OH2 6683   4.345   3.014   5.088 -0.0678 -0.1708  0.2331
 2226TIP3    H1 6684   4.379   2.936   5.133 -0.5237 -1.3062 -1.2791
 2226TIP3    H2 6685   4.258   3.027   5.126  0.3680  0.1783  1.1414
 2227TIP3   OH2 6686   6.169   2.123   2.203  0.0919  0.9585  0.0531
 2227TIP3    H1 6687   6.158   2.207   2.247 -0.2120  0.4471  0.9744
 2227TIP3    H2 6688   6.082   2.102   2.170  0.0116  0.6863  0.4282
 2228TIP3   OH2 6689   0.144   2.599   1.061 -0.7539 -0.2792 -0.9357
 2228TIP3    H1 6690   0.130   2.543   1.137  0.0383  0.9221  0.1402
 2228TIP3    H2 6691   0.056   2.615   1.026 -1.2641  0.1311  0.4691
 2229TIP3   OH2 6692   6.195   0.962   1.680 -0.5635  0.2671 -0.5026
 2229TIP3    H1 6693   6.235   0.997   1.601 -0.8970  2.6466  0.3014
 2229TIP3    H2 6694   6.165   0.875   1.655  1.3996  0.0362 -2.2866
 2230TIP3   OH2 6695   0.635   4.397   3.460  0.0335 -0.1145 -0.2571
 2230TIP3    H1 6696   0.693   4.325   3.434 -0.9057 -1.3323  0.8516
 2230TIP3    H2 6697   0.574   4.405   3.387  0.9088  0.4439 -0.9510
 2231TIP3   OH2 6698   2.666  -0.007   1.460 -0.0471 -0.8367  0.0204
 2231TIP3    H1 6699   2.620   0.046   1.525  0.5859  0.6427 -0.6713
 2231TIP3    H2 6700   2.614   0.003   1.380  0.2538 -0.9920 -0.1994
 2232TIP3   OH2 6701   0.038   2.075   0.114 -0.1433 -0.2871  0.4520
 2232TIP3    H1 6702  -0.040   2.044   0.067  0.7731  0.4139 -1.6294
 2232TIP3    H2 6703   0.092   1.997   0.125  0.2568 -0.2336 -0.9668
 2233TIP3   OH2 6704   2.444   5.969   0.101 -0.0787  0.0697 -0.2122
 2233TIP3    H1 6705   2.485   5.992   0.184  2.2681 -1.0582 -0.9719
 2233TIP3    H2 6706   2.457   5.875   0.093 -0.9885  0.0245 -1.5102
 2234TIP3   OH2 6707   0.378   0.216   3.156  0.4398  0.0583 -0.1459
 2234TIP3    H1 6708   0.305   0.212   3.094 -0.3392  1.6192  0.6303
 2234TIP3    H2 6709   0.394   0.124   3.180 -0.6677 -0.3791 -1.0096
 2235TIP3   OH2 6710   1.851   3.968   2.608 -0.7166 -0.7414  0.2985
 2235TIP3    H1 6711   1.837   4.054   2.649  1.9059  0.2533 -0.6807
 2235TIP3    H2 6712   1.785   3.965   2.538  0.0385  1.1999 -0.5883
 2236TIP3   OH2 6713   3.357   1.263   2.024 -0.4906 -0.7271 -0.6135
 2236TIP3    H1 6714   3.333   1.344   1.980 -2.3505  0.5228  2.4673
 2236TIP3    H2 6715   3.305   1.195   1.980 -1.0671  0.1817 -1.3581
 2237TIP3   OH2 6716   0.811   4.723   4.280  0.6058  0.1321 -0.3299
 2237TIP3    H1 6717   0.721   4.693   4.293 -0.2354  2.8119  0.7269
 2237TIP3    H2 6718   0.817   4.740   4.186 -0.5790  1.5017 -0.1846
 2238TIP3   OH2 6719   1.781   4.142   4.741 -0.3569  0.3004 -0.5126
 2238TIP3    H1 6720   1.728   4.157   4.663 -0.2943  0.3920 -0.5366
 2238TIP3    H2 6721   1.799   4.229   4.776 -1.4864  0.2264  0.3378
 2239TIP3   OH2 6722   1.410   3.006   1.135  0.4603  0.4655 -0.0225
 2239TIP3    H1 6723   1.349   2.932   1.129  1.8057 -0.5980 -1.2486
 2239TIP3    H2 6724   1.380   3.056   1.212  0.5439 -2.3085  1.9595
 2240TIP3   OH2 6725   2.700   4.553   0.692 -0.6257 -0.2326  0.0521
 2240TIP3    H1 6726   2.632   4.487   0.678  0.2081 -1.1655  0.2742
 2240TIP3    H2 6727   2.742   4.562   0.606 -0.9767  0.3126 -0.0741
 2241TIP3   OH2 6728   1.584   5.363   4.391  0.0255 -0.2997  0.1108
 2241TIP3    H1 6729   1.582   5.318   4.307  0.7266  0.0940 -0.1294
 2241TIP3    H2 6730   1.582   5.293   4.456 -0.4330 -0.6107 -0.2325
 2242TIP3   OH2 6731   5.657   0.904   1.935  0.7114  0.0903  0.7501
 2242TIP3    H1 6732   5.678   0.843   2.005  0.9929 -0.0871  0.5093
 2242TIP3    H2 6733   5.667   0.991   1.975  1.9844  0.0182  0.6237
 2243TIP3   OH2 6734   2.837   5.595   4.584 -0.5788  0.4423 -0.3038
 2243TIP3    H1 6735   2.766   5.609   4.522 -0.5843  0.4241 -0.3012
 2243TIP3    H2 6736   2.883   5.518   4.551  0.4169  1.3955 -1.2203
 2244TIP3   OH2 6737   1.073   2.017   3.713  0.3541  0.2194 -0.1675
 2244TIP3    H1 6738   1.130   2.069   3.771  0.7155  0.4044 -0.6783
 2244TIP3    H2 6739   1.028   2.083   3.660  0.5602  0.0270 -0.5851
 2245TIP3   OH2 6740   4.430   3.939   0.068  0.2590 -0.3868  0.2933
 2245TIP3    H1 6741   4.362   3.962   0.131  0.1208 -1.7104  0.6752
 2245TIP3    H2 6742   4.472   3.862   0.106  1.4747 -0.0450 -0.3073
 2246TIP3   OH2 6743   1.688   2.953   4.233 -0.3564  0.0700  0.2244
 2246TIP3    H1 6744   1.761   3.005   4.200 -0.3243 -0.3979 -0.4618
 2246TIP3    H2 6745   1.699   2.954   4.328  2.5132 -2.6955  0.1180
 2247TIP3   OH2 6746   5.550   1.773   2.885 -0.6496  0.0464 -0.2150
 2247TIP3    H1 6747   5.504   1.772   2.969 -0.2235 -0.4193  0.0179
 2247TIP3    H2 6748   5.627   1.827   2.901 -0.4284 -0.2663 -0.2332
 2248TIP3   OH2 6749   6.260   2.627   0.911  0.1040  0.1551 -0.6152
 2248TIP3    H1 6750   6.261   2.614   1.006  0.6226 -0.1774 -0.6675
 2248TIP3    H2 6751   6.167   2.640   0.890  0.1118  1.7207  0.1356
 2249TIP3   OH2 6752   6.243   2.467   1.707 -0.5197 -0.1927  0.3371
 2249TIP3    H1 6753   6.199   2.534   1.759  0.5047  0.3062  0.5777
 2249TIP3    H2 6754   6.244   2.389   1.763  0.7488  0.3963  1.1726
 2250TIP3   OH2 6755   5.322   1.311   2.298  0.1180  0.5054 -0.4775
 2250TIP3    H1 6756   5.351   1.399   2.273  0.5973  0.2800 -0.7451
 2250TIP3    H2 6757   5.362   1.296   2.384 -0.9298  0.9984  0.1092
 2251TIP3   OH2 6758   3.934   4.052   2.489 -0.2918 -0.4057  0.0992
 2251TIP3    H1 6759   3.926   3.989   2.561 -0.8808  1.7894  2.1221
 2251TIP3    H2 6760   3.955   4.000   2.412  1.9539 -2.7692  2.1439
 2252TIP3   OH2 6761   3.246   4.015   0.782 -1.0024 -0.5386  0.4837
 2252TIP3    H1 6762   3.257   3.945   0.845 -2.3441 -0.2667  1.0448
 2252TIP3    H2 6763   3.265   3.974   0.697 -0.1882 -1.1589  0.9589
 2253TIP3   OH2 6764   2.315   1.366   2.883 -0.4661  0.0571 -0.0932
 2253TIP3    H1 6765   2.375   1.422   2.933 -0.9728  0.5236  0.0044
 2253TIP3    H2 6766   2.361   1.283   2.874 -0.8798 -0.5237  2.3704
 2254TIP3   OH2 6767   2.155   5.217   4.289 -0.7829  0.4750 -0.2261
 2254TIP3    H1 6768   2.163   5.287   4.224  0.3195  1.3987  0.8667
 2254TIP3    H2 6769   2.149   5.137   4.237  2.8537  0.8705 -1.5212
 2255TIP3   OH2 6770   1.836   4.733   4.939  0.5301 -0.8574  0.1780
 2255TIP3    H1 6771   1.755   4.718   4.890  0.0543 -1.0475  1.0052
 2255TIP3    H2 6772   1.901   4.753   4.871 -0.1515 -0.9147 -0.5149
 2256TIP3   OH2 6773   3.646   0.300   2.241  0.2851 -0.5881  0.1572
 2256TIP3    H1 6774   3.615   0.257   2.321  1.0181 -0.5064  0.5011
 2256TIP3    H2 6775   3.569   0.344   2.205  0.2785  0.7757  1.7125
 2257TIP3   OH2 6776   3.183   5.980   0.698 -0.4362 -0.1388 -0.2858
 2257TIP3    H1 6777   3.156   5.888   0.695  0.2385 -0.4281  1.3833
 2257TIP3    H2 6778   3.245   5.984   0.770 -1.1527  1.8203  0.2818
 2258TIP3   OH2 6779   0.011   4.136   1.856 -0.1023 -0.1202 -0.1480
 2258TIP3    H1 6780  -0.005   4.042   1.859  0.0781 -0.1603 -0.4356
 2258TIP3    H2 6781   0.085   4.146   1.796  0.6506  0.1009  0.7799
 2259TIP3   OH2 6782   2.175   5.421   3.276  0.4069 -0.1255  0.1692
 2259TIP3    H1 6783   2.220   5.379   3.203 -0.1576  0.3251 -0.4548
 2259TIP3    H2 6784   2.192   5.365   3.351 -0.6216 -1.6541 -0.6970
 2260TIP3   OH2 6785   6.267   3.628   0.347 -0.6516  0.2999  0.3139
 2260TIP3    H1 6786   6.326   3.672   0.285 -1.8835  1.9729  0.2430
 2260TIP3    H2 6787   6.233   3.699   0.401  0.9866 -1.1528  3.5643
 2261TIP3   OH2 6788   5.712   5.064   3.635 -0.4355 -0.7959  0.0038
 2261TIP3    H1 6789   5.776   5.095   3.700 -0.3521  1.7613 -1.1818
 2261TIP3    H2 6790   5.751   4.984   3.600  1.0580 -0.4761  0.8299
 2262TIP3   OH2 6791   3.045   1.777   3.122 -0.7856  0.6266  0.2589
 2262TIP3    H1 6792   3.093   1.697   3.102 -1.6834  0.0239  0.4419
 2262TIP3    H2 6793   3.110   1.847   3.114  0.6002 -0.3139  2.2785
 2263TIP3   OH2 6794   5.097   3.938   3.828 -0.2292  0.1681  0.5367
 2263TIP3    H1 6795   5.113   4.007   3.763  0.1241 -1.4003 -1.1332
 2263TIP3    H2 6796   5.066   3.985   3.906  2.9289  2.4955  0.5856
 2264TIP3   OH2 6797   2.282   5.100   4.755  0.8695  0.5994  0.6516
 2264TIP3    H1 6798   2.339   5.151   4.813  3.2731 -1.3528  0.1369
 2264TIP3    H2 6799   2.304   5.131   4.667 -0.5415  1.3809  0.5448
 2265TIP3   OH2 6800   1.031   5.093   1.829 -0.3608  0.4441 -0.4682
 2265TIP3    H1 6801   0.965   5.088   1.761 -1.8739 -0.2472  0.9811
 2265TIP3    H2 6802   1.063   5.183   1.825 -1.0622  0.6636 -1.4775
 2266TIP3   OH2 6803   4.029   3.077   0.186 -0.4690 -0.1631 -0.7933
 2266TIP3    H1 6804   4.107   3.031   0.155 -0.7603 -1.2953  0.1104
 2266TIP3    H2 6805   4.017   3.149   0.123  0.0978 -1.2157 -2.1375
 2267TIP3   OH2 6806   2.388   2.678   0.294 -0.3710 -0.1609  0.6580
 2267TIP3    H1 6807   2.427   2.654   0.378  0.3322  0.8358  0.6251
 2267TIP3    H2 6808   2.446   2.745   0.258 -0.2110 -1.1002 -0.9881
 2268TIP3   OH2 6809   1.542   0.591   1.164  0.1375  0.1648 -0.2846
 2268TIP3    H1 6810   1.587   0.632   1.090  1.1039  0.5931  0.5072
 2268TIP3    H2 6811   1.609   0.535   1.204 -0.0747  0.6747  0.8234
 2269TIP3   OH2 6812   4.814   3.924   0.515 -0.0752 -0.3139 -0.1393
 2269TIP3    H1 6813   4.772   3.991   0.461 -0.8635  0.0685  0.9211
 2269TIP3    H2 6814   4.875   3.880   0.456 -0.6338  0.3523 -1.2308
 2270TIP3   OH2 6815   0.317   5.218   3.850  0.0947  0.4769  0.0497
 2270TIP3    H1 6816   0.281   5.276   3.783  1.5249  0.3034 -0.9198
 2270TIP3    H2 6817   0.333   5.136   3.805  0.9725  0.3168  0.6300
 2271TIP3   OH2 6818   2.926   0.663   4.082  0.3181  0.2602 -0.2055
 2271TIP3    H1 6819   2.983   0.589   4.061 -0.0698 -0.6963  1.8764
 2271TIP3    H2 6820   2.850   0.624   4.125  0.2321  1.8605  1.2222
 2272TIP3   OH2 6821   2.424   1.596   0.412  0.7993 -0.1946  0.2015
 2272TIP3    H1 6822   2.350   1.647   0.380  1.3418  0.1080 -0.6286
 2272TIP3    H2 6823   2.464   1.650   0.480  1.6799  0.7746 -1.0292
 2273TIP3   OH2 6824   3.901   2.375   4.277 -0.3961  0.0320  0.5012
 2273TIP3    H1 6825   3.881   2.323   4.199 -0.8036 -2.0124  1.9041
 2273TIP3    H2 6826   3.823   2.366   4.332 -0.1920  1.6140  1.0995
 2274TIP3   OH2 6827   3.777   3.751   1.238 -0.1526 -0.0326  0.0664
 2274TIP3    H1 6828   3.780   3.811   1.313  2.3384  1.6130 -1.2443
 2274TIP3    H2 6829   3.693   3.770   1.197 -0.0254  1.5879  0.4760
 2275TIP3   OH2 6830   1.170   0.534   0.523  0.4230 -0.4717  0.3373
 2275TIP3    H1 6831   1.191   0.522   0.430 -5.0142  2.9579 -1.8242
 2275TIP3    H2 6832   1.087   0.488   0.535  0.2875  0.3329  3.1269
 2276TIP3   OH2 6833   0.589   2.649   3.959  0.3480 -0.1913 -0.2487
 2276TIP3    H1 6834   0.506   2.601   3.958  1.0908 -1.5545  0.4154
 2276TIP3    H2 6835   0.568   2.733   3.999 -1.3455  0.7961 -2.9150
 2277TIP3   OH2 6836   4.990   2.623   1.152  0.0026 -0.2332 -0.5379
 2277TIP3    H1 6837   4.951   2.688   1.094 -1.8877 -0.9608 -0.1368
 2277TIP3    H2 6838   5.025   2.556   1.094  0.6132  0.3905 -0.9027
 2278TIP3   OH2 6839   4.332   5.751   0.979  0.4523  0.4838  0.5556
 2278TIP3    H1 6840   4.325   5.667   1.023 -0.4984  1.2602  1.9820
 2278TIP3    H2 6841   4.372   5.731   0.894  0.4211 -1.3547  0.9366
 2279TIP3   OH2 6842   2.435   4.431   0.795  0.8699  0.2013  0.0800
 2279TIP3    H1 6843   2.381   4.406   0.720  0.5353  1.1040  0.0096
 2279TIP3    H2 6844   2.384   4.404   0.872  0.0586  1.5161  0.0257
 2280TIP3   OH2 6845   5.441   1.093   0.185  0.6071  0.0313 -0.8989
 2280TIP3    H1 6846   5.383   1.106   0.109 -0.7835  0.7939  0.2589
 2280TIP3    H2 6847   5.513   1.154   0.170  2.2125 -2.1904 -3.2873
 2281TIP3   OH2 6848   4.719   0.106   4.740 -0.0363 -0.4176 -0.4958
 2281TIP3    H1 6849   4.720   0.137   4.650  2.0583  0.1446 -0.3243
 2281TIP3    H2 6850   4.764   0.022   4.737 -0.8079 -0.8497 -0.1114
 2282TIP3   OH2 6851   1.682   3.803   0.271  0.1073 -0.7887  0.2111
 2282TIP3    H1 6852   1.746   3.866   0.304  0.1700 -0.4226 -0.5916
 2282TIP3    H2 6853   1.608   3.857   0.242  0.9715 -0.8932 -2.3578
 2283TIP3   OH2 6854   4.013   4.587   1.753 -0.2103 -0.2578  0.4800
 2283TIP3    H1 6855   3.993   4.680   1.759 -2.7833 -0.7830  0.9507
 2283TIP3    H2 6856   3.975   4.559   1.669  0.2700 -0.9524  0.4807
 2284TIP3   OH2 6857   2.331   0.884   3.874  0.4276  0.1136  0.0656
 2284TIP3    H1 6858   2.403   0.828   3.845 -0.1429 -0.5408 -0.1170
 2284TIP3    H2 6859   2.367   0.934   3.947  1.0403 -0.2519  0.0181
 2285TIP3   OH2 6860   2.917   0.316   2.923 -0.3461  0.4117  0.7058
 2285TIP3    H1 6861   2.850   0.352   2.981 -1.2543 -0.7241  0.3945
 2285TIP3    H2 6862   2.876   0.240   2.883  0.9284  0.0517  0.0255
 2286TIP3   OH2 6863   0.264   4.680   0.655 -0.0009 -0.3648 -0.1951
 2286TIP3    H1 6864   0.338   4.741   0.652  0.9906 -1.5530 -1.9188
 2286TIP3    H2 6865   0.302   4.594   0.638 -1.4404 -1.4312  1.5761
 2287TIP3   OH2 6866   1.933   0.980   4.300  0.0723 -0.2624  0.0890
 2287TIP3    H1 6867   1.989   0.973   4.377 -0.2968 -1.5048  0.2713
 2287TIP3    H2 6868   1.911   1.073   4.294  1.2486  0.0650  0.6519
 2288TIP3   OH2 6869   1.151   2.361   2.068 -0.5871  0.5158  0.0417
 2288TIP3    H1 6870   1.085   2.330   2.130 -0.9475 -0.7857 -0.9429
 2288TIP3    H2 6871   1.100   2.386   1.990 -0.0019  0.5273 -0.3437
 2289TIP3   OH2 6872   2.522   1.935   2.280 -0.2109 -0.5239 -0.3266
 2289TIP3    H1 6873   2.464   1.976   2.216 -1.4783 -0.3683  0.8595
 2289TIP3    H2 6874   2.540   1.848   2.244 -2.3182 -1.1014 -0.1390
 2290TIP3   OH2 6875   5.237   0.825   0.953  0.0180  0.2098 -0.2338
 2290TIP3    H1 6876   5.280   0.759   0.899  0.7969  0.8701 -0.4576
 2290TIP3    H2 6877   5.274   0.813   1.040  0.5367  0.6515 -0.3833
 2291TIP3   OH2 6878   0.470   1.241   1.454 -0.3293 -0.0855  0.4299
 2291TIP3    H1 6879   0.400   1.175   1.464 -1.3580  0.7936 -0.7081
 2291TIP3    H2 6880   0.521   1.211   1.379  0.1453 -0.3756  0.8572
 2292TIP3   OH2 6881   4.123   3.251   1.044 -0.2880  0.3437 -0.0456
 2292TIP3    H1 6882   4.044   3.264   0.992 -0.2363  0.5559 -0.0715
 2292TIP3    H2 6883   4.142   3.337   1.082  0.1954  0.4135 -0.4237
 2293TIP3   OH2 6884   5.321   1.787   3.600  0.4041 -0.8941 -0.1914
 2293TIP3    H1 6885   5.304   1.871   3.559  0.8181  0.4741  2.2271
 2293TIP3    H2 6886   5.282   1.723   3.541 -1.7413  1.1396 -1.1545
 2294TIP3   OH2 6887   1.727   5.298   0.534  0.2306 -0.3917  0.2977
 2294TIP3    H1 6888   1.640   5.296   0.494 -0.2003  1.7873  0.9908
 2294TIP3    H2 6889   1.783   5.340   0.469  0.0289  1.0993  1.0591
 2295TIP3   OH2 6890   5.052   3.580   4.937  0.0525 -0.2864  0.2421
 2295TIP3    H1 6891   5.059   3.528   5.017  1.5023 -0.5770 -0.0318
 2295TIP3    H2 6892   5.120   3.544   4.880 -1.9381 -1.1512 -1.7531
 2296TIP3   OH2 6893   3.685   5.095   0.053  0.1046 -0.4672 -0.1428
 2296TIP3    H1 6894   3.686   5.156  -0.022  1.2014  0.9237  0.9468
 2296TIP3    H2 6895   3.592   5.090   0.078 -0.2234 -0.6281 -1.3152
 2297TIP3   OH2 6896   4.115   2.684   1.799  0.4085 -0.1541 -0.5188
 2297TIP3    H1 6897   4.133   2.759   1.856  1.3065 -0.0999 -0.8585
 2297TIP3    H2 6898   4.021   2.669   1.809 -0.3974  2.6648 -2.3924
 2298TIP3   OH2 6899   4.938   0.310   0.708 -0.3106 -0.4900  0.0382
 2298TIP3    H1 6900   4.999   0.355   0.650 -0.5274 -2.3938 -1.7820
 2298TIP3    H2 6901   4.981   0.227   0.729 -1.1322 -0.7094  0.9214
 2299TIP3   OH2 6902   5.418   3.216   2.192  0.8380 -0.2230  0.1463
 2299TIP3    H1 6903   5.362   3.158   2.244  1.7716 -0.6810  0.6844
 2299TIP3    H2 6904   5.400   3.191   2.101 -0.6374  0.4230  0.2297
 2300TIP3   OH2 6905   1.335   5.195   1.839  0.2053 -0.4156  0.2080
 2300TIP3    H1 6906   1.308   5.264   1.899 -1.5099 -0.2597 -0.7000
 2300TIP3    H2 6907   1.271   5.198   1.768  2.2437 -0.4837 -1.7489
 2301TIP3   OH2 6908   5.768   3.629   0.104 -0.0475  0.1448  0.1647
 2301TIP3    H1 6909   5.738   3.606   0.192  0.9015  0.6015  0.6210
 2301TIP3    H2 6910   5.848   3.577   0.092  0.8765  1.4846  0.3311
 2302TIP3   OH2 6911   4.633   2.330   4.306 -0.5357  0.2687 -0.2783
 2302TIP3    H1 6912   4.607   2.242   4.333  0.6882  0.2136  0.8561
 2302TIP3    H2 6913   4.709   2.316   4.249 -0.8172  0.5567 -0.7253
 2303TIP3   OH2 6914   5.436   3.215   2.735  0.0193  0.4040 -0.0088
 2303TIP3    H1 6915   5.350   3.205   2.776 -1.3023 -2.5005 -3.0779
 2303TIP3    H2 6916   5.498   3.189   2.803 -1.8968 -2.5185  0.7828
 2304TIP3   OH2 6917   4.386   5.772   3.263 -0.0014  0.3456 -0.3708
 2304TIP3    H1 6918   4.296   5.742   3.277  0.4464 -0.9671 -0.1261
 2304TIP3    H2 6919   4.421   5.711   3.197  0.6739  0.8924 -0.5293
 2305TIP3   OH2 6920   4.576   2.653   3.229 -0.4620  0.2255  0.4097
 2305TIP3    H1 6921   4.597   2.645   3.322 -0.2689 -0.2405  0.3315
 2305TIP3    H2 6922   4.654   2.692   3.189 -1.0207  1.6047  0.6337
 2306TIP3   OH2 6923   5.110   2.177   4.047 -0.0641 -0.1293 -0.1819
 2306TIP3    H1 6924   5.046   2.189   3.977  1.1300 -1.0821 -1.4918
 2306TIP3    H2 6925   5.181   2.237   4.026 -0.3395  0.7054  1.1045
 2307TIP3   OH2 6926   5.319   3.417   2.402 -0.5501 -0.4741 -0.0075
 2307TIP3    H1 6927   5.347   3.355   2.335  1.8478  0.3139  0.2006
 2307TIP3    H2 6928   5.389   3.418   2.466 -1.9005  0.2639  1.5467
 2308TIP3   OH2 6929   1.421   4.098   4.055 -0.0731  0.5446 -0.5225
 2308TIP3    H1 6930   1.334   4.099   4.015 -0.0655  0.6738 -0.5363
 2308TIP3    H2 6931   1.404   4.090   4.149 -0.0674 -0.8779 -0.6227
 2309TIP3   OH2 6932   3.795   1.397   4.527 -0.4723 -0.4616 -0.6787
 2309TIP3    H1 6933   3.784   1.344   4.448 -1.7636 -2.8828  0.9852
 2309TIP3    H2 6934   3.727   1.366   4.587  0.5248  1.1554  1.4682
 2310TIP3   OH2 6935   3.533   1.646   4.965  0.2679  0.1393 -0.4846
 2310TIP3    H1 6936   3.538   1.662   4.871 -1.4897 -1.0188 -0.8044
 2310TIP3    H2 6937   3.625   1.647   4.994  1.1006 -2.2863 -2.7006
 2311TIP3   OH2 6938   4.356   0.991   0.368  0.3310  0.2072 -0.6037
 2311TIP3    H1 6939   4.289   1.059   0.360 -0.2499 -0.3438 -0.5085
 2311TIP3    H2 6940   4.439   1.038   0.363 -0.0641  0.9288 -0.4797
 2312TIP3   OH2 6941   5.498   3.599   1.367  0.1686  0.1105  0.4039
 2312TIP3    H1 6942   5.590   3.601   1.397 -0.1156 -0.9168  1.4471
 2312TIP3    H2 6943   5.498   3.648   1.285  1.6835  0.0085  0.3120
 2313TIP3   OH2 6944   1.238   5.502   1.186  0.4643 -0.0428 -0.0538
 2313TIP3    H1 6945   1.330   5.527   1.191  0.0990  1.0136  1.9338
 2313TIP3    H2 6946   1.232   5.452   1.104  2.7232  0.1131 -0.3771
 2314TIP3   OH2 6947   4.127   1.399   0.246  0.2630  0.1380 -0.4634
 2314TIP3    H1 6948   4.073   1.402   0.325  0.1097  2.2091 -0.5932
 2314TIP3    H2 6949   4.217   1.400   0.279  0.2005  0.0595 -0.2891
 2315TIP3   OH2 6950   3.648   0.724   2.641  0.3909 -0.1124  0.1604
 2315TIP3    H1 6951   3.692   0.665   2.703  0.8387 -0.7680 -0.7620
 2315TIP3    H2 6952   3.674   0.692   2.555 -1.5356 -0.2450 -0.4172
 2316TIP3   OH2 6953   1.021   0.496   1.937 -0.1148  0.1922  0.3015
 2316TIP3    H1 6954   1.115   0.509   1.924 -0.2489  0.1412 -0.8107
 2316TIP3    H2 6955   0.995   0.566   1.996  0.6362  0.1393  0.7101
 2317TIP3   OH2 6956   4.547   1.633   0.137 -0.2850  0.0719 -0.2688
 2317TIP3    H1 6957   4.588   1.626   0.223 -0.1312  1.7985 -0.1502
 2317TIP3    H2 6958   4.604   1.692   0.088 -0.7740 -0.2852 -1.2987
 2318TIP3   OH2 6959   1.794   1.689   2.036 -0.1171 -0.0023  0.0143
 2318TIP3    H1 6960   1.759   1.769   2.074  1.5178  1.5795 -1.5863
 2318TIP3    H2 6961   1.881   1.680   2.076 -0.3397 -1.1000  0.2909
 2319TIP3   OH2 6962   5.153   3.558   1.129  0.3614  0.3219 -0.2724
 2319TIP3    H1 6963   5.110   3.573   1.214  0.4135 -2.1554  0.2748
 2319TIP3    H2 6964   5.081   3.553   1.066  0.2865  1.5857 -0.3268
 2320TIP3   OH2 6965   0.647   0.625   0.634 -0.0931 -0.0494 -0.5211
 2320TIP3    H1 6966   0.591   0.572   0.691 -1.1627  1.5753  0.0117
 2320TIP3    H2 6967   0.598   0.631   0.552  1.0493 -1.6667 -1.3732
 2321TIP3   OH2 6968   0.910   0.261   3.483 -0.0055  0.1095  0.0965
 2321TIP3    H1 6969   0.816   0.280   3.489 -0.4747 -1.9266 -0.2883
 2321TIP3    H2 6970   0.927   0.202   3.555  1.3175  1.5124  0.9903
 2322TIP3   OH2 6971   1.473   1.056   3.484 -0.3790  0.2984  0.3641
 2322TIP3    H1 6972   1.496   0.966   3.509  0.2479  0.1166 -0.7583
 2322TIP3    H2 6973   1.477   1.106   3.565 -1.4725 -0.8216  1.1516
 2323TIP3   OH2 6974   4.883   1.370   0.442 -0.6831 -0.0606  0.1359
 2323TIP3    H1 6975   4.955   1.326   0.488  0.1106 -1.3214 -2.1246
 2323TIP3    H2 6976   4.807   1.313   0.455 -0.7374  0.1601  0.7794
 2324TIP3   OH2 6977   4.804   4.213   4.844  0.3110  1.0203 -0.1491
 2324TIP3    H1 6978   4.806   4.291   4.789  2.7825  1.4682  0.4873
 2324TIP3    H2 6979   4.875   4.158   4.811 -0.7940 -0.5725  0.0146
 2325TIP3   OH2 6980   1.850   4.298   1.429 -0.1779  0.0374 -0.0928
 2325TIP3    H1 6981   1.817   4.331   1.513  1.4017  0.7824  0.2854
 2325TIP3    H2 6982   1.865   4.205   1.444 -0.9490 -0.0698  0.0837
 2326TIP3   OH2 6983   5.138   5.203   5.161  0.0798  0.1714  0.0109
 2326TIP3    H1 6984   5.064   5.171   5.212 -0.8317  0.6315 -1.0020
 2326TIP3    H2 6985   5.120   5.296   5.148  0.1886  0.0246 -1.3079
 2327TIP3   OH2 6986   4.091   2.601   4.200  0.1753 -0.1316  0.0591
 2327TIP3    H1 6987   4.084   2.680   4.253 -1.1469 -1.0752  1.3839
 2327TIP3    H2 6988   4.010   2.553   4.217  0.3767 -1.2102 -1.6656
 2328TIP3   OH2 6989   2.128   4.484   2.396  0.3951 -0.3331  0.0806
 2328TIP3    H1 6990   2.148   4.574   2.374  0.4648 -0.0145  1.3739
 2328TIP3    H2 6991   2.199   4.433   2.356 -0.4483 -0.0043 -1.9432
 2329TIP3   OH2 6992   0.078   0.255   1.438 -0.0474  0.6373  0.4602
 2329TIP3    H1 6993   0.084   0.327   1.375  0.3840  1.5205  1.4771
 2329TIP3    H2 6994  -0.009   0.263   1.476  0.6855  1.9121  2.0102
 2330TIP3   OH2 6995   3.187   1.206   2.352 -0.2755 -0.0438  0.0011
 2330TIP3    H1 6996   3.151   1.128   2.310 -1.9890  0.3003  0.7557
 2330TIP3    H2 6997   3.135   1.216   2.432  0.7262  1.1829  0.5278
 2331TIP3   OH2 6998   0.492   2.032   4.961  0.5532 -0.3168 -0.1739
 2331TIP3    H1 6999   0.547   2.020   4.884 -0.1522 -1.2465 -0.5501
 2331TIP3    H2 7000   0.402   2.024   4.929  0.1280  2.0751  0.2728
 2332TIP3   OH2 7001   1.573   4.845   3.169 -0.4026  0.2472  0.3337
 2332TIP3    H1 7002   1.534   4.778   3.226 -0.2290 -0.9033 -0.8476
 2332TIP3    H2 7003   1.506   4.860   3.102  0.6576 -0.8856 -1.0359
 2333TIP3   OH2 7004   4.309   0.738   5.093  0.1621 -0.5947  0.1307
 2333TIP3    H1 7005   4.326   0.644   5.103  2.2303 -0.2854  0.0947
 2333TIP3    H2 7006   4.262   0.746   5.011 -1.1561 -1.6832  0.7470
 2334TIP3   OH2 7007   1.007   3.836   2.872 -0.5098  0.2604  0.6310
 2334TIP3    H1 7008   1.084   3.784   2.848 -2.8256 -2.9944 -0.4317
 2334TIP3    H2 7009   0.961   3.851   2.789 -1.6136  1.1209  1.3684
 2335TIP3   OH2 7010   5.073   1.581   1.575  0.5919 -0.0185  0.1925
 2335TIP3    H1 7011   5.080   1.563   1.481 -0.4730  1.9291 -0.3167
 2335TIP3    H2 7012   5.065   1.676   1.580 -1.1248 -0.2040  2.1368
 2336TIP3   OH2 7013   4.764   2.679   4.819 -0.0625 -0.1524 -0.2391
 2336TIP3    H1 7014   4.766   2.735   4.896  1.4502  1.7290 -1.5589
 2336TIP3    H2 7015   4.671   2.670   4.798 -0.3913  0.8199  0.7261
 2337TIP3   OH2 7016   5.811   4.522   5.135  0.5027  0.0067  0.1103
 2337TIP3    H1 7017   5.811   4.595   5.197 -1.3212 -1.2421  1.6892
 2337TIP3    H2 7018   5.794   4.563   5.050 -1.8351  1.3397  1.1337
 2338TIP3   OH2 7019   3.845   0.418   2.494 -0.7626 -0.3097  0.1588
 2338TIP3    H1 7020   3.907   0.445   2.562 -1.4219  1.8973 -0.0413
 2338TIP3    H2 7021   3.897   0.364   2.435  1.1138  1.6397 -0.1190
 2339TIP3   OH2 7022   3.267   4.855   0.808  0.2505  0.0330 -0.2062
 2339TIP3    H1 7023   3.222   4.842   0.892  1.2232 -0.0419  0.3161
 2339TIP3    H2 7024   3.202   4.898   0.752 -0.3044  0.3717  0.6834
 2340TIP3   OH2 7025   0.109   1.631   2.564  0.0737 -0.6019  0.5711
 2340TIP3    H1 7026   0.139   1.589   2.484 -2.7423  0.2683 -1.1042
 2340TIP3    H2 7027   0.146   1.579   2.635  0.9225 -2.7171 -1.3212
 2341TIP3   OH2 7028   2.508   3.030   3.384 -0.5262 -0.0412  0.0833
 2341TIP3    H1 7029   2.429   3.053   3.337  0.3191  2.0895 -0.3921
 2341TIP3    H2 7030   2.540   2.951   3.340 -2.6558 -1.3314  0.7044
 2342TIP3   OH2 7031   2.655   4.878   2.584  0.6205  0.5612  0.0790
 2342TIP3    H1 7032   2.588   4.847   2.523 -0.5056 -0.5934  1.8060
 2342TIP3    H2 7033   2.725   4.814   2.578 -0.6819 -1.1570  1.9082
 2343TIP3   OH2 7034   0.185   1.778   3.122  0.3300  0.5691  0.0162
 2343TIP3    H1 7035   0.224   1.832   3.190  3.0276 -1.9107  0.6201
 2343TIP3    H2 7036   0.259   1.746   3.071 -1.2585 -1.2566 -1.3121
 2344TIP3   OH2 7037   4.894   2.709   3.630 -0.0783 -0.0689 -0.2401
 2344TIP3    H1 7038   4.807   2.716   3.668 -0.6606 -0.5003 -1.4422
 2344TIP3    H2 7039   4.952   2.754   3.692 -0.8341 -1.5351  1.5979
 2345TIP3   OH2 7040   4.546   2.712   4.563 -0.3646 -0.0249  0.4668
 2345TIP3    H1 7041   4.517   2.632   4.520  1.7525  0.1262 -1.4499
 2345TIP3    H2 7042   4.494   2.781   4.522  0.4968 -0.0619 -0.7426
 2346TIP3   OH2 7043   3.614   5.630   2.261  0.6495 -0.2928  0.1043
 2346TIP3    H1 7044   3.617   5.571   2.337 -1.8396  0.9445  1.2920
 2346TIP3    H2 7045   3.550   5.590   2.202  0.1647  0.3880  0.1633
 2347TIP3   OH2 7046   3.333   0.224   2.385  0.0623  0.0096  0.5506
 2347TIP3    H1 7047   3.373   0.150   2.339  0.7216  0.6423  0.0869
 2347TIP3    H2 7048   3.397   0.248   2.451  1.1947  1.9709 -1.1422
 2348TIP3   OH2 7049   5.254   1.612   5.117 -0.6593 -0.0940 -0.0253
 2348TIP3    H1 7050   5.230   1.665   5.042  0.9923  0.1669 -0.3976
 2348TIP3    H2 7051   5.273   1.675   5.187 -0.2508 -0.2489  0.0081
 2349TIP3   OH2 7052   0.043   2.135   3.148 -0.2596 -0.0087 -0.4334
 2349TIP3    H1 7053  -0.005   2.063   3.189  0.0944 -0.2128 -0.3750
 2349TIP3    H2 7054   0.079   2.097   3.067 -0.7977  0.3384 -0.8457
 2350TIP3   OH2 7055   6.312   0.935   4.507  0.3169 -0.2690 -0.3667
 2350TIP3    H1 7056   6.352   0.950   4.592 -1.0713 -0.4153  0.3487
 2350TIP3    H2 7057   6.244   1.002   4.500  1.2371  0.5679 -1.9516
 2351TIP3   OH2 7058   1.360   4.683   3.321  0.1140 -0.1972 -0.7094
 2351TIP3    H1 7059   1.349   4.641   3.235 -2.4312 -0.3547 -0.3628
 2351TIP3    H2 7060   1.316   4.767   3.312 -0.0735 -0.1647  0.4265
 2352TIP3   OH2 7061   4.216   3.372   0.153 -0.0951 -0.0840 -0.0579
 2352TIP3    H1 7062   4.134   3.354   0.106 -0.3054  2.1112 -0.6596
 2352TIP3    H2 7063   4.199   3.454   0.199  1.3148 -0.3397  0.9780
 2353TIP3   OH2 7064   4.815   5.029   0.820  0.0863 -0.1181  0.0544
 2353TIP3    H1 7065   4.868   4.974   0.763 -0.6278 -1.2343  0.4404
 2353TIP3    H2 7066   4.810   4.980   0.903  3.3710  2.6022  2.1646
 2354TIP3   OH2 7067   4.725   2.990   2.821  0.2363 -0.1780  0.2043
 2354TIP3    H1 7068   4.791   2.932   2.785  0.7328  0.9608 -0.7856
 2354TIP3    H2 7069   4.655   2.991   2.755  0.8643  1.4171 -0.4846
 2355TIP3   OH2 7070   2.537   2.908   4.405 -0.3575  0.8749  0.0102
 2355TIP3    H1 7071   2.588   2.858   4.343  0.6345 -1.0872  2.2455
 2355TIP3    H2 7072   2.446   2.898   4.376 -0.0977 -1.4631 -0.1862
 2356TIP3   OH2 7073   1.687   3.478   1.262 -0.5450  0.3708 -0.3234
 2356TIP3    H1 7074   1.688   3.382   1.262 -0.5686  0.3690 -0.8564
 2356TIP3    H2 7075   1.601   3.501   1.228 -0.4972  0.5844 -0.3008
 2357TIP3   OH2 7076   2.285   5.533   4.828 -0.3510 -0.4793  0.4008
 2357TIP3    H1 7077   2.210   5.512   4.774  0.2511 -0.5691 -0.4186
 2357TIP3    H2 7078   2.272   5.624   4.854  0.3513  0.2558 -1.6214
 2358TIP3   OH2 7079   1.802   5.316   3.036  0.1719 -0.0325 -0.6038
 2358TIP3    H1 7080   1.767   5.234   3.001 -0.4541 -0.6276  1.2956
 2358TIP3    H2 7081   1.891   5.321   3.002  0.1540 -1.4177 -0.8945
 2359TIP3   OH2 7082   4.530   5.835   3.856 -0.3442  0.1997 -0.4989
 2359TIP3    H1 7083   4.599   5.872   3.912 -1.2400  1.8156 -0.4154
 2359TIP3    H2 7084   4.563   5.845   3.767  0.0127 -0.0762 -0.3994
 2360TIP3   OH2 7085   0.230   4.496   3.813 -0.3088 -0.6285 -0.1470
 2360TIP3    H1 7086   0.310   4.536   3.847 -0.8502 -0.9065  1.5178
 2360TIP3    H2 7087   0.261   4.427   3.754  0.6450  0.2172 -0.6592
 2361TIP3   OH2 7088   4.543   2.516   4.858 -0.3527  0.0818  0.4531
 2361TIP3    H1 7089   4.545   2.457   4.783 -0.6019  1.3730 -0.6105
 2361TIP3    H2 7090   4.450   2.536   4.870 -0.1916  1.0342  0.1555
 2362TIP3   OH2 7091   0.802   5.278   4.158 -0.1500 -0.1890  0.0861
 2362TIP3    H1 7092   0.881   5.243   4.201 -0.5598  1.0365  1.9687
 2362TIP3    H2 7093   0.771   5.346   4.218 -1.9736  0.1735 -1.2072
 2363TIP3   OH2 7094   0.146   3.632   1.423 -0.3515  0.3895 -0.2076
 2363TIP3    H1 7095   0.054   3.657   1.428 -0.4847 -0.1510  0.1143
 2363TIP3    H2 7096   0.177   3.671   1.341 -0.9634  0.2509 -0.5107
 2364TIP3   OH2 7097   1.712   3.027   4.776 -0.0672 -0.1635  0.2478
 2364TIP3    H1 7098   1.662   2.987   4.847  0.2670  0.8178  1.0581
 2364TIP3    H2 7099   1.671   3.113   4.764  2.6780  1.6432  2.4542
 2365TIP3   OH2 7100   1.279   5.618   3.453  0.3514 -0.4956  0.7911
 2365TIP3    H1 7101   1.327   5.611   3.535  0.1190  0.9889  1.0665
 2365TIP3    H2 7102   1.187   5.619   3.479  0.2888  2.8497  0.8266
 2366TIP3   OH2 7103   1.000   3.100   2.634 -0.1331  0.0078 -0.2593
 2366TIP3    H1 7104   0.927   3.161   2.618 -0.4890 -0.0503  1.0096
 2366TIP3    H2 7105   1.060   3.116   2.561  0.0724  2.3217  0.3175
 2367TIP3   OH2 7106   1.582   2.706   1.343  0.1250  0.1848  0.3455
 2367TIP3    H1 7107   1.486   2.705   1.336  0.2262  0.5396 -1.5992
 2367TIP3    H2 7108   1.605   2.614   1.357 -0.4642 -0.0525 -0.1550
 2368TIP3   OH2 7109   5.238   2.394   4.626  0.4272  0.4023  0.5307
 2368TIP3    H1 7110   5.164   2.436   4.582  0.0505 -0.4939  0.2865
 2368TIP3    H2 7111   5.312   2.408   4.568  0.0469 -0.2977 -0.1462
 2369TIP3   OH2 7112   2.728   5.429   1.534 -0.2116  0.4869  0.1748
 2369TIP3    H1 7113   2.717   5.520   1.509  0.5602  0.2053 -1.2583
 2369TIP3    H2 7114   2.690   5.379   1.462 -0.6382 -0.3366  0.9500
 2370TIP3   OH2 7115   1.777   4.219   2.711 -0.5536  0.1006 -0.2095
 2370TIP3    H1 7116   1.810   4.254   2.628 -2.2799 -0.6420 -1.2894
 2370TIP3    H2 7117   1.687   4.251   2.716 -0.5022  0.0357  1.3336
 2371TIP3   OH2 7118   0.923   1.063   0.127  0.3143 -0.1213 -0.1400
 2371TIP3    H1 7119   0.901   1.156   0.132 -1.3556 -0.5234  0.5514
 2371TIP3    H2 7120   0.999   1.054   0.184 -0.5440  0.5542  1.1749
 2372TIP3   OH2 7121   5.453   4.481   3.801  0.1499  0.1980 -0.1991
 2372TIP3    H1 7122   5.450   4.401   3.749  0.0271  1.0165 -1.5070
 2372TIP3    H2 7123   5.545   4.508   3.797 -0.3601  1.8692 -2.6173
 2373TIP3   OH2 7124   2.986   0.631   3.513 -0.4725  0.3548  0.2096
 2373TIP3    H1 7125   2.963   0.569   3.582 -1.8052 -1.8994 -2.0783
 2373TIP3    H2 7126   3.077   0.612   3.492 -0.3115  0.4933  0.7682
 2374TIP3   OH2 7127   1.898   2.317   4.798 -0.2287 -0.6384 -0.1053
 2374TIP3    H1 7128   1.803   2.309   4.789 -0.2417 -0.0589 -0.5732
 2374TIP3    H2 7129   1.932   2.231   4.773 -0.5962 -0.6475 -0.5916
 2375TIP3   OH2 7130   0.013   3.713   2.200  0.2942  0.1699  0.4382
 2375TIP3    H1 7131   0.029   3.805   2.222  2.3500  0.0172 -0.2466
 2375TIP3    H2 7132   0.075   3.664   2.254 -1.3241 -0.9245  1.3976
 2376TIP3   OH2 7133   0.393   5.247   4.112 -0.4769  0.3787  0.0282
 2376TIP3    H1 7134   0.318   5.274   4.060  0.2330 -3.3236 -3.3915
 2376TIP3    H2 7135   0.468   5.287   4.069 -0.0361 -1.2161 -0.7582
 2377TIP3   OH2 7136   5.282   0.275   3.793  0.0091 -0.0866 -0.8508
 2377TIP3    H1 7137   5.297   0.196   3.741  0.2835 -1.0372  0.6025
 2377TIP3    H2 7138   5.187   0.286   3.793  0.0345  0.2117 -1.9396
 2378TIP3   OH2 7139   2.071   2.991   4.534 -0.1843 -0.0801  0.1397
 2378TIP3    H1 7140   2.004   2.931   4.568  0.2532 -0.6781 -0.0578
 2378TIP3    H2 7141   2.023   3.073   4.520 -1.0919 -0.7623 -0.8960
 2379TIP3   OH2 7142   3.194   0.044   4.225 -0.0969 -0.2917  0.5804
 2379TIP3    H1 7143   3.222   0.085   4.307  0.5613  0.4867 -0.0101
 2379TIP3    H2 7144   3.271  -0.002   4.193 -0.6544 -1.5028  0.9151
 2380TIP3   OH2 7145   1.093   3.752   2.182  0.0010 -0.0627 -0.1607
 2380TIP3    H1 7146   1.061   3.832   2.139  0.6934 -0.2883 -1.1295
 2380TIP3    H2 7147   1.174   3.731   2.136  0.1968 -0.9337  0.5590
 2381TIP3   OH2 7148   5.852   0.449   2.134  0.1523 -0.8825 -0.0558
 2381TIP3    H1 7149   5.909   0.439   2.210 -1.1483  0.0617  1.0993
 2381TIP3    H2 7150   5.769   0.479   2.170 -0.8385 -1.4333 -1.7660
 2382TIP3   OH2 7151   4.333   2.153   4.874 -0.8709 -0.0479 -0.0539
 2382TIP3    H1 7152   4.336   2.242   4.838 -1.1785 -0.2232 -0.5238
 2382TIP3    H2 7153   4.425   2.127   4.882 -0.7305  0.7545  1.2237
 2383TIP3   OH2 7154   0.574   4.868   0.914 -0.2136  0.1100  0.0484
 2383TIP3    H1 7155   0.667   4.846   0.922 -0.1877  0.0903 -0.2837
 2383TIP3    H2 7156   0.539   4.855   1.001  0.0774  0.0237  0.1555
 2384TIP3   OH2 7157   0.048   0.042   2.811 -0.1351  0.5135  0.0052
 2384TIP3    H1 7158   0.076  -0.032   2.864  0.8346  1.4209  0.7911
 2384TIP3    H2 7159   0.071   0.017   2.721 -1.3470 -0.8250  0.0331
 2385TIP3   OH2 7160   1.892   4.841   2.643 -0.3607  0.1141  0.2288
 2385TIP3    H1 7161   1.858   4.796   2.566 -0.0040 -0.6216  0.4958
 2385TIP3    H2 7162   1.864   4.787   2.717  0.0365  0.3503  0.5560
 2386TIP3   OH2 7163   5.264   5.799   3.239  0.2646  0.1058  0.0313
 2386TIP3    H1 7164   5.243   5.816   3.147  0.5251  0.8290  0.0980
 2386TIP3    H2 7165   5.189   5.750   3.272  0.5415 -0.8973 -0.7793
 2387TIP3   OH2 7166   0.580   1.172   5.098  0.7348  0.0643  0.0326
 2387TIP3    H1 7167   0.501   1.146   5.051  1.0607 -0.8455 -0.0278
 2387TIP3    H2 7168   0.570   1.266   5.111  0.5240  0.3083 -1.6481
 2388TIP3   OH2 7169   2.789   5.430   3.040 -0.3734 -0.0481 -0.3203
 2388TIP3    H1 7170   2.802   5.412   2.947 -0.0210 -0.6290 -0.1617
 2388TIP3    H2 7171   2.696   5.414   3.055 -0.1922 -1.1881 -0.3134
 2389TIP3   OH2 7172   0.154   4.605   0.935  0.1014  0.5082  0.2326
 2389TIP3    H1 7173   0.243   4.611   0.901 -0.1571  0.1581 -0.5185
 2389TIP3    H2 7174   0.157   4.652   1.019  0.6873  1.5655 -0.3670
 2390TIP3   OH2 7175   0.133   4.770   1.158  0.0149 -0.2403 -0.3672
 2390TIP3    H1 7176   0.172   4.835   1.216  0.0382 -1.9360  1.6329
 2390TIP3    H2 7177   0.040   4.772   1.180 -0.3334  0.5036 -1.7780
 2391TIP3   OH2 7178   2.870   2.533   4.467 -0.3089 -0.3945  0.1638
 2391TIP3    H1 7179   2.867   2.598   4.538  0.7464  0.2929 -0.3908
 2391TIP3    H2 7180   2.833   2.578   4.391 -0.8935 -0.9356  0.1208
 2392TIP3   OH2 7181   3.649   0.204   1.920  0.3779 -0.3594 -0.1770
 2392TIP3    H1 7182   3.681   0.276   1.976 -1.4621  0.4359 -0.0910
 2392TIP3    H2 7183   3.718   0.192   1.855  1.6862  0.0231  1.0865
 2393TIP3   OH2 7184   5.618   4.142   2.028  0.1565  0.2354  0.2348
 2393TIP3    H1 7185   5.696   4.153   2.083  0.9840  0.0248 -0.8575
 2393TIP3    H2 7186   5.628   4.055   1.989 -0.4682  0.3312 -0.1529
 2394TIP3   OH2 7187   2.879   5.636   3.663  0.0809  0.3518  0.2537
 2394TIP3    H1 7188   2.809   5.674   3.610  0.4298 -0.4213 -0.8102
 2394TIP3    H2 7189   2.958   5.685   3.638  0.6171 -1.2457 -1.4493
 2395TIP3   OH2 7190   1.076   3.760   2.454 -0.1456  0.2523  0.5965
 2395TIP3    H1 7191   1.073   3.747   2.359  1.4329 -1.3887  0.7297
 2395TIP3    H2 7192   1.069   3.672   2.491  1.6260  0.6271  1.9154
 2396TIP3   OH2 7193   2.372   4.865   1.705 -0.5706 -0.7750  0.0848
 2396TIP3    H1 7194   2.315   4.883   1.630 -0.6485  0.1858  0.3611
 2396TIP3    H2 7195   2.320   4.809   1.762 -2.0191  1.5378  1.2090
 2397TIP3   OH2 7196   4.541   0.955  -0.004  0.1947  1.0554 -0.5928
 2397TIP3    H1 7197   4.539   1.034  -0.059  1.4515  0.0345 -2.1831
 2397TIP3    H2 7198   4.526   0.988   0.085 -1.6195  2.8054 -1.4600
 2398TIP3   OH2 7199   2.929   1.375   4.460  0.2252 -0.0960 -0.0018
 2398TIP3    H1 7200   2.944   1.403   4.550 -1.2738  1.3795 -0.1568
 2398TIP3    H2 7201   2.986   1.430   4.407  1.2044 -1.0541  0.0352
 2399TIP3   OH2 7202   2.025   2.375   4.021 -0.1782 -0.4618 -0.1145
 2399TIP3    H1 7203   2.121   2.381   4.018 -0.2253  0.7122  0.1384
 2399TIP3    H2 7204   2.005   2.366   4.115 -0.2788 -1.8937 -0.2502
 2400TIP3   OH2 7205   3.759   5.192   2.924 -0.1109 -0.3832 -0.2666
 2400TIP3    H1 7206   3.817   5.227   2.857 -1.9600  0.6148 -1.4197
 2400TIP3    H2 7207   3.818   5.169   2.997  1.9338 -1.4156 -2.1373
 2401TIP3   OH2 7208   4.604   0.633   2.276  0.6425 -0.0582  0.2540
 2401TIP3    H1 7209   4.687   0.588   2.287  1.3394  0.9468 -0.6438
 2401TIP3    H2 7210   4.587   0.675   2.361  1.0672 -0.2490  0.4315
 2402TIP3   OH2 7211   5.169   1.768   4.897 -0.1950  0.6650  0.1693
 2402TIP3    H1 7212   5.093   1.714   4.874  0.9655 -0.6706 -0.6990
 2402TIP3    H2 7213   5.133   1.854   4.916 -1.9550 -0.0193  0.0861
 2403TIP3   OH2 7214   3.229   2.042   1.842 -0.1437 -0.7234  0.5068
 2403TIP3    H1 7215   3.214   1.948   1.849 -0.4234 -0.5892  1.9876
 2403TIP3    H2 7216   3.278   2.065   1.921 -1.9316  0.6962  1.2777
 2404TIP3   OH2 7217   3.657   5.154   1.652  0.0731  0.0709 -0.2456
 2404TIP3    H1 7218   3.606   5.078   1.622 -1.7439  0.8496  0.7128
 2404TIP3    H2 7219   3.702   5.185   1.574 -1.5625 -0.1998 -1.3401
 2405TIP3   OH2 7220   1.801   0.758   0.975 -0.3180  0.0392  0.4841
 2405TIP3    H1 7221   1.880   0.773   0.922 -0.4538  1.0816  0.5687
 2405TIP3    H2 7222   1.799   0.831   1.036 -1.7013  0.3635  0.0723
 2406TIP3   OH2 7223   4.961   2.073   1.261  0.3201  0.1338  0.2848
 2406TIP3    H1 7224   5.005   1.989   1.244  1.5003  0.7168  0.3427
 2406TIP3    H2 7225   4.918   2.061   1.346  0.5105 -0.4009  0.3088
 2407TIP3   OH2 7226   3.399   2.567   4.887  0.1783 -0.5686  0.4247
 2407TIP3    H1 7227   3.403   2.657   4.920  0.9776  1.5615 -4.5490
 2407TIP3    H2 7228   3.491   2.544   4.871 -0.1871 -1.0253 -1.1098
 2408TIP3   OH2 7229   2.172   0.149   4.074 -0.4799  0.3016 -0.2545
 2408TIP3    H1 7230   2.263   0.178   4.061 -0.5500  1.3269  1.3134
 2408TIP3    H2 7231   2.178   0.053   4.075  0.2797  0.2776 -1.9973
 2409TIP3   OH2 7232   3.821   1.711   4.826  0.1391 -0.2043 -0.2232
 2409TIP3    H1 7233   3.829   1.800   4.791 -0.2126 -0.5507 -1.2269
 2409TIP3    H2 7234   3.818   1.655   4.748 -1.3071 -0.9451  0.3216
 2410TIP3   OH2 7235   4.995   0.630   0.448  0.1159  0.5445 -0.1382
 2410TIP3    H1 7236   5.046   0.633   0.367  0.9721 -0.0736  0.3477
 2410TIP3    H2 7237   5.060   0.641   0.517 -0.3329 -0.7027  0.5225
 2411TIP3   OH2 7238   2.628   2.035   0.833 -0.6164  0.2056 -0.4814
 2411TIP3    H1 7239   2.664   1.953   0.868  1.0772  0.2852 -1.8970
 2411TIP3    H2 7240   2.533   2.025   0.841 -0.3924 -1.2028  0.8474
 2412TIP3   OH2 7241   3.102   1.499   4.295  0.0799 -0.4157  0.2716
 2412TIP3    H1 7242   3.138   1.579   4.257 -1.5563 -0.3551 -1.2849
 2412TIP3    H2 7243   3.131   1.429   4.236  0.2613 -0.7937  0.7949
 2413TIP3   OH2 7244   0.222   5.383   3.661 -0.0057 -0.1226 -0.1043
 2413TIP3    H1 7245   0.244   5.407   3.571 -0.7465 -0.1331 -0.2886
 2413TIP3    H2 7246   0.215   5.466   3.707 -0.1447 -0.0940 -0.1772
 2414TIP3   OH2 7247   2.576   5.986   3.134 -0.6135 -0.4728  0.5048
 2414TIP3    H1 7248   2.520   5.922   3.090  0.4942 -1.0018 -0.1925
 2414TIP3    H2 7249   2.632   6.019   3.064  0.5155 -0.5903  1.3322
 2415TIP3   OH2 7250   3.680   0.455   0.874 -0.2289  0.1426  0.1949
 2415TIP3    H1 7251   3.752   0.517   0.859  1.3488 -1.1121  2.0866
 2415TIP3    H2 7252   3.668   0.456   0.969 -2.0057 -0.4819  0.0013
 2416TIP3   OH2 7253   5.387   4.568   1.303  0.1606 -0.0471  0.4731
 2416TIP3    H1 7254   5.418   4.604   1.386 -0.4133  1.5013  0.0598
 2416TIP3    H2 7255   5.457   4.588   1.241  0.4457 -0.9094  0.5112
 2417TIP3   OH2 7256   5.605   5.291   3.502  0.5364  0.0198 -0.1693
 2417TIP3    H1 7257   5.648   5.216   3.543  0.5455 -0.3090 -0.7738
 2417TIP3    H2 7258   5.593   5.265   3.411  0.0830  0.5574 -0.2675
 2418TIP3   OH2 7259   6.234   2.585   1.198  0.0665  0.1002 -0.0433
 2418TIP3    H1 7260   6.253   2.497   1.231 -0.7641 -0.0625  0.0260
 2418TIP3    H2 7261   6.232   2.640   1.276 -0.1594  0.0375 -0.0034
 2419TIP3   OH2 7262   2.604   0.764   0.978  0.0398  0.6307  0.1918
 2419TIP3    H1 7263   2.647   0.848   0.988 -0.0109  0.5250  1.3662
 2419TIP3    H2 7264   2.640   0.728   0.896  0.2675  1.6529 -0.1708
 2420TIP3   OH2 7265   6.098   3.688   4.567  0.9545 -0.1257  0.2664
 2420TIP3    H1 7266   6.099   3.615   4.628  1.3503  1.1649  1.8552
 2420TIP3    H2 7267   6.108   3.647   4.481  2.4205 -1.8474  1.1850
 2421TIP3   OH2 7268   5.490   4.500   2.303  0.2091 -0.0507  0.1439
 2421TIP3    H1 7269   5.544   4.430   2.340 -0.4100  0.0931  1.3799
 2421TIP3    H2 7270   5.406   4.458   2.282  0.1215  0.1424  0.0996
 2422TIP3   OH2 7271   2.352   2.325   2.805  0.0330  0.3793  0.5512
 2422TIP3    H1 7272   2.377   2.241   2.765 -0.5230  0.7890 -0.6786
 2422TIP3    H2 7273   2.384   2.318   2.895 -1.0704 -1.6508  0.8566
 2423TIP3   OH2 7274   4.324   2.880   2.837 -0.0376  0.1638 -0.1300
 2423TIP3    H1 7275   4.299   2.815   2.903  3.1183  0.4082  1.4711
 2423TIP3    H2 7276   4.242   2.925   2.816 -1.1544  0.5421  4.1718
 2424TIP3   OH2 7277   4.777   3.030   1.020 -0.0741  0.2587 -0.1526
 2424TIP3    H1 7278   4.769   3.125   1.005 -2.7952  0.1303  0.0339
 2424TIP3    H2 7279   4.716   2.991   0.958 -1.6367 -1.1337  2.1467
 2425TIP3   OH2 7280   2.200   0.648   3.050 -0.5082 -0.5028 -0.0094
 2425TIP3    H1 7281   2.235   0.586   2.985 -1.8061 -1.1907 -0.0926
 2425TIP3    H2 7282   2.122   0.684   3.009  0.3525  1.4207 -0.0519
 2426TIP3   OH2 7283   2.987   5.370   1.464  0.0191  0.2191  0.5657
 2426TIP3    H1 7284   2.917   5.423   1.501 -0.1654  0.5206 -0.1885
 2426TIP3    H2 7285   2.989   5.291   1.518 -0.8841  0.2194  0.6099
 2427TIP3   OH2 7286   5.486   4.358   0.546 -0.0836  0.2230  0.5355
 2427TIP3    H1 7287   5.558   4.295   0.540 -0.0815  0.1907  0.9052
 2427TIP3    H2 7288   5.525   4.441   0.519  0.6841  0.6730  2.8026
 2428TIP3   OH2 7289   4.625   0.835   0.531  0.0821  0.2136  0.0438
 2428TIP3    H1 7290   4.617   0.929   0.519 -2.0551 -0.0422 -0.9471
 2428TIP3    H2 7291   4.591   0.797   0.450  1.0117 -1.4236  0.3683
 2429TIP3   OH2 7292   1.222   3.684   2.819 -0.2185 -0.0099 -0.4056
 2429TIP3    H1 7293   1.203   3.597   2.785 -0.3576 -0.3654  0.5568
 2429TIP3    H2 7294   1.310   3.676   2.856 -0.2285  0.2671 -0.3227
 2430TIP3   OH2 7295   6.203   5.015   4.756  0.1697  0.4084  0.3362
 2430TIP3    H1 7296   6.114   5.027   4.723  0.6286  0.0689 -1.0888
 2430TIP3    H2 7297   6.218   4.921   4.753 -0.0313  0.2585  2.3309
 2431TIP3   OH2 7298   5.484   3.686   2.901  0.0924  0.1751 -0.3061
 2431TIP3    H1 7299   5.401   3.709   2.944 -0.2988  0.2234 -1.0847
 2431TIP3    H2 7300   5.458   3.642   2.820  0.8338  0.5440 -0.7503
 2432TIP3   OH2 7301   2.432   2.714   2.770  0.1150 -0.3695  0.6587
 2432TIP3    H1 7302   2.467   2.799   2.744 -0.0604 -0.1124  1.2623
 2432TIP3    H2 7303   2.500   2.677   2.827 -0.8961  0.4763  2.5022
 2433TIP3   OH2 7304   1.704   1.975   1.090  0.2092  0.0462 -0.8033
 2433TIP3    H1 7305   1.711   1.883   1.065 -0.5431 -0.4765  0.7493
 2433TIP3    H2 7306   1.635   2.010   1.033 -2.0148 -1.3059  0.8556
 2434TIP3   OH2 7307   4.739   0.710   1.423  0.0262  0.0922 -0.5178
 2434TIP3    H1 7308   4.782   0.733   1.340 -0.9494  0.6239 -0.8986
 2434TIP3    H2 7309   4.650   0.746   1.414 -0.5798 -1.1778  0.1374
 2435TIP3   OH2 7310   3.089   2.378   4.914  0.4813  0.2316  0.2819
 2435TIP3    H1 7311   3.009   2.374   4.967 -0.1750 -0.5706 -0.7347
 2435TIP3    H2 7312   3.081   2.305   4.853  0.2200  2.2803 -2.3155
 2436TIP3   OH2 7313   1.718   5.431   0.825 -0.5153 -0.7855  0.2503
 2436TIP3    H1 7314   1.733   5.522   0.796  2.0564 -1.4859 -0.9581
 2436TIP3    H2 7315   1.699   5.438   0.918  1.6848  0.9120  0.6441
 2437TIP3   OH2 7316   1.973   3.105   0.341 -0.0437  0.4786 -0.0631
 2437TIP3    H1 7317   1.882   3.133   0.356  0.0678  0.5153  0.5896
 2437TIP3    H2 7318   2.015   3.181   0.300  0.4463  1.6204  2.3629
 2438TIP3   OH2 7319   5.938   4.208   1.650 -0.3139  0.3872  0.0798
 2438TIP3    H1 7320   5.910   4.117   1.661  1.3539 -0.1040  0.6178
 2438TIP3    H2 7321   5.902   4.254   1.726  1.1028 -0.4401  1.3052
 2439TIP3   OH2 7322   4.624   2.631   2.780  0.0835  0.0473 -0.5896
 2439TIP3    H1 7323   4.658   2.677   2.857 -1.8448 -0.0714  0.3914
 2439TIP3    H2 7324   4.664   2.677   2.706  1.5728  0.5091  0.4486
 2440TIP3   OH2 7325   4.919   5.279   3.889  0.7061  0.2919 -0.2783
 2440TIP3    H1 7326   4.826   5.262   3.876  0.4711  1.2571  0.0063
 2440TIP3    H2 7327   4.954   5.290   3.801  0.5750 -0.1575 -0.3909
 2441TIP3   OH2 7328   0.011   5.906   3.028 -0.1727  0.4639  0.2220
 2441TIP3    H1 7329   0.040   5.975   2.968 -2.6116  0.4229 -1.1092
 2441TIP3    H2 7330  -0.016   5.953   3.107 -1.9014  1.1140 -0.7049
 2442TIP3   OH2 7331   4.132   0.927   0.112  0.6560 -0.0843  0.1495
 2442TIP3    H1 7332   4.206   0.981   0.140  0.4213 -0.1036  0.8072
 2442TIP3    H2 7333   4.170   0.868   0.046  1.1926  0.0227  0.3568
 2443TIP3   OH2 7334   5.446   5.181   5.119 -0.6255  0.2824 -0.9767
 2443TIP3    H1 7335   5.475   5.112   5.179  1.0310  0.5707 -1.3936
 2443TIP3    H2 7336   5.456   5.262   5.171 -0.6343  0.3875 -1.1396
 2444TIP3   OH2 7337   6.087   1.814   3.883 -0.2989 -0.4276 -0.0680
 2444TIP3    H1 7338   6.045   1.860   3.955 -1.1880 -1.5226  0.1442
 2444TIP3    H2 7339   6.041   1.844   3.805 -0.1577 -0.1692 -0.0544
 2445TIP3   OH2 7340   1.745   3.610   4.098  0.1035  0.0906  0.3677
 2445TIP3    H1 7341   1.721   3.574   4.012  1.7233 -3.7434  1.3368
 2445TIP3    H2 7342   1.825   3.660   4.081 -0.9102  1.4952 -0.6330
 2446TIP3   OH2 7343   4.947   1.064   1.522 -0.0465  0.4496 -0.1395
 2446TIP3    H1 7344   5.038   1.064   1.550 -0.2280  1.2161  0.5011
 2446TIP3    H2 7345   4.906   0.995   1.573  0.1127  0.3133 -0.1976
 2447TIP3   OH2 7346   5.341   5.748   5.106 -0.0936 -0.1647 -0.0756
 2447TIP3    H1 7347   5.293   5.676   5.147  0.4214 -0.4578  0.0263
 2447TIP3    H2 7348   5.417   5.762   5.164  1.5073 -1.6262 -1.6807
 2448TIP3   OH2 7349   2.550   5.117   3.090  0.2505 -0.2078  0.6739
 2448TIP3    H1 7350   2.456   5.104   3.089  0.0380  1.1986  0.5214
 2448TIP3    H2 7351   2.570   5.157   3.005  1.2228 -1.9065  0.0570
 2449TIP3   OH2 7352   0.584   3.996   2.611  0.3083 -0.4358  0.0073
 2449TIP3    H1 7353   0.661   3.996   2.553 -0.7658  0.1633 -1.5002
 2449TIP3    H2 7354   0.615   4.038   2.691  1.5024  0.0180 -0.6508
 2450TIP3   OH2 7355   3.500   4.153   4.810 -0.2577  0.2466  0.2729
 2450TIP3    H1 7356   3.520   4.205   4.888 -0.6683  0.7686  0.0341
 2450TIP3    H2 7357   3.502   4.216   4.738 -0.3456 -0.1473 -0.0739
 2451TIP3   OH2 7358   6.328   0.759   2.863  0.5137 -0.3502  0.2498
 2451TIP3    H1 7359   6.278   0.681   2.886  1.2844 -1.4083 -1.5159
 2451TIP3    H2 7360   6.280   0.831   2.905 -1.0512 -1.5931  0.6807
 2452TIP3   OH2 7361   1.911   4.305   3.927  0.2405  0.2087 -0.0151
 2452TIP3    H1 7362   1.893   4.262   4.010 -0.0176  0.0801 -0.1375
 2452TIP3    H2 7363   1.825   4.333   3.895  0.3133  0.0427 -0.3566
 2453TIP3   OH2 7364   5.886   2.330   3.206  0.5605  0.3766  0.0420
 2453TIP3    H1 7365   5.844   2.291   3.129 -1.3457 -2.0196  2.1186
 2453TIP3    H2 7366   5.966   2.278   3.218  0.2189 -0.0787  0.3686
 2454TIP3   OH2 7367   3.045   1.400   2.178  0.0228  0.2310  0.9102
 2454TIP3    H1 7368   3.102   1.349   2.235  0.1652  1.4733  1.9185
 2454TIP3    H2 7369   3.072   1.377   2.089  0.5398 -0.9064  1.3534
 2455TIP3   OH2 7370   3.570   4.920   2.181  0.3990  0.5781 -0.1471
 2455TIP3    H1 7371   3.606   4.851   2.237 -1.0624  0.1240  0.2864
 2455TIP3    H2 7372   3.534   4.984   2.242  1.3609  1.5397 -0.5543
 2456TIP3   OH2 7373   3.588   0.277   2.507  0.2808  0.3125  0.1753
 2456TIP3    H1 7374   3.679   0.307   2.517 -0.2098  2.7938 -1.8167
 2456TIP3    H2 7375   3.535   0.345   2.548 -0.7435 -0.1949 -0.2803
 2457TIP3   OH2 7376   0.809   0.118   5.070  0.5571 -0.2099 -0.2291
 2457TIP3    H1 7377   0.816   0.065   4.991  0.0304  0.2196 -0.5805
 2457TIP3    H2 7378   0.750   0.069   5.127  0.1280 -0.0475 -0.5237
 2458TIP3   OH2 7379   3.103   4.196   0.588  0.0004  0.3372 -0.1219
 2458TIP3    H1 7380   3.068   4.170   0.674 -0.0427  0.2206 -0.1749
 2458TIP3    H2 7381   3.164   4.127   0.565  1.6812  1.4325  0.8129
 2459TIP3   OH2 7382   6.224   5.539   2.638 -0.0611  0.3650  0.4888
 2459TIP3    H1 7383   6.246   5.631   2.652  1.6499  0.1500 -0.4765
 2459TIP3    H2 7384   6.146   5.541   2.582  0.5525  1.2379 -0.3667
 2460TIP3   OH2 7385   1.066   0.686   4.582  0.5051 -0.0728  0.2310
 2460TIP3    H1 7386   1.154   0.671   4.618  0.6512  1.3996  0.5534
 2460TIP3    H2 7387   1.008   0.680   4.658  0.6052  1.2371  0.4249
 2461TIP3   OH2 7388   5.463   0.073   2.264  0.0741  0.0464 -0.5507
 2461TIP3    H1 7389   5.501   0.032   2.341  0.4005 -1.2268 -1.3522
 2461TIP3    H2 7390   5.530   0.132   2.232  0.9676 -1.2949 -1.2694
 2462TIP3   OH2 7391   4.482   1.985   3.949 -0.1214 -0.3847  0.5956
 2462TIP3    H1 7392   4.526   1.973   3.865  0.4878 -1.6838  1.0841
 2462TIP3    H2 7393   4.411   2.047   3.930  0.5662  0.0469 -0.6712
 2463TIP3   OH2 7394   3.794   5.358   3.453  0.2631  0.1929  0.3307
 2463TIP3    H1 7395   3.811   5.401   3.537 -0.2151 -1.2987  1.2456
 2463TIP3    H2 7396   3.702   5.376   3.435  0.4771  0.8734 -0.1049
 2464TIP3   OH2 7397   3.377   0.709   2.130  0.3305 -0.0617 -0.4693
 2464TIP3    H1 7398   3.448   0.735   2.072  0.0069  0.6315 -0.5636
 2464TIP3    H2 7399   3.297   0.742   2.088 -0.0306 -0.6258 -0.2484
 2465TIP3   OH2 7400   2.954   0.830   1.564 -0.4767  0.0099  0.0182
 2465TIP3    H1 7401   2.956   0.858   1.473  1.5508 -0.1221 -0.0072
 2465TIP3    H2 7402   2.991   0.903   1.613  3.9661 -1.9478  0.0468
 2466TIP3   OH2 7403   5.428   1.957   0.535  0.2734 -0.1699 -0.6892
 2466TIP3    H1 7404   5.387   1.993   0.456 -1.5600 -1.3086 -0.3359
 2466TIP3    H2 7405   5.422   1.862   0.523  2.0155 -0.3793 -0.1573
 2467TIP3   OH2 7406   4.347   1.415   3.701  0.0681  0.1567  0.6130
 2467TIP3    H1 7407   4.340   1.327   3.736 -0.4600  0.4024  1.1505
 2467TIP3    H2 7408   4.325   1.406   3.608 -0.0859 -0.2630  0.6876
 2468TIP3   OH2 7409   2.678   0.891   4.136  0.0427  0.0689  0.1385
 2468TIP3    H1 7410   2.770   0.891   4.108 -0.2460 -2.0379 -1.0430
 2468TIP3    H2 7411   2.682   0.860   4.227  0.5283  0.1865  0.1621
 2469TIP3   OH2 7412   0.687   5.472   4.293 -0.0095  0.7894  0.3711
 2469TIP3    H1 7413   0.593   5.466   4.276  0.3422  0.3846 -1.6431
 2469TIP3    H2 7414   0.704   5.566   4.300 -0.5088  0.8741  0.4900
 2470TIP3   OH2 7415   3.763   3.809   1.534  0.0703 -0.0005 -0.3401
 2470TIP3    H1 7416   3.858   3.794   1.537  0.2565  0.7636 -1.6358
 2470TIP3    H2 7417   3.725   3.725   1.556  1.0461 -0.1827  0.7457
 2471TIP3   OH2 7418   2.287   4.472   5.024  0.8063  0.0690 -0.1522
 2471TIP3    H1 7419   2.342   4.524   4.965  0.9156  0.5249  0.3500
 2471TIP3    H2 7420   2.216   4.441   4.968  1.7938 -0.9075 -0.9246
 2472TIP3   OH2 7421   0.157   1.633   4.582  0.1720  0.2453 -0.2456
 2472TIP3    H1 7422   0.224   1.700   4.596 -0.2646  0.5718  0.3259
 2472TIP3    H2 7423   0.087   1.657   4.643 -0.6535  0.1703 -1.1442
 2473TIP3   OH2 7424   2.678   5.796   0.161  0.1052 -0.1466 -0.1890
 2473TIP3    H1 7425   2.658   5.706   0.139  0.9574 -0.3330 -0.2605
 2473TIP3    H2 7426   2.700   5.794   0.254  0.3973 -0.0646 -0.2543
 2474TIP3   OH2 7427   3.713   5.914   1.117  0.7969  0.0787 -0.2505
 2474TIP3    H1 7428   3.795   5.962   1.104  0.4357  0.8142  0.1443
 2474TIP3    H2 7429   3.712   5.893   1.210  1.7863 -2.2785 -0.6882
 2475TIP3   OH2 7430   4.869   3.314   4.515 -0.1592 -0.2724 -0.0966
 2475TIP3    H1 7431   4.888   3.362   4.435 -2.3252  1.2480  0.2352
 2475TIP3    H2 7432   4.882   3.378   4.585 -0.3799 -0.9704  0.5964
 2476TIP3   OH2 7433   3.593   4.383   3.968  0.3064 -0.5562  0.5420
 2476TIP3    H1 7434   3.595   4.461   3.914  1.5208 -0.6970  0.3692
 2476TIP3    H2 7435   3.572   4.312   3.907 -2.0528 -0.2426  0.8976
 2477TIP3   OH2 7436   4.492   0.746   2.533  0.0210  0.3197 -0.2889
 2477TIP3    H1 7437   4.452   0.830   2.559 -1.4794 -0.9278  1.8295
 2477TIP3    H2 7438   4.569   0.739   2.589  0.1275  0.2962 -0.4414
 2478TIP3   OH2 7439   4.438   5.112   2.237  0.4513  0.1886  0.7245
 2478TIP3    H1 7440   4.517   5.063   2.214  1.3259  1.6250  0.5321
 2478TIP3    H2 7441   4.394   5.058   2.303  2.4409  0.0816  2.0424
 2479TIP3   OH2 7442   1.027   0.304   0.183 -0.1541  0.2692  0.3522
 2479TIP3    H1 7443   0.932   0.320   0.177  0.0087  0.6801 -2.6503
 2479TIP3    H2 7444   1.060   0.378   0.233 -1.1546  1.6011 -0.8564
 2480TIP3   OH2 7445   2.500   2.064   3.750 -0.9438  0.3727 -0.8011
 2480TIP3    H1 7446   2.575   2.022   3.710 -1.3427 -0.7195 -0.4306
 2480TIP3    H2 7447   2.424   2.015   3.717 -1.3269 -0.0505  0.6534
 2481TIP3   OH2 7448   3.447   3.128   3.711 -0.1825  0.6658 -0.1937
 2481TIP3    H1 7449   3.353   3.147   3.714  0.1320  2.1843  0.9937
 2481TIP3    H2 7450   3.454   3.036   3.739 -1.2041  1.0021  1.2758
 2482TIP3   OH2 7451   5.679   5.538   3.302  0.2785 -0.5067  0.5073
 2482TIP3    H1 7452   5.683   5.461   3.359 -1.3355 -1.1443 -0.1541
 2482TIP3    H2 7453   5.611   5.594   3.341  0.7755  0.1347  0.4620
 2483TIP3   OH2 7454   0.484   3.636   2.820 -0.1027 -0.2593  0.3187
 2483TIP3    H1 7455   0.527   3.650   2.736 -3.2534  1.2718 -1.2390
 2483TIP3    H2 7456   0.411   3.578   2.800 -1.0860  0.3405  1.9246
 2484TIP3   OH2 7457   1.229   2.049   0.780 -0.6622 -0.4375  0.2811
 2484TIP3    H1 7458   1.238   1.985   0.710  2.8100  0.6223 -0.3805
 2484TIP3    H2 7459   1.280   2.012   0.853  0.3909  0.9758  0.2956
 2485TIP3   OH2 7460   2.299   4.300   1.473 -0.0729  0.0727 -0.2356
 2485TIP3    H1 7461   2.310   4.266   1.561  1.1708 -1.2422 -0.8573
 2485TIP3    H2 7462   2.206   4.288   1.453 -0.7790  2.0409  1.5047
 2486TIP3   OH2 7463   1.012   5.504   4.918  0.0303  0.0256  0.1136
 2486TIP3    H1 7464   0.919   5.507   4.893 -0.8690 -2.0075  2.7464
 2486TIP3    H2 7465   1.042   5.418   4.887  1.2331  0.8276 -1.0858
 2487TIP3   OH2 7466   2.760   2.452   1.144  0.0679  0.0776  0.1720
 2487TIP3    H1 7467   2.821   2.409   1.204  1.3263 -1.4088 -2.0229
 2487TIP3    H2 7468   2.682   2.396   1.145 -0.3207  0.6146  1.1271
 2488TIP3   OH2 7469   2.687   1.033   4.561 -0.0034  0.6679  0.0202
 2488TIP3    H1 7470   2.682   1.110   4.617 -1.8685  2.0151 -1.8653
 2488TIP3    H2 7471   2.725   1.065   4.479 -0.6041 -0.4653 -0.7199
 2489TIP3   OH2 7472   0.886   1.916   1.531 -0.5786  0.1341  0.6927
 2489TIP3    H1 7473   0.946   1.908   1.605 -1.1734 -0.5409  1.1110
 2489TIP3    H2 7474   0.812   1.966   1.564 -1.3038 -1.0225  0.8584
 2490TIP3   OH2 7475   5.189   5.452   1.539 -0.1279 -0.0903  0.1731
 2490TIP3    H1 7476   5.230   5.518   1.484  0.6043 -0.5150  0.1961
 2490TIP3    H2 7477   5.103   5.488   1.560  0.0689  0.6264 -0.2231
 2491TIP3   OH2 7478   3.404   4.426   2.295  0.1789  0.2873  0.0199
 2491TIP3    H1 7479   3.498   4.427   2.315  0.4021  2.1900 -0.9621
 2491TIP3    H2 7480   3.362   4.442   2.379  0.7106 -0.4818  0.4501
 2492TIP3   OH2 7481   1.758   1.896   3.073  0.1046  0.4779 -0.0917
 2492TIP3    H1 7482   1.835   1.866   3.024  0.7022  1.4778  0.2144
 2492TIP3    H2 7483   1.692   1.828   3.058  0.7282  0.0873 -1.1545
 2493TIP3   OH2 7484   0.419   4.869   1.161  0.1310  0.1959  0.3713
 2493TIP3    H1 7485   0.452   4.887   1.249  0.4025  1.7245 -0.0206
 2493TIP3    H2 7486   0.391   4.778   1.164  2.1843 -0.4624  1.4200
 2494TIP3   OH2 7487   5.335   4.317   3.348 -0.1284 -0.7254 -0.0378
 2494TIP3    H1 7488   5.331   4.225   3.324  1.4981 -0.4282 -1.7277
 2494TIP3    H2 7489   5.294   4.322   3.434  0.0394 -3.0557  0.2284
 2495TIP3   OH2 7490   5.340   0.494   0.330  0.0736  0.5804  0.3155
 2495TIP3    H1 7491   5.354   0.513   0.237 -2.2071  0.1469 -0.1833
 2495TIP3    H2 7492   5.425   0.463   0.362  0.7083 -0.0225 -1.8200
 2496TIP3   OH2 7493   0.080   2.067   2.265 -0.1367  0.4080  0.5350
 2496TIP3    H1 7494  -0.015   2.061   2.274 -0.0528 -0.4425  1.0003
 2496TIP3    H2 7495   0.109   2.101   2.350 -0.1471  2.4315 -0.2145
 2497TIP3   OH2 7496   3.228   1.064   1.167 -0.4846  0.2031  0.2069
 2497TIP3    H1 7497   3.228   0.983   1.219  1.0723 -0.1648 -0.3200
 2497TIP3    H2 7498   3.229   1.034   1.076 -1.5205  0.8390 -0.0262
 2498TIP3   OH2 7499   4.303   2.915   4.159 -1.2834 -0.4468  0.2722
 2498TIP3    H1 7500   4.393   2.889   4.177 -1.0080 -0.3852 -0.9185
 2498TIP3    H2 7501   4.251   2.868   4.224 -0.3639 -0.1392  1.2570
 2499TIP3   OH2 7502   4.115   2.897   4.895  0.2442 -0.0443  0.0186
 2499TIP3    H1 7503   4.196   2.868   4.853 -0.0814  0.4754 -0.9955
 2499TIP3    H2 7504   4.144   2.943   4.974  0.8781 -0.7032  0.1866
 2500TIP3   OH2 7505   4.868   2.097   3.360 -0.1633 -0.1131  0.4320
 2500TIP3    H1 7506   4.871   2.002   3.343 -1.8554 -0.2121  0.5777
 2500TIP3    H2 7507   4.842   2.135   3.276 -4.6861 -0.2764  1.5327
 2501TIP3   OH2 7508   0.838   1.647   1.867  0.0955  0.8537  0.1618
 2501TIP3    H1 7509   0.774   1.667   1.935 -1.6306 -1.0251 -0.7778
 2501TIP3    H2 7510   0.797   1.679   1.786 -1.3084 -3.0097 -0.9205
 2502TIP3   OH2 7511   2.289   5.283   3.064  0.6799 -0.3935  0.6154
 2502TIP3    H1 7512   2.242   5.210   3.105 -1.5054  0.2746 -0.5394
 2502TIP3    H2 7513   2.269   5.274   2.970  1.9535  0.5999  0.2273
 2503TIP3   OH2 7514   3.245   5.253   2.715 -0.0034  0.3987 -0.0180
 2503TIP3    H1 7515   3.291   5.242   2.798  0.4534  1.4096 -0.1316
 2503TIP3    H2 7516   3.267   5.174   2.665 -0.4874 -0.3385  0.9039
 2504TIP3   OH2 7517   0.656   1.440   0.736 -0.0455 -0.3043  0.5153
 2504TIP3    H1 7518   0.726   1.504   0.744  0.2524 -0.3770 -1.1587
 2504TIP3    H2 7519   0.659   1.390   0.817 -0.0478  1.5405  1.7052
 2505TIP3   OH2 7520   5.430   1.638   0.553 -0.6176  0.0039 -0.3845
 2505TIP3    H1 7521   5.407   1.623   0.462 -1.0840 -1.0528 -0.1118
 2505TIP3    H2 7522   5.373   1.579   0.602  0.0270  0.1359  0.5532
 2506TIP3   OH2 7523   0.967   5.699   2.423 -0.3518  0.4769  0.3469
 2506TIP3    H1 7524   0.972   5.787   2.387  0.0724  0.3343  0.0460
 2506TIP3    H2 7525   1.050   5.658   2.398 -1.1869 -0.5428 -0.9223
 2507TIP3   OH2 7526   3.624   3.179   1.014 -0.8414  0.2088 -0.2046
 2507TIP3    H1 7527   3.622   3.242   1.086 -0.4578  1.9029 -1.6171
 2507TIP3    H2 7528   3.533   3.153   1.002 -1.2919  1.9198 -0.7661
 2508TIP3   OH2 7529   2.282   5.539   4.056 -0.5151  0.4465  0.8973
 2508TIP3    H1 7530   2.322   5.625   4.064  0.3986  0.3029 -1.4710
 2508TIP3    H2 7531   2.349   5.485   4.015 -1.7287 -0.9073  0.6241
 2509TIP3   OH2 7532   0.640   1.097   0.138 -0.1773  0.0498 -0.4777
 2509TIP3    H1 7533   0.735   1.092   0.147 -0.1802  0.8390  0.0991
 2509TIP3    H2 7534   0.621   1.049   0.057  0.8760  1.1644 -1.4354
 2510TIP3   OH2 7535   4.587   1.158   5.038  0.1294  0.4457 -0.3630
 2510TIP3    H1 7536   4.523   1.101   4.996  0.4717 -1.2808  1.2709
 2510TIP3    H2 7537   4.603   1.228   4.975 -1.1041 -0.7070 -2.0494
 2511TIP3   OH2 7538   6.262   1.249   2.531  0.0195 -0.4271 -0.3567
 2511TIP3    H1 7539   6.271   1.344   2.526  0.9060 -0.5173 -0.5704
 2511TIP3    H2 7540   6.168   1.233   2.515 -0.0759  0.3837 -0.6508
 2512TIP3   OH2 7541   4.813   4.513   2.387  0.7337  0.1390 -0.0732
 2512TIP3    H1 7542   4.849   4.437   2.341  0.3931 -0.0511 -0.0283
 2512TIP3    H2 7543   4.871   4.585   2.364  0.2807  0.1608 -1.2283
 2513TIP3   OH2 7544   4.436   0.396   2.277 -0.1219  0.0499  0.2458
 2513TIP3    H1 7545   4.451   0.482   2.236  0.1188  1.1125  2.4330
 2513TIP3    H2 7546   4.403   0.416   2.364 -1.0166 -2.1335  0.4803
 2514TIP3   OH2 7547   6.189   2.875   4.630  1.0738  0.2980  0.4047
 2514TIP3    H1 7548   6.180   2.943   4.697 -2.8703  0.5808 -0.1847
 2514TIP3    H2 7549   6.101   2.866   4.593  2.3854 -2.1376 -2.5298
 2515TIP3   OH2 7550   1.541   2.831   2.962 -0.3182  0.3052 -0.0215
 2515TIP3    H1 7551   1.556   2.800   3.051 -1.5255 -0.9895 -0.2377
 2515TIP3    H2 7552   1.492   2.912   2.973  0.7604  0.9133  0.4975
 2516TIP3   OH2 7553   2.258   1.555   1.314 -0.6313 -0.4568 -0.0522
 2516TIP3    H1 7554   2.213   1.503   1.380  0.4265 -0.8872  0.3535
 2516TIP3    H2 7555   2.243   1.508   1.232 -0.5282 -0.8425  0.1507
 2517TIP3   OH2 7556   1.762   3.655   0.891  0.6329  0.0220 -0.3255
 2517TIP3    H1 7557   1.772   3.565   0.861  1.1683  0.3675 -1.2315
 2517TIP3    H2 7558   1.828   3.704   0.841  1.7954  0.5904  1.6559
 2518TIP3   OH2 7559   5.774   3.771   3.225  0.1239 -0.4130  0.0726
 2518TIP3    H1 7560   5.826   3.845   3.256 -0.2851  0.0937 -0.4192
 2518TIP3    H2 7561   5.814   3.694   3.265 -0.3144  0.1860  1.7512
 2519TIP3   OH2 7562   0.668   4.549   0.172 -0.1950  0.1335 -0.3910
 2519TIP3    H1 7563   0.591   4.511   0.214 -1.2858  0.6431 -1.8519
 2519TIP3    H2 7564   0.689   4.488   0.101  0.2007  0.4648 -0.5623
 2520TIP3   OH2 7565   0.389   2.711   2.435 -0.5855 -0.2872 -0.4562
 2520TIP3    H1 7566   0.383   2.761   2.354  1.5435 -0.0431 -0.5321
 2520TIP3    H2 7567   0.301   2.716   2.473 -1.6008 -0.3167 -2.6600
 2521TIP3   OH2 7568   2.903   0.698   0.884 -0.6112 -0.2986  0.4931
 2521TIP3    H1 7569   2.964   0.768   0.861 -1.2282  0.4214  0.9833
 2521TIP3    H2 7570   2.854   0.680   0.803 -0.1115 -0.5212  0.2362
 2522TIP3   OH2 7571   3.783   4.950   3.677 -0.6931  0.0895  0.6389
 2522TIP3    H1 7572   3.792   4.993   3.762 -0.9545  0.3211  0.5476
 2522TIP3    H2 7573   3.690   4.954   3.657 -0.5798  0.3998  0.1521
 2523TIP3   OH2 7574   2.959   0.502   4.857  0.0792  0.1045  0.0514
 2523TIP3    H1 7575   2.897   0.556   4.809  1.6298  0.4777 -1.6415
 2523TIP3    H2 7576   2.985   0.555   4.933 -1.2444  0.1341  0.5013
 2524TIP3   OH2 7577   4.748   1.785   0.837  0.6168  0.7309 -0.0368
 2524TIP3    H1 7578   4.833   1.828   0.844  0.9889  0.2728 -1.4676
 2524TIP3    H2 7579   4.685   1.857   0.839  1.0016  1.0507  1.3722
 2525TIP3   OH2 7580   0.299   0.742   3.978 -0.1483 -0.4178 -0.0483
 2525TIP3    H1 7581   0.284   0.721   4.070 -0.8421  1.0406  0.1914
 2525TIP3    H2 7582   0.366   0.679   3.950  0.3060 -0.6764  1.5198
 2526TIP3   OH2 7583   2.982   3.373   3.570 -0.4078  0.1766  1.1591
 2526TIP3    H1 7584   2.963   3.282   3.592 -0.6155 -0.5290 -1.5466
 2526TIP3    H2 7585   2.915   3.424   3.615 -0.1258 -0.9446  2.9341
 2527TIP3   OH2 7586   5.957   1.456   1.325 -0.3735 -0.4426  0.0701
 2527TIP3    H1 7587   5.962   1.377   1.272 -0.0453 -0.2732 -0.1601
 2527TIP3    H2 7588   6.043   1.462   1.368 -0.5681 -0.4726  0.4688
 2528TIP3   OH2 7589   0.961   4.307   4.949  0.0787 -0.2385  0.2016
 2528TIP3    H1 7590   0.926   4.236   4.896  0.8620  0.2706 -1.0515
 2528TIP3    H2 7591   0.890   4.330   5.009 -0.3692 -1.6964  0.2558
 2529TIP3   OH2 7592   1.522   2.524   2.192  0.4591  0.2186  0.3771
 2529TIP3    H1 7593   1.615   2.507   2.206  0.3027 -0.1329  1.0363
 2529TIP3    H2 7594   1.515   2.545   2.099  0.8629 -2.0037 -0.2112
 2530TIP3   OH2 7595   3.419   2.917   0.950  0.7437  0.6104  0.2062
 2530TIP3    H1 7596   3.401   2.874   1.034 -0.8373 -0.5485 -0.6658
 2530TIP3    H2 7597   3.489   2.864   0.912  0.0230 -0.1500 -0.0919
 2531TIP3   OH2 7598   1.316   4.939   2.169 -0.3347  0.0578 -0.3682
 2531TIP3    H1 7599   1.227   4.970   2.187  0.1265  0.1357  1.9825
 2531TIP3    H2 7600   1.305   4.846   2.147 -0.8489 -0.6626  2.5082
 2532TIP3   OH2 7601   1.654   2.700   4.398 -0.2339  0.2556  0.4192
 2532TIP3    H1 7602   1.666   2.789   4.365 -1.0367  0.1245 -0.2603
 2532TIP3    H2 7603   1.589   2.661   4.339 -0.7922 -0.3912  1.4380
 2533TIP3   OH2 7604   4.004   0.337   0.912  0.4355  0.1035  0.8944
 2533TIP3    H1 7605   4.012   0.432   0.911  0.8133  0.0727 -0.1945
 2533TIP3    H2 7606   4.087   0.305   0.877  0.1744 -0.6167  0.9134
 2534TIP3   OH2 7607   2.823   5.606   4.187  0.1181  0.2178  0.0419
 2534TIP3    H1 7608   2.913   5.598   4.218 -0.6646 -0.9896  2.1922
 2534TIP3    H2 7609   2.803   5.521   4.149 -0.0626  0.5520 -0.6297
 2535TIP3   OH2 7610   1.190   4.628   1.175 -0.4356 -0.1270  0.1102
 2535TIP3    H1 7611   1.199   4.648   1.268 -1.8559 -0.5305  0.3562
 2535TIP3    H2 7612   1.136   4.549   1.173  0.6055 -0.8554 -1.0302
 2536TIP3   OH2 7613   4.753   3.024   3.236 -0.3679  0.8500 -0.0193
 2536TIP3    H1 7614   4.804   2.964   3.290 -1.0573 -0.1601 -0.4549
 2536TIP3    H2 7615   4.709   3.081   3.299 -1.3168 -0.4376  0.5453
 2537TIP3   OH2 7616   1.968   2.559   0.706  0.1239 -0.6572 -0.5419
 2537TIP3    H1 7617   1.998   2.631   0.651 -1.2024 -1.8766 -3.0353
 2537TIP3    H2 7618   1.908   2.599   0.768  1.1940  0.6867 -0.3300
 2538TIP3   OH2 7619   6.197   5.925   2.267 -0.1691  0.6358 -0.2499
 2538TIP3    H1 7620   6.123   5.949   2.211 -0.7684 -2.6954 -1.1146
 2538TIP3    H2 7621   6.274   5.936   2.211 -0.7255 -2.2684 -1.8019
 2539TIP3   OH2 7622   2.665   3.571   3.213  0.0792  0.0717 -0.1409
 2539TIP3    H1 7623   2.616   3.490   3.230 -0.0679 -0.3505 -2.3232
 2539TIP3    H2 7624   2.720   3.581   3.290 -1.0441 -1.2440  0.8947
 2540TIP3   OH2 7625   1.516   5.263   0.372  0.0611 -0.0074 -0.0627
 2540TIP3    H1 7626   1.451   5.203   0.410  1.1022 -0.1245  1.6376
 2540TIP3    H2 7627   1.549   5.217   0.296 -0.9496 -0.4867 -0.2334
 2541TIP3   OH2 7628   0.711   2.387   5.057 -0.3357 -0.5026  0.4124
 2541TIP3    H1 7629   0.694   2.431   4.974  0.9857  0.0015  0.3873
 2541TIP3    H2 7630   0.639   2.325   5.067 -1.3977  0.5859 -0.2997
 2542TIP3   OH2 7631   1.157   0.995   0.310 -0.6119  0.7794  0.2703
 2542TIP3    H1 7632   1.160   0.913   0.359  1.4797  0.5839 -0.0925
 2542TIP3    H2 7633   1.172   1.063   0.377 -1.2039  0.7793  0.4036
 2543TIP3   OH2 7634   1.112   5.521   4.488 -0.1410  0.1794  0.2597
 2543TIP3    H1 7635   1.189   5.466   4.477 -1.5415 -1.8971  0.2091
 2543TIP3    H2 7636   1.111   5.578   4.410  1.3414  0.2912  0.3100
 2544TIP3   OH2 7637   0.626   3.685   4.584 -0.0271 -0.5553 -0.3994
 2544TIP3    H1 7638   0.715   3.672   4.616 -0.2356 -0.0486  0.4128
 2544TIP3    H2 7639   0.578   3.720   4.659 -0.6108  0.3393 -1.1674
 2545TIP3   OH2 7640   4.482   4.615   0.915 -0.2778  0.3098  0.6818
 2545TIP3    H1 7641   4.402   4.656   0.948 -0.5951 -1.3034  2.0342
 2545TIP3    H2 7642   4.528   4.585   0.993 -0.1965 -2.0971 -0.2045
 2546TIP3   OH2 7643   1.238   4.776   2.546  0.1513  0.2826  0.1991
 2546TIP3    H1 7644   1.179   4.719   2.595  0.0296  0.0873 -0.1661
 2546TIP3    H2 7645   1.222   4.864   2.581  0.6507  0.0402  1.0636
 2547TIP3   OH2 7646   6.105   3.245   3.887 -0.0503 -0.6323 -0.7317
 2547TIP3    H1 7647   6.115   3.301   3.965  0.7982 -0.4476 -0.9648
 2547TIP3    H2 7648   6.178   3.184   3.893 -0.5875 -1.2918 -0.8416
 2548TIP3   OH2 7649   0.794   1.589   0.522  0.2174  0.3753 -0.3093
 2548TIP3    H1 7650   0.788   1.680   0.549 -0.7968  0.3917 -0.5344
 2548TIP3    H2 7651   0.737   1.583   0.445 -0.2408 -0.5755  0.0869
 2549TIP3   OH2 7652   0.954   1.709   3.246 -0.1520 -0.1683  0.2461
 2549TIP3    H1 7653   0.986   1.769   3.313 -0.6243  0.0898  0.2462
 2549TIP3    H2 7654   1.019   1.639   3.243  0.7442  0.6492 -0.1893
 2550TIP3   OH2 7655   1.932   2.246   1.646 -0.3095  0.1787 -0.3592
 2550TIP3    H1 7656   2.000   2.179   1.646  1.1987  1.6258 -1.0000
 2550TIP3    H2 7657   1.851   2.199   1.664  0.5410 -1.9397 -1.7473
 2551TIP3   OH2 7658   5.469   5.691   1.621  0.3090 -0.0650  0.4208
 2551TIP3    H1 7659   5.516   5.608   1.620 -1.1868 -0.9560 -0.4863
 2551TIP3    H2 7660   5.427   5.695   1.535 -1.7194  0.3560  1.3746
 2552TIP3   OH2 7661   4.200   0.190   4.913  0.5070  0.4114 -0.2340
 2552TIP3    H1 7662   4.276   0.150   4.873  1.0028  3.3811 -2.5744
 2552TIP3    H2 7663   4.147   0.222   4.840 -0.7779  2.2666  1.3754
 2553TIP3   OH2 7664   2.168   2.063   1.058  0.3453  0.0190  0.0063
 2553TIP3    H1 7665   2.145   1.974   1.085  1.3589 -0.2888 -0.0960
 2553TIP3    H2 7666   2.114   2.079   0.981 -0.3838 -0.2188  0.4494
 2554TIP3   OH2 7667   1.082   4.795   0.116 -0.1074  0.0786  0.0498
 2554TIP3    H1 7668   1.104   4.887   0.101 -0.2374  0.5610  2.3101
 2554TIP3    H2 7669   0.989   4.796   0.136  0.2447 -0.2208  1.9187
 2555TIP3   OH2 7670   3.042   3.253   3.216 -0.1584 -0.0927  0.4605
 2555TIP3    H1 7671   3.128   3.283   3.243  1.3325 -1.5714 -2.2755
 2555TIP3    H2 7672   2.982   3.323   3.243  2.0749  1.6586  1.1052
 2556TIP3   OH2 7673   2.016   2.058   4.702  0.0389 -0.5467 -0.4359
 2556TIP3    H1 7674   2.096   2.098   4.667 -0.2358  0.7989  0.4041
 2556TIP3    H2 7675   2.044   2.014   4.782 -0.3997  2.0149  1.2345
 2557TIP3   OH2 7676   4.657   5.566   4.501  0.0254 -0.6414  0.2593
 2557TIP3    H1 7677   4.587   5.564   4.566  1.7910 -1.4499  2.2985
 2557TIP3    H2 7678   4.736   5.543   4.551  2.2118  2.5723 -1.3319
 2558TIP3   OH2 7679   1.406   1.072   2.501 -0.1444  0.0672  0.6085
 2558TIP3    H1 7680   1.407   1.015   2.424 -0.5712  0.7562  0.0771
 2558TIP3    H2 7681   1.318   1.061   2.537  0.1984 -0.5877  1.2626
 2559TIP3   OH2 7682   6.207   0.074   3.797 -0.1761  0.5956 -0.5997
 2559TIP3    H1 7683   6.288   0.093   3.750 -0.0846  0.5774 -0.4503
 2559TIP3    H2 7684   6.234   0.018   3.870 -0.2705  0.8708 -0.3504
 2560TIP3   OH2 7685   2.962   5.876   1.915 -0.0362  0.3204  0.0972
 2560TIP3    H1 7686   2.888   5.894   1.857 -0.1821 -0.4004  0.0542
 2560TIP3    H2 7687   2.953   5.783   1.938  1.3667 -0.0258 -0.6425
 2561TIP3   OH2 7688   4.041   5.034   4.721 -0.6206 -0.6502  0.0279
 2561TIP3    H1 7689   4.077   5.120   4.700 -1.0786 -0.5019 -0.1534
 2561TIP3    H2 7690   3.997   5.046   4.805 -1.1210 -0.5823 -0.2424
 2562TIP3   OH2 7691   3.355   4.961   4.243 -0.1028 -0.1237 -0.3500
 2562TIP3    H1 7692   3.300   4.913   4.182 -0.5835 -0.7682  0.5593
 2562TIP3    H2 7693   3.375   4.897   4.312  0.7148  0.4804 -0.0127
 2563TIP3   OH2 7694   5.817   4.043   3.424 -0.3047 -0.0552  0.2931
 2563TIP3    H1 7695   5.855   4.122   3.387  0.5380 -0.7990 -0.4790
 2563TIP3    H2 7696   5.887   3.978   3.420 -1.0965 -0.9517  0.5470
 2564TIP3   OH2 7697   2.884   3.018   3.179 -0.0629 -1.3437 -0.1991
 2564TIP3    H1 7698   2.941   3.095   3.172  1.1230 -2.2775 -1.0679
 2564TIP3    H2 7699   2.806   3.043   3.129  0.9237 -1.2302 -1.7338
 2565TIP3   OH2 7700   1.969   0.039  -0.027 -0.2351  0.4012  0.1758
 2565TIP3    H1 7701   1.932  -0.029   0.030 -0.8675  0.1212 -0.5573
 2565TIP3    H2 7702   1.943   0.121   0.014  1.6446  0.2598  1.8103
 2566TIP3   OH2 7703   3.583   0.072   4.561 -0.4739 -0.3804 -0.2027
 2566TIP3    H1 7704   3.644   0.066   4.635 -0.0302 -0.8705 -0.6024
 2566TIP3    H2 7705   3.561  -0.019   4.541  0.2613 -0.3237 -1.3657
 2567TIP3   OH2 7706   3.992   5.311   3.944  0.4945 -0.2286 -0.7084
 2567TIP3    H1 7707   4.017   5.293   3.853  1.9319 -0.2316 -0.3482
 2567TIP3    H2 7708   4.073   5.342   3.985 -0.7823  2.8114 -0.1838
 2568TIP3   OH2 7709   3.608   2.076   4.802 -0.0573 -0.3487  0.5034
 2568TIP3    H1 7710   3.583   2.030   4.722 -0.6474 -0.4080  0.7176
 2568TIP3    H2 7711   3.529   2.122   4.829 -0.7812 -2.6478  2.6570
 2569TIP3   OH2 7712   3.048   5.419   3.436  0.2511 -0.3378 -0.5424
 2569TIP3    H1 7713   2.973   5.419   3.494 -0.2107 -2.5805 -1.0154
 2569TIP3    H2 7714   3.012   5.396   3.350  1.4079 -1.1586 -0.8415
 2570TIP3   OH2 7715   1.105   4.319   4.547  0.1570 -0.0758 -0.4680
 2570TIP3    H1 7716   1.042   4.386   4.522 -0.4306 -1.5951 -3.5237
 2570TIP3    H2 7717   1.053   4.250   4.588  0.3386  0.0507 -0.0138
 2571TIP3   OH2 7718   3.977   1.371   1.694 -0.4577  0.0603  0.1740
 2571TIP3    H1 7719   4.034   1.304   1.730 -0.4551 -0.6181 -1.0273
 2571TIP3    H2 7720   3.977   1.354   1.600 -0.9701  1.3529 -0.0826
 2572TIP3   OH2 7721   1.261   4.380   2.142  0.2199  0.4311 -0.0873
 2572TIP3    H1 7722   1.246   4.376   2.048  0.1432 -0.2039 -0.0533
 2572TIP3    H2 7723   1.316   4.305   2.161 -0.2601  0.2087  0.4625
 2573TIP3   OH2 7724   4.890   5.086   1.620  0.0129 -0.6017 -0.0513
 2573TIP3    H1 7725   4.942   5.008   1.602 -0.7790 -1.1270 -0.0891
 2573TIP3    H2 7726   4.952   5.147   1.660  0.6558 -1.2144 -0.0873
 2574TIP3   OH2 7727   1.361   1.746   1.241 -0.3699  0.0171  0.5288
 2574TIP3    H1 7728   1.351   1.688   1.316  0.0692 -0.2685  0.3716
 2574TIP3    H2 7729   1.276   1.741   1.195  0.0357 -1.4481 -0.1454
 2575TIP3   OH2 7730   3.040   1.547   1.132 -0.0073 -0.3676  0.0172
 2575TIP3    H1 7731   3.013   1.485   1.065  0.2641 -0.9134  0.4043
 2575TIP3    H2 7732   3.015   1.505   1.215 -0.4043  0.3267  0.2572
 2576TIP3   OH2 7733   0.083   0.234   0.532 -0.0930 -0.1665  0.8705
 2576TIP3    H1 7734  -0.007   0.256   0.507 -0.3555 -3.2204 -1.5240
 2576TIP3    H2 7735   0.073   0.172   0.604  0.1777  0.4682  1.4615
 2577TIP3   OH2 7736   5.032   1.998   4.938 -0.2481  0.1393 -0.5472
 2577TIP3    H1 7737   5.038   2.026   5.030  0.8919 -1.9585  0.0679
 2577TIP3    H2 7738   4.994   2.074   4.893  0.4839  1.7528  1.3924
 2578TIP3   OH2 7739   4.701   4.248   4.477 -0.0069 -0.5327  0.4735
 2578TIP3    H1 7740   4.713   4.337   4.510  1.9759 -1.1153  1.4312
 2578TIP3    H2 7741   4.612   4.224   4.504 -2.1401  2.3940 -2.9759
 2579TIP3   OH2 7742   3.016   3.436   0.562  0.2582  0.2817  0.1546
 2579TIP3    H1 7743   2.947   3.426   0.627  0.7066  0.9268  0.7452
 2579TIP3    H2 7744   3.021   3.350   0.518 -1.4182  0.4438 -0.4288
 2580TIP3   OH2 7745   2.156   1.459   4.184 -0.1293  0.7058 -0.5400
 2580TIP3    H1 7746   2.122   1.513   4.113  1.8578  1.8552 -0.7011
 2580TIP3    H2 7747   2.244   1.492   4.199  0.9892 -2.1225 -0.2199
 2581TIP3   OH2 7748   2.580   1.336   4.255 -0.2119  0.5905 -0.1252
 2581TIP3    H1 7749   2.652   1.273   4.259  0.2523  1.0813 -0.6707
 2581TIP3    H2 7750   2.516   1.303   4.319  0.1503 -0.2692 -0.1900
 2582TIP3   OH2 7751   5.175   1.328   4.865  0.3081  0.2563 -0.0486
 2582TIP3    H1 7752   5.129   1.389   4.808  0.1899  1.2154  1.0380
 2582TIP3    H2 7753   5.194   1.253   4.810 -1.8633  0.1595 -0.7344
 2583TIP3   OH2 7754   4.391   2.984   3.886 -0.0906  0.2479 -0.1403
 2583TIP3    H1 7755   4.409   2.912   3.826  0.4176 -0.7185  1.1103
 2583TIP3    H2 7756   4.365   2.940   3.968 -0.2234  1.5029  0.5097
 2584TIP3   OH2 7757   1.335   2.875   3.963  0.5654 -0.1110 -0.0699
 2584TIP3    H1 7758   1.293   2.861   4.048  0.6425  0.1627  0.0151
 2584TIP3    H2 7759   1.424   2.842   3.974  0.6659  0.1974  0.0480
 2585TIP3   OH2 7760   1.107   3.497   0.992 -0.2171  0.9833  0.5415
 2585TIP3    H1 7761   1.099   3.408   1.026  0.2513  0.9957  0.6923
 2585TIP3    H2 7762   1.041   3.547   1.040 -1.3531  0.4723 -0.4298
 2586TIP3   OH2 7763   0.766   2.436   3.984 -0.8879  0.6536  0.1282
 2586TIP3    H1 7764   0.718   2.507   3.942  0.5585  1.4243 -0.2910
 2586TIP3    H2 7765   0.708   2.360   3.977 -2.1373  1.6082 -0.0980
 2587TIP3   OH2 7766   2.727   1.317   0.258  0.0165  0.6951  0.2706
 2587TIP3    H1 7767   2.743   1.408   0.234 -1.7102  0.2500 -3.2844
 2587TIP3    H2 7768   2.767   1.266   0.187 -0.7203 -1.2000  1.1365
 2588TIP3   OH2 7769   5.088   4.779   4.430 -0.3368 -0.0373  0.2424
 2588TIP3    H1 7770   5.015   4.833   4.401 -0.1058 -0.3847 -1.0508
 2588TIP3    H2 7771   5.140   4.837   4.486 -0.8738  0.6220  0.0697
 2589TIP3   OH2 7772   1.833   4.590   3.643  0.0117  0.3671  0.4396
 2589TIP3    H1 7773   1.879   4.636   3.573  2.1467  0.4349  1.8153
 2589TIP3    H2 7774   1.833   4.498   3.615 -0.6014  0.6145 -0.3939
 2590TIP3   OH2 7775   1.932   0.429   3.499  0.5410  0.3065 -0.1370
 2590TIP3    H1 7776   1.894   0.352   3.541 -1.8828  1.2828 -0.3565
 2590TIP3    H2 7777   2.026   0.419   3.510  0.1768 -1.4300  2.0061
 2591TIP3   OH2 7778   6.174   4.402   0.199  0.3149 -0.2337 -0.4204
 2591TIP3    H1 7779   6.196   4.477   0.144  0.0671  0.3745  0.2902
 2591TIP3    H2 7780   6.183   4.434   0.289 -1.4675 -0.5343 -0.0902
 2592TIP3   OH2 7781   2.166   2.060   2.551  0.6903 -0.1801 -0.0049
 2592TIP3    H1 7782   2.098   2.001   2.582 -2.8199  2.8210 -1.1938
 2592TIP3    H2 7783   2.202   2.099   2.630 -2.3852  1.4764  0.7317
 2593TIP3   OH2 7784   1.684   3.654  -0.007 -0.1662  0.2785 -0.4655
 2593TIP3    H1 7785   1.752   3.604  -0.054  0.2782 -0.7291  1.1555
 2593TIP3    H2 7786   1.700   3.634   0.085 -3.4962 -1.1146 -0.0410
 2594TIP3   OH2 7787   3.344   0.056   1.510  0.4234  0.1047  0.7353
 2594TIP3    H1 7788   3.304   0.051   1.423  3.7581 -2.3883 -0.8947
 2594TIP3    H2 7789   3.297  -0.011   1.560  0.5356 -0.7158 -0.2026
 2595TIP3   OH2 7790   4.867   2.038   0.969 -0.4894 -0.6955 -0.5713
 2595TIP3    H1 7791   4.895   2.020   1.059 -1.1975  2.3026  0.3834
 2595TIP3    H2 7792   4.942   2.013   0.915 -0.3130 -3.2399  0.7291
 2596TIP3   OH2 7793   1.038   1.389   0.893  0.4748  0.4841 -0.0380
 2596TIP3    H1 7794   1.074   1.425   0.812 -0.9286  1.6963 -0.1602
 2596TIP3    H2 7795   0.948   1.422   0.896 -0.1216 -1.1172  1.0616
 2597TIP3   OH2 7796   0.147   2.890   2.779 -0.2342  0.6552  0.5518
 2597TIP3    H1 7797   0.227   2.898   2.832 -0.2010 -0.6466  0.7330
 2597TIP3    H2 7798   0.077   2.879   2.843 -0.1900 -0.9656  0.3569
 2598TIP3   OH2 7799   4.796   0.265   5.008  0.1943  0.0189  0.1789
 2598TIP3    H1 7800   4.763   0.191   4.956  0.2251  0.1277  0.0044
 2598TIP3    H2 7801   4.746   0.340   4.977  0.8282  0.2441 -0.3117
 2599TIP3   OH2 7802   4.635   5.137   4.126 -0.2474  0.6199  0.2607
 2599TIP3    H1 7803   4.629   5.207   4.061  2.6883  1.0796  0.3068
 2599TIP3    H2 7804   4.595   5.173   4.205  0.9239  2.1802  0.1827
 2600TIP3   OH2 7805   1.384   3.363   0.168  0.3062 -0.1816 -0.3194
 2600TIP3    H1 7806   1.476   3.372   0.193  0.5446  0.3311 -1.3661
 2600TIP3    H2 7807   1.337   3.420   0.230  0.6593 -0.6396  0.3768
 2601TIP3   OH2 7808   2.650   3.845   3.122 -0.0350 -0.7765 -0.0265
 2601TIP3    H1 7809   2.724   3.900   3.148 -0.0176  0.0696 -1.7410
 2601TIP3    H2 7810   2.576   3.905   3.115 -0.7588 -1.5091  1.0357
 2602TIP3   OH2 7811   0.994   2.724   4.196 -0.3381  0.0286 -0.3174
 2602TIP3    H1 7812   0.967   2.741   4.105 -1.9925 -1.7243 -0.2192
 2602TIP3    H2 7813   0.974   2.632   4.210 -2.1724  0.7140  2.4919
 2603TIP3   OH2 7814   6.157   2.038   2.684 -0.1128 -0.1190 -0.2210
 2603TIP3    H1 7815   6.076   2.021   2.637 -0.0094 -0.9901 -0.0967
 2603TIP3    H2 7816   6.186   1.952   2.715  0.4654  0.2779  0.3760
 2604TIP3   OH2 7817   4.432   2.887   1.167 -0.4353  0.0672 -0.5298
 2604TIP3    H1 7818   4.431   2.934   1.083 -0.5336  2.1658  0.5773
 2604TIP3    H2 7819   4.456   2.954   1.232  2.1329 -2.0076  0.8630
 2605TIP3   OH2 7820   4.088   5.590   3.578 -0.4476 -0.0408 -0.3665
 2605TIP3    H1 7821   4.004   5.572   3.620 -0.2409 -1.0385 -0.3519
 2605TIP3    H2 7822   4.150   5.531   3.622  0.9588  2.7917  1.7992
 2606TIP3   OH2 7823   4.879   1.143   2.014  0.0490  0.1995 -0.1853
 2606TIP3    H1 7824   4.954   1.180   1.968 -0.8795  1.0302 -1.0832
 2606TIP3    H2 7825   4.856   1.065   1.963  1.3927 -1.1399  1.1420
 2607TIP3   OH2 7826   0.852   1.218   1.211  0.3635 -0.0214  0.1614
 2607TIP3    H1 7827   0.918   1.259   1.266 -0.8802 -1.8204  3.2457
 2607TIP3    H2 7828   0.894   1.139   1.177  0.7853  0.5409 -0.6744
 2608TIP3   OH2 7829   4.473   2.436   1.343  0.4140  0.1253 -0.1610
 2608TIP3    H1 7830   4.492   2.389   1.424 -0.5205 -1.3476 -0.7638
 2608TIP3    H2 7831   4.549   2.493   1.330  0.5019  0.5126  1.8170
 2609TIP3   OH2 7832   1.420   4.504   4.125  0.0636  0.4193 -0.0781
 2609TIP3    H1 7833   1.412   4.438   4.194 -1.6207  1.5418  0.8830
 2609TIP3    H2 7834   1.336   4.500   4.078  0.9423  0.1074 -1.6967
 2610TIP3   OH2 7835   5.428   5.143   4.082  0.4971  0.3252  0.2772
 2610TIP3    H1 7836   5.334   5.158   4.073  0.6747  0.6991 -1.1267
 2610TIP3    H2 7837   5.453   5.095   4.003  1.4776  0.1812  0.6596
 2611TIP3   OH2 7838   2.344   0.515   2.842  0.6438 -0.1175  0.2916
 2611TIP3    H1 7839   2.393   0.434   2.831  1.8149  0.5328  0.4914
 2611TIP3    H2 7840   2.282   0.517   2.769 -0.2707 -1.7657  0.9765
 2612TIP3   OH2 7841   4.301   0.345   0.886  0.8913  0.3069  0.0987
 2612TIP3    H1 7842   4.313   0.263   0.837 -0.9823  0.2076 -0.2784
 2612TIP3    H2 7843   4.317   0.322   0.977  1.2595 -0.2617 -0.1060
 2613TIP3   OH2 7844   1.928   1.879   2.840  0.0147 -0.7630 -0.0128
 2613TIP3    H1 7845   1.840   1.851   2.813 -0.5577  3.1184 -3.0658
 2613TIP3    H2 7846   1.926   1.975   2.832  3.7284 -0.2342  2.7275
 2614TIP3   OH2 7847   1.414   3.941   0.303 -0.1776  0.1350 -0.0644
 2614TIP3    H1 7848   1.393   3.911   0.392  0.4134 -0.5689 -0.1547
 2614TIP3    H2 7849   1.460   4.024   0.316  0.1074 -0.0756  0.3047
 2615TIP3   OH2 7850   0.329   4.094   0.466  0.2336  0.5904 -0.1570
 2615TIP3    H1 7851   0.401   4.084   0.404 -0.9938  0.5276 -1.6255
 2615TIP3    H2 7852   0.332   4.186   0.491  0.6100  0.6690 -0.4747
 2616TIP3   OH2 7853   0.061   3.107   2.983  0.0969 -0.6186  0.2493
 2616TIP3    H1 7854   0.114   3.184   3.003  1.3391 -1.2577 -0.4526
 2616TIP3    H2 7855   0.092   3.078   2.898 -1.4809 -0.9698 -0.2397
 2617TIP3   OH2 7856   2.648   0.804   1.254  0.5368 -0.7008 -0.5053
 2617TIP3    H1 7857   2.621   0.888   1.217 -1.0306 -1.1872 -0.5705
 2617TIP3    H2 7858   2.604   0.739   1.199 -0.9573 -1.4707  1.4575
 2618TIP3   OH2 7859   1.331   4.889   1.320  0.2648  0.3928  0.6576
 2618TIP3    H1 7860   1.412   4.913   1.367  1.6285 -1.8917 -0.3521
 2618TIP3    H2 7861   1.360   4.869   1.231 -1.3842 -0.7000  0.3275
 2619TIP3   OH2 7862   5.575   3.264   1.276  0.4235 -0.0741 -0.4719
 2619TIP3    H1 7863   5.537   3.268   1.363  3.4049 -0.4789  0.9918
 2619TIP3    H2 7864   5.536   3.338   1.229 -0.0412  1.1769  1.7557
 2620TIP3   OH2 7865   5.892   2.941   1.739 -0.0322  0.5596  0.0331
 2620TIP3    H1 7866   5.918   3.022   1.695 -2.3540  1.8055  0.7430
 2620TIP3    H2 7867   5.943   2.942   1.821  2.3232 -0.4194 -1.3278
 2621TIP3   OH2 7868   5.089   2.801   0.730 -0.0770  0.0386  0.1835
 2621TIP3    H1 7869   5.048   2.779   0.813  0.5593 -0.6868  0.3167
 2621TIP3    H2 7870   5.059   2.734   0.669 -1.9561  1.5584 -0.6559
 2622TIP3   OH2 7871   2.249   3.737   2.462  0.0302  0.5245 -0.4948
 2622TIP3    H1 7872   2.222   3.721   2.371  1.1190  0.7741 -0.8787
 2622TIP3    H2 7873   2.322   3.799   2.455 -0.9187  1.8184  0.6685
 2623TIP3   OH2 7874   3.414   2.766   1.480 -0.0307 -0.0471 -0.0782
 2623TIP3    H1 7875   3.504   2.733   1.479  0.6047  1.5299 -2.1781
 2623TIP3    H2 7876   3.363   2.696   1.439  0.5769 -0.2139 -0.5801
 2624TIP3   OH2 7877   3.361   3.722   2.271  0.4639 -0.7950 -0.5115
 2624TIP3    H1 7878   3.444   3.736   2.317  0.7948 -1.6364 -0.8423
 2624TIP3    H2 7879   3.360   3.629   2.250  0.0565 -0.5371 -1.7079
 2625TIP3   OH2 7880   2.040   3.573   2.555 -0.0304  0.6802  0.2625
 2625TIP3    H1 7881   2.099   3.605   2.487  0.1769 -1.0588 -0.4311
 2625TIP3    H2 7882   1.952   3.596   2.524  0.1332  1.0867  0.0924
 2626TIP3   OH2 7883   1.248   2.738   1.434  0.3225  0.2745  0.5034
 2626TIP3    H1 7884   1.213   2.796   1.501 -1.4388 -1.3688  1.0752
 2626TIP3    H2 7885   1.306   2.679   1.481  1.5655  1.0738  0.0307
 2627TIP3   OH2 7886   3.362   3.230   1.764 -0.3801  0.1449  0.5633
 2627TIP3    H1 7887   3.432   3.240   1.829  0.0377 -0.0294  0.1455
 2627TIP3    H2 7888   3.402   3.257   1.682 -0.3481 -1.3796  0.0482
 2628TIP3   OH2 7889   0.691   4.549   4.004  0.3619 -0.2532  0.1845
 2628TIP3    H1 7890   0.731   4.636   4.013  1.3067 -0.8519  2.1341
 2628TIP3    H2 7891   0.725   4.515   3.921  2.0474  0.1910  0.6733
 2629TIP3   OH2 7892   1.164   4.001   2.578 -0.1059  0.4112 -0.5881
 2629TIP3    H1 7893   1.136   3.917   2.542  1.3290  0.1776 -1.2125
 2629TIP3    H2 7894   1.180   4.056   2.502  1.3896  0.4378 -0.2746
 2630TIP3   OH2 7895   3.640   0.450   1.143  0.1304 -0.2133 -0.0838
 2630TIP3    H1 7896   3.581   0.456   1.218  0.4868  1.2851  0.1201
 2630TIP3    H2 7897   3.715   0.503   1.167  1.1316 -1.2881 -0.7439
 2631TIP3   OH2 7898   4.307   5.483   1.051  0.4304  0.0540  0.1639
 2631TIP3    H1 7899   4.311   5.413   1.117  4.2177 -3.0542 -2.8783
 2631TIP3    H2 7900   4.253   5.446   0.981 -0.4639  1.7815 -0.1210
 2632TIP3   OH2 7901   6.143   0.995   4.770 -0.3316 -0.2550  0.3664
 2632TIP3    H1 7902   6.154   0.955   4.684  1.3932 -3.5887  1.9193
 2632TIP3    H2 7903   6.057   1.035   4.767  0.0480  0.6019 -3.1507
 2633TIP3   OH2 7904   3.241   2.349   0.833  0.1288  0.1239 -0.0487
 2633TIP3    H1 7905   3.160   2.353   0.884  0.1681 -0.1469  0.0374
 2633TIP3    H2 7906   3.232   2.269   0.781  1.7990 -1.8932  2.4811
 2634TIP3   OH2 7907   0.392   0.406   2.542 -0.1296  0.7660 -0.0271
 2634TIP3    H1 7908   0.328   0.385   2.474 -0.7144 -0.3104  0.8238
 2634TIP3    H2 7909   0.403   0.325   2.591  0.5283  1.4223  0.9580
 2635TIP3   OH2 7910   4.409   3.848   4.417  0.1578  0.6150 -0.0525
 2635TIP3    H1 7911   4.432   3.760   4.446  0.2437 -0.1771 -2.3720
 2635TIP3    H2 7912   4.354   3.883   4.488  2.2569 -0.2516  2.1429
 2636TIP3   OH2 7913   0.293   3.977   0.713 -0.0448 -0.1218 -0.4022
 2636TIP3    H1 7914   0.238   3.904   0.685  0.6167 -0.9633  0.4461
 2636TIP3    H2 7915   0.313   4.024   0.632 -4.3373  1.9919 -0.5814
 2637TIP3   OH2 7916   3.125   1.162   0.711  0.1839  0.3306 -0.3010
 2637TIP3    H1 7917   3.064   1.235   0.698  2.0705  2.2114  0.8933
 2637TIP3    H2 7918   3.196   1.179   0.649  0.9804 -0.0868  0.4727
 2638TIP3   OH2 7919   5.057   5.455   3.087  0.4926  0.0205  0.4815
 2638TIP3    H1 7920   5.115   5.386   3.054  0.5349  0.3315 -0.1163
 2638TIP3    H2 7921   5.089   5.473   3.175  1.0327 -0.1212  0.3218
 2639TIP3   OH2 7922   5.141   5.182   4.060 -0.1308 -0.5726  0.4368
 2639TIP3    H1 7923   5.057   5.198   4.016  0.6349  1.9158 -0.2744
 2639TIP3    H2 7924   5.119   5.184   4.153 -0.7554  1.0709  0.2912
 2640TIP3   OH2 7925   5.179   3.642   3.622  0.4732  0.1204  0.0444
 2640TIP3    H1 7926   5.086   3.642   3.644  0.3512  3.2861 -0.0618
 2640TIP3    H2 7927   5.222   3.677   3.700  1.3998  0.1395 -0.4657
 2641TIP3   OH2 7928   4.993   1.437   2.004  0.2787 -0.3189  0.3139
 2641TIP3    H1 7929   5.047   1.512   2.030 -0.4422  0.3107  0.0349
 2641TIP3    H2 7930   5.043   1.395   1.933  1.6066 -1.2559  1.7517
 2642TIP3   OH2 7931   6.161   4.790   2.158 -0.1294  0.8766 -0.1838
 2642TIP3    H1 7932   6.229   4.855   2.141 -0.4333  0.9993 -0.9691
 2642TIP3    H2 7933   6.207   4.706   2.156 -0.0112  0.9527 -0.7976
 2643TIP3   OH2 7934   5.376   2.368   0.076 -0.3856 -0.1525  0.2278
 2643TIP3    H1 7935   5.403   2.455   0.106 -0.5525 -0.1371  0.3378
 2643TIP3    H2 7936   5.451   2.335   0.027  0.4343 -0.7248  1.7923
 2644TIP3   OH2 7937   5.331   0.065   3.623  0.0851  0.1556 -0.7984
 2644TIP3    H1 7938   5.393   0.101   3.560  1.3201 -1.5208 -0.6019
 2644TIP3    H2 7939   5.267   0.018   3.570  0.0969  0.2574 -0.9034
 2645TIP3   OH2 7940   6.090   3.835   1.697 -0.1602 -0.2801  0.3469
 2645TIP3    H1 7941   6.055   3.746   1.691 -0.7264 -0.0273 -0.2612
 2645TIP3    H2 7942   6.033   3.878   1.762 -1.4665  0.3211 -1.1130
 2646TIP3   OH2 7943   1.350   4.547   3.076  0.3099  0.0004  0.3598
 2646TIP3    H1 7944   1.370   4.621   3.020  0.1603 -0.3377 -0.1468
 2646TIP3    H2 7945   1.275   4.504   3.034  0.3915 -0.4368  0.6458
 2647TIP3   OH2 7946   0.767   1.402   1.483  0.7310 -0.2710  0.3174
 2647TIP3    H1 7947   0.792   1.315   1.453  4.5563  0.6448  0.2316
 2647TIP3    H2 7948   0.707   1.435   1.417  1.8941 -1.6373 -1.5205
 2648TIP3   OH2 7949   3.572   0.338   3.573  0.1198 -0.5981 -0.1926
 2648TIP3    H1 7950   3.628   0.386   3.634 -1.0939  0.6725 -0.0011
 2648TIP3    H2 7951   3.502   0.302   3.628 -0.5757 -0.0769 -0.7119
 2649TIP3   OH2 7952   1.134   3.260   2.920 -0.0778 -0.2235  0.5031
 2649TIP3    H1 7953   1.042   3.233   2.928 -0.8205  1.6187 -0.9339
 2649TIP3    H2 7954   1.174   3.192   2.867 -0.1976 -1.8277  2.3943
 2650TIP3   OH2 7955   4.839   4.525   0.601  0.9995 -0.4251  0.1399
 2650TIP3    H1 7956   4.854   4.521   0.506  0.5619 -0.0532  0.0508
 2650TIP3    H2 7957   4.922   4.498   0.640  1.7474  1.0982 -0.3364
 2651TIP3   OH2 7958   5.086   1.184   3.110 -0.1749  0.0742  0.4488
 2651TIP3    H1 7959   5.074   1.255   3.173  1.1902  1.7884 -1.0910
 2651TIP3    H2 7960   5.157   1.131   3.146  0.3861  0.8568  0.5071
 2652TIP3   OH2 7961   1.151   4.066   2.284 -0.1977  0.1915 -0.0344
 2652TIP3    H1 7962   1.083   4.105   2.229 -0.1885  0.2117 -0.0315
 2652TIP3    H2 7963   1.233   4.102   2.250 -0.1979  0.2623  0.0420
 2653TIP3   OH2 7964   4.122   0.594   2.324 -0.1141  0.2187 -0.6063
 2653TIP3    H1 7965   4.105   0.500   2.329 -0.3403  0.3070  0.5355
 2653TIP3    H2 7966   4.076   0.623   2.244 -1.0438 -0.4382 -0.3287
 2654TIP3   OH2 7967   5.779   2.461   0.344 -0.4057  0.4840 -0.4800
 2654TIP3    H1 7968   5.837   2.391   0.314 -2.8253 -1.0183 -2.0690
 2654TIP3    H2 7969   5.765   2.515   0.265 -0.7498  1.1128  0.0035
 2655TIP3   OH2 7970   2.708   3.092   2.951  0.5829  0.1188 -0.5739
 2655TIP3    H1 7971   2.686   3.183   2.929 -1.9817  0.5610  3.0066
 2655TIP3    H2 7972   2.628   3.043   2.934  0.5534 -0.6041  1.3859
 2656TIP3   OH2 7973   0.648   3.677   2.596 -0.1414  0.2892  0.0194
 2656TIP3    H1 7974   0.611   3.684   2.508 -1.5675  0.8454  0.6265
 2656TIP3    H2 7975   0.707   3.752   2.604  1.1555 -0.5820 -0.9515
 2657TIP3   OH2 7976   2.373   2.978   3.052 -0.1535  0.1853 -0.5984
 2657TIP3    H1 7977   2.312   2.944   2.987  1.7111 -1.1145 -1.7875
 2657TIP3    H2 7978   2.436   2.906   3.066  1.2129  1.5011  0.3957
 2658TIP3   OH2 7979   4.800   0.593   1.955 -0.3558 -0.0192  0.0065
 2658TIP3    H1 7980   4.837   0.505   1.952 -0.0473  0.0372  1.5914
 2658TIP3    H2 7981   4.705   0.579   1.955 -0.3094 -0.4219  1.5436
 2659TIP3   OH2 7982   0.872   4.394   2.337 -0.5799 -0.3743 -0.0230
 2659TIP3    H1 7983   0.790   4.344   2.331 -1.4483  0.9569  0.3846
 2659TIP3    H2 7984   0.868   4.454   2.262 -0.2063  0.0078  0.2600
 2660TIP3   OH2 7985   6.207   5.780   3.820  0.1420 -0.0509 -0.1986
 2660TIP3    H1 7986   6.180   5.791   3.729  0.0840 -0.2903 -0.2132
 2660TIP3    H2 7987   6.171   5.856   3.865 -2.1887 -1.2409  0.1334
 2661TIP3   OH2 7988   2.084   2.381   1.438  0.1286  0.1778 -0.1983
 2661TIP3    H1 7989   2.100   2.313   1.373  1.0869 -0.3036  0.5067
 2661TIP3    H2 7990   2.020   2.342   1.498  2.3070 -1.0818  1.4972
 2662TIP3   OH2 7991   4.093   5.120   2.744 -0.0134 -0.2136 -0.4837
 2662TIP3    H1 7992   4.137   5.036   2.758  1.2965  0.5467  0.0673
 2662TIP3    H2 7993   4.134   5.156   2.666 -0.4123  0.0241 -0.5863
 2663TIP3   OH2 7994   3.185   5.287   2.267  0.0870 -0.3046 -0.4965
 2663TIP3    H1 7995   3.224   5.224   2.207 -0.1498  0.0166 -0.9959
 2663TIP3    H2 7996   3.136   5.234   2.330 -1.0484 -0.5701 -1.5832
 2664TIP3   OH2 7997   5.130   4.518   4.008  0.2930 -0.0863 -0.3899
 2664TIP3    H1 7998   5.203   4.545   3.951 -0.6490 -0.8411 -2.0196
 2664TIP3    H2 7999   5.070   4.593   4.007  0.2650 -0.1093 -0.3996
 2665TIP3   OH2 8000   6.151   5.689   2.022  0.3652  0.2705 -0.2549
 2665TIP3    H1 8001   6.234   5.710   2.065  0.1235 -0.5183  0.6179
 2665TIP3    H2 8002   6.156   5.736   1.939  0.9346  1.6599  0.5204
 2666TIP3   OH2 8003   0.776   5.186   2.105 -0.2201 -0.3828  0.3019
 2666TIP3    H1 8004   0.825   5.130   2.166 -0.5659  0.4544  1.4009
 2666TIP3    H2 8005   0.710   5.229   2.160 -1.1441 -0.2707 -0.8517
 2667TIP3   OH2 8006   2.147   4.376   3.052 -0.2418 -0.5220  0.3494
 2667TIP3    H1 8007   2.139   4.315   2.980  1.8117 -0.1591 -0.2607
 2667TIP3    H2 8008   2.151   4.321   3.131  0.9879 -1.1600 -0.1379
 2668TIP3   OH2 8009   3.604   0.776   0.494  0.1963 -0.4728 -0.0469
 2668TIP3    H1 8010   3.659   0.790   0.570  1.7743  1.0775 -1.3856
 2668TIP3    H2 8011   3.654   0.717   0.438  1.0021  1.5865 -1.6413
 2669TIP3   OH2 8012   6.024   3.088   5.106  0.1895 -0.0512  0.4650
 2669TIP3    H1 8013   5.942   3.119   5.146 -0.1778  0.5573 -0.7327
 2669TIP3    H2 8014   6.093   3.139   5.149 -0.0831 -0.2767  1.1881
 2670TIP3   OH2 8015   5.961   0.856   3.427  0.0162 -0.2041 -0.1964
 2670TIP3    H1 8016   5.906   0.882   3.500  1.0921  0.8903  0.2693
 2670TIP3    H2 8017   6.044   0.831   3.467  0.8803  1.1466 -1.0408
 2671TIP3   OH2 8018   2.878   3.474   4.876 -0.4132  0.3334  0.2101
 2671TIP3    H1 8019   2.860   3.386   4.842  0.6215 -0.4774  1.6816
 2671TIP3    H2 8020   2.855   3.532   4.803 -1.6780 -1.0892 -0.6021
 2672TIP3   OH2 8021   5.666   0.967   2.506  0.2329  0.6102 -0.0458
 2672TIP3    H1 8022   5.633   0.989   2.593  0.3141  2.9041 -0.5270
 2672TIP3    H2 8023   5.759   0.991   2.508  0.5594 -0.5474 -0.3990
 2673TIP3   OH2 8024   4.964   0.611   4.879  0.4388  0.1060 -0.2568
 2673TIP3    H1 8025   4.894   0.547   4.869  0.4721  0.1392 -0.7545
 2673TIP3    H2 8026   4.937   0.666   4.952 -2.2974  2.9483 -3.0678
 2674TIP3   OH2 8027   2.695   0.427   3.770 -0.5956  0.2750 -0.2413
 2674TIP3    H1 8028   2.655   0.342   3.787 -0.2010  0.2538  0.6590
 2674TIP3    H2 8029   2.790   0.410   3.776 -0.4316  0.3482 -2.1947
 2675TIP3   OH2 8030   5.738   3.456   4.286  0.4313 -0.6444 -0.2491
 2675TIP3    H1 8031   5.770   3.539   4.322 -0.6466 -0.0187 -0.7180
 2675TIP3    H2 8032   5.662   3.434   4.339 -2.6099  1.4403 -3.3698
 2676TIP3   OH2 8033   4.698   4.928   2.459 -0.1027  0.1352 -0.5398
 2676TIP3    H1 8034   4.694   5.023   2.469 -1.9157 -0.0868  2.0490
 2676TIP3    H2 8035   4.650   4.909   2.379  1.0143  1.4284 -1.5416
 2677TIP3   OH2 8036   0.712   3.410   3.037 -0.7376 -0.2935 -0.3663
 2677TIP3    H1 8037   0.788   3.352   3.040 -0.8539 -0.5317 -1.4975
 2677TIP3    H2 8038   0.747   3.494   3.007 -0.8517 -0.2927 -0.4983
 2678TIP3   OH2 8039   3.877   1.661   3.133 -0.2187  0.2886  0.1704
 2678TIP3    H1 8040   3.793   1.707   3.128 -0.0300  0.8139  1.4916
 2678TIP3    H2 8041   3.941   1.726   3.102 -0.3456 -0.3399 -1.5116
 2679TIP3   OH2 8042   1.995   3.246   4.550 -0.5013  0.1286  0.1888
 2679TIP3    H1 8043   1.922   3.306   4.565 -1.2278 -0.5167 -0.7292
 2679TIP3    H2 8044   2.062   3.301   4.509 -1.0071  0.4066 -0.2755
 2680TIP3   OH2 8045   1.476   3.495   1.928 -0.4087  0.4946  0.1817
 2680TIP3    H1 8046   1.513   3.465   2.011  0.9320 -0.5756 -0.7722
 2680TIP3    H2 8047   1.523   3.576   1.908 -0.0758  0.2577  0.0077
 2681TIP3   OH2 8048   1.009   1.421   1.307  0.2862  0.0167  0.1466
 2681TIP3    H1 8049   1.090   1.370   1.316  0.2369 -0.0565  0.1739
 2681TIP3    H2 8050   1.006   1.477   1.384  0.6567  0.5074 -0.1860
 2682TIP3   OH2 8051   0.903   3.103   3.625  0.0251 -0.5469 -0.3382
 2682TIP3    H1 8052   0.946   3.017   3.624  0.8859 -0.1198 -0.2151
 2682TIP3    H2 8053   0.963   3.161   3.580 -0.5280  0.0201 -0.3592
 2683TIP3   OH2 8054   2.061   4.612   3.206  0.2240  0.2335  0.1602
 2683TIP3    H1 8055   2.147   4.630   3.170 -0.3594  3.2014  0.0382
 2683TIP3    H2 8056   2.033   4.531   3.162  2.9903 -1.0126  0.4575
 2684TIP3   OH2 8057   2.965   4.661   3.166 -0.2686 -0.2315 -0.2003
 2684TIP3    H1 8058   2.965   4.735   3.105 -1.2124 -1.0671 -1.2707
 2684TIP3    H2 8059   2.999   4.697   3.248  1.9778  0.6981 -1.4657
 2685TIP3   OH2 8060   5.874   4.690   2.282  0.6729  0.4226  0.1846
 2685TIP3    H1 8061   5.960   4.721   2.253  1.1888  0.4900  1.7041
 2685TIP3    H2 8062   5.891   4.650   2.368 -0.4966 -1.2508 -0.3155
 2686TIP3   OH2 8063   4.089   5.195   0.096  0.6590  0.6164  0.0159
 2686TIP3    H1 8064   4.111   5.115   0.144  0.1819  1.7538  2.2590
 2686TIP3    H2 8065   4.035   5.245   0.157 -0.5343  1.8948 -1.9805
 2687TIP3   OH2 8066   5.573   4.386   4.806  0.7120  0.0658 -0.1247
 2687TIP3    H1 8067   5.486   4.421   4.789  0.8679  0.4595 -0.1275
 2687TIP3    H2 8068   5.568   4.349   4.894  0.5136 -0.0042 -0.1659
 2688TIP3   OH2 8069   5.311   5.189   2.086  0.3893  0.1327  0.0620
 2688TIP3    H1 8070   5.226   5.162   2.051 -0.4398  2.7821 -0.1474
 2688TIP3    H2 8071   5.375   5.146   2.029 -0.8539  0.0732 -1.3357
 2689TIP3   OH2 8072   1.325   5.987   2.221 -0.0067 -0.3708 -0.4307
 2689TIP3    H1 8073   1.303   6.006   2.130 -0.8286 -1.5625 -0.5038
 2689TIP3    H2 8074   1.404   5.934   2.216  0.8553  0.8825 -0.3554
 2690TIP3   OH2 8075   3.166   2.888   1.553  0.6451  0.4372 -0.7254
 2690TIP3    H1 8076   3.113   2.812   1.528  1.2377 -0.7854  1.4734
 2690TIP3    H2 8077   3.253   2.869   1.519  0.8723 -0.0716  0.1005
 2691TIP3   OH2 8078   1.371   3.576   4.476 -0.6630 -0.1578 -0.6839
 2691TIP3    H1 8079   1.331   3.628   4.545  0.8999 -0.5446  0.5720
 2691TIP3    H2 8080   1.335   3.611   4.395 -1.0716  1.6124  0.2221
 2692TIP3   OH2 8081   2.643   4.255   1.822  0.2937 -0.1736  0.3674
 2692TIP3    H1 8082   2.651   4.202   1.743  0.8723  1.1731 -0.5069
 2692TIP3    H2 8083   2.671   4.342   1.795  1.9275  0.0022  2.4234
 2693TIP3   OH2 8084   0.471   4.824   4.351 -0.0651 -0.3353 -0.1909
 2693TIP3    H1 8085   0.397   4.796   4.296  0.5390 -3.6106  0.4233
 2693TIP3    H2 8086   0.502   4.905   4.310 -3.3274  0.6477 -1.0234
 2694TIP3   OH2 8087   4.778   3.825   1.814 -0.2982  0.3837  0.2946
 2694TIP3    H1 8088   4.706   3.876   1.778 -0.4721  0.1411  0.2973
 2694TIP3    H2 8089   4.779   3.847   1.908 -0.4346  0.3066  0.3138
 2695TIP3   OH2 8090   3.241   1.761   4.660  0.1701 -0.3575  0.1869
 2695TIP3    H1 8091   3.282   1.734   4.743  2.0312 -0.9697 -0.8853
 2695TIP3    H2 8092   3.228   1.679   4.612 -1.5293 -0.0753  0.0982
 2696TIP3   OH2 8093   3.662   0.765   1.433  0.0243 -0.1491  0.4911
 2696TIP3    H1 8094   3.596   0.834   1.432  0.8207  0.6371 -0.9162
 2696TIP3    H2 8095   3.612   0.685   1.448 -1.1455  0.5184  0.3009
 2697TIP3   OH2 8096   3.856   4.921   2.768 -0.0208  0.2654  0.1204
 2697TIP3    H1 8097   3.881   5.014   2.763  2.1074 -0.1485  1.3899
 2697TIP3    H2 8098   3.882   4.885   2.683 -0.6677  0.7796 -0.3045
 2698TIP3   OH2 8099   3.052   2.261   0.381 -0.3860 -0.1580 -0.3015
 2698TIP3    H1 8100   2.962   2.285   0.359 -0.6760 -0.3038  0.6871
 2698TIP3    H2 8101   3.049   2.167   0.396  0.1217 -0.3184 -1.1176
 2699TIP3   OH2 8102   4.794   3.928   2.072 -0.4596 -0.1450 -0.3803
 2699TIP3    H1 8103   4.831   3.909   2.158 -1.4501 -1.4229 -0.2045
 2699TIP3    H2 8104   4.725   3.992   2.089  0.8633  1.4165 -0.5729
 2700TIP3   OH2 8105   4.638   0.542   2.832 -0.0365 -0.2521  0.2096
 2700TIP3    H1 8106   4.673   0.602   2.766 -1.5530  0.4747  0.0123
 2700TIP3    H2 8107   4.609   0.466   2.782 -0.2245 -0.1529  0.1669
 2701TIP3   OH2 8108   1.591   2.444   0.562 -1.0034  0.1375 -0.4428
 2701TIP3    H1 8109   1.612   2.421   0.652  0.9491  0.7665 -0.6909
 2701TIP3    H2 8110   1.501   2.477   0.566 -0.4390  1.6311  1.5593
 2702TIP3   OH2 8111   4.894   2.319   4.198 -0.3200 -0.3093  0.0183
 2702TIP3    H1 8112   4.950   2.291   4.271 -2.3796 -0.3632  1.6515
 2702TIP3    H2 8113   4.951   2.313   4.121  1.4769 -1.7874  1.3692
 2703TIP3   OH2 8114   3.211   4.168   2.823 -0.5440 -0.0155  0.0467
 2703TIP3    H1 8115   3.259   4.203   2.748  0.0217 -0.5645  0.1430
 2703TIP3    H2 8116   3.199   4.075   2.802  0.4499 -0.3919  1.0465
 2704TIP3   OH2 8117   0.431   2.468   3.703  0.3489  0.2181  0.2831
 2704TIP3    H1 8118   0.340   2.459   3.733  0.0697  0.0347 -0.5915
 2704TIP3    H2 8119   0.443   2.563   3.693  0.3962  0.2725  0.7974
 2705TIP3   OH2 8120   5.256   2.790   4.255 -0.0530 -0.1519  0.3982
 2705TIP3    H1 8121   5.242   2.802   4.349  0.1198 -1.1178  0.5619
 2705TIP3    H2 8122   5.175   2.820   4.215 -1.8050 -3.3744  1.1590
 2706TIP3   OH2 8123   2.787   3.885   1.129 -0.0032 -0.3740 -0.1834
 2706TIP3    H1 8124   2.815   3.884   1.037  1.4202  0.5025  0.2065
 2706TIP3    H2 8125   2.722   3.956   1.132 -0.3466 -0.6648 -0.5844
 2707TIP3   OH2 8126   2.774   3.583   2.913  0.9042 -0.6537  0.0668
 2707TIP3    H1 8127   2.864   3.597   2.885  0.5859 -1.1843 -1.2887
 2707TIP3    H2 8128   2.748   3.502   2.870 -0.4857 -0.0873 -0.1986
 2708TIP3   OH2 8129   4.647   0.435   4.854 -0.1914  0.2477 -0.3250
 2708TIP3    H1 8130   4.640   0.483   4.772 -1.1671 -0.2813 -0.5622
 2708TIP3    H2 8131   4.557   0.417   4.880  0.1298 -1.0243  0.0111
 2709TIP3   OH2 8132   6.242   2.505   3.892 -0.0358  0.0649 -0.4302
 2709TIP3    H1 8133   6.175   2.469   3.834 -1.0219  0.0097  0.7032
 2709TIP3    H2 8134   6.244   2.599   3.872 -0.1036 -0.0142 -0.8036
 2710TIP3   OH2 8135   6.351   5.251   2.737 -0.2030  0.4377  0.1020
 2710TIP3    H1 8136   6.298   5.304   2.677 -0.3139  0.5259  0.2770
 2710TIP3    H2 8137   6.344   5.296   2.821  0.6452  0.7942 -0.0031
 2711TIP3   OH2 8138   1.806   5.094   2.894  0.4512 -0.2779 -0.0311
 2711TIP3    H1 8139   1.896   5.072   2.870  0.3204 -0.1291 -0.6651
 2711TIP3    H2 8140   1.753   5.063   2.821  0.0662  0.3502 -0.0273
 2712TIP3   OH2 8141   4.514   3.420   1.733  0.2977 -0.2556  0.2983
 2712TIP3    H1 8142   4.576   3.379   1.672  0.1351 -0.1226  0.0436
 2712TIP3    H2 8143   4.472   3.346   1.778 -0.0589 -0.3689 -0.2227
 2713TIP3   OH2 8144   4.266   1.892   3.754  0.5828 -0.0260 -0.4321
 2713TIP3    H1 8145   4.346   1.842   3.740  1.0309  0.3851  0.5801
 2713TIP3    H2 8146   4.197   1.837   3.715  1.2161 -0.8716 -0.3947
 2714TIP3   OH2 8147   6.167   4.408   5.145 -0.3535  0.6160  0.5207
 2714TIP3    H1 8148   6.240   4.365   5.101 -0.7833 -0.1444  0.5454
 2714TIP3    H2 8149   6.188   4.399   5.238 -2.1505 -2.7467  0.7377
 2715TIP3   OH2 8150   1.360   0.571   4.648 -0.3415 -0.5591  0.3667
 2715TIP3    H1 8151   1.410   0.594   4.570 -0.9941 -1.3645 -0.3020
 2715TIP3    H2 8152   1.410   0.609   4.720  0.8674 -0.7456 -0.3458
 2716TIP3   OH2 8153   3.570   1.765   3.396 -0.8166 -0.2395 -0.0868
 2716TIP3    H1 8154   3.561   1.709   3.319  0.0443 -1.0807  0.3933
 2716TIP3    H2 8155   3.506   1.835   3.383  0.6187  0.7543 -2.5045
 2717TIP3   OH2 8156   0.458   1.655   2.563  0.5891  0.2340 -0.3049
 2717TIP3    H1 8157   0.469   1.577   2.508 -1.5709  0.1129 -0.6440
 2717TIP3    H2 8158   0.472   1.729   2.503  2.0735  0.1431 -0.1071
 2718TIP3   OH2 8159   2.747   0.385   3.133  0.3932 -0.3602  0.6650
 2718TIP3    H1 8160   2.710   0.319   3.192 -1.0599 -0.2319 -0.0507
 2718TIP3    H2 8161   2.673   0.441   3.111  1.8283  2.3529  2.2586
 2719TIP3   OH2 8162   0.620   0.236   0.525  0.0721  0.3568 -0.2891
 2719TIP3    H1 8163   0.595   0.222   0.616  2.0416  2.5656  0.6897
 2719TIP3    H2 8164   0.557   0.300   0.492 -0.1271  0.1988 -0.2142
 2720TIP3   OH2 8165   0.524   3.351   1.639  0.5813  0.1622 -0.3185
 2720TIP3    H1 8166   0.562   3.429   1.680  1.7302  0.0667 -1.1296
 2720TIP3    H2 8167   0.463   3.386   1.574 -1.8829  0.3080  1.9360
 2721TIP3   OH2 8168   1.550   1.070   1.943 -0.6935 -0.4324 -0.5770
 2721TIP3    H1 8169   1.610   1.138   1.913 -0.7365  0.0424  0.3545
 2721TIP3    H2 8170   1.463   1.110   1.937 -0.6308  0.0113  0.9733
 2722TIP3   OH2 8171   1.754   3.164   2.283 -0.5354  0.2854 -0.2848
 2722TIP3    H1 8172   1.833   3.218   2.279 -0.6770  0.4281 -1.9333
 2722TIP3    H2 8173   1.748   3.137   2.375  0.5656  1.5372  0.1945
 2723TIP3   OH2 8174   0.509   3.083   0.028  0.6808  0.4155  0.2077
 2723TIP3    H1 8175   0.488   3.151  -0.036  0.9468  0.5315  0.2426
 2723TIP3    H2 8176   0.604   3.069   0.017  0.5863 -0.1213  0.0272
 2724TIP3   OH2 8177   1.523   5.162   2.086  0.0021  0.4787  0.0383
 2724TIP3    H1 8178   1.434   5.196   2.095 -0.2324 -0.3869  1.4174
 2724TIP3    H2 8179   1.578   5.240   2.079 -0.8649  1.0204 -1.0992
 2725TIP3   OH2 8180   0.170   3.680   1.717  0.0229 -0.4585  0.0885
 2725TIP3    H1 8181   0.152   3.662   1.625  0.6596 -0.5297 -0.0289
 2725TIP3    H2 8182   0.264   3.697   1.720  0.2458 -1.6660  0.9009
 2726TIP3   OH2 8183   3.007   1.811   2.254  0.7807 -0.1962  0.0525
 2726TIP3    H1 8184   2.966   1.771   2.330 -2.6522 -0.0832 -1.5624
 2726TIP3    H2 8185   3.030   1.900   2.283  0.1823 -0.3894  1.1453
 2727TIP3   OH2 8186   3.511   4.675   1.103  0.5079  0.4550  0.5729
 2727TIP3    H1 8187   3.454   4.694   1.177 -1.3285 -0.9755 -0.3683
 2727TIP3    H2 8188   3.502   4.751   1.045 -0.8686  0.0714  0.2370
 2728TIP3   OH2 8189   6.281   5.054   1.003 -0.6586 -0.0242 -0.1709
 2728TIP3    H1 8190   6.230   5.120   0.956  0.4709  0.2003 -1.1311
 2728TIP3    H2 8191   6.368   5.058   0.963 -0.3715 -1.6182  0.2254
 2729TIP3   OH2 8192   3.171   1.865   3.417  0.3457  0.2539  0.2071
 2729TIP3    H1 8193   3.164   1.899   3.328 -1.8723  0.6081  0.4575
 2729TIP3    H2 8194   3.196   1.774   3.407 -1.7083 -0.2400 -0.9280
 2730TIP3   OH2 8195   0.156   0.491   1.037  0.2909 -0.1198 -0.0551
 2730TIP3    H1 8196   0.224   0.425   1.046  0.9069  0.2151 -1.8728
 2730TIP3    H2 8197   0.161   0.542   1.118  1.9375 -0.3528  0.0244
 2731TIP3   OH2 8198   0.963   3.911   0.988 -0.2150 -0.1669  0.3779
 2731TIP3    H1 8199   1.003   3.824   0.974 -1.2445 -0.6247  0.2139
 2731TIP3    H2 8200   0.873   3.901   0.959 -0.0580  1.2938 -0.7169
 2732TIP3   OH2 8201   1.184   5.289   0.910  0.7403  0.4872  0.6358
 2732TIP3    H1 8202   1.126   5.229   0.864 -0.7774 -0.5133  3.5413
 2732TIP3    H2 8203   1.243   5.323   0.843 -0.9768 -1.1192 -1.8573
 2733TIP3   OH2 8204   3.646   3.317   0.373 -0.5823  0.2513  0.5677
 2733TIP3    H1 8205   3.676   3.228   0.354 -1.8593 -0.0114 -0.3210
 2733TIP3    H2 8206   3.644   3.360   0.288  0.3118  1.2594  1.0244
 2734TIP3   OH2 8207   1.772   3.290   0.257 -0.1880 -0.1260  0.2008
 2734TIP3    H1 8208   1.798   3.240   0.179  3.9865 -1.7060  2.2871
 2734TIP3    H2 8209   1.684   3.258   0.277 -0.3811 -1.5454 -2.3914
 2735TIP3   OH2 8210   1.709   0.687   1.507  0.1038 -0.2746 -0.1828
 2735TIP3    H1 8211   1.774   0.739   1.556  0.9710 -1.2749 -0.2211
 2735TIP3    H2 8212   1.757   0.656   1.430 -0.6992 -0.2695 -0.6850
 2736TIP3   OH2 8213   2.080   4.069   3.185 -0.4875  0.1424  0.2774
 2736TIP3    H1 8214   2.145   4.034   3.247 -0.0764 -0.4854 -0.4914
 2736TIP3    H2 8215   2.000   4.076   3.237 -0.6199 -2.0372  0.4741
 2737TIP3   OH2 8216   4.446   3.580   3.671  0.2648 -0.5294 -0.1071
 2737TIP3    H1 8217   4.363   3.617   3.703  0.9834  0.0793  1.1048
 2737TIP3    H2 8218   4.505   3.655   3.667  1.0500 -1.1353 -0.0125
 2738TIP3   OH2 8219   6.136   1.136   4.461 -0.5555 -0.4911  0.0777
 2738TIP3    H1 8220   6.071   1.206   4.470  1.6920  1.8361 -0.8580
 2738TIP3    H2 8221   6.134   1.113   4.368  1.3639  1.1296 -0.4215
 2739TIP3   OH2 8222   6.334   3.147   0.392 -0.0974 -0.8745 -0.4744
 2739TIP3    H1 8223   6.328   3.066   0.341 -1.7259 -0.6090 -0.7667
 2739TIP3    H2 8224   6.271   3.135   0.463  2.1939 -1.2668  1.6141
 2740TIP3   OH2 8225   5.794   2.265   2.949 -0.2703 -0.3764  0.1950
 2740TIP3    H1 8226   5.731   2.201   2.917 -0.1165 -0.2305 -0.4105
 2740TIP3    H2 8227   5.756   2.350   2.926  0.0142 -0.2796  0.0731
 2741TIP3   OH2 8228   2.911   3.935   0.839 -0.2161  0.0616  0.0684
 2741TIP3    H1 8229   2.999   3.904   0.862  0.1592  0.1446 -1.1831
 2741TIP3    H2 8230   2.869   3.860   0.798 -0.2962  0.3599 -0.4104
 2742TIP3   OH2 8231   1.729   1.006   4.501 -0.1417 -0.3090 -0.1065
 2742TIP3    H1 8232   1.767   1.089   4.530  0.7470 -0.7921  0.1521
 2742TIP3    H2 8233   1.787   0.976   4.432 -1.1724 -0.1098 -1.0855
 2743TIP3   OH2 8234   1.921   3.853   0.766 -0.4253 -0.0836 -0.5839
 2743TIP3    H1 8235   1.946   3.936   0.805  0.3041  0.2939 -1.7971
 2743TIP3    H2 8236   1.849   3.875   0.707  0.2025 -0.1754 -1.4068
 2744TIP3   OH2 8237   0.385   5.652   1.247  0.1411 -0.1676 -0.2453
 2744TIP3    H1 8238   0.430   5.687   1.170  1.6404 -0.5401  0.4399
 2744TIP3    H2 8239   0.320   5.719   1.269 -0.8402 -0.3733 -2.2381
 2745TIP3   OH2 8240   0.313   1.768   0.817 -0.0848 -0.3407 -0.2739
 2745TIP3    H1 8241   0.363   1.713   0.757  0.4781  2.3725 -2.5236
 2745TIP3    H2 8242   0.379   1.808   0.874  0.0077  0.8636 -1.1899
 2746TIP3   OH2 8243   1.886   2.282   3.029 -0.4028 -0.0372  0.1663
 2746TIP3    H1 8244   1.859   2.316   3.114  0.5275 -0.0687  0.4879
 2746TIP3    H2 8245   1.892   2.359   2.972  1.8578  0.4246  0.9318
 2747TIP3   OH2 8246   5.713   5.874   3.350 -0.1219  0.5864 -0.3120
 2747TIP3    H1 8247   5.688   5.965   3.331  1.3358  0.9544 -0.6025
 2747TIP3    H2 8248   5.799   5.881   3.393  0.8541 -0.7080 -1.9201
 2748TIP3   OH2 8249   1.942   2.165   0.073 -0.0633 -0.3285  0.4625
 2748TIP3    H1 8250   1.870   2.131   0.126 -0.3167  0.8464  0.8922
 2748TIP3    H2 8251   1.944   2.258   0.093  1.8748 -0.4158  0.8076
 2749TIP3   OH2 8252   5.701   0.587   0.171  0.1657  0.0257  0.3290
 2749TIP3    H1 8253   5.655   0.507   0.199  0.4248 -0.3971 -0.4162
 2749TIP3    H2 8254   5.640   0.658   0.189 -1.2460 -0.6108 -1.5521
 2750TIP3   OH2 8255   0.412   3.191   0.679  0.5083  0.7065 -0.6713
 2750TIP3    H1 8256   0.343   3.211   0.616  0.6466  1.2923 -0.6431
 2750TIP3    H2 8257   0.477   3.260   0.666 -0.0361  1.5751  0.9604
 2751TIP3   OH2 8258   5.869   3.510   3.275  0.2718 -0.4823  0.0738
 2751TIP3    H1 8259   5.826   3.429   3.301  0.1362  0.1604  1.9949
 2751TIP3    H2 8260   5.956   3.483   3.247 -0.5465 -1.5290 -1.6196
 2752TIP3   OH2 8261   5.199   0.832   4.512  0.1414  0.0782 -0.3602
 2752TIP3    H1 8262   5.232   0.771   4.446  0.2031 -1.0187  0.6571
 2752TIP3    H2 8263   5.111   0.800   4.533 -1.1992  2.2544 -2.1386
 2753TIP3   OH2 8264   4.961   4.346   4.616 -0.1845 -0.1854 -0.2088
 2753TIP3    H1 8265   5.003   4.350   4.531 -0.8860  0.4397 -0.5354
 2753TIP3    H2 8266   4.974   4.255   4.645  0.6144 -0.2301 -0.6795
 2754TIP3   OH2 8267   5.583   0.303   2.470  0.2328 -0.1473  0.3955
 2754TIP3    H1 8268   5.678   0.304   2.482  0.2093  0.1298  0.5688
 2754TIP3    H2 8269   5.557   0.212   2.488  0.3829 -0.0731  1.0077
 2755TIP3   OH2 8270   1.469   1.088   0.506 -0.8471  0.9285 -0.1804
 2755TIP3    H1 8271   1.373   1.095   0.501 -0.9790  1.1066  1.7302
 2755TIP3    H2 8272   1.501   1.170   0.470 -1.4554  1.2078 -0.1013
 2756TIP3   OH2 8273   1.081   5.880   1.988  0.0251 -0.1223  0.1687
 2756TIP3    H1 8274   1.148   5.949   1.980  1.7634 -1.5451  1.6131
 2756TIP3    H2 8275   1.075   5.843   1.899  0.2168  0.8570 -0.2638
 2757TIP3   OH2 8276   1.365   4.934   1.688  0.0329 -0.1376 -0.5726
 2757TIP3    H1 8277   1.388   4.957   1.778 -0.1883  1.0088 -0.8037
 2757TIP3    H2 8278   1.300   4.999   1.662  0.3993 -0.2085 -1.7093
 2758TIP3   OH2 8279   3.068   2.850   3.044  0.2058  0.5120 -0.0117
 2758TIP3    H1 8280   2.998   2.900   3.087  1.3659  1.2163  1.1165
 2758TIP3    H2 8281   3.144   2.907   3.048  0.7469 -0.0449 -1.6630
 2759TIP3   OH2 8282   4.765   5.024   1.857 -0.0305 -0.3905 -0.1475
 2759TIP3    H1 8283   4.803   5.025   1.769 -0.8006  0.3302 -0.4859
 2759TIP3    H2 8284   4.741   4.932   1.871  2.1680 -0.9510  0.2581
 2760TIP3   OH2 8285   2.825  -0.001   4.470  0.4084  0.0401 -0.3438
 2760TIP3    H1 8286   2.732  -0.015   4.489  0.2558  0.6362 -0.6265
 2760TIP3    H2 8287   2.855   0.058   4.539  0.7349 -0.6397  0.1070
 2761TIP3   OH2 8288   4.054   2.481   0.329 -0.2876 -0.0070 -0.3193
 2761TIP3    H1 8289   4.037   2.536   0.406 -0.7986  2.4078 -2.0294
 2761TIP3    H2 8290   4.150   2.482   0.320 -0.2260 -0.2872  0.2490
 2762TIP3   OH2 8291   1.859   5.854   2.194 -0.6435 -0.4663  0.2731
 2762TIP3    H1 8292   1.812   5.903   2.126 -2.9463 -2.8793 -0.0361
 2762TIP3    H2 8293   1.831   5.895   2.276 -0.3031  0.4858 -0.0694
 2763TIP3   OH2 8294   0.421   5.200   0.458 -0.1830 -0.1008  0.6600
 2763TIP3    H1 8295   0.486   5.134   0.433 -0.1984 -0.1994  0.8804
 2763TIP3    H2 8296   0.339   5.170   0.419 -0.7647 -1.5678  2.8555
 2764TIP3   OH2 8297   1.699   5.442   5.106 -0.4330 -0.6678  0.6010
 2764TIP3    H1 8298   1.754   5.519   5.123 -1.2688 -0.2773  1.6277
 2764TIP3    H2 8299   1.762   5.371   5.096  0.2832 -0.2395  1.7767
 2765TIP3   OH2 8300   0.424   0.104   0.391 -0.6513 -0.3904  0.2666
 2765TIP3    H1 8301   0.518   0.119   0.392 -0.4002 -1.8172 -0.3974
 2765TIP3    H2 8302   0.404   0.069   0.478 -0.5682 -0.1456  0.3858
 2766TIP3   OH2 8303   5.965   5.644   3.345 -0.4785  0.4192 -0.1630
 2766TIP3    H1 8304   6.052   5.650   3.306 -0.3857  1.5721  0.1546
 2766TIP3    H2 8305   5.908   5.691   3.284 -0.8522 -0.2281 -0.3112
 2767TIP3   OH2 8306   5.379   3.165   3.405 -0.5448 -0.0454 -0.2923
 2767TIP3    H1 8307   5.402   3.113   3.482 -0.5129  1.1483  0.5268
 2767TIP3    H2 8308   5.359   3.100   3.337  0.4754 -1.1226  0.4002
 2768TIP3   OH2 8309   1.017   0.596   1.685  0.1528 -0.6301  0.1442
 2768TIP3    H1 8310   0.966   0.677   1.687 -0.7660 -1.0655 -2.3292
 2768TIP3    H2 8311   0.987   0.547   1.762 -1.2540  0.2379  0.1803
 2769TIP3   OH2 8312   1.304   4.847   4.420  0.0053  0.2897 -0.1382
 2769TIP3    H1 8313   1.252   4.913   4.374  3.0410  2.0015 -1.4358
 2769TIP3    H2 8314   1.350   4.895   4.488  1.0292 -0.8080 -0.0184
 2770TIP3   OH2 8315   1.674   0.358   2.255 -0.1596 -0.4237  0.5389
 2770TIP3    H1 8316   1.764   0.333   2.277 -0.2329 -1.2616 -0.0869
 2770TIP3    H2 8317   1.662   0.330   2.165 -1.0860 -0.4003  0.6476
 2771TIP3   OH2 8318   4.822   3.098   4.683 -0.5179  0.3766  0.2879
 2771TIP3    H1 8319   4.727   3.090   4.676 -0.5031  0.0961  0.3644
 2771TIP3    H2 8320   4.849   3.142   4.602 -0.5092 -1.4767 -0.7848
 2772TIP3   OH2 8321   6.284   5.023   3.984  0.1558  0.1069  0.2822
 2772TIP3    H1 8322   6.221   5.002   3.914 -0.1640 -0.3191  0.6886
 2772TIP3    H2 8323   6.301   5.116   3.974  1.0127 -0.1525 -1.0982
 2773TIP3   OH2 8324   3.712   1.264   3.746  0.2097  0.5421  0.1909
 2773TIP3    H1 8325   3.670   1.200   3.803 -0.4484 -0.8347 -1.7428
 2773TIP3    H2 8326   3.803   1.236   3.741 -0.4156 -1.4586 -2.0487
 2774TIP3   OH2 8327   5.246   1.844   4.135  0.1593  0.0503 -0.3007
 2774TIP3    H1 8328   5.161   1.889   4.138  0.0137 -0.2541  2.0164
 2774TIP3    H2 8329   5.225   1.755   4.108 -0.1920  0.1053 -0.2089
 2775TIP3   OH2 8330   1.277   3.295   4.407  0.0504  0.0110 -0.4197
 2775TIP3    H1 8331   1.357   3.345   4.420 -0.2637  0.4232 -0.0592
 2775TIP3    H2 8332   1.306   3.213   4.366  0.5921  0.3718 -0.7533
 2776TIP3   OH2 8333   1.439   2.310   2.356 -0.0199  0.0018 -1.1307
 2776TIP3    H1 8334   1.454   2.382   2.295 -2.0588  0.5536 -1.0780
 2776TIP3    H2 8335   1.407   2.352   2.436 -0.0118 -0.8872 -0.6463
 2777TIP3   OH2 8336   3.920   1.901   5.073 -0.5455  0.2374 -0.1870
 2777TIP3    H1 8337   4.006   1.921   5.111 -0.8474  1.1566  0.0349
 2777TIP3    H2 8338   3.925   1.934   4.984 -1.0929  1.4417  0.2224
 2778TIP3   OH2 8339   0.225   1.091   0.762  0.6690 -0.2782 -0.3344
 2778TIP3    H1 8340   0.277   1.044   0.828 -0.3706  0.3798  1.0125
 2778TIP3    H2 8341   0.136   1.058   0.775  0.0831  1.3606  0.0163
 2779TIP3   OH2 8342   2.524   3.741   5.152  0.0560 -0.1735 -0.4151
 2779TIP3    H1 8343   2.589   3.719   5.220  1.1940  1.3759 -0.9484
 2779TIP3    H2 8344   2.544   3.683   5.079  0.7431  0.1675 -0.5037
 2780TIP3   OH2 8345   2.132   0.165   0.191  0.5614 -0.3408  0.1881
 2780TIP3    H1 8346   2.219   0.203   0.199  0.8177 -1.1290  1.4197
 2780TIP3    H2 8347   2.141   0.097   0.124  0.7127  0.0744 -0.2118
 2781TIP3   OH2 8348   1.285   4.667   1.582  0.1192 -0.5128 -0.1636
 2781TIP3    H1 8349   1.344   4.608   1.536  0.8580  1.0437 -1.3277
 2781TIP3    H2 8350   1.343   4.724   1.633 -0.3319  0.8112 -1.0495
 2782TIP3   OH2 8351   3.289   5.672   1.111 -0.3963 -0.1894 -0.2213
 2782TIP3    H1 8352   3.298   5.579   1.090  0.5753 -0.2110  0.2160
 2782TIP3    H2 8353   3.322   5.680   1.201 -0.8054  0.5206 -0.1251
 2783TIP3   OH2 8354   0.352   1.869   1.331  0.1577  0.1196 -0.0790
 2783TIP3    H1 8355   0.298   1.934   1.376  0.6503 -0.3228  1.1870
 2783TIP3    H2 8356   0.391   1.917   1.258 -0.6563  0.8502 -0.0597
 2784TIP3   OH2 8357   0.788   0.413   5.095  0.5656 -0.2459 -0.3219
 2784TIP3    H1 8358   0.721   0.422   5.163  1.1820 -0.5550  0.3496
 2784TIP3    H2 8359   0.823   0.325   5.108  1.5554  0.1440 -0.2158
 2785TIP3   OH2 8360   1.942   2.794   0.180  0.4768 -0.2023  0.2547
 2785TIP3    H1 8361   1.887   2.818   0.106  0.1830 -0.5274  0.3625
 2785TIP3    H2 8362   1.968   2.878   0.219  0.4712 -0.0361 -0.0941
 2786TIP3   OH2 8363   1.006   5.305   0.693  0.1516 -0.1380  0.0312
 2786TIP3    H1 8364   0.922   5.350   0.694  0.4514  0.4607 -0.7346
 2786TIP3    H2 8365   0.983   5.212   0.694 -0.4604 -0.0002  1.9690
 2787TIP3   OH2 8366   2.823   5.669   0.398 -0.0919  0.4500  0.2767
 2787TIP3    H1 8367   2.906   5.701   0.433  0.5011  0.2401 -0.8814
 2787TIP3    H2 8368   2.825   5.575   0.414 -0.7428  0.6249  1.4876
 2788TIP3   OH2 8369   0.483   4.469   3.233  0.5362 -0.2347 -0.4865
 2788TIP3    H1 8370   0.446   4.552   3.262 -1.8444 -1.3393 -0.0770
 2788TIP3    H2 8371   0.562   4.493   3.185 -0.0449  2.2483 -0.3378
 2789TIP3   OH2 8372   4.389   4.816   4.442 -0.1197  0.8643  0.0174
 2789TIP3    H1 8373   4.347   4.774   4.516 -2.0451  0.7422 -1.0671
 2789TIP3    H2 8374   4.316   4.852   4.391  1.0753  0.4285 -2.1123
 2790TIP3   OH2 8375   3.029   5.070   0.994  0.7027 -0.2040 -0.0082
 2790TIP3    H1 8376   3.037   5.008   1.066 -1.8097  0.6232  1.1000
 2790TIP3    H2 8377   2.996   5.150   1.035  1.1934  0.9826 -1.7984
 2791TIP3   OH2 8378   2.966   0.148   1.671  0.1680 -0.1014  0.2319
 2791TIP3    H1 8379   2.983   0.225   1.726 -0.8511  0.0766  0.3130
 2791TIP3    H2 8380   2.947   0.078   1.734  0.4787 -0.2732  0.1381
 2792TIP3   OH2 8381   4.400   1.828   2.133  0.4649 -0.7563 -0.4340
 2792TIP3    H1 8382   4.491   1.846   2.154  0.2782  1.4432 -1.1976
 2792TIP3    H2 8383   4.396   1.734   2.116  2.2637 -1.1367  1.0314
 2793TIP3   OH2 8384   1.809   0.617   3.094  0.6396 -0.3118 -0.6089
 2793TIP3    H1 8385   1.743   0.616   3.163 -0.3223  2.1514 -1.3665
 2793TIP3    H2 8386   1.871   0.548   3.118 -2.2255 -2.8578  0.0693
 2794TIP3   OH2 8387   2.952   1.437   4.724  0.5521 -0.3807  0.1059
 2794TIP3    H1 8388   2.943   1.390   4.807 -1.3121 -0.5847 -0.1529
 2794TIP3    H2 8389   3.003   1.515   4.746  1.4348 -1.2075  1.0923
 2795TIP3   OH2 8390   4.674   5.446   1.174  0.1060 -0.5220 -0.2398
 2795TIP3    H1 8391   4.648   5.376   1.113 -0.9551  1.0264 -1.6464
 2795TIP3    H2 8392   4.718   5.510   1.119 -0.1570  0.5573  0.7792
 2796TIP3   OH2 8393   2.498   0.064   2.328  0.3259  0.2732  0.0860
 2796TIP3    H1 8394   2.570   0.019   2.283 -0.7484 -1.2237 -0.2225
 2796TIP3    H2 8395   2.467   0.001   2.393 -1.1463  0.6102 -0.2507
 2797TIP3   OH2 8396   5.708   2.902   3.191 -0.1817  0.4617 -0.3881
 2797TIP3    H1 8397   5.752   2.944   3.117 -0.4566 -0.3506 -1.0184
 2797TIP3    H2 8398   5.700   2.811   3.166 -3.0569  0.7182 -0.6981
 2798TIP3   OH2 8399   2.571   1.770   2.557  0.3119  0.0007 -0.3861
 2798TIP3    H1 8400   2.532   1.699   2.506  0.8798  0.7483 -1.9196
 2798TIP3    H2 8401   2.527   1.849   2.527  0.5404  0.4533  0.4245
 2799TIP3   OH2 8402   1.179   3.213   5.023 -0.4613 -0.4785 -0.6591
 2799TIP3    H1 8403   1.224   3.150   5.080 -0.6518 -0.5771 -0.6155
 2799TIP3    H2 8404   1.134   3.272   5.083  1.1419  0.7923 -0.6487
 2800TIP3   OH2 8405   4.184   5.605   4.781 -0.5488 -0.4230 -0.1030
 2800TIP3    H1 8406   4.163   5.699   4.781  0.3374 -0.1864  1.1764
 2800TIP3    H2 8407   4.099   5.562   4.785 -0.9533  0.3644  0.1358
 2801TIP3   OH2 8408   6.200   0.637   3.381  0.2797  0.7451  0.5348
 2801TIP3    H1 8409   6.242   0.595   3.305  1.7023  2.7159  0.1596
 2801TIP3    H2 8410   6.271   0.646   3.445 -0.8148 -0.5226  2.0120
 2802TIP3   OH2 8411   6.233   0.917   2.516 -0.1215  0.1745 -0.2403
 2802TIP3    H1 8412   6.150   0.874   2.538  0.3528 -0.2143  0.8453
 2802TIP3    H2 8413   6.211   0.974   2.442 -1.2216 -0.3710 -0.3642
 2803TIP3   OH2 8414   4.141   2.567   2.147 -0.4278 -0.0472  0.3676
 2803TIP3    H1 8415   4.214   2.599   2.094 -2.3229 -0.6842 -2.8802
 2803TIP3    H2 8416   4.090   2.645   2.167 -0.5405  0.0177 -0.1599
 2804TIP3   OH2 8417   0.962   2.095   0.715  0.0133  0.4614  0.3941
 2804TIP3    H1 8418   1.052   2.122   0.736 -1.0659  2.9764  2.3299
 2804TIP3    H2 8419   0.930   2.052   0.794 -0.6777  0.0566 -0.0896
 2805TIP3   OH2 8420   2.635   5.796   0.676  0.0682  0.6443  0.0117
 2805TIP3    H1 8421   2.636   5.701   0.687  0.3786  0.3143 -2.2351
 2805TIP3    H2 8422   2.701   5.828   0.737 -0.3382 -0.5135  1.1133
 2806TIP3   OH2 8423   1.788   0.471   3.770  0.3033 -0.0656 -0.3697
 2806TIP3    H1 8424   1.800   0.428   3.855 -2.2772  0.9962  0.6515
 2806TIP3    H2 8425   1.832   0.555   3.780  0.7660 -0.2982 -0.4208
 2807TIP3   OH2 8426   0.910   3.107   4.319  0.5175  0.0868 -1.0989
 2807TIP3    H1 8427   0.906   3.195   4.355 -0.5015  0.0127 -1.0074
 2807TIP3    H2 8428   0.890   3.050   4.393  2.9147 -0.3648 -0.7170
 2808TIP3   OH2 8429   4.979   3.855   2.868 -0.2008  0.1552  0.0837
 2808TIP3    H1 8430   4.927   3.777   2.853  0.8031 -0.6416  0.6259
 2808TIP3    H2 8431   4.944   3.892   2.948 -2.0468  1.4600 -1.2350
 2809TIP3   OH2 8432   5.884   0.256   2.404 -0.0656 -0.2794 -0.4668
 2809TIP3    H1 8433   5.936   0.325   2.363 -0.4463  0.0422 -0.4127
 2809TIP3    H2 8434   5.920   0.248   2.492  0.3917 -0.5863 -0.6814
 2810TIP3   OH2 8435   0.705   0.446   2.520  0.0096 -0.2791 -0.3120
 2810TIP3    H1 8436   0.739   0.477   2.436  1.3288 -0.3948  0.1551
 2810TIP3    H2 8437   0.699   0.524   2.574  0.7852 -0.4419  0.0172
 2811TIP3   OH2 8438   3.276   3.525   0.867 -0.0054  0.3884 -0.0821
 2811TIP3    H1 8439   3.202   3.534   0.927  1.1664  1.3963  1.2897
 2811TIP3    H2 8440   3.244   3.558   0.783 -1.8791 -1.6066 -0.2432
 2812TIP3   OH2 8441   1.228   0.516   3.762 -0.1987  0.7514 -0.1930
 2812TIP3    H1 8442   1.295   0.510   3.831 -0.9593  0.5235  0.5518
 2812TIP3    H2 8443   1.229   0.429   3.721 -0.1612  0.6927 -0.0688
 2813TIP3   OH2 8444   3.303   3.700   1.740  0.0080 -0.5951  0.0504
 2813TIP3    H1 8445   3.208   3.699   1.742 -0.2905  3.3808 -1.5507
 2813TIP3    H2 8446   3.326   3.684   1.648  0.8885 -1.4630  0.4053
 2814TIP3   OH2 8447   0.859   0.105   3.240  0.4643  0.2685  0.3534
 2814TIP3    H1 8448   0.887   0.177   3.297  1.7916 -0.4182  0.6178
 2814TIP3    H2 8449   0.917   0.110   3.164 -0.2544  0.2200 -0.2147
 2815TIP3   OH2 8450   5.833   4.673   0.480  0.1757  0.2157  0.1359
 2815TIP3    H1 8451   5.927   4.694   0.477  0.0426  0.6822 -1.2539
 2815TIP3    H2 8452   5.789   4.753   0.453 -0.7316  0.4524  2.1786
 2816TIP3   OH2 8453   1.505   1.339   3.173  0.1512 -0.8850 -0.0088
 2816TIP3    H1 8454   1.433   1.281   3.198 -0.7115  0.1608 -0.0065
 2816TIP3    H2 8455   1.487   1.360   3.081  0.8399 -1.1591 -0.2099
 2817TIP3   OH2 8456   3.673   3.548   2.127  0.2985  0.2545 -0.1097
 2817TIP3    H1 8457   3.612   3.541   2.201 -0.1781  2.2742 -0.2662
 2817TIP3    H2 8458   3.744   3.489   2.150  0.9630  1.9747  2.8209
 2818TIP3   OH2 8459   0.266   3.360   3.399  0.6922  0.1793  0.1573
 2818TIP3    H1 8460   0.195   3.393   3.345  0.2575  0.1458  0.6889
 2818TIP3    H2 8461   0.284   3.273   3.364 -0.2535 -0.2419  0.6591
 2819TIP3   OH2 8462   4.452   4.195   0.451  0.0872 -0.0781 -0.1214
 2819TIP3    H1 8463   4.385   4.137   0.415 -0.0580  0.5282 -0.8643
 2819TIP3    H2 8464   4.507   4.138   0.505 -2.0474 -0.2791  1.9684
 2820TIP3   OH2 8465   0.478   2.185   3.005  0.1844 -0.2895 -0.5575
 2820TIP3    H1 8466   0.545   2.133   3.051  0.0528  0.5375  0.6213
 2820TIP3    H2 8467   0.413   2.121   2.978  0.5862 -0.8879 -0.1437
 2821TIP3   OH2 8468   2.630   0.841   2.554 -0.3969 -0.4470 -0.6518
 2821TIP3    H1 8469   2.539   0.813   2.556 -0.2200 -0.9944  0.7610
 2821TIP3    H2 8470   2.633   0.909   2.487 -1.8579 -0.3787 -0.6705
 2822TIP3   OH2 8471   0.199   5.155   0.273 -0.5845 -0.4765  0.2388
 2822TIP3    H1 8472   0.165   5.195   0.193  1.1631  2.1456  0.6725
 2822TIP3    H2 8473   0.125   5.155   0.334 -1.6243 -1.4622 -0.9865
 2823TIP3   OH2 8474   3.831   3.128   3.242  0.3064  0.8340 -0.0115
 2823TIP3    H1 8475   3.839   3.036   3.267 -0.8147  1.2366  2.0221
 2823TIP3    H2 8476   3.748   3.132   3.194 -0.3531  1.0092  1.1267
 2824TIP3   OH2 8477   1.611   2.385   1.373  0.0564 -0.3507 -0.0457
 2824TIP3    H1 8478   1.576   2.296   1.377 -0.4263 -0.1785 -0.4595
 2824TIP3    H2 8479   1.706   2.374   1.382  0.0051 -0.9124 -0.1962
 2825TIP3   OH2 8480   2.150   5.862   2.180  0.2789  0.0819  0.3433
 2825TIP3    H1 8481   2.155   5.908   2.096  0.6552  1.7198  1.2314
 2825TIP3    H2 8482   2.056   5.853   2.197  0.1959 -0.5829 -0.4005
 2826TIP3   OH2 8483   2.650   2.646   3.696  0.1725 -0.5401  0.1370
 2826TIP3    H1 8484   2.676   2.639   3.604  0.6734 -2.6012  0.3908
 2826TIP3    H2 8485   2.648   2.740   3.713  2.9294 -0.1384 -1.1967
 2827TIP3   OH2 8486   3.806   0.873   0.686 -0.1778 -0.8825 -0.7218
 2827TIP3    H1 8487   3.766   0.953   0.720  0.0765 -0.6071 -1.0658
 2827TIP3    H2 8488   3.887   0.902   0.643  2.6199 -1.7758  3.3235
 2828TIP3   OH2 8489   0.909   0.752   4.198 -0.0006 -0.4469  0.7283
 2828TIP3    H1 8490   0.956   0.712   4.271  0.8485 -3.1713 -1.1508
 2828TIP3    H2 8491   0.959   0.727   4.120 -1.0305  2.0510 -0.8671
 2829TIP3   OH2 8492   0.459   5.555   4.711  0.0533 -0.0674 -0.4524
 2829TIP3    H1 8493   0.505   5.636   4.733 -0.5302 -0.0285  0.7244
 2829TIP3    H2 8494   0.470   5.500   4.789 -2.3943  0.1896  0.1432
 2830TIP3   OH2 8495   1.903   3.519   0.291 -0.1797  0.3320 -0.0246
 2830TIP3    H1 8496   1.859   3.440   0.262 -1.3872  1.1324 -0.4393
 2830TIP3    H2 8497   1.854   3.548   0.368  2.9760 -1.7770  3.0949
 2831TIP3   OH2 8498   1.397   5.772   4.574 -0.0990  0.8353  0.2794
 2831TIP3    H1 8499   1.460   5.700   4.581 -1.7370 -0.7347 -0.2912
 2831TIP3    H2 8500   1.367   5.786   4.664 -2.3747 -1.7396  0.0485
 2832TIP3   OH2 8501   1.657   0.619   0.297  0.0396  0.3016  0.1091
 2832TIP3    H1 8502   1.751   0.624   0.283 -0.0395  0.0337 -0.5578
 2832TIP3    H2 8503   1.628   0.710   0.302  0.3255  0.3841  0.2568
 2833TIP3   OH2 8504   5.765   2.520   2.774 -0.2174  0.0563  0.4238
 2833TIP3    H1 8505   5.837   2.580   2.790  1.1213 -1.1910 -0.6082
 2833TIP3    H2 8506   5.700   2.572   2.726  1.4883  0.4005 -1.6659
 2834TIP3   OH2 8507   2.615   3.264   0.865 -0.4307 -0.2739 -0.2308
 2834TIP3    H1 8508   2.572   3.198   0.919  1.5962 -0.1782  1.6345
 2834TIP3    H2 8509   2.587   3.348   0.902  0.6085 -0.1987  0.4043
 2835TIP3   OH2 8510   0.596   1.628   4.669 -0.5029  0.0678 -0.1201
 2835TIP3    H1 8511   0.691   1.623   4.678 -0.6197 -0.2895  1.0823
 2835TIP3    H2 8512   0.578   1.599   4.580  0.4339 -1.0813  0.0401
 2836TIP3   OH2 8513   5.509   2.618   1.556  0.3440 -0.1888 -0.4934
 2836TIP3    H1 8514   5.473   2.649   1.473 -1.4971 -0.7129  0.0559
 2836TIP3    H2 8515   5.569   2.687   1.583  0.3512  0.3736 -1.8453
 2837TIP3   OH2 8516   0.566   1.437   2.436 -0.2418  0.0504  0.2876
 2837TIP3    H1 8517   0.535   1.369   2.376 -0.3221 -0.7861  1.2420
 2837TIP3    H2 8518   0.661   1.428   2.436 -0.2936 -0.5533  0.9599
 2838TIP3   OH2 8519   0.192   5.726   0.924  0.6419 -0.2649  0.0868
 2838TIP3    H1 8520   0.192   5.734   0.828 -1.3809  1.6329  0.1616
 2838TIP3    H2 8521   0.135   5.652   0.943  1.5961 -1.0798 -0.1681
 2839TIP3   OH2 8522   5.131   1.227   3.924 -0.3648 -0.3627 -0.3870
 2839TIP3    H1 8523   5.124   1.133   3.939 -1.3356 -0.5014 -1.5157
 2839TIP3    H2 8524   5.181   1.235   3.843 -0.8293  0.0503 -0.6434
 2840TIP3   OH2 8525   1.809   0.021   2.044 -0.5737 -0.4236  0.2196
 2840TIP3    H1 8526   1.729   0.061   2.010 -1.5884 -2.6209 -0.1663
 2840TIP3    H2 8527   1.841  -0.033   1.972  0.7322 -0.3540  0.7184
 2841TIP3   OH2 8528   0.494   0.105   2.896 -0.7559  0.4723  0.0635
 2841TIP3    H1 8529   0.467   0.142   2.980  1.8754  1.6081  0.5062
 2841TIP3    H2 8530   0.575   0.152   2.874 -0.6331 -0.7551 -2.4448
 2842TIP3   OH2 8531   1.090   1.981   4.258  0.3713 -0.2235  0.4689
 2842TIP3    H1 8532   1.098   1.940   4.172 -0.5067  1.8557 -0.6876
 2842TIP3    H2 8533   1.159   1.941   4.311  2.1635 -0.2568 -1.7626
 2843TIP3   OH2 8534   5.674   5.622   3.901  0.0065  0.3327 -0.6713
 2843TIP3    H1 8535   5.646   5.566   3.829  0.5118 -0.6987 -0.0795
 2843TIP3    H2 8536   5.769   5.618   3.900  0.0342  0.7577 -0.2828
 2844TIP3   OH2 8537   6.300   0.973   0.826  0.2716  0.7266 -0.7059
 2844TIP3    H1 8538   6.323   0.880   0.815  0.0543  0.6493 -0.5091
 2844TIP3    H2 8539   6.207   0.976   0.807  0.1896  0.8338 -0.2809
 2845TIP3   OH2 8540   0.486   4.576   1.277 -0.4438 -0.8269 -0.0069
 2845TIP3    H1 8541   0.392   4.578   1.292 -0.3981 -0.5657  0.2359
 2845TIP3    H2 8542   0.522   4.537   1.356 -0.1980  0.6025  0.6045
 2846TIP3   OH2 8543   2.719   4.840   3.642 -0.5355 -0.2267 -0.5635
 2846TIP3    H1 8544   2.677   4.904   3.699 -1.0396 -2.1924  1.4053
 2846TIP3    H2 8545   2.648   4.806   3.588 -0.7411 -0.7738  0.0397
 2847TIP3   OH2 8546   4.649   2.981   0.788  0.0490 -0.2024  0.1160
 2847TIP3    H1 8547   4.617   2.891   0.791  2.2442 -1.2440 -2.9024
 2847TIP3    H2 8548   4.642   3.006   0.696  3.2010  1.1679  0.1094
 2848TIP3   OH2 8549   0.679   5.465   1.742  0.3486  0.2845 -0.0864
 2848TIP3    H1 8550   0.642   5.378   1.755 -0.5092  0.9794  2.9059
 2848TIP3    H2 8551   0.603   5.521   1.727  0.9027  0.5734 -2.1462
 2849TIP3   OH2 8552   5.854   1.412   2.155  0.3176 -0.1616  0.2225
 2849TIP3    H1 8553   5.912   1.335   2.159  0.2552 -0.3138 -1.1742
 2849TIP3    H2 8554   5.868   1.447   2.067  1.5547  2.4066  1.3269
 2850TIP3   OH2 8555   5.310   2.114   4.613 -0.5022 -0.3108 -0.4664
 2850TIP3    H1 8556   5.312   2.210   4.615 -0.0263 -0.3095 -0.8132
 2850TIP3    H2 8557   5.395   2.088   4.649 -0.7445 -0.6090 -0.1037
 2851TIP3   OH2 8558   3.503   2.864   3.748 -0.2080  0.2155 -0.2240
 2851TIP3    H1 8559   3.413   2.843   3.725 -0.6481  1.9659 -0.2387
 2851TIP3    H2 8560   3.513   2.837   3.839 -0.3210 -1.1778 -0.6051
 2852TIP3   OH2 8561   2.966   5.428   4.871 -0.3052  0.0384 -0.1500
 2852TIP3    H1 8562   2.876   5.418   4.840 -0.5367  0.2254  0.4386
 2852TIP3    H2 8563   2.962   5.502   4.932 -0.1431 -1.1266  1.3448
 2853TIP3   OH2 8564   4.350   1.914   0.063  0.2344 -0.0116  0.2399
 2853TIP3    H1 8565   4.373   1.923   0.156  0.9176 -0.5044  0.1208
 2853TIP3    H2 8566   4.370   1.823   0.042 -1.0162 -0.2201 -0.0989
 2854TIP3   OH2 8567   1.462   4.927   1.948 -0.5492  0.0347  0.3051
 2854TIP3    H1 8568   1.393   4.922   2.014 -0.0867  0.3773  0.8243
 2854TIP3    H2 8569   1.515   5.002   1.975 -1.4730  1.4152 -1.5528
 2855TIP3   OH2 8570   3.781   3.351   1.593  0.1567 -0.0456 -0.2590
 2855TIP3    H1 8571   3.824   3.343   1.678  0.8592 -0.7333 -0.6623
 2855TIP3    H2 8572   3.852   3.338   1.530 -0.3945  0.2607 -0.9472
 2856TIP3   OH2 8573   3.580   3.480   0.184  0.1013  0.0975 -0.2259
 2856TIP3    H1 8574   3.509   3.542   0.201  1.3716  1.0606  1.8965
 2856TIP3    H2 8575   3.625   3.516   0.108  0.2262  1.2703  0.3770
 2857TIP3   OH2 8576   0.745   2.143   2.820 -0.1303 -0.2941  0.3205
 2857TIP3    H1 8577   0.668   2.157   2.876 -0.1175 -0.8678  0.4866
 2857TIP3    H2 8578   0.815   2.191   2.864 -0.1509 -0.6365  0.7284
 2858TIP3   OH2 8579   5.801   4.641   4.879  0.4389 -0.1786  0.0995
 2858TIP3    H1 8580   5.715   4.683   4.884  1.3395  1.9345 -1.1022
 2858TIP3    H2 8581   5.801   4.595   4.795  0.4774 -0.2086  0.1157
 2859TIP3   OH2 8582   5.417   2.955   3.214  0.2003  0.6605 -0.0178
 2859TIP3    H1 8583   5.389   2.867   3.190 -0.3482  1.5146 -2.8587
 2859TIP3    H2 8584   5.513   2.951   3.214  0.2056  0.2809 -1.2842
 2860TIP3   OH2 8585   4.298   4.692   2.257  0.3123  0.0798 -0.6390
 2860TIP3    H1 8586   4.262   4.635   2.326 -0.9053  0.3539 -1.0204
 2860TIP3    H2 8587   4.272   4.651   2.175  2.5018 -0.7091 -0.9846
 2861TIP3   OH2 8588   2.806   5.316   0.441  0.3316 -0.1671 -0.9365
 2861TIP3    H1 8589   2.897   5.289   0.433  0.4459 -0.0853 -0.0314
 2861TIP3    H2 8590   2.768   5.257   0.506  0.1419  0.7294 -0.2043
 2862TIP3   OH2 8591   3.751   0.308   4.470 -0.1071  0.0226  0.2921
 2862TIP3    H1 8592   3.686   0.247   4.504 -0.2294 -0.0892 -0.1380
 2862TIP3    H2 8593   3.776   0.273   4.385 -1.7640  1.6783 -0.9513
 2863TIP3   OH2 8594   5.131   2.131   1.668 -0.0527  0.1572  0.4921
 2863TIP3    H1 8595   5.215   2.165   1.637  0.3676 -0.7279  0.6382
 2863TIP3    H2 8596   5.073   2.207   1.665  0.7922  0.8339  0.5673
 2864TIP3   OH2 8597   5.553   4.336   1.794 -0.3914 -0.5751  0.1615
 2864TIP3    H1 8598   5.562   4.243   1.775 -3.4074 -0.7283 -1.0593
 2864TIP3    H2 8599   5.490   4.339   1.867  1.0359  0.5032  1.4114
 2865TIP3   OH2 8600   1.311   1.567   2.393  0.4517 -0.2148 -0.7316
 2865TIP3    H1 8601   1.270   1.497   2.342  0.8393 -1.6015  0.7527
 2865TIP3    H2 8602   1.243   1.633   2.402 -0.5066 -1.1678 -0.7409
 2866TIP3   OH2 8603   5.574   0.891   3.422 -0.2478 -0.3130  0.3161
 2866TIP3    H1 8604   5.598   0.850   3.505  1.4621  0.9455  0.4806
 2866TIP3    H2 8605   5.487   0.855   3.402  0.5165 -2.8318  1.1819
 2867TIP3   OH2 8606   5.823   1.735   4.467  0.0588  0.1031 -0.0596
 2867TIP3    H1 8607   5.783   1.818   4.442 -0.1976 -0.3773 -1.3797
 2867TIP3    H2 8608   5.909   1.736   4.426 -0.5509 -0.9070 -1.4715
 2868TIP3   OH2 8609   2.944   4.978   1.490  0.7079 -0.0008  0.4347
 2868TIP3    H1 8610   2.849   4.969   1.485  0.8802 -2.1524  0.0947
 2868TIP3    H2 8611   2.959   5.036   1.564 -0.8688  0.1113  0.6977
 2869TIP3   OH2 8612   5.502   3.772   4.230  0.4873  0.1547 -0.4839
 2869TIP3    H1 8613   5.467   3.692   4.270  0.9486 -0.0725 -0.5330
 2869TIP3    H2 8614   5.430   3.806   4.177 -0.2229  0.5838  0.7151
 2870TIP3   OH2 8615   3.703   0.514   1.633  0.3449 -0.0846 -0.0641
 2870TIP3    H1 8616   3.657   0.549   1.710  0.6577  1.1623 -0.4081
 2870TIP3    H2 8617   3.738   0.430   1.661 -0.4709 -0.1493  0.8129
 2871TIP3   OH2 8618   0.271   1.418   2.088 -0.5929 -0.3676  0.4961
 2871TIP3    H1 8619   0.310   1.372   2.014 -1.2688 -2.2483  1.2514
 2871TIP3    H2 8620   0.180   1.390   2.089 -0.9185  0.6445  1.2850
 2872TIP3   OH2 8621   0.148   1.393   4.980  0.2929  0.2515  0.3059
 2872TIP3    H1 8622   0.173   1.481   4.950 -0.0851  0.9194  1.8325
 2872TIP3    H2 8623   0.083   1.363   4.916  2.0751  0.0945 -1.5324
 2873TIP3   OH2 8624   3.824   5.535   3.720 -0.1802 -0.0612 -0.1080
 2873TIP3    H1 8625   3.832   5.620   3.763 -1.1903  0.3180 -0.6171
 2873TIP3    H2 8626   3.774   5.482   3.782  2.1255 -0.9470  1.0722
 2874TIP3   OH2 8627   1.781   5.039   3.178  0.6680 -0.2356 -0.0792
 2874TIP3    H1 8628   1.707   4.984   3.204  0.7205 -0.1091  0.3480
 2874TIP3    H2 8629   1.783   5.034   3.083  0.0174 -0.1234 -0.1001
 2875TIP3   OH2 8630   4.494   3.095   3.068 -0.2921  0.3464  0.3406
 2875TIP3    H1 8631   4.563   3.043   3.108 -0.2021  0.5682  0.4736
 2875TIP3    H2 8632   4.471   3.047   2.989 -2.2662 -1.4943  1.9134
 2876TIP3   OH2 8633   2.984   2.684   5.136 -0.2494 -0.4539  0.1502
 2876TIP3    H1 8634   3.074   2.698   5.167 -0.5431  3.8992 -0.2928
 2876TIP3    H2 8635   2.929   2.719   5.206 -1.3485  0.3755 -1.0757
 2877TIP3   OH2 8636   2.710   5.251   4.622 -0.0455  0.7286 -0.0250
 2877TIP3    H1 8637   2.783   5.261   4.560  0.0839  1.2744  0.2092
 2877TIP3    H2 8638   2.728   5.169   4.667 -0.3119  0.1661 -0.9345
 2878TIP3   OH2 8639   0.445   2.992   0.873  0.3274  0.3471  0.4800
 2878TIP3    H1 8640   0.355   2.964   0.859  0.0607  1.3306  0.1444
 2878TIP3    H2 8641   0.457   3.065   0.813  1.6540 -0.3576 -0.1761
 2879TIP3   OH2 8642   0.873   1.826   1.042  0.7933 -0.2646 -0.6353
 2879TIP3    H1 8643   0.812   1.893   1.012 -1.0909 -1.7668 -0.3380
 2879TIP3    H2 8644   0.855   1.817   1.135  1.5009 -0.7019 -0.5345
 2880TIP3   OH2 8645   4.920   4.070   1.216  0.3294 -0.8538  0.0580
 2880TIP3    H1 8646   5.000   4.064   1.268 -0.5354  1.9785  1.9564
 2880TIP3    H2 8647   4.850   4.044   1.275 -0.5155  0.8530 -0.1025
 2881TIP3   OH2 8648   1.858   1.243   4.300  0.1624 -0.0567  0.1489
 2881TIP3    H1 8649   1.767   1.230   4.327  0.4398  0.4522  1.4199
 2881TIP3    H2 8650   1.854   1.309   4.231 -0.2374  2.4316  2.4009
 2882TIP3   OH2 8651   1.118   3.190   3.901  0.1511 -0.3134  0.5542
 2882TIP3    H1 8652   1.023   3.197   3.896 -0.0417  0.1570  3.4731
 2882TIP3    H2 8653   1.134   3.118   3.962  1.6389  0.3563  0.9963
 2883TIP3   OH2 8654   3.439   0.465   2.229 -0.1184  0.3846 -0.5119
 2883TIP3    H1 8655   3.400   0.551   2.213 -1.1895  0.0108  0.0170
 2883TIP3    H2 8656   3.400   0.436   2.311  0.6615 -0.3705 -0.3965
 2884TIP3   OH2 8657   0.214   5.418   5.168  0.2892 -0.4704  0.2295
 2884TIP3    H1 8658   0.201   5.432   5.074  0.8254  0.0515  0.2311
 2884TIP3    H2 8659   0.143   5.359   5.193 -1.8501  1.8886  0.1435
 2885TIP3   OH2 8660   1.603   3.452   4.521  0.0973 -0.8402 -0.2633
 2885TIP3    H1 8661   1.515   3.485   4.503  0.5049  0.9225  0.7125
 2885TIP3    H2 8662   1.641   3.438   4.435 -0.9157 -1.0159 -0.7035
 2886TIP3   OH2 8663   3.549   0.133   3.781 -0.2415  0.2364  0.2179
 2886TIP3    H1 8664   3.518   0.155   3.869 -0.8177 -1.3279  0.4467
 2886TIP3    H2 8665   3.524   0.041   3.770  1.7459 -0.2302 -0.7570
 2887TIP3   OH2 8666   3.777   0.018   2.091  0.5379  0.0469  0.1477
 2887TIP3    H1 8667   3.718  -0.057   2.096  0.7828 -0.0506  2.7121
 2887TIP3    H2 8668   3.728   0.084   2.043 -0.7928 -0.7722  0.3246
 2888TIP3   OH2 8669   0.722   5.919   3.648 -0.6815  0.1752 -0.1332
 2888TIP3    H1 8670   0.724   5.923   3.744  0.6937  0.2170 -0.1383
 2888TIP3    H2 8671   0.637   5.954   3.624 -1.8494 -1.6269  1.1488
 2889TIP3   OH2 8672   0.211   4.025   4.158 -0.2618 -0.3399 -0.3682
 2889TIP3    H1 8673   0.306   4.033   4.153 -0.0304 -2.6579 -0.5192
 2889TIP3    H2 8674   0.179   4.102   4.110  1.5645 -0.4216 -1.8450
 2890TIP3   OH2 8675   4.636   3.524   3.383 -0.6355  0.4640  0.4069
 2890TIP3    H1 8676   4.632   3.614   3.415 -1.0201  0.6138 -0.0560
 2890TIP3    H2 8677   4.728   3.499   3.395 -0.2418  1.3330 -0.5753
 2891TIP3   OH2 8678   5.995   5.455   4.156  0.3026 -0.1676 -0.0646
 2891TIP3    H1 8679   6.047   5.484   4.231  1.5783 -1.7108 -0.3051
 2891TIP3    H2 8680   6.030   5.369   4.134 -1.6959 -0.8170 -0.9121
 2892TIP3   OH2 8681   2.910   3.641   2.239 -0.1824 -0.2976  0.3241
 2892TIP3    H1 8682   2.985   3.640   2.179  0.0719  1.1046  0.5988
 2892TIP3    H2 8683   2.935   3.580   2.309 -0.1048 -1.2591 -0.5154
 2893TIP3   OH2 8684   0.609   1.303   0.503 -0.1016 -0.1955 -0.3614
 2893TIP3    H1 8685   0.605   1.368   0.572 -1.2969 -0.4360 -0.1770
 2893TIP3    H2 8686   0.540   1.240   0.525 -2.2444  1.0021 -3.0129
 2894TIP3   OH2 8687   4.632   3.405   0.288  0.0060 -0.2371  0.8200
 2894TIP3    H1 8688   4.662   3.488   0.327 -1.1806  1.2736 -1.2740
 2894TIP3    H2 8689   4.674   3.403   0.202 -1.3677 -0.9121  0.1393
 2895TIP3   OH2 8690   5.888   4.477   2.097 -0.6026 -0.4096 -0.1538
 2895TIP3    H1 8691   5.902   4.544   2.164 -0.5090  0.4020 -0.9675
 2895TIP3    H2 8692   5.951   4.498   2.028 -0.4616 -1.4391 -0.3555
 2896TIP3   OH2 8693   1.090   0.763   4.934  0.6626  0.2909  0.2731
 2896TIP3    H1 8694   1.141   0.683   4.950  0.5876 -0.1613 -1.5280
 2896TIP3    H2 8695   1.002   0.742   4.963  0.7254 -0.1630  0.1453
 2897TIP3   OH2 8696   2.797   2.120   0.126  0.3282  0.6563  0.8847
 2897TIP3    H1 8697   2.733   2.160   0.067 -0.9101  0.4401  2.0495
 2897TIP3    H2 8698   2.777   2.027   0.124 -0.2100  0.7236  2.1741
 2898TIP3   OH2 8699   0.532   0.184   0.783  0.5399  0.3607 -0.2844
 2898TIP3    H1 8700   0.577   0.100   0.793  1.6562  1.1375  2.3026
 2898TIP3    H2 8701   0.457   0.177   0.842  1.2516  1.5044  0.8030
 2899TIP3   OH2 8702   0.342   3.606   4.891  0.1640 -0.2003  0.2645
 2899TIP3    H1 8703   0.312   3.567   4.973 -2.0287  0.8788  0.0643
 2899TIP3    H2 8704   0.392   3.537   4.848 -2.3475 -2.3547  0.5334
 2900TIP3   OH2 8705   2.225   2.842   4.738 -0.5027 -0.4118  0.5906
 2900TIP3    H1 8706   2.277   2.900   4.794 -1.1914  0.6734  0.1407
 2900TIP3    H2 8707   2.186   2.900   4.673 -1.7700 -1.2845  0.5313
 2901TIP3   OH2 8708   5.718   5.254   0.253 -0.4055  0.2950 -0.2390
 2901TIP3    H1 8709   5.670   5.323   0.299 -0.1195  0.9600 -0.9329
 2901TIP3    H2 8710   5.746   5.294   0.171 -0.1741 -0.6263 -0.6223
 2902TIP3   OH2 8711   5.820   2.664   4.711 -0.7990  0.3536 -0.0309
 2902TIP3    H1 8712   5.799   2.750   4.748 -1.0263 -0.2442  1.3049
 2902TIP3    H2 8713   5.812   2.676   4.617 -0.3899  1.9094  0.1005
 2903TIP3   OH2 8714   3.289   0.919   2.321 -0.1737  0.3080 -0.3545
 2903TIP3    H1 8715   3.324   0.858   2.256  0.6037 -0.1870  0.4977
 2903TIP3    H2 8716   3.196   0.925   2.300  0.0940  0.3143 -1.6183
 2904TIP3   OH2 8717   1.317   2.820   2.558  0.1367 -0.1711 -0.0896
 2904TIP3    H1 8718   1.240   2.772   2.527 -0.5955  0.3395  0.8637
 2904TIP3    H2 8719   1.290   2.912   2.555  0.7924  0.0297  0.0402
 2905TIP3   OH2 8720   3.051   4.633   0.422 -0.1025 -0.1531 -0.5444
 2905TIP3    H1 8721   3.128   4.626   0.365 -0.8227 -0.7108 -1.4712
 2905TIP3    H2 8722   3.075   4.584   0.500  0.4252 -0.4599 -0.8875
 2906TIP3   OH2 8723   4.950   1.241   0.826  0.1573  0.3967  0.3143
 2906TIP3    H1 8724   5.045   1.235   0.827  0.2016  0.9563  1.3679
 2906TIP3    H2 8725   4.923   1.187   0.751  1.1249 -2.0284  1.6104
 2907TIP3   OH2 8726   1.766   5.097   0.796 -0.1461  0.1154  0.1928
 2907TIP3    H1 8727   1.783   5.064   0.884 -1.9710  0.6273  0.7767
 2907TIP3    H2 8728   1.737   5.021   0.746 -2.0112  0.3201  0.8861
 2908TIP3   OH2 8729   5.482   1.633   3.888  0.1923  0.1548 -0.6265
 2908TIP3    H1 8730   5.399   1.597   3.921  0.1017  0.3322 -0.6596
 2908TIP3    H2 8731   5.528   1.662   3.967  1.0090 -1.5629 -0.4181
 2909TIP3   OH2 8732   1.302   0.403   4.044 -0.2863  0.1710  0.5417
 2909TIP3    H1 8733   1.210   0.429   4.049 -0.1409  0.6075  4.8691
 2909TIP3    H2 8734   1.302   0.308   4.053 -0.3244  0.1528  0.3454
 2910TIP3   OH2 8735   0.709   0.214   0.247 -0.2430  0.3987  0.0469
 2910TIP3    H1 8736   0.697   0.214   0.342 -1.3034 -2.1631 -0.0159
 2910TIP3    H2 8737   0.626   0.245   0.212 -0.3898 -0.1048 -0.0586
 2911TIP3   OH2 8738   3.958   2.923   4.631  0.1566  0.7334  0.0240
 2911TIP3    H1 8739   3.988   2.905   4.720  0.9209  0.6792 -0.2375
 2911TIP3    H2 8740   3.937   3.017   4.631  1.4084  1.0271 -0.0816
 2912TIP3   OH2 8741   0.580   3.575   3.829 -0.5840 -0.4819 -0.1884
 2912TIP3    H1 8742   0.570   3.507   3.896 -0.2464  1.3484  1.8506
 2912TIP3    H2 8743   0.553   3.656   3.874  1.0626  1.0532 -1.8244
 2913TIP3   OH2 8744   4.369   4.465   1.867 -0.5186 -0.0423 -0.4876
 2913TIP3    H1 8745   4.420   4.544   1.849  0.7874 -0.1695  2.1562
 2913TIP3    H2 8746   4.318   4.486   1.945  0.1190 -1.8713  0.4781
 2914TIP3   OH2 8747   6.166   2.672   3.157 -0.1080  0.1750 -0.7064
 2914TIP3    H1 8748   6.188   2.678   3.250  1.0818 -3.6978 -0.5571
 2914TIP3    H2 8749   6.070   2.668   3.155 -0.1496  0.3712  0.3387
 2915TIP3   OH2 8750   0.212   3.864   4.402  0.8408 -0.3473  0.0161
 2915TIP3    H1 8751   0.267   3.890   4.475  2.9960  0.0155 -1.6311
 2915TIP3    H2 8752   0.194   3.946   4.355 -1.6079 -0.3730  0.7758
 2916TIP3   OH2 8753   0.658   0.353   3.529  0.3327 -0.1026  0.4292
 2916TIP3    H1 8754   0.586   0.289   3.528 -0.0839  0.2179 -2.9782
 2916TIP3    H2 8755   0.614   0.438   3.523  0.9614  0.2842  1.1899
 2917TIP3   OH2 8756   3.361   4.723   1.323 -0.3298  0.4547  0.1570
 2917TIP3    H1 8757   3.299   4.658   1.356 -0.2366  0.9014  1.2533
 2917TIP3    H2 8758   3.330   4.806   1.359  0.8944  0.6877  0.7193
 2918TIP3   OH2 8759   6.195   4.343   4.334 -0.5007 -0.7413 -0.2766
 2918TIP3    H1 8760   6.212   4.437   4.325  2.0165 -0.9668  1.2475
 2918TIP3    H2 8761   6.155   4.318   4.251 -1.3167  1.6789 -0.6757
 2919TIP3   OH2 8762   5.775   0.811   3.225 -0.1349 -0.8027 -0.0226
 2919TIP3    H1 8763   5.704   0.868   3.256 -1.0468 -2.2632  0.6568
 2919TIP3    H2 8764   5.840   0.812   3.295  0.3313  0.1722 -0.4483
 2920TIP3   OH2 8765   1.095   4.035   0.137 -0.7939  0.2679  0.6085
 2920TIP3    H1 8766   1.087   4.078   0.052  0.4871 -1.2470 -0.3435
 2920TIP3    H2 8767   1.102   3.942   0.116  2.9808  0.0527  2.0817
 2921TIP3   OH2 8768   0.522   0.495   3.161  0.1191 -0.3997 -0.2450
 2921TIP3    H1 8769   0.466   0.417   3.166  0.4140 -0.6858 -1.1123
 2921TIP3    H2 8770   0.585   0.474   3.092  1.3412 -0.1122  0.7583
 2922TIP3   OH2 8771   1.432   0.422   0.134 -0.0648 -0.4357  0.8783
 2922TIP3    H1 8772   1.468   0.408   0.221 -0.4664  1.3857  1.3658
 2922TIP3    H2 8773   1.508   0.426   0.076  0.3280  0.2925  1.4416
 2923TIP3   OH2 8774   1.361   2.561   1.156 -0.8875 -0.1483  0.1817
 2923TIP3    H1 8775   1.434   2.623   1.150  0.1687 -1.4284 -0.6851
 2923TIP3    H2 8776   1.300   2.588   1.088 -0.6548  0.2182  0.1174
 2924TIP3   OH2 8777   5.248   3.315   0.609  0.0258  0.4548 -0.3156
 2924TIP3    H1 8778   5.219   3.226   0.629 -0.4127  0.8983  1.2199
 2924TIP3    H2 8779   5.222   3.330   0.518  1.0238 -1.3159 -0.9399
 2925TIP3   OH2 8780   1.492   1.503   3.418  0.0977  0.1983  0.2180
 2925TIP3    H1 8781   1.478   1.448   3.341  1.1028 -0.2038  0.3064
 2925TIP3    H2 8782   1.561   1.564   3.391 -0.1547  0.6231  0.5250
 2926TIP3   OH2 8783   3.483   1.886   1.058  0.3324  0.3527 -0.3094
 2926TIP3    H1 8784   3.399   1.842   1.072  0.2406  0.6776  0.1584
 2926TIP3    H2 8785   3.509   1.917   1.145  1.1151 -0.0612 -0.3799
 2927TIP3   OH2 8786   2.619   4.457   2.953  0.2673  0.9507  0.1822
 2927TIP3    H1 8787   2.684   4.495   2.895  0.3896  0.5125  0.0229
 2927TIP3    H2 8788   2.631   4.362   2.943  1.0524  0.8449  1.7660
 2928TIP3   OH2 8789   3.347   3.726   4.113 -0.2727 -0.1227  0.5931
 2928TIP3    H1 8790   3.252   3.711   4.117 -0.2735 -0.0281  1.0591
 2928TIP3    H2 8791   3.356   3.814   4.078 -0.3843  0.1106  1.1302
 2929TIP3   OH2 8792   5.576   5.476   0.314  0.0943 -0.1272  0.1931
 2929TIP3    H1 8793   5.588   5.565   0.281  1.9371 -0.8869 -1.3465
 2929TIP3    H2 8794   5.510   5.438   0.256 -1.2563  0.4198  1.3181
 2930TIP3   OH2 8795   5.580   3.060   4.362  0.2042 -0.0926 -0.3814
 2930TIP3    H1 8796   5.619   3.063   4.274  0.7496  1.2610 -0.1194
 2930TIP3    H2 8797   5.491   3.094   4.350  1.2994  3.2134  0.0443
 2931TIP3   OH2 8798   2.978   4.306   1.700  0.0723  0.1648 -0.3193
 2931TIP3    H1 8799   2.969   4.380   1.640  0.7029  0.8909  0.4616
 2931TIP3    H2 8800   3.008   4.344   1.782 -0.7702 -0.8085  0.4797
 2932TIP3   OH2 8801   1.568   1.470   4.870 -0.0349  0.2284 -0.5331
 2932TIP3    H1 8802   1.480   1.453   4.905  0.8288 -0.3603  1.5206
 2932TIP3    H2 8803   1.592   1.389   4.825 -0.4208  0.2891 -0.8540
 2933TIP3   OH2 8804   5.948   2.892   4.507  0.0962  0.5466  0.3695
 2933TIP3    H1 8805   5.890   2.845   4.447 -1.3017  1.1240  1.2228
 2933TIP3    H2 8806   5.963   2.976   4.465 -1.8476  1.4179  1.3051
 2934TIP3   OH2 8807   0.954   2.910   1.633 -0.0256  0.0158 -0.2012
 2934TIP3    H1 8808   0.935   2.833   1.686 -2.0564  0.4529 -0.2285
 2934TIP3    H2 8809   1.045   2.898   1.606  0.6174 -0.9282  2.1417
 2935TIP3   OH2 8810   5.920   1.133   2.208 -0.2465 -0.0726 -0.0868
 2935TIP3    H1 8811   5.922   1.044   2.244  0.8275 -0.8984 -2.0490
 2935TIP3    H2 8812   5.845   1.132   2.148 -0.7025  0.5956  0.4672
 2936TIP3   OH2 8813   0.187   5.116   0.914 -0.0809 -0.7107  0.3288
 2936TIP3    H1 8814   0.163   5.048   0.851 -0.9178 -0.9040  0.8395
 2936TIP3    H2 8815   0.274   5.146   0.886 -1.4730  1.0738 -2.5169
 2937TIP3   OH2 8816   3.001   3.190   1.394 -0.0095 -0.3341  0.2381
 2937TIP3    H1 8817   3.069   3.188   1.327 -0.2800  0.6917 -0.0816
 2937TIP3    H2 8818   3.043   3.151   1.471  1.8694  2.5121  0.8325
 2938TIP3   OH2 8819   3.269   2.215   2.290  0.1238  0.2751  0.2496
 2938TIP3    H1 8820   3.201   2.159   2.252  0.3163  0.8040 -0.8834
 2938TIP3    H2 8821   3.313   2.158   2.354 -0.3757 -0.5353 -0.1085
 2939TIP3   OH2 8822   3.184   0.568   0.002  0.4022 -0.7337 -0.5965
 2939TIP3    H1 8823   3.198   0.659  -0.025  0.7386 -1.1653 -1.9004
 2939TIP3    H2 8824   3.115   0.574   0.068  1.6001  0.6375  0.6021
 2940TIP3   OH2 8825   0.971   0.454   4.317  0.2956 -0.4274 -0.3333
 2940TIP3    H1 8826   0.912   0.379   4.318  1.1800 -1.1545  0.1459
 2940TIP3    H2 8827   1.011   0.453   4.404 -0.2810  1.1167 -0.0199
 2941TIP3   OH2 8828   1.978   3.950   4.792 -0.2404 -0.2286  0.3617
 2941TIP3    H1 8829   1.915   4.009   4.750  0.3119  0.6998  0.7882
 2941TIP3    H2 8830   2.032   4.008   4.846  2.2737 -0.6649 -1.4971
 2942TIP3   OH2 8831   5.233   1.241   4.543  0.4937  0.1554 -0.3013
 2942TIP3    H1 8832   5.303   1.206   4.598  0.1745  0.4893  0.3174
 2942TIP3    H2 8833   5.152   1.206   4.581  0.1442  1.7484  0.4818
 2943TIP3   OH2 8834   1.481   2.621   3.719  0.5049 -0.2326 -0.5035
 2943TIP3    H1 8835   1.490   2.598   3.812 -0.9003 -0.5217 -0.4082
 2943TIP3    H2 8836   1.569   2.614   3.683  0.8597 -1.3813  0.5269
 2944TIP3   OH2 8837   2.102   1.779   2.651 -0.2352 -0.2521  0.0431
 2944TIP3    H1 8838   2.181   1.748   2.697 -0.3513 -1.6044 -0.6162
 2944TIP3    H2 8839   2.054   1.828   2.717  2.2430  2.6893 -0.1198
 2945TIP3   OH2 8840   5.912   2.036   1.649 -0.0657 -0.4885 -0.2576
 2945TIP3    H1 8841   5.817   2.036   1.639  0.0585 -1.0933 -1.5377
 2945TIP3    H2 8842   5.946   2.048   1.561  1.0616 -0.0320  0.2121
 2946TIP3   OH2 8843   3.483   1.520   3.102  0.0345  0.2077  0.1408
 2946TIP3    H1 8844   3.432   1.454   3.056  0.5093  0.2662 -0.4753
 2946TIP3    H2 8845   3.461   1.603   3.059  0.1745  0.3198  0.2822
 2947TIP3   OH2 8846   0.840   1.703   4.836 -0.4807 -0.0147 -0.8617
 2947TIP3    H1 8847   0.908   1.761   4.869  1.8401 -2.8111 -0.2280
 2947TIP3    H2 8848   0.788   1.680   4.913 -0.7283  0.3775 -0.9102
 2948TIP3   OH2 8849   3.449   2.879   2.102 -0.3536 -0.6963  0.3092
 2948TIP3    H1 8850   3.423   2.801   2.151 -0.1076 -1.2333 -0.3983
 2948TIP3    H2 8851   3.410   2.952   2.151 -0.4017 -1.2390  1.1016
 2949TIP3   OH2 8852   0.746   1.896   1.269 -1.5087 -0.2575 -0.0686
 2949TIP3    H1 8853   0.797   1.916   1.347 -0.3925  0.1376 -0.8697
 2949TIP3    H2 8854   0.682   1.967   1.263 -0.2616  0.8637 -0.6117
 2950TIP3   OH2 8855   0.487   5.366   4.896  0.1390 -0.3201 -0.7695
 2950TIP3    H1 8856   0.532   5.313   4.830 -0.8047 -1.2194 -0.7105
 2950TIP3    H2 8857   0.466   5.305   4.966 -2.9688 -0.4412 -1.6707
 2951TIP3   OH2 8858   3.700   5.696   0.274 -0.4399  0.5072  0.1210
 2951TIP3    H1 8859   3.665   5.619   0.318  0.1868  0.2352  0.1605
 2951TIP3    H2 8860   3.794   5.692   0.290 -0.2568  0.6658 -0.8353
 2952TIP3   OH2 8861   2.644   3.814   0.317 -0.0212  0.1468  0.2518
 2952TIP3    H1 8862   2.568   3.856   0.277 -1.2883 -0.7963  1.5782
 2952TIP3    H2 8863   2.676   3.878   0.381 -0.3950  0.1142  0.4757
 2953TIP3   OH2 8864   1.679   3.382   4.267 -0.0721  0.6037  0.8964
 2953TIP3    H1 8865   1.597   3.353   4.227  1.0113 -0.0333 -0.9806
 2953TIP3    H2 8866   1.703   3.460   4.217  1.6113 -0.5402 -0.1540
 2954TIP3   OH2 8867   2.081   0.220   1.809 -0.1504  0.1444 -0.1603
 2954TIP3    H1 8868   1.999   0.204   1.761 -0.1400 -0.5037  0.0318
 2954TIP3    H2 8869   2.060   0.293   1.867 -0.5757  0.0376 -0.1719
 2955TIP3   OH2 8870   1.119   3.647   3.265  0.0139 -0.1125 -0.0298
 2955TIP3    H1 8871   1.024   3.656   3.274  0.2088  0.8549  1.3358
 2955TIP3    H2 8872   1.131   3.560   3.225 -1.4314 -0.1943 -0.3484
 2956TIP3   OH2 8873   0.149   5.049   3.519 -0.1015 -0.6222  0.4181
 2956TIP3    H1 8874   0.236   5.051   3.479  0.4419 -0.0101  1.5687
 2956TIP3    H2 8875   0.155   4.980   3.586 -1.2421 -2.2027 -1.0171
 2957TIP3   OH2 8876   0.477   0.875   4.581  0.1577  0.4624  0.1912
 2957TIP3    H1 8877   0.477   0.786   4.616 -0.1132  1.0568  1.7747
 2957TIP3    H2 8878   0.569   0.893   4.559  0.0139 -0.7182 -1.6100
 2958TIP3   OH2 8879   5.792   5.761   0.456  0.2072  0.4631  0.3671
 2958TIP3    H1 8880   5.764   5.765   0.547 -0.5228  1.7445  0.1116
 2958TIP3    H2 8881   5.878   5.803   0.454  0.3223  0.2326  0.4975
 2959TIP3   OH2 8882   5.419   5.345   1.374  0.2706 -0.3862  0.7266
 2959TIP3    H1 8883   5.488   5.409   1.392  0.7260 -0.9159  0.8860
 2959TIP3    H2 8884   5.357   5.356   1.445 -0.4058  0.8860 -0.0305
 2960TIP3   OH2 8885   1.602   1.625   0.788 -0.1568 -0.5435 -0.5702
 2960TIP3    H1 8886   1.605   1.563   0.716  1.3330  1.3211 -2.2382
 2960TIP3    H2 8887   1.529   1.683   0.767  0.8910  0.6033 -1.1714
 2961TIP3   OH2 8888   0.388   0.198   3.482  0.4391  0.6783 -0.0861
 2961TIP3    H1 8889   0.300   0.216   3.517  0.3432  0.0990 -0.0226
 2961TIP3    H2 8890   0.396   0.257   3.407 -0.2617  0.2945 -0.4791
 2962TIP3   OH2 8891   5.851   4.391   1.194 -0.3338 -0.0039  0.1642
 2962TIP3    H1 8892   5.761   4.383   1.161 -0.2207 -0.6840 -0.0042
 2962TIP3    H2 8893   5.844   4.378   1.288 -0.3934 -0.2069  0.1315
 2963TIP3   OH2 8894   1.433   3.452   1.509 -0.1630  0.0909  0.2654
 2963TIP3    H1 8895   1.392   3.478   1.592 -0.1897  3.0065 -0.5630
 2963TIP3    H2 8896   1.405   3.518   1.446  1.2486 -1.0730 -1.6961
 2964TIP3   OH2 8897   3.389   1.210   0.640 -0.0473  0.2042 -0.7805
 2964TIP3    H1 8898   3.450   1.207   0.713 -1.8132 -0.6264  0.7091
 2964TIP3    H2 8899   3.443   1.192   0.563  1.6697  0.1071  0.4008
 2965TIP3   OH2 8900   0.556   3.780   3.379 -0.4179  0.1772  0.1996
 2965TIP3    H1 8901   0.565   3.701   3.431 -0.9297  0.1845  0.3039
 2965TIP3    H2 8902   0.473   3.818   3.407 -0.1884  0.7360  0.1311
 2966TIP3   OH2 8903   2.438   0.312   1.990  0.1965 -0.1759 -0.7256
 2966TIP3    H1 8904   2.417   0.267   2.072  1.4541  1.6383  0.6854
 2966TIP3    H2 8905   2.511   0.261   1.953  0.9647  0.0999  0.3483
 2967TIP3   OH2 8906   0.144   1.813   0.163  0.6907  0.4131 -0.3098
 2967TIP3    H1 8907   0.186   1.727   0.159 -1.1142 -0.5703  0.6574
 2967TIP3    H2 8908   0.053   1.797   0.138  0.3233  2.0671 -0.1763
 2968TIP3   OH2 8909   5.165   4.353   1.015 -0.0154 -0.4065  0.1243
 2968TIP3    H1 8910   5.227   4.313   1.075  0.7404  0.3663 -0.1182
 2968TIP3    H2 8911   5.189   4.318   0.929  0.3966  0.2411 -0.0329
 2969TIP3   OH2 8912   3.779   0.376   4.751  0.0387  0.9668 -0.3251
 2969TIP3    H1 8913   3.785   0.310   4.681  0.6298  2.1636 -1.4535
 2969TIP3    H2 8914   3.851   0.436   4.733 -1.0683  2.4638  0.0801
 2970TIP3   OH2 8915   0.868   1.733   2.378 -0.5463  0.2240  0.0785
 2970TIP3    H1 8916   0.829   1.688   2.454 -0.4239  2.3912  1.5164
 2970TIP3    H2 8917   0.962   1.735   2.398 -0.2227 -0.9157 -1.1500
 2971TIP3   OH2 8918   6.303   3.268   4.758  0.6960  0.0054 -0.2328
 2971TIP3    H1 8919   6.282   3.177   4.778  0.5994  0.0158 -0.2849
 2971TIP3    H2 8920   6.392   3.265   4.722  0.9199  0.0057  0.3188
 2972TIP3   OH2 8921   4.849   4.504   3.288 -0.1081 -0.2212  0.1540
 2972TIP3    H1 8922   4.766   4.551   3.275 -0.4918 -0.6363  0.9636
 2972TIP3    H2 8923   4.838   4.462   3.374  0.5209 -1.1503 -0.2087
 2973TIP3   OH2 8924   1.535   0.672   4.440 -0.1489  0.6698  0.0205
 2973TIP3    H1 8925   1.509   0.762   4.421 -0.8671  0.3809 -0.4091
 2973TIP3    H2 8926   1.491   0.620   4.373 -0.8868 -0.1414  1.1021
 2974TIP3   OH2 8927   3.669   1.254   1.978  0.0024  0.3354  0.4234
 2974TIP3    H1 8928   3.586   1.296   1.999  0.2721  0.5555  1.0799
 2974TIP3    H2 8929   3.673   1.178   2.036  0.6279  0.7895  0.9904
 2975TIP3   OH2 8930   5.862   4.864   3.482 -0.3950  0.1713  0.2800
 2975TIP3    H1 8931   5.924   4.923   3.438 -0.5448  0.2250  0.1416
 2975TIP3    H2 8932   5.815   4.821   3.411 -1.0167  0.6600  0.3919
 2976TIP3   OH2 8933   1.224   5.550   3.185  0.3104  0.1879  0.2558
 2976TIP3    H1 8934   1.230   5.644   3.198  1.1934  0.1711  0.0205
 2976TIP3    H2 8935   1.253   5.512   3.268 -2.4998  0.0979  1.3042
 2977TIP3   OH2 8936   4.455   5.163   1.919 -0.4769 -0.1928  0.1676
 2977TIP3    H1 8937   4.408   5.088   1.882 -0.3441  0.0147 -0.4347
 2977TIP3    H2 8938   4.472   5.138   2.010 -2.1866 -0.0651  0.5485
 2978TIP3   OH2 8939   0.826   2.720   0.581  0.0157 -0.3314  0.3094
 2978TIP3    H1 8940   0.789   2.804   0.554 -0.2196 -0.1328  1.2182
 2978TIP3    H2 8941   0.754   2.658   0.573 -0.9379  0.2434  3.0850
 2979TIP3   OH2 8942   2.427   0.524   0.906 -0.0457  0.0486  0.4196
 2979TIP3    H1 8943   2.412   0.553   0.816  1.4202  0.1848  0.1872
 2979TIP3    H2 8944   2.424   0.604   0.959 -1.3642 -0.0894  0.5703
 2980TIP3   OH2 8945   4.269   0.339   4.074  0.1606  0.3325 -0.1076
 2980TIP3    H1 8946   4.319   0.269   4.115 -0.1946 -0.1545 -0.4872
 2980TIP3    H2 8947   4.331   0.380   4.014  0.0987 -0.3205 -0.6372
 2981TIP3   OH2 8948   1.541   4.483   0.971 -0.0774  0.4997  0.1516
 2981TIP3    H1 8949   1.459   4.476   1.019 -0.3731 -0.1647 -0.4305
 2981TIP3    H2 8950   1.540   4.408   0.911  0.3046  1.2682 -0.8419
 2982TIP3   OH2 8951   2.095   2.720   0.948  0.3006 -0.0310  0.1150
 2982TIP3    H1 8952   2.060   2.656   1.010  0.2498 -0.2502 -0.1369
 2982TIP3    H2 8953   2.103   2.672   0.866 -1.1425  0.6694 -0.4776
 2983TIP3   OH2 8954   3.012   4.374   2.900  0.4824  0.1867 -0.0528
 2983TIP3    H1 8955   3.044   4.398   2.812 -0.3909  0.1629 -0.3903
 2983TIP3    H2 8956   2.919   4.354   2.886  0.6192 -0.9901  0.6749
 2984TIP3   OH2 8957   5.097   0.188   2.836  0.8093 -0.0489 -0.0895
 2984TIP3    H1 8958   5.004   0.213   2.835  0.6032 -0.7389 -1.7965
 2984TIP3    H2 8959   5.124   0.201   2.926 -1.0704 -0.2363  0.5560
 2985TIP3   OH2 8960   4.888   5.348   2.396  0.0557  0.0497 -0.0987
 2985TIP3    H1 8961   4.972   5.313   2.366  0.7502  0.6517  1.0450
 2985TIP3    H2 8962   4.895   5.442   2.379 -0.3104  0.1279  0.1831
 2986TIP3   OH2 8963   4.670   3.975   2.886 -0.5590  0.0383  0.0377
 2986TIP3    H1 8964   4.588   3.928   2.872  0.3949 -1.4323 -0.8555
 2986TIP3    H2 8965   4.684   3.970   2.981 -1.2322 -0.1459  0.1333
 2987TIP3   OH2 8966   1.080   4.944   1.459 -0.4218  0.3721  0.0031
 2987TIP3    H1 8967   1.062   4.862   1.505  0.2902 -0.3044 -0.8850
 2987TIP3    H2 8968   1.168   4.932   1.423 -0.7059  1.1299 -0.9749
 2988TIP3   OH2 8969   4.803   1.175   0.230 -0.0769 -0.4464  0.1819
 2988TIP3    H1 8970   4.893   1.202   0.209 -0.1599  1.8388  2.3393
 2988TIP3    H2 8971   4.749   1.231   0.175 -0.1899 -0.3172  0.4240
 2989TIP3   OH2 8972   1.431   1.151   1.504 -0.1149 -0.2910  0.1739
 2989TIP3    H1 8973   1.419   1.060   1.475  1.2700 -0.1681 -0.8999
 2989TIP3    H2 8974   1.358   1.198   1.465 -0.0380 -0.6940 -0.4678
 2990TIP3   OH2 8975   2.356   5.238   1.825  0.4953 -0.3220  0.1578
 2990TIP3    H1 8976   2.323   5.162   1.872  1.6332 -1.0373 -0.1668
 2990TIP3    H2 8977   2.418   5.279   1.885 -0.5649  0.7230  0.5708
 2991TIP3   OH2 8978   2.182   4.570   4.518 -0.1312  0.3979 -0.0547
 2991TIP3    H1 8979   2.185   4.564   4.422  0.5605 -0.8075  0.0102
 2991TIP3    H2 8980   2.151   4.484   4.546  3.0074 -0.5895  0.8829
 2992TIP3   OH2 8981   6.195   1.864   0.013 -0.2101  0.4603 -0.6253
 2992TIP3    H1 8982   6.217   1.774  -0.009  1.3361  1.0582 -1.6602
 2992TIP3    H2 8983   6.128   1.856   0.081  1.9379 -1.5179  1.4561
 2993TIP3   OH2 8984   2.388   5.043   2.634  0.1848 -0.2860 -0.3250
 2993TIP3    H1 8985   2.404   4.949   2.637  1.3103 -0.0917  0.5629
 2993TIP3    H2 8986   2.371   5.062   2.541 -0.3862 -1.3990 -0.4596
 2994TIP3   OH2 8987   1.498   3.145   3.269 -0.0443 -0.4505 -0.7290
 2994TIP3    H1 8988   1.487   3.147   3.174 -0.6318 -2.6372 -0.7755
 2994TIP3    H2 8989   1.413   3.172   3.303 -0.1602 -0.6396 -0.8609
 2995TIP3   OH2 8990   2.637   0.667   1.488 -0.1342  0.4972 -0.1577
 2995TIP3    H1 8991   2.661   0.746   1.537  1.5928  0.3598 -0.7274
 2995TIP3    H2 8992   2.634   0.695   1.397 -2.2121  0.4904 -0.1291
 2996TIP3   OH2 8993   1.591   5.137   1.762  0.0469 -0.1019 -0.7354
 2996TIP3    H1 8994   1.612   5.059   1.814 -0.2216  0.4990  0.3002
 2996TIP3    H2 8995   1.504   5.163   1.793  0.9027  1.6819  0.3119
 2997TIP3   OH2 8996   6.249   1.731   0.277  0.3702  0.3351 -0.0928
 2997TIP3    H1 8997   6.213   1.679   0.205  0.3718 -0.7334  0.6584
 2997TIP3    H2 8998   6.243   1.674   0.353  0.5078  1.3937  0.7350
 2998TIP3   OH2 8999   4.240   4.373   2.116 -0.4667 -0.0442  0.4595
 2998TIP3    H1 9000   4.295   4.384   2.193  1.9087  0.4411 -1.1950
 2998TIP3    H2 9001   4.251   4.281   2.092  0.8169  0.3637 -0.6508
 2999TIP3   OH2 9002   3.007   4.940   1.229  0.1246 -0.5301  0.2463
 2999TIP3    H1 9003   2.963   4.903   1.306 -0.4015 -0.6325 -0.0960
 2999TIP3    H2 9004   3.037   5.027   1.258 -0.4161 -0.4059  0.4540
 3000TIP3   OH2 9005   0.611   1.736   3.138 -0.4021 -0.3092  0.8616
 3000TIP3    H1 9006   0.685   1.781   3.098  0.6781 -0.9775  2.0480
 3000TIP3    H2 9007   0.554   1.714   3.064  1.5537 -1.5699 -0.3481
 3001TIP3   OH2 9008   5.588   1.080   3.934 -0.7047 -0.6511  0.2313
 3001TIP3    H1 9009   5.541   1.080   3.851 -1.6921  0.6132  0.7551
 3001TIP3    H2 9010   5.585   1.171   3.964  0.0717 -0.9847  1.4003
 3002TIP3   OH2 9011   0.543   3.788   4.815  0.0762 -0.6031 -0.5737
 3002TIP3    H1 9012   0.479   3.741   4.868 -0.9527  1.9077  0.5449
 3002TIP3    H2 9013   0.616   3.804   4.875 -0.3775  0.7953 -0.3708
 3003TIP3   OH2 9014   2.050   4.048   2.198  0.0671  0.0976 -0.1051
 3003TIP3    H1 9015   2.118   4.038   2.131  0.6868 -1.2980  0.6800
 3003TIP3    H2 9016   1.999   3.967   2.193 -0.8238  0.6377  0.0918
 3004TIP3   OH2 9017   3.961   1.715   1.365 -0.6188 -0.3006 -0.7897
 3004TIP3    H1 9018   4.002   1.766   1.434 -0.0393 -0.2620 -1.1510
 3004TIP3    H2 9019   4.024   1.646   1.345 -1.6876 -1.6203  0.1778
 3005TIP3   OH2 9020   1.820   2.341   3.847  0.5631  0.0207 -0.5480
 3005TIP3    H1 9021   1.895   2.362   3.902  1.5763 -2.2053 -0.9557
 3005TIP3    H2 9022   1.789   2.256   3.880 -2.0373  0.9963 -0.1789
 3006TIP3   OH2 9023   4.544   3.082   4.669 -0.0714 -0.5976 -0.5057
 3006TIP3    H1 9024   4.508   3.041   4.591 -0.5977 -1.2607  0.0766
 3006TIP3    H2 9025   4.474   3.139   4.702  1.4700  3.0269 -2.7766
 3007TIP3   OH2 9026   3.860   4.524   2.896  0.2633  0.2344 -0.5116
 3007TIP3    H1 9027   3.767   4.539   2.909  0.2708 -0.0842 -0.0985
 3007TIP3    H2 9028   3.903   4.586   2.956  0.3501  1.6829 -2.0019
 3008TIP3   OH2 9029   4.311   1.065   1.038 -0.1988 -0.5029  0.4810
 3008TIP3    H1 9030   4.389   1.120   1.044 -0.2355 -0.5951  2.0714
 3008TIP3    H2 9031   4.333   0.986   1.087 -0.6267 -1.3632 -0.6642
 3009TIP3   OH2 9032   4.919   0.317   0.044  1.0962  0.0393  0.2782
 3009TIP3    H1 9033   4.860   0.262  -0.008  1.0133 -0.9308  1.3525
 3009TIP3    H2 9034   4.960   0.257   0.106  1.8135  1.0216  0.7909
 3010TIP3   OH2 9035   5.791   3.963   4.911  0.1876  0.2686  0.1611
 3010TIP3    H1 9036   5.790   4.034   4.847 -0.3499  0.4609  0.3805
 3010TIP3    H2 9037   5.856   3.990   4.976  3.0345 -1.3078 -1.8305
 3011TIP3   OH2 9038   2.931   5.719   1.665 -0.1803  0.0601  0.0423
 3011TIP3    H1 9039   2.854   5.687   1.714  0.9725  0.1524  2.0335
 3011TIP3    H2 9040   2.911   5.811   1.647  0.1032  0.5711  2.0538
 3012TIP3   OH2 9041   4.437   1.738   4.233 -0.2939  0.4070 -0.0414
 3012TIP3    H1 9042   4.394   1.824   4.235 -0.2393  0.4245  0.4890
 3012TIP3    H2 9043   4.391   1.690   4.165 -1.3214  0.3465  0.6792
 3013TIP3   OH2 9044   4.043   1.269   3.823 -0.0349 -0.2053 -0.1828
 3013TIP3    H1 9045   3.986   1.193   3.833  0.2937 -0.6891 -1.7369
 3013TIP3    H2 9046   4.126   1.233   3.791 -0.2868  0.8864 -2.2429
 3014TIP3   OH2 9047   4.012   4.394   2.732 -0.7215 -0.1041  0.2707
 3014TIP3    H1 9048   4.098   4.416   2.769 -1.0754 -1.3338  1.9377
 3014TIP3    H2 9049   3.949   4.432   2.793 -1.3700  0.2267 -0.5875
 3015TIP3   OH2 9050   4.098   4.773   0.756 -0.2968  0.7296  0.1213
 3015TIP3    H1 9051   4.150   4.704   0.714  0.4512  1.8564 -0.8878
 3015TIP3    H2 9052   4.163   4.831   0.795 -0.7716  2.0703 -1.0093
 3016TIP3   OH2 9053   1.262   1.299   1.330 -0.0758 -0.2464 -0.4510
 3016TIP3    H1 9054   1.319   1.339   1.265  0.2517 -0.9753 -0.6181
 3016TIP3    H2 9055   1.224   1.223   1.286  2.0035 -2.1972  0.9050
 3017TIP3   OH2 9056   6.366   2.358   0.443 -0.1708  0.6861 -0.1309
 3017TIP3    H1 9057   6.272   2.371   0.451 -0.2004  0.2449  0.2752
 3017TIP3    H2 9058   6.377   2.264   0.432  0.2279  0.7230 -0.0705
 3018TIP3   OH2 9059   3.391   0.097   0.154  0.0893  0.6289  0.5114
 3018TIP3    H1 9060   3.432   0.161   0.212 -0.0084  2.1155 -0.9879
 3018TIP3    H2 9061   3.459   0.031   0.139  0.5704  0.9544  1.1916
 3019TIP3   OH2 9062   1.890   0.742   2.301 -0.0849 -0.3946  0.0717
 3019TIP3    H1 9063   1.951   0.712   2.234 -1.3796 -1.3409 -0.7379
 3019TIP3    H2 9064   1.929   0.822   2.335  1.1156 -0.4506 -1.0843
 3020TIP3   OH2 9065   1.411   3.515   2.543  0.1675  0.6968  0.1495
 3020TIP3    H1 9066   1.455   3.594   2.576 -0.7426  0.5017  1.9463
 3020TIP3    H2 9067   1.364   3.481   2.618 -1.8984  0.0929 -1.3213
 3021TIP3   OH2 9068   0.466   3.741   1.486  0.2681  0.2492  0.2133
 3021TIP3    H1 9069   0.383   3.754   1.531 -1.6354 -1.1366 -2.5559
 3021TIP3    H2 9070   0.463   3.802   1.412 -0.4902 -2.6819 -2.4256
 3022TIP3   OH2 9071   0.799   5.255   0.495  0.0687  0.0806 -0.2449
 3022TIP3    H1 9072   0.820   5.348   0.505  1.2861 -0.3513  1.6389
 3022TIP3    H2 9073   0.873   5.219   0.445  0.7612 -0.2862  1.0204
 3023TIP3   OH2 9074   2.265   5.520   2.080  0.0370 -0.0755  0.2300
 3023TIP3    H1 9075   2.209   5.583   2.036 -0.1471 -0.6216 -0.3370
 3023TIP3    H2 9076   2.205   5.462   2.126  0.1492 -0.4021 -0.0250
 3024TIP3   OH2 9077   5.660   4.171   1.328  0.4063 -0.0863 -0.1216
 3024TIP3    H1 9078   5.644   4.090   1.376  2.0860 -0.8153 -0.6971
 3024TIP3    H2 9079   5.691   4.233   1.394  0.9425 -0.5146  0.0331
 3025TIP3   OH2 9080   1.481   4.018   4.345  0.1658 -0.0329 -0.3812
 3025TIP3    H1 9081   1.537   3.942   4.361  0.9455  0.6896  0.4536
 3025TIP3    H2 9082   1.403   4.001   4.397  1.2498  0.6993  1.6250
 3026TIP3   OH2 9083   6.215   5.281   2.464 -0.1992  0.0627  0.1185
 3026TIP3    H1 9084   6.287   5.237   2.420 -0.4529  0.2708 -0.5171
 3026TIP3    H2 9085   6.220   5.372   2.433 -0.9856 -0.0166 -0.2738
 3027TIP3   OH2 9086   2.706   1.886   1.142  0.2971 -0.3707 -0.2147
 3027TIP3    H1 9087   2.650   1.958   1.174  0.0525 -0.5095 -0.3242
 3027TIP3    H2 9088   2.674   1.870   1.053  2.0279  1.0976 -1.1650
 3028TIP3   OH2 9089   3.526   4.925   0.937  0.0292  0.0748 -0.3803
 3028TIP3    H1 9090   3.594   4.893   0.878  0.4262 -1.1120  0.6809
 3028TIP3    H2 9091   3.444   4.909   0.890  0.4067  0.3077 -1.1281
 3029TIP3   OH2 9092   0.461   4.936   4.935 -0.2324  0.2237 -0.4790
 3029TIP3    H1 9093   0.478   4.948   4.842 -0.5225  0.1510 -0.5435
 3029TIP3    H2 9094   0.366   4.928   4.941 -0.3585  1.7521 -0.0100
 3030TIP3   OH2 9095   2.313   3.832   3.146  0.2591 -0.0643  0.1523
 3030TIP3    H1 9096   2.221   3.807   3.136  0.5399 -0.5384 -1.7173
 3030TIP3    H2 9097   2.317   3.922   3.113  0.2180  0.5492  1.7363
 3031TIP3   OH2 9098   5.934   3.211   0.097 -0.2159  0.0816 -0.1141
 3031TIP3    H1 9099   6.013   3.230   0.047 -0.8516  0.3120 -1.0747
 3031TIP3    H2 9100   5.940   3.266   0.175  0.8612 -0.3779  0.1377
 3032TIP3   OH2 9101   4.280   0.908   2.595 -0.2118 -0.2636  0.2096
 3032TIP3    H1 9102   4.255   0.905   2.687 -2.0793  0.3182 -0.2354
 3032TIP3    H2 9103   4.207   0.952   2.552  1.8457  2.1006 -1.1496
 3033TIP3   OH2 9104   5.569   0.526   1.039 -0.6348 -0.0503  0.2622
 3033TIP3    H1 9105   5.554   0.579   1.118  0.5557  2.5473 -1.1303
 3033TIP3    H2 9106   5.663   0.534   1.023 -1.0935  0.9487 -2.3452
 3034TIP3   OH2 9107   3.874   4.571   4.429 -0.4241  0.1175  0.1879
 3034TIP3    H1 9108   3.833   4.536   4.350 -1.8764 -0.9163  1.3780
 3034TIP3    H2 9109   3.935   4.638   4.395 -1.6006  0.2946 -1.7495
 3035TIP3   OH2 9110   4.209   3.537   2.772  0.8507  0.7746 -0.9331
 3035TIP3    H1 9111   4.254   3.476   2.830 -1.1626  0.4596  0.4112
 3035TIP3    H2 9112   4.219   3.501   2.684  0.5215 -0.9785 -0.2762
 3036TIP3   OH2 9113   0.985   2.252   1.378 -0.1513  0.4606 -0.4239
 3036TIP3    H1 9114   1.033   2.333   1.360  0.2960  0.6685  1.4969
 3036TIP3    H2 9115   1.034   2.210   1.449 -0.8658 -1.0801 -0.7979
 3037TIP3   OH2 9116   5.423   1.420   5.021 -0.1906  0.2896  0.1526
 3037TIP3    H1 9117   5.350   1.369   4.985 -0.3383 -0.2675  1.1940
 3037TIP3    H2 9118   5.384   1.503   5.048  0.1444  1.2183 -2.0211
 3038TIP3   OH2 9119   0.285   5.628   1.507  0.1218  0.2908  0.2341
 3038TIP3    H1 9120   0.304   5.692   1.439 -3.6970 -0.7175 -2.0898
 3038TIP3    H2 9121   0.205   5.584   1.477 -0.2906 -2.1005  4.1370
 3039TIP3   OH2 9122   0.826   1.859   4.293 -0.2420  0.3987  0.1863
 3039TIP3    H1 9123   0.921   1.855   4.276 -0.3636  1.4204 -0.8255
 3039TIP3    H2 9124   0.802   1.768   4.312  0.7737 -0.0414 -0.5369
 3040TIP3   OH2 9125   2.350   5.800   4.063  0.3774 -0.5098 -0.2981
 3040TIP3    H1 9126   2.347   5.836   4.152  1.6689  0.3282 -0.5724
 3040TIP3    H2 9127   2.304   5.864   4.010 -1.8753 -1.7964 -0.0387
 3041TIP3   OH2 9128   5.673   1.287   0.179 -0.6682 -0.4438 -0.2276
 3041TIP3    H1 9129   5.683   1.377   0.210 -1.4853 -0.2740 -0.4329
 3041TIP3    H2 9130   5.718   1.234   0.244  1.5994  0.2527 -1.1264
 3042TIP3   OH2 9131   1.116   1.467   3.322 -0.5749  0.1192 -0.0911
 3042TIP3    H1 9132   1.170   1.480   3.244  2.2409 -2.4943  1.1718
 3042TIP3    H2 9133   1.103   1.372   3.326 -2.2872  0.3672  1.6164
 3043TIP3   OH2 9134   3.610   0.532   1.906 -0.3389 -0.4724  0.4199
 3043TIP3    H1 9135   3.690   0.492   1.940 -1.0332 -1.1343  1.3697
 3043TIP3    H2 9136   3.610   0.621   1.941 -0.5313 -0.8168  1.3378
 3044TIP3   OH2 9137   0.592   1.120   1.238  0.2652 -0.4624  0.2604
 3044TIP3    H1 9138   0.679   1.157   1.222 -0.1139 -0.2351 -1.5065
 3044TIP3    H2 9139   0.602   1.026   1.224  0.0958 -0.3481 -0.7603
 3045TIP3   OH2 9140   0.168   5.001   1.337 -0.5710  0.0701 -0.6644
 3045TIP3    H1 9141   0.166   5.066   1.267  0.9686  2.0830  1.0507
 3045TIP3    H2 9142   0.091   5.021   1.391 -0.5140 -0.0132 -0.5512
 3046TIP3   OH2 9143   4.186   3.152   4.675 -0.1631  0.0593  0.3997
 3046TIP3    H1 9144   4.242   3.148   4.752 -1.9200 -2.2545  1.6503
 3046TIP3    H2 9145   4.214   3.078   4.621  0.7374  1.3840 -1.0628
 3047TIP3   OH2 9146   5.673   3.603   0.395  0.1349 -0.0283  0.4562
 3047TIP3    H1 9147   5.593   3.561   0.364  0.4521  0.4907 -1.1892
 3047TIP3    H2 9148   5.652   3.696   0.397 -0.0959 -0.0787  2.6121
 3048TIP3   OH2 9149   0.762   4.205   0.164  0.2411  0.3952  0.4035
 3048TIP3    H1 9150   0.761   4.287   0.115  0.5913  0.1735  0.0162
 3048TIP3    H2 9151   0.855   4.188   0.179  0.3188 -0.9080 -1.2063
 3049TIP3   OH2 9152   0.030   1.417   1.667 -0.0207 -0.3817 -0.6191
 3049TIP3    H1 9153   0.092   1.490   1.657 -1.2692  0.5811 -1.7016
 3049TIP3    H2 9154   0.085   1.339   1.661  1.3931  0.4363  0.8691
 3050TIP3   OH2 9155   2.375   1.017   3.468  0.7056 -0.1563  0.4696
 3050TIP3    H1 9156   2.347   1.094   3.418 -1.4230 -1.2018 -0.0413
 3050TIP3    H2 9157   2.426   1.053   3.541 -0.4223  1.7526  0.3833
 3051TIP3   OH2 9158   5.149   0.114   5.053 -0.3774 -0.0988  0.5299
 3051TIP3    H1 9159   5.104   0.137   5.134 -1.4034 -0.8403  0.1943
 3051TIP3    H2 9160   5.109   0.031   5.026 -0.3140  0.3096 -0.9178
 3052TIP3   OH2 9161   1.528   3.152   2.547  0.5923 -0.7845 -0.0793
 3052TIP3    H1 9162   1.445   3.114   2.520  0.8492 -1.2995 -0.1465
 3052TIP3    H2 9163   1.584   3.077   2.566  1.9100 -0.5223 -2.5829
 3053TIP3   OH2 9164   5.729   0.617   0.722  0.3772 -0.2096 -0.4429
 3053TIP3    H1 9165   5.735   0.523   0.707 -0.7782 -0.5619  0.9988
 3053TIP3    H2 9166   5.697   0.653   0.639  0.8643 -1.0719 -1.0167
 3054TIP3   OH2 9167   4.375   5.793   4.120 -0.6492  0.1707 -0.0117
 3054TIP3    H1 9168   4.445   5.772   4.182 -0.5954  1.3585  0.3620
 3054TIP3    H2 9169   4.416   5.783   4.034  0.0394  0.9633  0.2079
 3055TIP3   OH2 9170   1.823   5.125   3.943  0.3243  0.1114 -0.1293
 3055TIP3    H1 9171   1.759   5.054   3.934  0.4202 -0.2133  1.3887
 3055TIP3    H2 9172   1.783   5.186   4.005  0.7271  0.8274 -0.5578
 3056TIP3   OH2 9173   0.255   5.417   3.387 -0.0392  0.3883 -0.4221
 3056TIP3    H1 9174   0.178   5.464   3.354 -0.8548 -1.5210 -1.3901
 3056TIP3    H2 9175   0.319   5.423   3.316  0.3077  1.0271 -0.0634
 3057TIP3   OH2 9176   5.080   0.079   2.175 -0.5210 -0.4420  0.2541
 3057TIP3    H1 9177   5.063   0.093   2.082  2.8028 -1.1005 -0.5998
 3057TIP3    H2 9178   5.089  -0.016   2.184 -0.2729 -0.3446  1.1404
 3058TIP3   OH2 9179   0.923   1.096   1.483 -0.3759  0.1851 -0.4214
 3058TIP3    H1 9180   0.830   1.092   1.503 -0.3522  1.0158 -0.0837
 3058TIP3    H2 9181   0.962   1.025   1.534 -0.7054  0.4374  0.1927
 3059TIP3   OH2 9182   0.772   0.553   0.019  0.6515 -0.0241 -0.1386
 3059TIP3    H1 9183   0.697   0.525   0.072  1.2542 -0.0974  0.6912
 3059TIP3    H2 9184   0.751   0.642  -0.008  0.6945  0.3108  0.9086
 3060TIP3   OH2 9185   0.190   2.942   3.630  0.4132  0.0568 -0.2649
 3060TIP3    H1 9186   0.127   3.012   3.642  0.6528  0.5071 -1.4744
 3060TIP3    H2 9187   0.170   2.906   3.543  1.1986 -0.4284 -0.2597
 3061TIP3   OH2 9188   3.663   0.802   2.015 -0.3410 -0.1622  0.3078
 3061TIP3    H1 9189   3.730   0.761   2.070 -1.5544 -2.0525  0.4549
 3061TIP3    H2 9190   3.655   0.891   2.049  1.0031 -0.3742  1.2614
 3062TIP3   OH2 9191   1.658   0.021   4.839 -0.4928 -0.3566 -0.2799
 3062TIP3    H1 9192   1.685  -0.069   4.857 -1.0328 -0.3298  0.7449
 3062TIP3    H2 9193   1.736   0.064   4.804 -0.1834 -1.1676 -0.5984
 3063TIP3   OH2 9194   1.897   0.338   3.242  0.5887 -0.0825 -0.5982
 3063TIP3    H1 9195   1.916   0.244   3.238  1.3421  0.0230  0.1580
 3063TIP3    H2 9196   1.896   0.358   3.336  0.7986  0.7345 -0.7617
 3064TIP3   OH2 9197   3.716   4.590   2.620  0.5774 -0.1272 -0.1334
 3064TIP3    H1 9198   3.678   4.665   2.667 -0.0426 -0.2189 -0.4759
 3064TIP3    H2 9199   3.810   4.605   2.624  0.4327  1.1437 -0.9675
 3065TIP3   OH2 9200   5.691   1.556   0.963  0.0766  0.2759 -0.0015
 3065TIP3    H1 9201   5.657   1.502   1.035  0.9459 -2.1591 -1.2929
 3065TIP3    H2 9202   5.757   1.611   1.004  0.5937 -1.0925  1.1097
 3066TIP3   OH2 9203   5.901   2.430   3.473 -0.0027 -0.0368  0.2073
 3066TIP3    H1 9204   5.930   2.393   3.389  0.0274 -1.4079  0.8115
 3066TIP3    H2 9205   5.937   2.519   3.473  0.3020 -0.1428 -1.0750
 3067TIP3   OH2 9206   6.129   1.400   1.784  0.3461  0.6165  0.1022
 3067TIP3    H1 9207   6.207   1.393   1.729  0.2113  2.6101 -0.3877
 3067TIP3    H2 9208   6.063   1.438   1.728 -0.9564 -0.7980  0.5973
 3068TIP3   OH2 9209   4.902   5.755   4.197  0.1686  0.1137  0.3767
 3068TIP3    H1 9210   4.848   5.830   4.221  0.0984  0.3034 -0.3557
 3068TIP3    H2 9211   4.985   5.770   4.242  0.1006  0.5424  0.3624
 3069TIP3   OH2 9212   5.976   3.879   0.341 -0.2968  0.4830  0.1060
 3069TIP3    H1 9213   5.983   3.825   0.262  0.7632  1.2450 -0.3416
 3069TIP3    H2 9214   6.056   3.859   0.391 -1.5454 -0.9493  1.6368
 3070TIP3   OH2 9215   2.497   3.061   1.005 -0.7484 -1.1336  0.0319
 3070TIP3    H1 9216   2.509   3.064   1.100 -0.5197 -0.9015 -0.0026
 3070TIP3    H2 9217   2.554   2.991   0.976 -0.4866 -0.9192  0.0198
 3071TIP3   OH2 9218   3.488   1.623   2.123 -0.5960  0.1415  0.6604
 3071TIP3    H1 9219   3.540   1.703   2.129  0.4367 -0.3370 -1.0169
 3071TIP3    H2 9220   3.398   1.651   2.135 -0.2240  1.5087  0.3898
 3072TIP3   OH2 9221   4.801   2.297   1.438  0.5482 -0.6534 -0.4279
 3072TIP3    H1 9222   4.732   2.277   1.500 -0.1090 -1.6092 -1.4336
 3072TIP3    H2 9223   4.878   2.316   1.492  0.2917 -2.5333  0.6760
 3073TIP3   OH2 9224   1.288   3.798   1.062  0.1825 -0.6915 -0.2964
 3073TIP3    H1 9225   1.375   3.760   1.070  0.5365  0.0755 -0.4086
 3073TIP3    H2 9226   1.279   3.819   0.969  1.1350  2.0516  0.1215
 3074TIP3   OH2 9227   3.915   2.482   0.623 -0.0156 -0.4592 -0.3295
 3074TIP3    H1 9228   3.857   2.534   0.567 -1.5743 -1.5336  0.2023
 3074TIP3    H2 9229   3.987   2.541   0.645 -0.6483  0.7767 -1.4226
 3075TIP3   OH2 9230   0.508   5.737   0.485  0.2112  0.6377  0.4520
 3075TIP3    H1 9231   0.530   5.663   0.427  0.6087  1.2931 -0.2458
 3075TIP3    H2 9232   0.576   5.801   0.469 -0.4963  1.4324  0.5657
 3076TIP3   OH2 9233   4.229   0.725   3.369  0.0759  0.2949 -0.0324
 3076TIP3    H1 9234   4.211   0.657   3.304 -0.0870 -0.9512  1.2787
 3076TIP3    H2 9235   4.145   0.739   3.413 -0.0213  1.7377 -0.6302
 3077TIP3   OH2 9236   1.593   2.826   3.988  0.8944  0.1766 -0.1434
 3077TIP3    H1 9237   1.640   2.849   4.068  0.2821 -0.1604  0.3191
 3077TIP3    H2 9238   1.612   2.898   3.928 -0.4432  1.5699  1.0343
 3078TIP3   OH2 9239   5.521   2.458   3.695 -0.3446  0.0542  0.4033
 3078TIP3    H1 9240   5.537   2.513   3.772 -2.0976  1.8986 -0.4529
 3078TIP3    H2 9241   5.441   2.409   3.717 -0.7292  0.4299 -0.1349
 3079TIP3   OH2 9242   3.376   3.217   2.974  0.7159  0.3972 -0.4835
 3079TIP3    H1 9243   3.344   3.241   2.887 -3.3497  0.9488  0.9738
 3079TIP3    H2 9244   3.388   3.300   3.019  1.2538  0.0658  0.0073
 3080TIP3   OH2 9245   0.072   5.859   1.836 -0.4147  0.0592  0.2432
 3080TIP3    H1 9246   0.163   5.881   1.816 -0.0180 -1.2359  0.5320
 3080TIP3    H2 9247   0.021   5.922   1.784  0.5989  2.4568  1.9634
 3081TIP3   OH2 9248   3.552   1.707   0.338 -0.3888  0.1617 -0.5385
 3081TIP3    H1 9249   3.626   1.737   0.285 -0.4600  0.2828 -0.5690
 3081TIP3    H2 9250   3.487   1.678   0.274 -0.0640 -0.6868 -0.5061
 3082TIP3   OH2 9251   1.717   2.077   1.834  0.4725  0.1403 -0.3697
 3082TIP3    H1 9252   1.747   2.014   1.769  0.6033  0.0654 -0.2366
 3082TIP3    H2 9253   1.646   2.033   1.880  0.4295  0.1657 -0.4119
 3083TIP3   OH2 9254   2.777   5.920   1.410  0.1284 -0.3732  0.3381
 3083TIP3    H1 9255   2.834   5.941   1.336 -2.5986 -0.1544 -1.8796
 3083TIP3    H2 9256   2.759   6.004   1.451 -0.2068 -0.1692 -0.2225
 3084TIP3   OH2 9257   0.416   2.632   2.918  0.7120  0.4315  0.4794
 3084TIP3    H1 9258   0.440   2.549   2.877  0.8496  0.3304  0.7634
 3084TIP3    H2 9259   0.375   2.607   3.001 -0.5535  0.5856 -0.0666
 3085TIP3   OH2 9260   3.182   4.171   0.067  0.5673 -0.3071 -0.3844
 3085TIP3    H1 9261   3.198   4.241   0.132  0.8001  0.1945 -0.9711
 3085TIP3    H2 9262   3.127   4.213   0.001  0.4528 -0.7785 -0.5871
 3086TIP3   OH2 9263   4.590   5.310   3.908 -0.3567 -0.2802 -0.6189
 3086TIP3    H1 9264   4.624   5.256   3.836  1.0832 -0.2204 -0.0179
 3086TIP3    H2 9265   4.605   5.400   3.879 -0.2181 -0.2506 -0.4573
 3087TIP3   OH2 9266   3.595   1.225   4.761  0.5634  0.2969 -0.1260
 3087TIP3    H1 9267   3.609   1.258   4.850  0.8217  0.0373 -0.0694
 3087TIP3    H2 9268   3.507   1.186   4.764 -0.4221  2.2974 -0.5936
 3088TIP3   OH2 9269   4.557   2.031   4.731  0.9480  0.4208  0.1652
 3088TIP3    H1 9270   4.567   1.981   4.812  1.2838 -3.5323 -2.0429
 3088TIP3    H2 9271   4.645   2.036   4.694  0.5338  0.3800 -0.8805
 3089TIP3   OH2 9272   3.270   5.041   2.917  0.1568 -0.1542  0.1293
 3089TIP3    H1 9273   3.256   5.015   3.008  1.6530  0.1703  0.4839
 3089TIP3    H2 9274   3.353   4.999   2.893 -1.0138 -1.6076 -1.6407
 3090TIP3   OH2 9275   4.008   3.139   4.252 -0.4946  0.4106  0.4253
 3090TIP3    H1 9276   4.071   3.067   4.259  0.2812  1.1173  0.8888
 3090TIP3    H2 9277   4.042   3.207   4.311 -1.9992  0.5941  1.1320
 3091TIP3   OH2 9278   1.882   1.388   0.499  0.7646  0.2125  0.5866
 3091TIP3    H1 9279   1.959   1.438   0.527  0.9619 -0.1821  0.7513
 3091TIP3    H2 9280   1.849   1.436   0.423  2.2979 -0.6697 -0.6958
 3092TIP3   OH2 9281   1.864   0.235   0.159 -0.6797 -0.1372  0.0732
 3092TIP3    H1 9282   1.955   0.209   0.173 -0.4960 -0.7431 -1.9653
 3092TIP3    H2 9283   1.821   0.219   0.243  1.2486  0.9905  1.3388
 3093TIP3   OH2 9284   1.831   1.437   4.077  0.1539 -0.6945  0.6627
 3093TIP3    H1 9285   1.884   1.456   3.999  1.5264 -1.9382  1.2364
 3093TIP3    H2 9286   1.846   1.512   4.135 -1.5109  0.6275 -0.5368
 3094TIP3   OH2 9287   5.783   5.769   4.137  0.0123  0.2634  0.0391
 3094TIP3    H1 9288   5.866   5.792   4.096  0.5361 -0.2271  0.7895
 3094TIP3    H2 9289   5.726   5.743   4.064  0.2733  1.2871 -0.5459
 3095TIP3   OH2 9290   0.020   1.777   3.443 -0.7769 -0.5394  0.2460
 3095TIP3    H1 9291   0.001   1.684   3.456 -0.6650 -0.7962 -1.1842
 3095TIP3    H2 9292   0.115   1.781   3.430 -1.0117 -0.5431 -1.7666
 3096TIP3   OH2 9293   4.972   1.009   4.150 -0.3161 -0.4466 -0.3110
 3096TIP3    H1 9294   5.034   0.937   4.146  1.2047  0.8017  0.0904
 3096TIP3    H2 9295   4.964   1.030   4.243 -1.5375 -0.7311 -0.3277
 3097TIP3   OH2 9296   4.665   2.746   4.101  0.4469 -0.6198 -0.1140
 3097TIP3    H1 9297   4.627   2.806   4.165 -0.3609 -0.4137 -0.7848
 3097TIP3    H2 9298   4.644   2.659   4.136  2.4495 -0.5867  1.3689
 3098TIP3   OH2 9299   0.331   2.095   2.142 -0.1467 -0.1415 -0.3595
 3098TIP3    H1 9300   0.248   2.117   2.184 -0.7046 -0.4467 -1.2672
 3098TIP3    H2 9301   0.310   2.019   2.087  0.6545 -0.0272 -0.8379
 3099TIP3   OH2 9302   4.230   3.420   2.516 -0.3952  0.6039  0.2982
 3099TIP3    H1 9303   4.270   3.467   2.442 -0.1365  0.5457  0.4001
 3099TIP3    H2 9304   4.175   3.354   2.474 -0.9592  1.1563  0.1520
 3100TIP3   OH2 9305   2.870   5.024   5.067 -0.5257  0.1903 -0.5427
 3100TIP3    H1 9306   2.811   5.005   5.140 -0.7310  2.4828 -0.0364
 3100TIP3    H2 9307   2.826   5.093   5.017  0.6928  0.3257 -1.4898
 3101TIP3   OH2 9308   5.734   1.186   1.285 -0.2128  0.3108  0.0496
 3101TIP3    H1 9309   5.825   1.212   1.279 -0.0238 -0.3431  0.0123
 3101TIP3    H2 9310   5.721   1.165   1.378  0.0903 -1.0630 -0.2110
 3102TIP3   OH2 9311   2.907   2.914   3.425  0.0926 -0.2500  0.0720
 3102TIP3    H1 9312   2.881   2.962   3.347 -0.0727  1.4046  1.0933
 3102TIP3    H2 9313   3.002   2.920   3.428 -0.0172  1.7945  1.2137
 3103TIP3   OH2 9314   1.284   2.352   2.722  0.3235 -0.2969  0.6358
 3103TIP3    H1 9315   1.327   2.280   2.677 -0.9920 -0.5739 -0.2425
 3103TIP3    H2 9316   1.242   2.403   2.652  0.1988  0.6205  1.3519
 3104TIP3   OH2 9317   3.440   1.751   0.632  0.4301 -0.0355  0.0104
 3104TIP3    H1 9318   3.478   1.811   0.696 -0.3974  1.0624 -0.5029
 3104TIP3    H2 9319   3.350   1.782   0.620  0.7660  0.2298 -2.1977
 3105TIP3   OH2 9320   0.488   0.458   0.837 -0.3107 -0.2485 -0.1007
 3105TIP3    H1 9321   0.501   0.380   0.890  1.2172 -1.3876 -2.0419
 3105TIP3    H2 9322   0.407   0.441   0.789  0.1122 -0.7296 -0.6508
 3106TIP3   OH2 9323   2.914   4.098   2.761 -0.1206  0.4310  0.3504
 3106TIP3    H1 9324   2.980   4.048   2.810 -0.2796  1.4115  1.6150
 3106TIP3    H2 9325   2.953   4.110   2.675  0.5318 -0.6199  0.4729
 3107TIP3   OH2 9326   5.768   1.295   3.297  0.5944  0.5730 -0.3673
 3107TIP3    H1 9327   5.758   1.273   3.390 -0.6159  0.7963 -0.4195
 3107TIP3    H2 9328   5.850   1.254   3.271 -0.6086 -2.3020 -0.0022
 3108TIP3   OH2 9329   2.765   2.072   2.284 -0.2161 -0.3099 -0.5375
 3108TIP3    H1 9330   2.681   2.043   2.319 -0.2963 -0.3188 -0.7422
 3108TIP3    H2 9331   2.768   2.039   2.195 -0.1016 -0.0973 -0.6141
 3109TIP3   OH2 9332   0.160   5.173   3.219 -0.1529  0.2196 -0.1572
 3109TIP3    H1 9333   0.151   5.195   3.127 -0.1307  0.9525  0.0095
 3109TIP3    H2 9334   0.171   5.257   3.263  0.0432 -0.1351  0.4907
 3110TIP3   OH2 9335   2.152   4.199   1.945 -0.1867 -0.1059 -0.5553
 3110TIP3    H1 9336   2.218   4.228   2.008 -0.5165  0.0349 -0.2706
 3110TIP3    H2 9337   2.108   4.279   1.918 -0.8664 -0.2968 -0.0324
 3111TIP3   OH2 9338   2.116   2.787   3.103  0.2138  0.0465 -0.1671
 3111TIP3    H1 9339   2.024   2.809   3.112  0.6051  1.3590  1.0546
 3111TIP3    H2 9340   2.156   2.816   3.185  1.7851 -0.0116 -0.8670
 3112TIP3   OH2 9341   4.428   4.105   1.455 -0.8326 -0.0900 -0.4003
 3112TIP3    H1 9342   4.480   4.181   1.481 -0.4556 -0.5877  0.3552
 3112TIP3    H2 9343   4.337   4.133   1.465 -0.7126  0.6208 -1.2328
 3113TIP3   OH2 9344   2.346   5.395   1.240 -0.0671  0.2558 -0.2794
 3113TIP3    H1 9345   2.346   5.488   1.262  2.9547 -0.0038  1.4360
 3113TIP3    H2 9346   2.340   5.350   1.324  1.1350 -1.0002 -0.8118
 3114TIP3   OH2 9347   3.644   2.152   4.192  0.0587  0.5605 -0.8349
 3114TIP3    H1 9348   3.658   2.185   4.104  1.3229 -0.8812 -1.2374
 3114TIP3    H2 9349   3.553   2.125   4.194  0.2187 -0.1579 -2.0095
 3115TIP3   OH2 9350   3.576   1.426   1.609 -0.1425  0.1882 -0.5854
 3115TIP3    H1 9351   3.630   1.475   1.547 -1.7048 -0.4162 -2.5249
 3115TIP3    H2 9352   3.586   1.472   1.692  2.7881  0.4871 -0.9848
 3116TIP3   OH2 9353   1.849   4.383   0.910 -0.5644  0.1350  0.4529
 3116TIP3    H1 9354   1.776   4.357   0.854  0.0636 -0.1796 -0.2221
 3116TIP3    H2 9355   1.810   4.386   0.998 -1.5905  0.7880  0.0038
 3117TIP3   OH2 9356   2.336   5.320   1.557 -0.2416  0.5676 -0.6827
 3117TIP3    H1 9357   2.334   5.304   1.652  0.8064  2.2723 -0.3320
 3117TIP3    H2 9358   2.285   5.399   1.545  1.0539  1.3438 -1.2913
 3118TIP3   OH2 9359   6.291   2.769   3.836  0.1849  0.2199 -0.6360
 3118TIP3    H1 9360   6.294   2.797   3.744  1.1451 -0.2577 -0.7551
 3118TIP3    H2 9361   6.363   2.815   3.878  0.0681  0.0413 -0.2353
 3119TIP3   OH2 9362   2.530   3.275   0.382 -0.1377 -0.1043 -0.2562
 3119TIP3    H1 9363   2.503   3.185   0.365 -1.1638  0.2178 -0.4028
 3119TIP3    H2 9364   2.478   3.328   0.321 -0.3685  0.6761  0.5840
 3120TIP3   OH2 9365   4.983   0.603   1.494  0.1326  0.3362 -0.4209
 3120TIP3    H1 9366   4.999   0.524   1.443 -0.4265 -1.0966  1.4847
 3120TIP3    H2 9367   4.894   0.630   1.471 -0.9707 -1.5538  1.2170
 3121TIP3   OH2 9368   3.941   0.870   1.061 -0.2895 -0.4136  0.2850
 3121TIP3    H1 9369   3.984   0.918   0.990  0.0028 -0.5994  0.3354
 3121TIP3    H2 9370   3.977   0.907   1.141  1.4107 -1.9989  0.3286
 3122TIP3   OH2 9371   3.908   3.432   2.175  0.2031 -0.7062  0.7927
 3122TIP3    H1 9372   3.957   3.443   2.257 -0.0408 -1.4357  1.0422
 3122TIP3    H2 9373   3.904   3.338   2.162  0.1107 -0.5995  0.0091
 3123TIP3   OH2 9374   2.182   3.155   0.596  0.1865 -0.2293  0.3315
 3123TIP3    H1 9375   2.167   3.248   0.608 -0.3975 -0.4889  1.9021
 3123TIP3    H2 9376   2.114   3.128   0.534 -0.4902  0.1754  0.8738
 3124TIP3   OH2 9377   5.053   0.528   2.308  0.4813 -0.2740 -0.1120
 3124TIP3    H1 9378   5.001   0.596   2.266  1.0990 -1.1272 -2.3837
 3124TIP3    H2 9379   4.993   0.455   2.319  0.2811 -0.0003  0.6795
 3125TIP3   OH2 9380   4.876   4.448   1.691 -0.7620  0.1346  0.2378
 3125TIP3    H1 9381   4.937   4.402   1.748 -1.2789  0.1516  0.8157
 3125TIP3    H2 9382   4.931   4.484   1.622 -0.4520 -2.3839 -0.9600
 3126TIP3   OH2 9383   2.862   4.210   1.304  0.1554  0.1372 -0.1279
 3126TIP3    H1 9384   2.886   4.295   1.269 -0.6082  0.3910 -0.0515
 3126TIP3    H2 9385   2.796   4.177   1.243  2.4261 -1.6646 -1.7902
 3127TIP3   OH2 9386   2.202   1.854   2.929 -0.0623 -0.2793  0.5718
 3127TIP3    H1 9387   2.280   1.893   2.890  0.6294 -0.0513  2.1112
 3127TIP3    H2 9388   2.146   1.928   2.951 -0.4086 -0.4015  0.1282
 3128TIP3   OH2 9389   4.556   4.320   1.037 -0.5521 -0.0489  0.3079
 3128TIP3    H1 9390   4.556   4.408   1.075  1.4853 -0.1601  0.6541
 3128TIP3    H2 9391   4.624   4.323   0.970 -1.0171 -1.1537 -0.2315
 3129TIP3   OH2 9392   0.850   1.217   5.037  0.0924 -0.0045  0.2021
 3129TIP3    H1 9393   0.816   1.248   4.953 -1.2567 -1.9202 -0.0083
 3129TIP3    H2 9394   0.777   1.169   5.076  0.7849  0.5894  2.3702
 3130TIP3   OH2 9395   4.122   5.066   2.034 -0.1254 -0.0260 -0.0816
 3130TIP3    H1 9396   4.187   5.088   2.101  0.4055  2.1415 -1.2042
 3130TIP3    H2 9397   4.045   5.038   2.084  0.0099  2.1612  1.5459
 3131TIP3   OH2 9398   2.240   0.730   1.850 -0.1584  0.1772 -0.4333
 3131TIP3    H1 9399   2.277   0.666   1.790 -0.5452 -0.6502  0.1966
 3131TIP3    H2 9400   2.317   0.771   1.891  0.1131 -1.2777  0.6078
 3132TIP3   OH2 9401   3.246   0.430   0.506  0.2559 -0.0326  0.1188
 3132TIP3    H1 9402   3.284   0.421   0.593 -0.6331  0.4939  0.5728
 3132TIP3    H2 9403   3.196   0.511   0.510 -0.3746 -0.3697 -0.6644
 3133TIP3   OH2 9404   5.349   2.479   1.194 -0.5407 -0.0966 -0.1147
 3133TIP3    H1 9405   5.333   2.551   1.256 -0.8887  0.1326 -0.4653
 3133TIP3    H2 9406   5.264   2.435   1.187 -0.5526 -0.0046 -0.5752
 3134TIP3   OH2 9407   6.036   4.103   1.353  0.1955 -0.0617  0.5977
 3134TIP3    H1 9408   6.056   4.159   1.278 -0.3847  0.3380  0.7318
 3134TIP3    H2 9409   6.112   4.112   1.410  0.5439 -0.2003  0.1562
 3135TIP3   OH2 9410   4.099   0.659   0.507 -0.4238  0.5588 -0.1825
 3135TIP3    H1 9411   4.135   0.677   0.419  0.2595  0.2748  0.0304
 3135TIP3    H2 9412   4.176   0.636   0.559 -0.8995  0.1949  0.3577
 3136TIP3   OH2 9413   4.692   4.861   3.565 -0.1022 -0.4870 -0.3438
 3136TIP3    H1 9414   4.693   4.792   3.632 -1.1730  0.3308  0.5550
 3136TIP3    H2 9415   4.600   4.869   3.541 -0.1638  1.3486  0.3577
 3137TIP3   OH2 9416   1.404   4.026   2.680 -0.2619  0.2533 -0.3953
 3137TIP3    H1 9417   1.403   4.029   2.775  2.2053 -0.9477 -0.2461
 3137TIP3    H2 9418   1.313   4.038   2.654 -0.9601  0.8295  2.0846
 3138TIP3   OH2 9419   2.536   5.064   0.458  0.0893 -0.2921  0.0419
 3138TIP3    H1 9420   2.519   4.976   0.489  0.1187 -0.0465  0.7726
 3138TIP3    H2 9421   2.607   5.097   0.514 -0.6839  0.5885  0.5491
 3139TIP3   OH2 9422   0.893   2.762   2.963  0.0763 -0.0997  0.0785
 3139TIP3    H1 9423   0.900   2.668   2.981  1.2596 -0.4142 -1.7800
 3139TIP3    H2 9424   0.801   2.782   2.979 -0.3623 -1.7345 -0.1835
 3140TIP3   OH2 9425   1.952   2.425   0.099  0.9333 -0.0969  0.1571
 3140TIP3    H1 9426   1.925   2.465   0.016 -0.3068 -1.2580 -0.0416
 3140TIP3    H2 9427   2.024   2.480   0.130 -0.7412  2.3619 -0.0188
 3141TIP3   OH2 9428   1.114   1.656   2.707 -0.2542  0.3985  0.2781
 3141TIP3    H1 9429   1.028   1.614   2.700 -0.0140 -0.1774  0.7332
 3141TIP3    H2 9430   1.095   1.744   2.737 -0.7021  0.3372  0.1877
 3142TIP3   OH2 9431   4.922   5.540   4.549  0.4114  0.0479  0.1712
 3142TIP3    H1 9432   4.992   5.479   4.526  0.5906  0.4010 -0.2431
 3142TIP3    H2 9433   4.936   5.615   4.491 -0.6750 -0.1292 -0.3416
 3143TIP3   OH2 9434   1.219   0.966   2.037  1.0297 -0.2499 -0.2937
 3143TIP3    H1 9435   1.150   0.914   1.995  1.5090 -1.3826  0.2885
 3143TIP3    H2 9436   1.222   1.047   1.986 -2.0524  0.7016  0.7932
 3144TIP3   OH2 9437   6.206   4.957   5.178  0.0795 -0.3815 -0.3188
 3144TIP3    H1 9438   6.186   4.882   5.122  0.5790 -0.8534  0.1161
 3144TIP3    H2 9439   6.296   4.941   5.208  0.5067  0.8121 -0.8818
 3145TIP3   OH2 9440   3.648   1.538   3.825 -0.4183  0.0905 -0.9291
 3145TIP3    H1 9441   3.715   1.594   3.784 -0.7260  1.3839  0.2552
 3145TIP3    H2 9442   3.689   1.452   3.832  0.7572  0.6176 -1.1200
 3146TIP3   OH2 9443   3.387   2.944   1.842 -0.7005  0.2178  0.0836
 3146TIP3    H1 9444   3.337   3.025   1.849  0.7056  1.0755  0.6598
 3146TIP3    H2 9445   3.401   2.916   1.933  2.0934  1.4621  0.1128
 3147TIP3   OH2 9446   2.424   1.267   0.739 -0.0496  0.3513  0.1813
 3147TIP3    H1 9447   2.370   1.345   0.752 -0.2891  0.2733 -0.3170
 3147TIP3    H2 9448   2.393   1.205   0.805 -1.6607 -0.2657 -1.0935
 3148TIP3   OH2 9449   3.333   2.738   4.612 -0.1166  0.2595  0.3727
 3148TIP3    H1 9450   3.346   2.753   4.706 -1.1928  0.8748  0.4368
 3148TIP3    H2 9451   3.419   2.756   4.573 -0.1847  2.1698  0.9975
 3149TIP3   OH2 9452   4.908   2.216   0.208 -0.5903  0.6262 -0.2509
 3149TIP3    H1 9453   4.957   2.290   0.173 -0.3940  0.3008 -0.6807
 3149TIP3    H2 9454   4.956   2.190   0.286 -0.6000  0.8854 -0.1584
 3150TIP3   OH2 9455   4.285   1.659   2.563 -0.2352  0.4072  0.1047
 3150TIP3    H1 9456   4.250   1.592   2.504 -0.4188  1.2247 -0.7328
 3150TIP3    H2 9457   4.222   1.663   2.635  0.5604 -1.3853  0.9609
 3151TIP3   OH2 9458   0.322   0.720   2.056 -0.0338  0.0938  0.6111
 3151TIP3    H1 9459   0.344   0.651   2.118 -2.2317 -1.5507 -0.3078
 3151TIP3    H2 9460   0.371   0.699   1.977 -1.2246 -0.8546  0.1050
 3152TIP3   OH2 9461   4.201   3.935   4.594 -0.5863 -0.8110 -0.2138
 3152TIP3    H1 9462   4.224   3.991   4.667 -1.5585 -0.9380  0.2148
 3152TIP3    H2 9463   4.168   3.994   4.527 -1.4778 -0.8389  0.1845
 3153TIP3   OH2 9464   2.240   2.197   2.323 -0.1251  0.1016  0.2652
 3153TIP3    H1 9465   2.249   2.148   2.405 -0.6959 -2.4230 -1.0557
 3153TIP3    H2 9466   2.151   2.177   2.294 -0.1682  1.5117 -0.6453
 3154TIP3   OH2 9467   1.022   2.706   2.028 -0.2864  0.3618  0.0227
 3154TIP3    H1 9468   0.970   2.643   2.078  0.3688  0.3617  0.7130
 3154TIP3    H2 9469   0.985   2.791   2.051 -0.0008  0.3608  0.5097
 3155TIP3   OH2 9470   2.477   0.656   4.787 -0.2695 -0.4347  0.1397
 3155TIP3    H1 9471   2.557   0.655   4.840 -0.3024 -0.3321  0.1927
 3155TIP3    H2 9472   2.420   0.719   4.831 -0.2579 -0.2725 -0.0745
 3156TIP3   OH2 9473   1.049   4.628   3.125  0.1874 -0.1979 -0.1885
 3156TIP3    H1 9474   1.066   4.551   3.070 -0.3784  0.3394 -1.1404
 3156TIP3    H2 9475   0.992   4.596   3.194  1.1292 -0.9472  0.2647
 3157TIP3   OH2 9476   6.330   4.517   2.442  0.8522 -0.0343 -0.1163
 3157TIP3    H1 9477   6.269   4.570   2.493  0.3286 -1.1129  0.3959
 3157TIP3    H2 9478   6.415   4.534   2.483  0.9064  1.3889 -0.7651
 3158TIP3   OH2 9479   2.424   4.473   1.690 -0.4649  0.5643 -0.6703
 3158TIP3    H1 9480   2.425   4.395   1.745  0.4368  0.7047 -0.4763
 3158TIP3    H2 9481   2.513   4.508   1.695 -0.3599  0.5863 -2.2244
 3159TIP3   OH2 9482   0.351   3.827   2.555  0.7596 -0.1309  0.5989
 3159TIP3    H1 9483   0.274   3.871   2.591  0.9804 -1.7008  3.2491
 3159TIP3    H2 9484   0.425   3.866   2.601  0.9669 -2.9301  2.9304
 3160TIP3   OH2 9485   3.951   5.091   4.988 -0.8122 -0.5815  0.1742
 3160TIP3    H1 9486   3.954   5.152   5.062 -0.4769  1.4764 -1.4615
 3160TIP3    H2 9487   3.862   5.055   4.991 -0.4266 -1.4884  2.2603
 3161TIP3   OH2 9488   5.242   3.726   3.051 -0.3504  0.0012  0.1588
 3161TIP3    H1 9489   5.258   3.752   3.141 -0.2848 -1.5672  0.6291
 3161TIP3    H2 9490   5.190   3.645   3.058 -0.6049  0.0179 -1.2057
 3162TIP3   OH2 9491   4.354   5.896   1.503  0.0259  0.6756 -0.4089
 3162TIP3    H1 9492   4.385   5.936   1.584 -0.3946 -1.1316  0.7034
 3162TIP3    H2 9493   4.259   5.904   1.506 -0.3016 -2.3911  1.0533
 3163TIP3   OH2 9494   3.129   0.562   1.122  0.2861 -0.0737 -0.1588
 3163TIP3    H1 9495   3.051   0.613   1.145  1.1734 -0.3286  4.1396
 3163TIP3    H2 9496   3.159   0.601   1.040 -2.9858  1.5727 -0.7426
 3164TIP3   OH2 9497   4.065   3.388   1.645 -0.2909 -0.3248 -0.1331
 3164TIP3    H1 9498   4.094   3.319   1.585 -2.2454  0.2402 -1.8158
 3164TIP3    H2 9499   4.067   3.347   1.732  1.0086 -1.6754 -0.7587
 3165TIP3   OH2 9500   5.841   5.300   1.046 -0.0468  0.2157 -0.1401
 3165TIP3    H1 9501   5.911   5.239   1.068  0.1102  0.4002 -0.1271
 3165TIP3    H2 9502   5.779   5.248   0.996  0.5756  0.2811 -1.0005
 3166TIP3   OH2 9503   1.750   4.829   2.265 -0.1495 -0.2264 -0.3893
 3166TIP3    H1 9504   1.812   4.771   2.309  0.8105 -0.4961 -2.0092
 3166TIP3    H2 9505   1.724   4.892   2.332  0.0591 -1.5148  0.9648
 3167TIP3   OH2 9506   4.876   4.939   4.359  0.1048 -0.1654 -0.2963
 3167TIP3    H1 9507   4.830   4.971   4.437 -0.3007 -1.4844  0.0338
 3167TIP3    H2 9508   4.808   4.895   4.308  0.5377 -0.0376 -0.9882
 3168TIP3   OH2 9509   5.465   2.584   0.732 -0.0708  0.0467 -0.0544
 3168TIP3    H1 9510   5.535   2.569   0.669  0.4520  0.9475  0.2939
 3168TIP3    H2 9511   5.466   2.507   0.788 -1.3317 -1.3412 -1.8358
 3169TIP3   OH2 9512   4.167   2.428   3.345 -0.1607 -0.3784  0.4382
 3169TIP3    H1 9513   4.156   2.339   3.380  0.2978  0.1924  2.1359
 3169TIP3    H2 9514   4.259   2.449   3.360 -0.0850  0.1046 -0.6577
 3170TIP3   OH2 9515   5.334   5.350   1.797 -0.4787  0.2456 -0.5393
 3170TIP3    H1 9516   5.303   5.366   1.708 -0.6748 -0.9367 -0.6980
 3170TIP3    H2 9517   5.392   5.274   1.789  1.7960  1.8266 -0.0990
 3171TIP3   OH2 9518   5.851   0.855   0.979 -0.5725 -0.2338  0.0744
 3171TIP3    H1 9519   5.852   0.759   0.980  1.2198 -0.2553 -0.0367
 3171TIP3    H2 9520   5.817   0.879   1.065  2.7243 -1.0569  1.7711
 3172TIP3   OH2 9521   3.097   4.577   2.097 -0.3159  0.3462 -0.3922
 3172TIP3    H1 9522   3.071   4.500   2.148 -0.3782 -0.1069 -1.0983
 3172TIP3    H2 9523   3.133   4.542   2.016 -0.9821  1.0777 -1.0258
 3173TIP3   OH2 9524   5.104   3.118   3.856 -0.3101 -0.1404 -0.3498
 3173TIP3    H1 9525   5.168   3.047   3.852 -1.7135 -1.4153 -1.9120
 3173TIP3    H2 9526   5.049   3.105   3.779 -0.7540  2.5716 -0.5998
 3174TIP3   OH2 9527   5.154   5.735   3.563 -0.7159  0.0909  0.3559
 3174TIP3    H1 9528   5.142   5.660   3.620 -1.6133 -0.8386 -0.9938
 3174TIP3    H2 9529   5.227   5.784   3.602 -0.7808 -0.9291  1.8128
 3175TIP3   OH2 9530   1.995   5.823  -0.022 -0.1878 -0.8442  0.7318
 3175TIP3    H1 9531   2.017   5.914   0.001 -2.9096 -0.2966  1.4573
 3175TIP3    H2 9532   2.009   5.774   0.059  1.1083 -1.0918  0.3868
 3176TIP3   OH2 9533   4.300   0.301   4.499  0.2992  0.1372  0.2535
 3176TIP3    H1 9534   4.379   0.349   4.475  1.4359 -0.3314  2.8124
 3176TIP3    H2 9535   4.303   0.221   4.445 -0.6072  1.8700 -2.5865
 3177TIP3   OH2 9536   0.809   4.136   3.398  0.2124 -0.2932 -0.5398
 3177TIP3    H1 9537   0.895   4.126   3.438 -0.6245 -0.3454  1.3784
 3177TIP3    H2 9538   0.826   4.137   3.304  2.3586  0.3897 -0.2028
 3178TIP3   OH2 9539   4.120   2.173   3.467  0.1282 -0.2878  0.1462
 3178TIP3    H1 9540   4.152   2.126   3.390 -0.8345 -2.1460  0.8004
 3178TIP3    H2 9541   4.175   2.140   3.539  0.1936  0.4801  0.4518
 3179TIP3   OH2 9542   2.622   2.431   3.003  0.5245 -0.4508 -0.0050
 3179TIP3    H1 9543   2.536   2.394   3.021  0.0973  0.6596  0.3337
 3179TIP3    H2 9544   2.629   2.430   2.908 -0.2534  0.2543 -0.0870
 3180TIP3   OH2 9545   6.053   0.488   4.460  0.3246 -0.5358 -0.3098
 3180TIP3    H1 9546   6.021   0.436   4.385  1.5239 -0.4977 -0.8636
 3180TIP3    H2 9547   6.060   0.577   4.426  0.4341 -0.4323 -0.0168
 3181TIP3   OH2 9548   0.564   1.759   1.084  0.5954  0.7504  0.2102
 3181TIP3    H1 9549   0.512   1.785   1.160  1.5783 -0.8221  1.5003
 3181TIP3    H2 9550   0.644   1.721   1.121  0.9549 -0.4075 -1.6031
 3182TIP3   OH2 9551   0.257   5.448   2.303 -0.1483  0.2916  0.0457
 3182TIP3    H1 9552   0.297   5.390   2.238 -2.4249  0.0585 -1.2550
 3182TIP3    H2 9553   0.324   5.514   2.320  1.4048 -1.0176 -0.6909
 3183TIP3   OH2 9554   0.402   1.898   0.548 -0.3851 -0.3829  0.4335
 3183TIP3    H1 9555   0.409   1.816   0.595 -0.7448 -1.0924 -0.7097
 3183TIP3    H2 9556   0.456   1.960   0.597 -0.7530 -1.0879  1.7513
 3184TIP3   OH2 9557   3.737   0.725   3.497 -0.0907  0.7029 -0.0745
 3184TIP3    H1 9558   3.814   0.676   3.526 -0.7944 -0.3279  0.1427
 3184TIP3    H2 9559   3.711   0.682   3.415 -1.0476  0.3308  0.4038
 3185TIP3   OH2 9560   4.714   3.589   5.106  0.3828 -0.6554  0.1818
 3185TIP3    H1 9561   4.764   3.535   5.167 -0.9208 -3.7036 -1.2244
 3185TIP3    H2 9562   4.770   3.595   5.029 -0.4976 -2.3361 -0.6348
 3186TIP3   OH2 9563   2.021   1.232   0.866 -0.3495  0.3221  0.1952
 3186TIP3    H1 9564   1.942   1.196   0.826 -0.0577  0.9944 -1.0555
 3186TIP3    H2 9565   2.031   1.318   0.825 -0.2558  1.2392  2.0644
 3187TIP3   OH2 9566   1.268   0.779   3.038 -0.5481  0.0401 -0.0963
 3187TIP3    H1 9567   1.191   0.809   2.989  0.1102  0.6193 -0.8230
 3187TIP3    H2 9568   1.242   0.697   3.078 -1.9163  0.8094  0.6324
 3188TIP3   OH2 9569   4.500   4.791   0.557  0.4107 -0.1265  0.1169
 3188TIP3    H1 9570   4.510   4.703   0.593 -1.2083 -0.7810 -0.9295
 3188TIP3    H2 9571   4.516   4.849   0.632  1.6727 -1.2872  0.7778
 3189TIP3   OH2 9572   4.821   3.622   2.554  0.3324 -0.0133 -0.5984
 3189TIP3    H1 9573   4.868   3.703   2.534 -1.3291  1.1076 -0.1521
 3189TIP3    H2 9574   4.837   3.607   2.647  1.1678 -0.5769 -0.8230
 3190TIP3   OH2 9575   5.673   2.822   1.670 -0.1626 -0.3985 -0.4075
 3190TIP3    H1 9576   5.754   2.862   1.701  0.6501 -1.5452 -0.9769
 3190TIP3    H2 9577   5.639   2.774   1.745 -1.4535  1.7068  0.4635
 3191TIP3   OH2 9578   5.252   4.381   0.423  0.3115 -0.4266 -0.4162
 3191TIP3    H1 9579   5.250   4.319   0.350  1.9801 -0.0652 -0.8187
 3191TIP3    H2 9580   5.340   4.371   0.460  0.7251  1.8632 -0.6629
 3192TIP3   OH2 9581   3.040   3.481   4.291 -0.4274  0.4337 -0.0249
 3192TIP3    H1 9582   2.964   3.519   4.247 -0.9556 -2.4996 -1.9551
 3192TIP3    H2 9583   3.003   3.426   4.360  0.0777  0.3986  0.2258
 3193TIP3   OH2 9584   4.223   3.016   1.972 -0.0799  0.3235  0.7283
 3193TIP3    H1 9585   4.280   2.939   1.976  0.4704  0.7154  0.6006
 3193TIP3    H2 9586   4.199   3.033   2.063 -0.8205 -0.4457  0.6840
 3194TIP3   OH2 9587   1.546   0.238   2.706 -0.1242 -0.1540  0.0104
 3194TIP3    H1 9588   1.568   0.255   2.797 -0.0473  1.1163 -0.2251
 3194TIP3    H2 9589   1.585   0.310   2.658 -2.2419  0.5745 -0.7552
 3195TIP3   OH2 9590   5.749   5.802   2.728 -0.0831  0.8608  0.1622
 3195TIP3    H1 9591   5.779   5.715   2.699 -0.1896  0.8977 -0.0601
 3195TIP3    H2 9592   5.714   5.843   2.649  1.8393  1.9174 -0.2062
 3196TIP3   OH2 9593   0.410   5.330   4.553 -0.4213 -0.1263  0.2223
 3196TIP3    H1 9594   0.363   5.275   4.616  0.8452 -0.1216  1.2252
 3196TIP3    H2 9595   0.450   5.399   4.607 -0.2002  0.5156 -0.7428
 3197TIP3   OH2 9596   2.004   0.127   3.840 -0.1706 -0.3954 -0.0647
 3197TIP3    H1 9597   2.082   0.121   3.896  0.3191  0.7114 -0.5901
 3197TIP3    H2 9598   1.942   0.179   3.891 -0.0882 -0.1961 -0.1701
 3198TIP3   OH2 9599   2.292   2.107   3.194  0.5691  0.8846  0.3916
 3198TIP3    H1 9600   2.268   2.145   3.279 -0.9090  0.9615 -0.0289
 3198TIP3    H2 9601   2.351   2.034   3.216 -0.5200  0.3215  1.5686
 3199TIP3   OH2 9602   4.718   2.077   4.110 -0.1146 -0.6161 -0.1435
 3199TIP3    H1 9603   4.759   2.144   4.054 -1.7196 -0.1526 -0.8032
 3199TIP3    H2 9604   4.631   2.064   4.073 -1.7974  0.6483  2.9123
 3200TIP3   OH2 9605   0.478   2.069   1.201  0.0452 -0.1623  0.2817
 3200TIP3    H1 9606   0.430   2.104   1.276  0.8449 -0.1808  0.8074
 3200TIP3    H2 9607   0.563   2.113   1.203  0.5088 -1.0219  0.0776
 3201TIP3   OH2 9608   5.219   3.061   4.693  0.0796  0.3489  0.2201
 3201TIP3    H1 9609   5.240   2.985   4.747  0.1186 -1.2409 -1.8662
 3201TIP3    H2 9610   5.179   3.123   4.753  0.1466 -1.2689  2.0512
 3202TIP3   OH2 9611   3.193   0.304   0.938  0.0496  0.0199  0.8535
 3202TIP3    H1 9612   3.187   0.350   1.021  1.2929  1.2508  0.2979
 3202TIP3    H2 9613   3.157   0.366   0.874 -0.6263 -0.7980  0.4262
 3203TIP3   OH2 9614   3.266   3.332   4.552  0.2567 -0.2553 -1.2558
 3203TIP3    H1 9615   3.337   3.287   4.598  1.1513 -0.0504 -2.3899
 3203TIP3    H2 9616   3.286   3.425   4.562 -0.2249 -0.1766 -1.0072
 3204TIP3   OH2 9617   1.686   2.927   0.405 -0.1985  0.8000 -0.1345
 3204TIP3    H1 9618   1.615   2.864   0.401  0.2246  0.3572 -0.9135
 3204TIP3    H2 9619   1.660   2.997   0.345  0.6586 -0.0634 -1.5840
 3205TIP3   OH2 9620   0.419   1.821   0.253 -0.0223  0.3174  0.0185
 3205TIP3    H1 9621   0.336   1.812   0.207 -1.0735 -0.6913  1.9373
 3205TIP3    H2 9622   0.395   1.859   0.338  1.3360 -0.7264  0.9118
 3206TIP3   OH2 9623   5.461   4.668   2.886  0.7479 -0.0659  0.3458
 3206TIP3    H1 9624   5.419   4.610   2.950 -0.5374 -0.0539 -0.4588
 3206TIP3    H2 9625   5.472   4.614   2.808  0.7826  0.4013  0.0260
 3207TIP3   OH2 9626   4.699   3.214   1.362  0.0596 -0.1072 -0.3927
 3207TIP3    H1 9627   4.627   3.151   1.363 -1.4673  1.5378  1.3109
 3207TIP3    H2 9628   4.703   3.245   1.271 -0.8269 -0.8122 -0.6809
 3208TIP3   OH2 9629   1.133   4.154   3.558  0.0010 -0.0657 -0.1837
 3208TIP3    H1 9630   1.211   4.111   3.593  0.8710  0.7778 -1.0089
 3208TIP3    H2 9631   1.110   4.218   3.624 -0.0435 -0.3739  0.1026
 3209TIP3   OH2 9632   4.775   4.957   0.307  0.7242  0.6001 -0.1720
 3209TIP3    H1 9633   4.695   4.905   0.304  0.4377  1.0446 -0.3217
 3209TIP3    H2 9634   4.761   5.026   0.242  1.2729  0.6165 -0.2745
 3210TIP3   OH2 9635   0.907   3.724   3.997 -0.1534  0.3078  0.3827
 3210TIP3    H1 9636   0.875   3.765   3.917  1.3064  0.4586 -0.1567
 3210TIP3    H2 9637   0.895   3.630   3.982  0.6637  0.2998 -0.2794
 3211TIP3   OH2 9638   2.581   0.652   0.357 -0.5821 -0.4176 -0.5218
 3211TIP3    H1 9639   2.538   0.724   0.311  1.0281  1.4963  0.7777
 3211TIP3    H2 9640   2.668   0.647   0.319  0.0443 -0.2358  0.8127
 3212TIP3   OH2 9641   2.382   5.652   1.666 -0.3395  0.1902  0.2846
 3212TIP3    H1 9642   2.381   5.687   1.755 -0.3327  0.2974  0.2426
 3212TIP3    H2 9643   2.448   5.583   1.668  0.0655  0.5706  0.2214
 3213TIP3   OH2 9644   5.063   5.466   5.086 -0.3776 -0.1291 -0.6153
 3213TIP3    H1 9645   4.993   5.488   5.025 -0.8374 -1.6747 -0.6948
 3213TIP3    H2 9646   5.064   5.538   5.149 -1.6233  0.2196 -0.9683
 3214TIP3   OH2 9647   3.951   4.730   3.545  0.4807  0.5453 -0.4753
 3214TIP3    H1 9648   3.870   4.706   3.501  0.8213 -0.8483 -0.3917
 3214TIP3    H2 9649   3.925   4.799   3.607 -0.4917  0.6396 -0.9709
 3215TIP3   OH2 9650   4.536   3.774   2.067 -0.4574 -0.4317  0.1667
 3215TIP3    H1 9651   4.489   3.790   2.148 -0.7548  0.4559 -0.1765
 3215TIP3    H2 9652   4.612   3.831   2.071 -0.6243 -0.1727 -0.3046
 3216TIP3   OH2 9653   4.956   5.909   3.929 -0.0320  0.0470 -0.0130
 3216TIP3    H1 9654   4.933   5.818   3.947 -0.4853  0.1953  0.1628
 3216TIP3    H2 9655   5.049   5.906   3.905  0.1833 -0.3476  0.8597
 3217TIP3   OH2 9656   1.130   0.042   3.356  0.0136 -0.3509  0.1503
 3217TIP3    H1 9657   1.111   0.117   3.300  0.6136  0.6759  1.2533
 3217TIP3    H2 9658   1.095  -0.034   3.310  0.1113  0.5105 -1.3770
 3218TIP3   OH2 9659   4.171   3.619   3.784 -0.0002 -0.1065 -0.5981
 3218TIP3    H1 9660   4.158   3.701   3.737  1.9950  0.6808  0.1594
 3218TIP3    H2 9661   4.153   3.640   3.876 -3.4597 -1.5383 -0.7776
 3219TIP3   OH2 9662   1.724   1.075   4.901  0.0403 -0.4694  0.5132
 3219TIP3    H1 9663   1.804   1.090   4.951 -0.2765 -1.3509  1.3076
 3219TIP3    H2 9664   1.692   0.990   4.930 -0.0276 -1.1432 -1.4059
 3220TIP3   OH2 9665   2.074   2.404   1.847  0.0320  0.4898  0.0126
 3220TIP3    H1 9666   2.072   2.336   1.779  1.9647 -0.8406  1.2031
 3220TIP3    H2 9667   2.032   2.365   1.922 -0.6735  1.3878  0.1048
 3221TIP3   OH2 9668   0.396   5.171   3.520  0.1087  0.1521  0.4232
 3221TIP3    H1 9669   0.433   5.243   3.469 -1.0213  0.6148  0.2190
 3221TIP3    H2 9670   0.309   5.203   3.546 -0.1972 -0.9356  0.7727
 3222TIP3   OH2 9671   4.804   0.417   0.369 -0.0027  0.0343 -0.6110
 3222TIP3    H1 9672   4.829   0.409   0.277 -2.6054 -0.6005 -1.3637
 3222TIP3    H2 9673   4.840   0.501   0.397  0.0130  0.7080 -2.5200
 3223TIP3   OH2 9674   2.939   5.068   2.936  0.0222  0.7507  0.4448
 3223TIP3    H1 9675   2.905   5.007   2.870  0.5224  0.7317  0.2039
 3223TIP3    H2 9676   3.024   5.095   2.903 -0.0938  1.4069  0.6672
 3224TIP3   OH2 9677   5.019   0.168   4.482  0.3709  0.0500 -0.1104
 3224TIP3    H1 9678   5.025   0.127   4.395 -1.6057  0.4375 -0.4757
 3224TIP3    H2 9679   4.925   0.179   4.497  0.7339  1.4504  1.4064
 3225TIP3   OH2 9680   1.050   5.078   3.211  0.1695 -0.2436  0.5446
 3225TIP3    H1 9681   1.086   5.161   3.241  0.4424 -0.5101  0.9632
 3225TIP3    H2 9682   1.014   5.097   3.125  0.8120  0.1619  0.3584
 3226TIP3   OH2 9683   2.181   5.777   1.190 -0.7628 -0.2645 -0.1259
 3226TIP3    H1 9684   2.142   5.860   1.218 -0.2034  0.0578 -0.2842
 3226TIP3    H2 9685   2.239   5.800   1.118  0.5079 -0.5669  0.7514
 3227TIP3   OH2 9686   3.744   0.830   3.958  0.0991  0.1774 -0.4194
 3227TIP3    H1 9687   3.816   0.769   3.944 -0.3492 -0.0845 -1.7859
 3227TIP3    H2 9688   3.685   0.815   3.884 -0.8920  1.0450  0.1587
 3228TIP3   OH2 9689   3.970   1.642   3.996  0.0491  0.0211 -0.4926
 3228TIP3    H1 9690   4.028   1.572   4.024 -0.0186  0.8381  1.9699
 3228TIP3    H2 9691   3.959   1.629   3.902  1.0138 -2.4931 -0.3205
 3229TIP3   OH2 9692   3.233   3.990   4.366 -0.2866  0.6771  0.6064
 3229TIP3    H1 9693   3.199   3.901   4.364  0.4210  0.4212 -0.0189
 3229TIP3    H2 9694   3.170   4.038   4.420 -1.7513  0.2465 -0.6494
 3230TIP3   OH2 9695   4.809   0.159   3.591 -0.4118  0.0657 -0.4562
 3230TIP3    H1 9696   4.801   0.137   3.499 -1.7319  0.0436 -0.3636
 3230TIP3    H2 9697   4.840   0.079   3.633 -2.3518 -0.7751 -0.5335
 3231TIP3   OH2 9698   0.567   2.217   3.654  0.6127  0.6211  0.3394
 3231TIP3    H1 9699   0.652   2.239   3.614  1.0405  0.4649  1.1366
 3231TIP3    H2 9700   0.529   2.302   3.677  1.1926  0.6595  1.2394
 3232TIP3   OH2 9701   2.254   0.907   3.112  0.3229  0.6715  0.0050
 3232TIP3    H1 9702   2.234   0.816   3.088  0.2938  0.8957 -0.8741
 3232TIP3    H2 9703   2.332   0.901   3.167 -0.4839  0.0138  1.1213
 3233TIP3   OH2 9704   3.540   2.424   3.888 -0.1558 -0.3115 -0.0013
 3233TIP3    H1 9705   3.458   2.452   3.928 -0.7526 -1.2977 -0.4982
 3233TIP3    H2 9706   3.518   2.411   3.796  0.4745 -0.9193 -0.0702
 3234TIP3   OH2 9707   1.313   3.635   5.090 -0.5998 -0.6692  0.0468
 3234TIP3    H1 9708   1.361   3.634   5.007 -1.1140  0.6447 -0.2934
 3234TIP3    H2 9709   1.380   3.656   5.155 -0.5580  0.4812 -0.3379
 3235TIP3   OH2 9710   3.537   4.957   3.579 -0.9963  0.1214 -0.5015
 3235TIP3    H1 9711   3.482   4.993   3.509  0.3725 -1.8014 -2.7528
 3235TIP3    H2 9712   3.500   4.870   3.595  0.3219 -0.5211 -0.8304
 3236TIP3   OH2 9713   1.946   2.609   1.995  0.1181  0.5552 -0.1087
 3236TIP3    H1 9714   2.012   2.653   2.048 -1.5222  0.2767  2.4050
 3236TIP3    H2 9715   1.992   2.536   1.954  1.0143 -1.6007  4.0634
 3237TIP3   OH2 9716   3.827   3.701   0.850  0.9681  0.5956  0.0589
 3237TIP3    H1 9717   3.780   3.621   0.875  0.9276  1.2297  2.2471
 3237TIP3    H2 9718   3.760   3.756   0.810  0.2480  0.6860  1.3107
 3238TIP3   OH2 9719   0.520   1.025   2.829 -0.1403  0.2881  0.2619
 3238TIP3    H1 9720   0.493   1.076   2.906 -0.3509 -1.6369  1.5233
 3238TIP3    H2 9721   0.441   0.980   2.800  0.4133 -0.7597  0.3232
 3239TIP3   OH2 9722   5.506   3.261   0.505  0.7143  0.2231 -0.2439
 3239TIP3    H1 9723   5.421   3.261   0.549 -0.7393  1.4700 -2.8297
 3239TIP3    H2 9724   5.565   3.307   0.565 -0.6691  0.2156  1.1687
 3240TIP3   OH2 9725   2.014   5.735   3.865 -0.1393 -0.6272  0.5557
 3240TIP3    H1 9726   2.060   5.666   3.816 -1.0884 -0.2598 -0.9197
 3240TIP3    H2 9727   1.934   5.693   3.896 -0.4116 -0.3762  0.2053
 3241TIP3   OH2 9728   1.512   5.526   1.211 -0.0170 -0.4605 -0.3569
 3241TIP3    H1 9729   1.564   5.582   1.154  0.3255  0.4229  0.8139
 3241TIP3    H2 9730   1.569   5.505   1.284 -0.7193 -0.9278  0.0719
 3242TIP3   OH2 9731   1.118   4.585   1.872  0.1706 -0.1624  0.5288
 3242TIP3    H1 9732   1.068   4.660   1.904 -0.0575 -0.2092  0.2817
 3242TIP3    H2 9733   1.209   4.612   1.880  0.0821  0.9438 -1.4659
 3243TIP3   OH2 9734   3.903   4.806   3.938 -0.2256 -0.3593 -0.0026
 3243TIP3    H1 9735   3.954   4.771   4.012  0.2000  0.8226  0.2946
 3243TIP3    H2 9736   3.885   4.896   3.963  0.2300  0.1796 -1.5023
 3244TIP3   OH2 9737   4.252   0.356   1.201 -0.4082 -0.2672  0.0678
 3244TIP3    H1 9738   4.296   0.427   1.154 -1.5342 -0.2044 -0.9106
 3244TIP3    H2 9739   4.190   0.400   1.258 -0.2931 -0.4281  0.3206
 3245TIP3   OH2 9740   2.510   3.506   0.981  0.2065 -0.0086 -0.1167
 3245TIP3    H1 9741   2.554   3.562   1.045  2.4444 -0.5679 -1.0841
 3245TIP3    H2 9742   2.448   3.565   0.938  1.9034  1.5731 -0.5353
 3246TIP3   OH2 9743   2.948   4.201   0.872  0.4456  0.2398  0.2601
 3246TIP3    H1 9744   2.870   4.235   0.914 -0.0069  0.3127 -0.6192
 3246TIP3    H2 9745   2.931   4.107   0.861  0.1338  0.3893 -0.6437
 3247TIP3   OH2 9746   3.277   0.281   1.678  0.6137 -0.4090  0.2194
 3247TIP3    H1 9747   3.229   0.295   1.597  2.3216  0.5628 -0.6854
 3247TIP3    H2 9748   3.347   0.220   1.655  1.6170  0.5125  0.7333
 3248TIP3   OH2 9749   5.486   0.336   0.867  0.3713  0.0174  0.2804
 3248TIP3    H1 9750   5.527   0.394   0.932  2.0087 -2.2113  1.4013
 3248TIP3    H2 9751   5.410   0.300   0.912 -0.4387  0.9698 -0.2884
 3249TIP3   OH2 9752   1.682   1.230   4.013 -0.7054  0.0413 -0.2088
 3249TIP3    H1 9753   1.704   1.187   3.931 -1.7514 -1.8273  0.4064
 3249TIP3    H2 9754   1.746   1.300   4.023  2.1822 -2.3758 -0.5310
 3250TIP3   OH2 9755   3.067   4.835   4.169 -0.1869 -0.0698  0.0188
 3250TIP3    H1 9756   3.027   4.910   4.126 -0.0351  0.7911  1.3157
 3250TIP3    H2 9757   3.042   4.843   4.261  1.2075 -0.6732  0.4872
 3251TIP3   OH2 9758   2.470   5.244   0.694 -0.2075 -0.1796 -0.0048
 3251TIP3    H1 9759   2.383   5.284   0.697 -0.8973 -1.6136 -0.1530
 3251TIP3    H2 9760   2.455   5.152   0.718  0.8255 -1.1403 -2.6637
 3252TIP3   OH2 9761   6.123   1.454   4.313 -0.0982  0.2590  0.1137
 3252TIP3    H1 9762   6.207   1.499   4.317  0.8145 -1.2716 -0.8785
 3252TIP3    H2 9763   6.075   1.500   4.244  1.9954 -1.9541 -3.1227
 3253TIP3   OH2 9764   1.092   5.278   4.179 -0.6934  0.7135  0.1807
 3253TIP3    H1 9765   1.070   5.360   4.223 -0.0134  0.8918  0.2029
 3253TIP3    H2 9766   1.160   5.302   4.116  1.3998 -0.2411  1.9695
 3254TIP3   OH2 9767   4.130   5.758   3.065 -0.2938 -0.1266  0.2297
 3254TIP3    H1 9768   4.138   5.684   3.125 -1.8893  0.5245  1.3036
 3254TIP3    H2 9769   4.220   5.777   3.038  0.5833 -0.0577  2.9006
 3255TIP3   OH2 9770   5.995   5.123   2.235  0.0204  0.3193  0.2286
 3255TIP3    H1 9771   5.950   5.186   2.178  1.3999  2.2366  1.1394
 3255TIP3    H2 9772   5.937   5.047   2.237 -2.7094  2.2448  0.5723
 3256TIP3   OH2 9773   5.788   1.106   0.369 -0.0012 -0.1895  0.0421
 3256TIP3    H1 9774   5.866   1.062   0.403  1.5296  2.6798  0.5713
 3256TIP3    H2 9775   5.783   1.081   0.277  1.0482 -1.0749  0.2156
 3257TIP3   OH2 9776   5.098   5.528   0.803  0.0201 -0.3849  0.1468
 3257TIP3    H1 9777   5.067   5.570   0.723 -0.1225  0.1402  0.4778
 3257TIP3    H2 9778   5.040   5.452   0.814  0.4979 -0.8840 -0.6345
 3258TIP3   OH2 9779   6.088   0.468   4.721 -0.5766  0.4067 -0.7251
 3258TIP3    H1 9780   6.081   0.373   4.733 -1.1275  0.5256 -0.0407
 3258TIP3    H2 9781   6.067   0.481   4.629  0.1735 -0.1991 -0.9903
 3259TIP3   OH2 9782   0.590   2.235   3.975 -0.8370 -0.4582  0.2909
 3259TIP3    H1 9783   0.640   2.165   4.017 -0.4793 -0.8009 -0.6670
 3259TIP3    H2 9784   0.520   2.190   3.928 -1.0760 -0.1068  0.3071
 3260TIP3   OH2 9785   2.630   5.392   1.195  0.2147 -0.0692 -0.5518
 3260TIP3    H1 9786   2.664   5.463   1.140  0.3357  0.2749 -0.0313
 3260TIP3    H2 9787   2.535   5.406   1.196 -0.0041 -1.1134 -2.1235
 3261TIP3   OH2 9788   0.401   2.813   0.299  0.8569  0.6248 -0.1899
 3261TIP3    H1 9789   0.439   2.882   0.353 -0.4942  0.1739  1.4282
 3261TIP3    H2 9790   0.311   2.804   0.332  1.0716 -2.0995 -0.1299
 3262TIP3   OH2 9791   0.397   0.134   2.646 -0.2502 -0.3008 -0.0851
 3262TIP3    H1 9792   0.431   0.124   2.735 -2.0157 -2.0506  0.4687
 3262TIP3    H2 9793   0.404   0.046   2.608 -1.3275 -0.0233 -0.9711
 3263TIP3   OH2 9794   0.362   1.681   3.855  0.1436 -0.3179 -0.8180
 3263TIP3    H1 9795   0.388   1.773   3.850 -0.6077 -0.0894 -0.7194
 3263TIP3    H2 9796   0.388   1.653   3.942 -0.7495  0.1667 -0.3829
 3264TIP3   OH2 9797   0.608   5.259   1.340 -0.4513 -0.1503 -0.0934
 3264TIP3    H1 9798   0.545   5.261   1.267  0.0616 -1.3094 -0.5836
 3264TIP3    H2 9799   0.667   5.332   1.322 -1.5588  0.8744  0.3035
 3265TIP3   OH2 9800   1.507   4.796   2.493 -0.1136  0.0074 -0.2079
 3265TIP3    H1 9801   1.525   4.877   2.445  0.3134  1.7306  2.6282
 3265TIP3    H2 9802   1.412   4.785   2.485 -0.1018  0.4499 -1.0932
 3266TIP3   OH2 9803   4.901   5.220   3.226 -0.2271  0.2762 -0.2133
 3266TIP3    H1 9804   4.894   5.126   3.207  1.2111 -0.5326  2.6941
 3266TIP3    H2 9805   4.969   5.252   3.167 -0.8509 -0.4386 -1.3545
 3267TIP3   OH2 9806   1.408   1.535   0.305  0.0043 -0.1899  0.0917
 3267TIP3    H1 9807   1.370   1.583   0.378  0.2921  2.7477 -1.5325
 3267TIP3    H2 9808   1.479   1.591   0.274 -0.2747 -1.1916 -2.6114
 3268TIP3   OH2 9809   0.259   4.858   3.710  0.2870 -0.1174 -0.1873
 3268TIP3    H1 9810   0.335   4.801   3.699 -0.9925 -1.5799 -2.1626
 3268TIP3    H2 9811   0.241   4.857   3.804  2.2171 -0.3414  0.2130
 3269TIP3   OH2 9812   2.768   4.673   2.193 -0.0252 -0.0367  0.1973
 3269TIP3    H1 9813   2.753   4.744   2.256 -0.0905 -1.0698  1.3982
 3269TIP3    H2 9814   2.848   4.631   2.224 -0.6191 -1.1986  0.2132
 3270TIP3   OH2 9815   3.476   4.100   2.044  0.3487  0.1677  0.6949
 3270TIP3    H1 9816   3.564   4.066   2.060 -0.3577 -1.2277  1.8664
 3270TIP3    H2 9817   3.438   4.038   1.981 -0.9001 -1.2432  2.7311
 3271TIP3   OH2 9818   2.159   2.505   3.189  0.3850 -0.2629 -0.6748
 3271TIP3    H1 9819   2.105   2.468   3.258 -1.4212  0.2832 -1.7128
 3271TIP3    H2 9820   2.110   2.583   3.160  2.5312  1.1909 -0.6165
 3272TIP3   OH2 9821   3.901   2.746   4.889 -0.6270  0.1031  0.5489
 3272TIP3    H1 9822   3.850   2.786   4.959  0.7433  0.4477  1.3992
 3272TIP3    H2 9823   3.990   2.781   4.901  0.3637 -2.2343  0.5844
 3273TIP3   OH2 9824   4.084   0.961   4.110  0.4401 -0.4002 -0.4986
 3273TIP3    H1 9825   4.009   0.901   4.109  0.0854  0.0384 -0.7826
 3273TIP3    H2 9826   4.103   0.977   4.018  0.4906 -0.0317 -0.4264
 3274TIP3   OH2 9827   5.092   0.334   4.886  0.1004  0.0487 -0.3219
 3274TIP3    H1 9828   5.111   0.273   4.957 -2.9783  1.2844  1.7591
 3274TIP3    H2 9829   5.173   0.385   4.876  0.9297 -0.7968  1.6541
 3275TIP3   OH2 9830   1.683   0.881   2.864  0.0374 -0.5712  0.0104
 3275TIP3    H1 9831   1.629   0.833   2.928  1.5008 -1.1467  0.8635
 3275TIP3    H2 9832   1.728   0.947   2.916 -1.6038  1.5201 -1.0867
 3276TIP3   OH2 9833   3.300   4.506   2.530 -0.0502 -0.1047  0.1640
 3276TIP3    H1 9834   3.315   4.599   2.513 -0.0227  0.1222  1.3006
 3276TIP3    H2 9835   3.371   4.481   2.590  0.3724 -1.0480 -0.7023
 3277TIP3   OH2 9836   6.251   5.222   2.175 -0.2401 -0.2594  0.4801
 3277TIP3    H1 9837   6.262   5.143   2.121  0.0130 -0.0321  0.1994
 3277TIP3    H2 9838   6.168   5.208   2.219  0.0876 -0.9647  0.8954
 3278TIP3   OH2 9839   2.852   5.552   2.456 -0.2302 -0.5016 -0.1438
 3278TIP3    H1 9840   2.775   5.598   2.487  0.5299 -0.0968  1.2403
 3278TIP3    H2 9841   2.926   5.607   2.483  0.6920 -2.3043  1.2554
 3279TIP3   OH2 9842   0.070   5.294   0.729 -0.1871  0.4228 -0.3502
 3279TIP3    H1 9843   0.087   5.249   0.812 -0.5268  0.6192 -0.1719
 3279TIP3    H2 9844   0.003   5.359   0.750  0.2276  0.9460 -0.6297
 3280TIP3   OH2 9845   4.772   3.680   0.119  0.3916  0.7234  0.0387
 3280TIP3    H1 9846   4.765   3.742   0.046  0.6362  0.4801 -0.1938
 3280TIP3    H2 9847   4.760   3.594   0.078  0.2583  0.6045  0.3289
 3281TIP3   OH2 9848   6.287   5.051   4.275 -0.4268 -0.2544  0.5196
 3281TIP3    H1 9849   6.205   5.075   4.231 -1.6771 -2.5947  1.4318
 3281TIP3    H2 9850   6.350   5.044   4.203 -1.4306 -0.0982 -0.4158
 3282TIP3   OH2 9851   3.274   4.302   1.486  0.1441  0.2165  0.5033
 3282TIP3    H1 9852   3.257   4.362   1.558 -0.6532  0.6602 -0.0365
 3282TIP3    H2 9853   3.342   4.243   1.519  0.9411  1.4000  1.0548
 3283TIP3   OH2 9854   1.689   0.475   1.720 -0.7608 -0.3029  0.0674
 3283TIP3    H1 9855   1.696   0.546   1.656  0.5110 -0.6602 -0.2140
 3283TIP3    H2 9856   1.721   0.514   1.802 -2.7229  0.2633  0.6250
 3284TIP3   OH2 9857   1.891   4.761   1.609  0.1855 -0.0219 -0.4705
 3284TIP3    H1 9858   1.801   4.758   1.575 -0.0915  1.1053  0.1108
 3284TIP3    H2 9859   1.942   4.801   1.538  0.1336 -0.2160 -0.6172
 3285TIP3   OH2 9860   0.940   5.788   0.945 -0.0648 -0.8921 -0.3302
 3285TIP3    H1 9861   0.893   5.859   0.902 -0.2616 -0.5275  0.4752
 3285TIP3    H2 9862   0.904   5.786   1.033  2.3510  0.2647  0.7613
 3286TIP3   OH2 9863   4.936   4.522   5.090  1.0121 -0.3481  0.6485
 3286TIP3    H1 9864   4.917   4.547   5.000  0.8357 -1.1296  0.4598
 3286TIP3    H2 9865   4.944   4.427   5.087  0.8785 -0.3916  1.4813
 3287TIP3   OH2 9866   4.882   1.139   2.915  0.4244 -0.6529  0.6766
 3287TIP3    H1 9867   4.929   1.162   2.996 -0.8586  0.8939  1.0277
 3287TIP3    H2 9868   4.935   1.070   2.876  4.0198  2.1487  0.1153
 3288TIP3   OH2 9869   2.722   1.159   0.869 -0.3944  0.1771  0.0363
 3288TIP3    H1 9870   2.661   1.102   0.823 -1.5746 -0.2193  1.9999
 3288TIP3    H2 9871   2.723   1.240   0.818 -1.4920 -0.3167 -0.7960
 3289TIP3   OH2 9872   0.100   4.861   0.840 -0.0322  0.5939  0.4802
 3289TIP3    H1 9873   0.168   4.815   0.791 -1.4083 -0.3479 -0.6345
 3289TIP3    H2 9874   0.094   4.813   0.922  1.7737  1.7187  1.3260
 3290TIP3   OH2 9875   1.355   0.478   4.303  0.4365 -0.3019  0.3872
 3290TIP3    H1 9876   1.381   0.441   4.219  0.3566  0.2493  0.1204
 3290TIP3    H2 9877   1.329   0.402   4.355  0.1664 -0.6146 -0.1939
 3291TIP3   OH2 9878   5.929   4.305   2.779 -0.3815  0.7193 -0.2533
 3291TIP3    H1 9879   5.850   4.304   2.832  0.8801  0.8573  1.7616
 3291TIP3    H2 9880   5.929   4.220   2.735 -0.3135 -0.5144  1.9399
 3292TIP3   OH2 9881   1.455   4.566   4.586 -0.7826 -0.4077  0.1928
 3292TIP3    H1 9882   1.378   4.607   4.627 -0.5271 -1.4807  1.7833
 3292TIP3    H2 9883   1.525   4.577   4.649 -0.0420 -0.9374 -0.5225
 3293TIP3   OH2 9884   6.106   1.462   0.163 -0.2428 -0.2609 -0.1895
 3293TIP3    H1 9885   6.091   1.431   0.252  2.4864  1.4501  1.0023
 3293TIP3    H2 9886   6.185   1.415   0.134 -0.1343  0.4226 -1.0416
 3294TIP3   OH2 9887   4.756   1.485   3.930  0.5501 -0.1310 -0.0654
 3294TIP3    H1 9888   4.725   1.575   3.936  0.3352 -0.1397 -0.8488
 3294TIP3    H2 9889   4.849   1.493   3.912  1.3095 -0.1088  3.2463
 3295TIP3   OH2 9890   3.844   4.203   5.048  0.4462  0.1698  0.4643
 3295TIP3    H1 9891   3.799   4.225   4.967  0.6123  2.0724  0.8476
 3295TIP3    H2 9892   3.830   4.109   5.058 -1.2840  0.2531 -0.7214
 3296TIP3   OH2 9893   5.445   2.173   1.848  0.6618  0.1213  0.1751
 3296TIP3    H1 9894   5.468   2.171   1.755 -2.1467  1.1791 -0.6409
 3296TIP3    H2 9895   5.393   2.253   1.858 -2.0758 -1.6924  1.8322
 3297TIP3   OH2 9896   0.674   1.451   2.131  0.1934 -0.2306  0.3853
 3297TIP3    H1 9897   0.603   1.389   2.146  0.6542 -1.0998 -0.8458
 3297TIP3    H2 9898   0.637   1.517   2.072  1.0773 -2.1391 -2.4861
 3298TIP3   OH2 9899   4.928   2.870   3.393  0.7339 -0.7311  0.1607
 3298TIP3    H1 9900   5.017   2.877   3.426  0.5977  0.2051  0.3578
 3298TIP3    H2 9901   4.878   2.834   3.466  0.3491  1.7352  1.1819
 3299TIP3   OH2 9902   1.749   2.985   2.541  1.0411 -1.2151  0.2968
 3299TIP3    H1 9903   1.791   2.944   2.616 -1.6479 -3.1643  0.9079
 3299TIP3    H2 9904   1.715   2.912   2.489 -1.3498  0.1134 -0.1846
 3300TIP3   OH2 9905   1.903   2.860   0.549 -0.2282 -0.1548 -0.1977
 3300TIP3    H1 9906   1.843   2.901   0.486  2.8116  0.1039 -3.1853
 3300TIP3    H2 9907   1.897   2.915   0.626 -2.2372  1.0925 -1.1526
 3301TIP3   OH2 9908   1.058   1.928   0.016  0.2339 -0.3242 -0.1153
 3301TIP3    H1 9909   1.026   2.016   0.033  0.5238  0.1632 -1.8837
 3301TIP3    H2 9910   0.981   1.881  -0.016  0.4068 -0.2751 -0.6104
 3302TIP3   OH2 9911   1.797   4.387   4.928 -0.3618 -0.1780 -0.3182
 3302TIP3    H1 9912   1.716   4.427   4.960 -0.3828 -0.9994  0.6844
 3302TIP3    H2 9913   1.806   4.306   4.978  1.6206  0.3993  0.3533
 3303TIP3   OH2 9914   0.354   5.421   2.852  0.2180  0.6748  0.0875
 3303TIP3    H1 9915   0.295   5.462   2.789 -0.2994 -1.0264 -0.6199
 3303TIP3    H2 9916   0.441   5.429   2.814 -0.2033 -1.2197 -1.4282
 3304TIP3   OH2 9917   1.060   4.330   1.837 -0.0748 -0.1659  0.1960
 3304TIP3    H1 9918   1.065   4.425   1.845 -1.1919 -0.2115  1.8541
 3304TIP3    H2 9919   1.011   4.302   1.914 -1.0157 -1.9629 -0.9899
 3305TIP3   OH2 9920   1.241   3.415   2.735 -0.3586 -0.4346  0.0565
 3305TIP3    H1 9921   1.180   3.360   2.783 -0.4879  0.7610  1.3215
 3305TIP3    H2 9922   1.318   3.421   2.791  0.3565 -0.7489 -0.8708
 3306TIP3   OH2 9923   6.287   0.327   0.940 -0.2919  0.1049 -0.0126
 3306TIP3    H1 9924   6.304   0.294   1.028  1.3989 -1.1203 -0.7495
 3306TIP3    H2 9925   6.357   0.390   0.923 -0.5578  0.2759 -0.5235
 3307TIP3   OH2 9926   5.317   5.736   0.367  0.1590  0.1329 -0.1339
 3307TIP3    H1 9927   5.412   5.739   0.366  0.1462  0.6184 -0.2178
 3307TIP3    H2 9928   5.291   5.775   0.283 -0.1392  1.4017  0.5281
 3308TIP3   OH2 9929   1.316   2.118   0.495  0.3356  0.4312 -0.0271
 3308TIP3    H1 9930   1.239   2.083   0.450 -0.1886  1.8998 -0.3472
 3308TIP3    H2 9931   1.280   2.166   0.570  1.0088  0.3442  0.3568
 3309TIP3   OH2 9932   6.121   4.441   1.409  0.0261  0.2687  0.0479
 3309TIP3    H1 9933   6.126   4.534   1.433 -0.3512  0.2040  0.3959
 3309TIP3    H2 9934   6.126   4.441   1.314 -0.5122  0.6927  0.0085
 3310TIP3   OH2 9935   6.211   5.470   0.809 -0.1341  0.1461 -0.1413
 3310TIP3    H1 9936   6.144   5.526   0.769  1.2531 -0.2829 -3.4211
 3310TIP3    H2 9937   6.253   5.525   0.875 -2.4814  0.9954  0.7657
 3311TIP3   OH2 9938   4.991   2.177   1.944  0.0685 -0.2007  0.6644
 3311TIP3    H1 9939   5.052   2.215   2.007 -0.3495  0.9228  0.4159
 3311TIP3    H2 9940   5.047   2.147   1.872  0.4848 -0.8881  1.2638
 3312TIP3   OH2 9941   5.476   3.969   4.646 -0.0777  0.4789  0.3346
 3312TIP3    H1 9942   5.530   3.914   4.590 -1.0753 -2.0234  1.7025
 3312TIP3    H2 9943   5.538   4.032   4.684  0.8489  1.3060 -2.3349
 3313TIP3   OH2 9944   2.966   4.772   3.793 -0.6856  0.4087 -0.2555
 3313TIP3    H1 9945   3.042   4.827   3.774  0.0932 -1.1877 -2.1908
 3313TIP3    H2 9946   2.896   4.806   3.738 -0.1485 -0.5804 -1.6001
 3314TIP3   OH2 9947   1.019   4.771   2.248  0.8990 -0.2514  0.1588
 3314TIP3    H1 9948   1.034   4.769   2.343  0.4229 -0.2056  0.2336
 3314TIP3    H2 9949   1.100   4.735   2.211  0.8653 -0.7977  0.6023
 3315TIP3   OH2 9950   5.610   0.498   2.251 -0.2565  0.2319  0.3057
 3315TIP3    H1 9951   5.626   0.443   2.328 -0.7629  2.2389  1.9254
 3315TIP3    H2 9952   5.522   0.474   2.222  0.4105 -1.4352 -0.4981
 3316TIP3   OH2 9953   1.287   5.774   1.608  0.3103  0.1249  0.4533
 3316TIP3    H1 9954   1.217   5.732   1.657 -0.7913  0.8975 -0.4036
 3316TIP3    H2 9955   1.248   5.793   1.522  1.1345  1.7846  0.4080
 3317TIP3   OH2 9956   6.278   1.298   4.840 -0.3019 -0.5313  0.0653
 3317TIP3    H1 9957   6.297   1.212   4.802 -0.3793  0.2596 -1.8774
 3317TIP3    H2 9958   6.198   1.285   4.890 -0.3510 -1.5723 -0.2629
 3318TIP3   OH2 9959   5.977   3.200   4.570  0.1345  0.1214 -0.0108
 3318TIP3    H1 9960   5.973   3.278   4.625  0.3561 -0.8199  1.4009
 3318TIP3    H2 9961   5.889   3.163   4.576  0.6907 -1.0483  1.3587
 3319TIP3   OH2 9962   1.583   4.123   3.649  0.5571  0.2881 -0.2529
 3319TIP3    H1 9963   1.582   4.102   3.742 -2.1061  0.8941 -0.0580
 3319TIP3    H2 9964   1.522   4.060   3.610  1.7791 -0.0801 -1.6477
 3320TIP3   OH2 9965   5.153   3.119   4.141  0.2203 -0.6098 -0.5238
 3320TIP3    H1 9966   5.151   3.122   4.045  1.0483  1.2018 -0.5158
 3320TIP3    H2 9967   5.074   3.069   4.164  0.1146 -1.2705 -2.1341
 3321TIP3   OH2 9968   5.260   4.494   4.778  0.4399  0.4370  0.0471
 3321TIP3    H1 9969   5.237   4.449   4.859 -0.4422 -0.8965 -0.8934
 3321TIP3    H2 9970   5.210   4.575   4.779 -2.2528 -1.0949 -0.6369
 3322TIP3   OH2 9971   2.475   3.343   2.575 -0.3753 -0.1115  0.0579
 3322TIP3    H1 9972   2.408   3.367   2.511 -1.8789 -0.5557  1.3789
 3322TIP3    H2 9973   2.479   3.247   2.572 -0.9209 -0.1825  1.0260
 3323TIP3   OH2 9974   4.852   3.654   0.706 -0.2123 -0.1174 -0.6639
 3323TIP3    H1 9975   4.941   3.620   0.697 -0.8705 -2.7640  1.3332
 3323TIP3    H2 9976   4.862   3.748   0.715  2.6727 -0.4945  1.6060
 3324TIP3   OH2 9977   4.400   5.752   2.894 -0.0973 -0.6546 -0.1211
 3324TIP3    H1 9978   4.435   5.690   2.959 -2.1714 -0.3739  1.3637
 3324TIP3    H2 9979   4.451   5.735   2.815  1.8613 -1.7142  1.2844
 3325TIP3   OH2 9980   2.348   4.916   1.276 -0.0319  0.4764  0.3465
 3325TIP3    H1 9981   2.268   4.968   1.276  0.1753  0.8067  0.9494
 3325TIP3    H2 9982   2.404   4.958   1.342  1.3691  1.3815 -1.3209
 3326TIP3   OH2 9983   4.096   5.546   2.669 -0.3831  0.3338 -0.3405
 3326TIP3    H1 9984   4.101   5.638   2.695 -1.0061  0.2085  0.2387
 3326TIP3    H2 9985   4.182   5.510   2.692 -1.1886 -0.0027  2.4851
 3327TIP3   OH2 9986   0.432   1.908   3.662 -0.1988  0.2724 -0.1304
 3327TIP3    H1 9987   0.376   1.980   3.691  0.2417  0.4524  0.2714
 3327TIP3    H2 9988   0.517   1.948   3.645 -0.0962 -0.0616 -0.4211
 3328TIP3   OH2 9989   4.091   2.081   1.624  0.0171 -0.3221  0.5263
 3328TIP3    H1 9990   4.086   2.128   1.541  1.4703 -0.0130  0.5947
 3328TIP3    H2 9991   3.999   2.067   1.649 -0.4440 -0.7591 -1.2977
 3329TIP3   OH2 9992   3.084   3.694   2.955  0.5508 -0.1789 -0.1450
 3329TIP3    H1 9993   3.049   3.703   3.044  0.1242 -0.6346 -0.2618
 3329TIP3    H2 9994   3.083   3.600   2.938 -1.5391  0.0145 -1.4693
 3330TIP3   OH2 9995   5.578   4.006   1.112  0.2151  0.5130  0.0940
 3330TIP3    H1 9996   5.501   4.014   1.056 -0.7046  0.3766  1.3073
 3330TIP3    H2 9997   5.579   4.087   1.163  2.1662  1.5512 -1.4125
 3331TIP3   OH2 9998   0.509   4.784   0.661 -0.1211  0.3766 -0.0800
 3331TIP3    H1 9999   0.558   4.855   0.701  0.3249 -0.4488  0.8583
 3331TIP3    H210000   0.546   4.704   0.698  1.1209 -0.5141 -2.9794
 3332TIP3   OH210001   4.336   2.406   2.808  0.0178 -0.0441  0.0988
 3332TIP3    H110002   4.348   2.424   2.901 -1.1626 -0.0241  0.2688
 3332TIP3    H210003   4.346   2.311   2.800  0.5826  0.0101  0.1678
 3333TIP3   OH210004   0.416   5.000   3.152 -0.2631 -0.1741  0.0142
 3333TIP3    H110005   0.328   5.033   3.172  0.0463 -0.3686  1.8459
 3333TIP3    H210006   0.436   5.035   3.065 -1.4798  1.2496  0.2766
 3334TIP3   OH210007   5.915   0.040   4.297 -0.1520  0.1514 -0.2533
 3334TIP3    H110008   5.847   0.032   4.230  1.0175  1.8613 -1.7788
 3334TIP3    H210009   5.905  -0.037   4.353 -2.6371 -0.1601 -1.0436
 3335TIP3   OH210010   4.590   2.201   1.592  0.1432 -0.1496  0.2699
 3335TIP3    H110011   4.538   2.262   1.645 -0.8597 -1.0314  0.3393
 3335TIP3    H210012   4.613   2.130   1.651 -2.7592 -2.2113 -0.8264
 3336TIP3   OH210013   4.620   3.729   4.666  0.5611 -0.3159 -0.1478
 3336TIP3    H110014   4.668   3.740   4.748  0.9833  0.6797 -0.5237
 3336TIP3    H210015   4.687   3.733   4.598  0.0638  0.0837 -0.6151
 3337TIP3   OH210016   3.373   3.604   4.613 -0.3519 -0.8040  0.2361
 3337TIP3    H110017   3.445   3.634   4.559  0.3222 -0.0819  1.4755
 3337TIP3    H210018   3.360   3.675   4.677 -2.0420 -0.9897  0.1568
 3338TIP3   OH210019   5.012   0.614   4.584  0.2742 -0.4284 -0.7906
 3338TIP3    H110020   5.016   0.594   4.678 -0.3356 -1.0753 -0.8964
 3338TIP3    H210021   4.966   0.698   4.580  0.8178 -0.1008 -0.4893
 3339TIP3   OH210022   0.793   3.333   1.974  0.0266  0.0384 -0.0227
 3339TIP3    H110023   0.802   3.263   2.038  0.0930  0.3962  0.3621
 3339TIP3    H210024   0.880   3.341   1.934  0.1237  0.1693  0.2136
 3340TIP3   OH210025   5.480   4.370   4.455  0.6600 -0.5841  0.0137
 3340TIP3    H110026   5.530   4.371   4.536  1.4109  0.1915 -0.4349
 3340TIP3    H210027   5.527   4.309   4.399  1.2604  0.2887 -0.4751
 3341TIP3   OH210028   4.712   2.557   1.766  0.4136 -0.1634 -0.0880
 3341TIP3    H110029   4.620   2.578   1.784  1.1361  1.7630  1.8515
 3341TIP3    H210030   4.741   2.626   1.707  0.7091 -0.5743 -0.4268
 3342TIP3   OH210031   0.974   4.830   1.866 -0.1342 -0.2914 -0.3660
 3342TIP3    H110032   0.900   4.831   1.927 -0.6569 -0.0945 -0.9906
 3342TIP3    H210033   1.005   4.920   1.864 -1.1457  0.0622 -1.5952
 3343TIP3   OH210034   0.202   5.706   4.856 -0.0887 -0.4031  0.3454
 3343TIP3    H110035   0.255   5.708   4.936 -0.3594 -0.2389  0.5196
 3343TIP3    H210036   0.191   5.613   4.838 -2.4679 -0.5567  2.1254
 3344TIP3   OH210037   2.148   3.673   1.990 -0.4851 -0.2394  0.4174
 3344TIP3    H110038   2.170   3.766   1.981  0.5854 -0.5173 -0.0043
 3344TIP3    H210039   2.053   3.670   1.983 -0.4301  0.6457 -1.1740
 3345TIP3   OH210040   0.346   4.653   3.007  0.2968  0.4240  0.3731
 3345TIP3    H110041   0.382   4.674   3.094 -0.1851  1.2657  0.3817
 3345TIP3    H210042   0.315   4.737   2.973  1.0312  0.2156 -0.8788
 3346TIP3   OH210043   0.362   4.076   3.890  0.7480  0.5541  0.2396
 3346TIP3    H110044   0.289   4.046   3.836  1.8713 -1.7432 -0.1288
 3346TIP3    H210045   0.340   4.167   3.911 -1.0354  0.6987 -1.8214
 3347TIP3   OH210046   4.560   4.507   3.957  0.2967 -0.4796  0.2994
 3347TIP3    H110047   4.491   4.440   3.952 -0.5705  0.4416 -0.7600
 3347TIP3    H210048   4.612   4.483   4.033  0.9901 -3.2793 -0.9368
 3348TIP3   OH210049   3.535   5.355   3.351 -0.0093 -0.2155  0.3112
 3348TIP3    H110050   3.544   5.440   3.308  0.0499 -0.0168  0.7083
 3348TIP3    H210051   3.440   5.339   3.353 -0.2590  1.0949  2.5817
 3349TIP3   OH210052   5.347   2.034   3.526 -0.2719  0.0415  0.2395
 3349TIP3    H110053   5.274   2.094   3.509 -0.5057 -0.4245 -0.4288
 3349TIP3    H210054   5.370   1.999   3.440  0.4439 -0.1607  0.5081
 3350TIP3   OH210055   2.039   4.476   4.830 -0.2692  0.5511  0.6274
 3350TIP3    H110056   2.042   4.559   4.782 -0.1837  0.8057  1.0697
 3350TIP3    H210057   1.957   4.480   4.880  0.3957  0.9635  1.7034
 3351TIP3   OH210058   5.496   3.121   0.276 -1.0144 -0.1773  0.3433
 3351TIP3    H110059   5.513   3.166   0.359 -0.5269  0.0114  0.1463
 3351TIP3    H210060   5.421   3.167   0.239 -1.2767 -0.3045  0.7104
 3352TIP3   OH210061   5.597   4.993   4.307  0.4131 -0.1299 -0.2784
 3352TIP3    H110062   5.550   5.032   4.234  1.0387  0.7181 -0.2533
 3352TIP3    H210063   5.644   4.919   4.269 -0.8386 -0.9283 -0.3191
 3353TIP3   OH210064   3.008   5.236   1.221  0.3632 -0.0155  0.3003
 3353TIP3    H110065   2.989   5.275   1.306  0.6943 -0.3911  0.5500
 3353TIP3    H210066   3.100   5.253   1.206  0.4486 -0.4560  0.2923
 3354TIP3   OH210067   3.427   3.525   5.076  0.3779  0.5048 -0.5407
 3354TIP3    H110068   3.469   3.530   5.162  0.8880  0.4306 -0.7783
 3354TIP3    H210069   3.333   3.532   5.094  0.3824 -0.8552  0.1360
 3355TIP3   OH210070   3.274   3.151   0.963 -0.0609  0.0354  0.4543
 3355TIP3    H110071   3.271   3.178   0.871 -0.2775  1.4520  0.8522
 3355TIP3    H210072   3.321   3.068   0.961  2.1880  1.2087 -0.7086
 3356TIP3   OH210073   5.449   4.446   1.552 -0.6040  0.2065 -0.0669
 3356TIP3    H110074   5.522   4.436   1.492  0.1122  0.3685  0.7530
 3356TIP3    H210075   5.483   4.416   1.637 -1.3074  0.8070  0.4413
 3357TIP3   OH210076   0.393   3.455   1.419  0.1842  0.6577  0.1456
 3357TIP3    H110077   0.353   3.540   1.440  1.3723  1.5989 -1.1458
 3357TIP3    H210078   0.329   3.412   1.363 -0.8895  0.2121  1.6629
 3358TIP3   OH210079   4.003   5.556   5.058 -0.5336 -0.0502 -0.1195
 3358TIP3    H110080   3.986   5.521   4.970  0.6238 -1.4109  0.1561
 3358TIP3    H210081   4.083   5.608   5.048 -0.2169 -0.4706  0.1715
 3359TIP3   OH210082   1.631   3.550   0.578 -0.1991  0.2261  0.2421
 3359TIP3    H110083   1.665   3.515   0.661 -0.9556 -0.5949  0.2117
 3359TIP3    H210084   1.699   3.611   0.549  0.1422  0.4282  1.3958
 3360TIP3   OH210085   4.910   1.349   1.613 -0.2263 -0.3396  0.4053
 3360TIP3    H110086   4.943   1.283   1.552  2.6812  1.7693 -0.4948
 3360TIP3    H210087   4.971   1.422   1.605 -3.8510  2.9971  0.5084
 3361TIP3   OH210088   5.962   0.687   3.073 -0.4215  0.6314 -0.1939
 3361TIP3    H110089   5.973   0.596   3.103  0.8000  0.7971 -0.0954
 3361TIP3    H210090   5.903   0.726   3.137 -0.4164  0.0812  0.1512
 3362TIP3   OH210091   2.425   2.466   3.696 -0.5416 -0.1503  0.5030
 3362TIP3    H110092   2.381   2.409   3.759 -0.9533 -0.9591 -0.4751
 3362TIP3    H210093   2.488   2.516   3.748 -0.1689 -1.5016  1.4167
 3363TIP3   OH210094   1.598   3.851   4.635  0.4054 -0.0279  0.9020
 3363TIP3    H110095   1.639   3.766   4.618 -0.6905 -0.5045  0.5452
 3363TIP3    H210096   1.614   3.901   4.554 -0.1359 -0.3812  0.5767
 3364TIP3   OH210097   1.457   1.991   1.913  0.4375  0.0852  0.1378
 3364TIP3    H110098   1.414   2.050   1.975 -0.1629  0.6435 -0.7873
 3364TIP3    H210099   1.439   1.903   1.948  0.1758  0.3923  0.7965
 3365TIP3   OH210100   0.205   2.689   4.169 -0.2379 -0.0028 -0.0321
 3365TIP3    H110101   0.205   2.631   4.093 -0.8603  1.2447 -1.0397
 3365TIP3    H210102   0.297   2.700   4.191 -0.0564 -0.4938 -0.5280
 3366TIP3   OH210103   4.051   3.930   3.011  0.0300  0.4134  0.2019
 3366TIP3    H110104   4.043   3.967   3.099 -2.2389 -0.5274  0.4789
 3366TIP3    H210105   3.993   3.985   2.957 -0.8106 -0.7087 -0.0706
 3367TIP3   OH210106   5.705   4.283   5.061  0.4960  0.2087 -0.1667
 3367TIP3    H110107   5.687   4.357   5.118  3.4099 -0.1132  1.3593
 3367TIP3    H210108   5.794   4.297   5.029 -0.4482 -0.4493 -3.4755
 3368TIP3   OH210109   1.142   2.500   0.103  0.2496 -0.2147  0.3958
 3368TIP3    H110110   1.226   2.527   0.141 -1.1599  2.6492  1.7550
 3368TIP3    H210111   1.105   2.440   0.167  0.8286 -0.7514  0.2385
 3369TIP3   OH210112   6.089  -0.021   3.567 -0.2085 -0.3840 -0.0344
 3369TIP3    H110113   6.066   0.067   3.537  1.4288 -0.4770 -1.8070
 3369TIP3    H210114   6.124  -0.008   3.655 -1.1200  0.5617  0.2094
 3370TIP3   OH210115   3.722   1.170   3.206  0.1793 -0.5001  0.2428
 3370TIP3    H110116   3.628   1.181   3.189  0.7421  0.7626 -2.6299
 3370TIP3    H210117   3.755   1.259   3.220  1.4757 -0.4134 -2.6305
 3371TIP3   OH210118   4.346   0.522   2.481 -0.1627  0.1382  0.3322
 3371TIP3    H110119   4.264   0.562   2.454  0.8987  0.9974 -1.8401
 3371TIP3    H210120   4.404   0.596   2.502  0.5001 -0.4051  0.4845
 3372TIP3   OH210121   2.040   5.909   4.689 -0.6902 -0.1025 -0.5139
 3372TIP3    H110122   2.134   5.893   4.679 -0.5931 -0.7590  1.1183
 3372TIP3    H210123   2.028   5.999   4.659  0.3766 -0.1476 -1.1488
 3373TIP3   OH210124   1.618   4.679   1.521  0.4796  0.2770  0.1475
 3373TIP3    H110125   1.584   4.769   1.525 -1.4947 -0.4657  2.0752
 3373TIP3    H210126   1.629   4.661   1.428  0.7991  2.4413 -0.2903
 3374TIP3   OH210127   0.824   3.524   0.486  0.7496 -0.2935  0.0680
 3374TIP3    H110128   0.746   3.480   0.451  0.6466 -0.7394  0.8232
 3374TIP3    H210129   0.823   3.611   0.447 -0.4863 -0.0711  0.5473
 3375TIP3   OH210130   4.947   0.252   2.416 -0.1966 -0.6804 -0.2144
 3375TIP3    H110131   5.032   0.224   2.382  0.0568  0.5581 -0.6730
 3375TIP3    H210132   4.965   0.284   2.504 -0.0354  0.2649 -0.5777
 3376TIP3   OH210133   3.261   3.986   0.280 -0.4610  0.0209 -0.1372
 3376TIP3    H110134   3.330   4.045   0.250 -0.4504  0.4235  0.6474
 3376TIP3    H210135   3.193   3.992   0.213 -0.1534  0.3759 -0.4212
 3377TIP3   OH210136   3.522   5.643   2.791 -0.2334 -0.5758  0.4911
 3377TIP3    H110137   3.475   5.674   2.869 -1.4757 -0.5866 -0.2267
 3377TIP3    H210138   3.517   5.547   2.797 -0.4537 -0.5756  0.3381
 3378TIP3   OH210139   2.197   3.432   1.892 -0.2088 -0.2602  0.3744
 3378TIP3    H110140   2.283   3.406   1.925 -0.2417 -0.6624  0.1402
 3378TIP3    H210141   2.190   3.525   1.916 -0.0780 -0.4503  1.1671
 3379TIP3   OH210142   3.031   1.962   1.640  0.2126  0.2914 -0.0900
 3379TIP3    H110143   3.112   1.917   1.617  0.0568 -0.5630  0.9459
 3379TIP3    H210144   3.051   2.005   1.724 -0.3670  0.1912  0.0988
 3380TIP3   OH210145   4.642   5.911   3.623  0.2598 -0.7546 -0.1494
 3380TIP3    H110146   4.637   5.995   3.577  1.9043  0.3372  1.5236
 3380TIP3    H210147   4.704   5.860   3.571  1.3018  0.0849  0.2095
 3381TIP3   OH210148   5.506   5.077   0.193 -0.1160 -0.0520 -0.0255
 3381TIP3    H110149   5.566   5.139   0.234 -1.0671  0.2454  0.9627
 3381TIP3    H210150   5.432   5.072   0.254 -1.6291  0.4749 -1.7530
 3382TIP3   OH210151   4.672   1.834   1.960 -0.3697  0.1953 -0.1881
 3382TIP3    H110152   4.644   1.775   2.030  0.0394 -0.5960 -0.6764
 3382TIP3    H210153   4.741   1.887   2.000 -1.2778  0.9100  0.4844
 3383TIP3   OH210154   5.447   2.382   4.463 -0.5440 -0.0778 -0.2767
 3383TIP3    H110155   5.535   2.363   4.496 -1.3695 -0.0493  2.1157
 3383TIP3    H210156   5.462   2.440   4.389  1.4312  0.8291  0.7438
 3384TIP3   OH210157   1.768   5.589   4.827 -0.4127  0.0317 -0.1777
 3384TIP3    H110158   1.691   5.627   4.868  0.2324  0.5684  0.5532
 3384TIP3    H210159   1.787   5.647   4.753 -0.5865  0.0025 -0.2472
 3385TIP3   OH210160   2.341   1.930   4.569  0.1777 -0.2678  0.4441
 3385TIP3    H110161   2.335   1.921   4.474  0.8462  0.9872  0.2547
 3385TIP3    H210162   2.370   1.844   4.600 -0.6025 -0.8587 -0.4216
 3386TIP3   OH210163   0.666   4.005   1.312  0.1376  0.3634 -0.6297
 3386TIP3    H110164   0.621   4.089   1.317 -1.1612 -0.3087  3.6528
 3386TIP3    H210165   0.598   3.942   1.288  0.2409  0.1114 -0.2773
 3387TIP3   OH210166   3.462   1.660   2.641 -0.6669  0.0447 -0.1485
 3387TIP3    H110167   3.415   1.685   2.562  0.0235  0.6665 -0.3741
 3387TIP3    H210168   3.446   1.566   2.650  2.3119 -0.9524 -3.2117
 3388TIP3   OH210169   1.998   2.814   4.121 -0.2525  0.2386 -0.0811
 3388TIP3    H110170   2.003   2.910   4.126  0.2057  0.2673 -0.9386
 3388TIP3    H210171   2.088   2.785   4.134 -0.3200 -0.0519 -0.2479
 3389TIP3   OH210172   5.063   3.841   1.704  0.1610  0.1387 -0.0587
 3389TIP3    H110173   4.975   3.858   1.738  0.7568  1.4646  0.8955
 3389TIP3    H210174   5.076   3.907   1.636  0.8636  0.7625  0.6602
 3390TIP3   OH210175   0.853   0.612   4.757 -0.9579  0.3032  0.1753
 3390TIP3    H110176   0.894   0.528   4.777  0.9962  1.1458 -0.0724
 3390TIP3    H210177   0.844   0.655   4.842  2.6111  1.7699  0.0144
 3391TIP3   OH210178   0.276   3.762   3.462 -0.4886  0.6860 -0.1011
 3391TIP3    H110179   0.260   3.698   3.392 -0.7505  0.4046  0.2113
 3391TIP3    H210180   0.284   3.709   3.541 -2.1539  1.1197  0.4046
 3392TIP3   OH210181   2.421   5.787   1.892 -0.0417  0.1870 -0.3154
 3392TIP3    H110182   2.392   5.742   1.971  1.9117  1.0975  1.0145
 3392TIP3    H210183   2.362   5.862   1.885 -1.3904 -0.8783 -0.8203
 3393TIP3   OH210184   3.272   5.382   4.235  0.4906 -0.5267  0.5428
 3393TIP3    H110185   3.282   5.314   4.301  1.7329  1.9626  3.1624
 3393TIP3    H210186   3.353   5.433   4.240 -1.0030  2.0871 -0.0891
 3394TIP3   OH210187   3.917   4.240   1.139 -0.0857 -0.5521 -0.6176
 3394TIP3    H110188   4.004   4.198   1.142  0.0400 -0.2463  0.7701
 3394TIP3    H210189   3.896   4.257   1.231 -1.2961  0.0610 -0.9921
 3395TIP3   OH210190   4.089   2.105   1.057 -0.0899 -0.9193  0.1940
 3395TIP3    H110191   4.009   2.133   1.012 -1.7881 -0.1884  3.3309
 3395TIP3    H210192   4.057   2.060   1.136  2.5661 -0.0261  1.9011
 3396TIP3   OH210193   0.766   2.280   0.617 -0.8448  0.2369  0.3667
 3396TIP3    H110194   0.826   2.214   0.652 -1.7201 -0.2006  1.0973
 3396TIP3    H210195   0.797   2.297   0.528 -0.2644 -0.7341  0.3735
 3397TIP3   OH210196   5.175   4.917   0.254  0.0916 -0.0818 -0.0512
 3397TIP3    H110197   5.146   4.839   0.300 -2.3364  0.4206 -0.5737
 3397TIP3    H210198   5.143   4.906   0.165  0.5549  1.0699 -0.3801
 3398TIP3   OH210199   4.437   4.442   4.691  0.0317  0.0260  0.6053
 3398TIP3    H110200   4.493   4.503   4.643  2.2759 -1.2882  1.3829
 3398TIP3    H210201   4.351   4.451   4.650  0.2501  3.5611  0.5910
 3399TIP3   OH210202   2.119   0.206   1.341  0.4744  0.0362  0.6224
 3399TIP3    H110203   2.024   0.205   1.352 -0.0953  0.4255 -3.0901
 3399TIP3    H210204   2.148   0.286   1.385 -1.1463  0.8010  0.3507
 3400TIP3   OH210205   0.477   0.579   4.378  0.1036  0.1842  0.3851
 3400TIP3    H110206   0.492   0.596   4.471  1.7944  2.7048 -0.2393
 3400TIP3    H210207   0.531   0.502   4.359 -1.5886 -1.4463  1.7551
 3401TIP3   OH210208   5.726   5.907   3.821  0.3939 -0.0282  0.5468
 3401TIP3    H110209   5.711   5.886   3.729  2.6047 -0.2913  0.1962
 3401TIP3    H210210   5.738   5.823   3.863 -0.6467  0.0920  1.1167
 3402TIP3   OH210211   3.206   0.471   1.372  0.3190  0.2636 -0.5889
 3402TIP3    H110212   3.125   0.442   1.415  0.7541  0.1634  0.1767
 3402TIP3    H210213   3.180   0.486   1.281 -1.1063  2.4129  0.0761
 3403TIP3   OH210214   0.252   0.661   0.787  0.1169  0.4924  0.1550
 3403TIP3    H110215   0.238   0.577   0.743  0.3489  0.9177 -0.7690
 3403TIP3    H210216   0.256   0.640   0.880  2.5889 -0.8682 -0.1928
 3404TIP3   OH210217   1.507   3.027   1.529 -0.1503  0.0377  0.1154
 3404TIP3    H110218   1.584   2.997   1.481 -0.3680  0.1872 -0.3333
 3404TIP3    H210219   1.519   3.121   1.538 -1.0276  0.3361 -1.3712
 3405TIP3   OH210220   6.233   4.296   2.046 -0.9806  0.0800 -0.0370
 3405TIP3    H110221   6.189   4.246   2.115 -1.9840  0.0921 -0.6468
 3405TIP3    H210222   6.255   4.230   1.980 -1.8505  0.3569 -0.6142
 3406TIP3   OH210223   5.713   5.493   3.006 -0.2054  0.2502  0.5308
 3406TIP3    H110224   5.711   5.480   3.101  1.0406  0.5273  0.6164
 3406TIP3    H210225   5.753   5.414   2.972  2.2662  1.3929  0.5552
 3407TIP3   OH210226   0.736   0.936   4.572  0.3246 -0.1716  0.2736
 3407TIP3    H110227   0.731   1.023   4.532  1.9468 -0.0473  0.2519
 3407TIP3    H210228   0.824   0.905   4.549  1.0175 -0.4592  2.9574
 3408TIP3   OH210229   2.109   1.983   1.747  0.0571 -0.7765 -0.3060
 3408TIP3    H110230   2.100   1.962   1.840  0.4617  1.5080  0.3067
 3408TIP3    H210231   2.195   2.026   1.740  0.2534 -1.3489 -1.8294
 3409TIP3   OH210232   3.952   5.648   2.441 -0.0963 -0.0261  0.7186
 3409TIP3    H110233   3.909   5.733   2.452  2.2515  1.3797 -0.1766
 3409TIP3    H210234   3.985   5.627   2.528 -0.9128 -0.1901  1.0010
 3410TIP3   OH210235   6.064   2.555   4.350  0.0819 -0.2307 -0.0515
 3410TIP3    H110236   6.157   2.576   4.342  0.1870 -1.2057 -1.8983
 3410TIP3    H210237   6.029   2.570   4.262 -1.1184 -1.5791  0.1619
 3411TIP3   OH210238   4.286   0.535   0.670  0.3128 -0.0296 -0.6393
 3411TIP3    H110239   4.252   0.480   0.741 -0.6600  0.6198 -0.5833
 3411TIP3    H210240   4.325   0.473   0.608 -0.3442 -0.7470 -0.3490
 3412TIP3   OH210241   2.428   4.934   3.459  0.3211 -0.0896 -0.4368
 3412TIP3    H110242   2.337   4.941   3.430 -0.4475  2.1125  2.0929
 3412TIP3    H210243   2.476   4.997   3.405 -0.3431  1.1481  0.3755
 3413TIP3   OH210244   5.085   4.323   4.307 -0.5493  0.6516 -0.3284
 3413TIP3    H110245   5.137   4.279   4.239 -0.8331 -1.2070  0.6000
 3413TIP3    H210246   5.148   4.344   4.375 -0.8374 -0.9837  0.4938
 3414TIP3   OH210247   5.983   5.111   2.526 -0.6253  0.5543 -0.4771
 3414TIP3    H110248   5.970   5.121   2.431 -2.0349  1.4201 -0.2239
 3414TIP3    H210249   6.065   5.156   2.544  0.2436 -0.6077 -1.4486
 3415TIP3   OH210250   5.264   5.995   4.450 -0.6816  0.3271  0.3613
 3415TIP3    H110251   5.250   5.988   4.355 -0.2085  0.7289  0.2534
 3415TIP3    H210252   5.330   5.929   4.469 -0.5182  0.4828  0.3448
 3416TIP3   OH210253   1.108   5.198   2.909 -0.6595 -0.4697 -0.0744
 3416TIP3    H110254   1.165   5.275   2.903 -1.4099  0.0505 -0.6161
 3416TIP3    H210255   1.169   5.125   2.926  0.2544 -0.0416 -1.3421
 3417TIP3   OH210256   4.496   3.332   3.642  0.1338  0.4841  0.0260
 3417TIP3    H110257   4.432   3.287   3.698  2.0778 -0.7235  1.3919
 3417TIP3    H210258   4.474   3.425   3.652 -0.0718  0.2642  2.2443
 3418TIP3   OH210259   2.302   0.366   4.504 -0.1283  0.0986  0.6350
 3418TIP3    H110260   2.252   0.287   4.484 -1.1493  1.0571 -0.8013
 3418TIP3    H210261   2.243   0.438   4.483  1.2133  1.2593  0.6730
 3419TIP3   OH210262   0.657   1.036   1.531  0.0551 -0.0779  0.5830
 3419TIP3    H110263   0.649   1.040   1.626 -1.5144  0.9266  0.4504
 3419TIP3    H210264   0.576   0.994   1.502  0.0208  0.6148 -0.3633
 3420TIP3   OH210265   4.698   4.021   2.624 -0.1917 -0.3463  0.2905
 3420TIP3    H110266   4.638   4.088   2.657  0.3663 -0.2895  1.2217
 3420TIP3    H210267   4.742   3.987   2.702  1.8665  0.4535 -0.4590
 3421TIP3   OH210268   6.317   2.430   4.147  0.2786 -0.2896  0.1715
 3421TIP3    H110269   6.341   2.511   4.192 -2.4732  0.1221  1.0765
 3421TIP3    H210270   6.288   2.458   4.060 -1.6068 -0.1290  0.8203
 3422TIP3   OH210271   2.848   1.745   2.467  0.0641 -0.1931  0.1119
 3422TIP3    H110272   2.757   1.747   2.497  0.5416  0.2139  1.6129
 3422TIP3    H210273   2.870   1.652   2.463 -0.3717 -0.2876 -0.1168
 3423TIP3   OH210274   5.484   2.546   2.383  0.3844 -0.6896 -0.4223
 3423TIP3    H110275   5.521   2.599   2.312 -0.3845 -1.3993 -1.3883
 3423TIP3    H210276   5.498   2.598   2.462  1.4120  0.0510 -1.0718
 3424TIP3   OH210277   2.287   1.886   5.103  0.1248  0.2249  0.1481
 3424TIP3    H110278   2.374   1.923   5.090  0.0154  0.2112 -0.6889
 3424TIP3    H210279   2.229   1.940   5.049 -0.3642  0.1426  0.5782
 3425TIP3   OH210280   1.645   5.849   0.098  0.2842 -0.8358  0.3916
 3425TIP3    H110281   1.721   5.906   0.086  0.9153 -0.7662  3.7472
 3425TIP3    H210282   1.676   5.763   0.070  1.2958 -0.6150  0.7544
 3426TIP3   OH210283   3.654   5.545   0.512 -0.4618 -0.8379  0.0849
 3426TIP3    H110284   3.711   5.550   0.588 -0.0159  0.3777 -0.3112
 3426TIP3    H210285   3.678   5.463   0.469 -1.2846 -1.9618  1.6613
 3427TIP3   OH210286   4.275   1.055   4.770 -0.4761  0.1302  0.5534
 3427TIP3    H110287   4.221   1.095   4.702 -0.5188  1.4729  1.3464
 3427TIP3    H210288   4.232   1.078   4.852 -0.2002 -1.1305  1.0792
 3428TIP3   OH210289   3.231   4.796   2.223  0.1761 -0.2904 -0.2269
 3428TIP3    H110290   3.178   4.725   2.185 -0.2729 -0.3931  0.5734
 3428TIP3    H210291   3.301   4.751   2.270 -0.7482 -0.2704  1.2345
 3429TIP3   OH210292   1.755   4.589   2.729 -0.4445  0.6431  0.4650
 3429TIP3    H110293   1.762   4.632   2.814  0.9221 -0.8646  1.1593
 3429TIP3    H210294   1.695   4.516   2.744 -0.9494  0.9271 -0.1220
 3430TIP3   OH210295   3.737   3.694   4.554  0.0369 -0.3403 -0.3446
 3430TIP3    H110296   3.761   3.784   4.533  2.2501 -1.0860 -1.2963
 3430TIP3    H210297   3.672   3.671   4.487  0.5013  0.1155 -0.9662
 3431TIP3   OH210298   5.541   5.027   1.088  0.3114 -0.0815 -0.1080
 3431TIP3    H110299   5.476   5.093   1.113  1.2975  0.6494  0.5616
 3431TIP3    H210300   5.496   4.975   1.021 -0.1424  1.8968 -1.4282
 3432TIP3   OH210301   0.428   3.286   3.765  0.2148  0.5524 -0.6236
 3432TIP3    H110302   0.485   3.298   3.689  1.4966 -0.1112  0.1783
 3432TIP3    H210303   0.345   3.326   3.741  0.4270 -0.0893 -2.5511
 3433TIP3   OH210304   5.087   3.122   0.313  0.2471  0.4770  0.4296
 3433TIP3    H110305   5.027   3.166   0.373  0.2796  0.2380  0.6384
 3433TIP3    H210306   5.072   3.028   0.328 -0.4589  0.4017 -0.6484
 3434TIP3   OH210307   4.387   1.323   2.163  0.3093  0.7012 -0.2145
 3434TIP3    H110308   4.419   1.255   2.104 -1.1861 -3.4815  3.2461
 3434TIP3    H210309   4.451   1.326   2.233 -0.7952  1.1510  0.8096
 3435TIP3   OH210310   0.252   4.348   4.284  0.6265  0.0210  0.1696
 3435TIP3    H110311   0.225   4.359   4.193  1.7548  0.3841 -0.1435
 3435TIP3    H210312   0.294   4.262   4.287  1.4817  0.4228  0.0980
 3436TIP3   OH210313   1.399   0.759   2.055  0.5113 -0.7065  0.3257
 3436TIP3    H110314   1.387   0.853   2.063  0.0143 -0.7602  0.1995
 3436TIP3    H210315   1.486   0.743   2.093  0.2819 -0.3007  1.0362
 3437TIP3   OH210316   2.582   1.121   5.024  0.0770 -0.0516 -0.0942
 3437TIP3    H110317   2.487   1.135   5.028  0.2275  0.7322  1.7473
 3437TIP3    H210318   2.619   1.209   5.030  0.9482 -0.2752 -1.6769
 3438TIP3   OH210319   3.192   4.994   2.391 -0.3415 -0.0593  0.0464
 3438TIP3    H110320   3.270   5.015   2.442 -0.1797  0.7197 -0.5055
 3438TIP3    H210321   3.212   4.909   2.351  0.6723  0.5961 -0.9139
 3439TIP3   OH210322   4.804   5.090   5.010  0.7853  0.2770 -0.4175
 3439TIP3    H110323   4.729   5.077   4.953  1.0847 -0.0774 -0.7318
 3439TIP3    H210324   4.776   5.158   5.071  0.1451  0.0218 -0.4173
 3440TIP3   OH210325   3.686   1.017   4.553  0.2830 -0.2569 -0.6616
 3440TIP3    H110326   3.615   1.032   4.492  2.3337  1.3666 -2.8316
 3440TIP3    H210327   3.673   1.081   4.623 -1.5957 -1.5578  0.2860
 3441TIP3   OH210328   2.358   4.013   4.759  0.4825  0.7252 -0.4248
 3441TIP3    H110329   2.359   3.947   4.828  0.4005  1.1051 -0.0580
 3441TIP3    H210330   2.296   3.979   4.695 -1.8616  1.8147  1.1373
 3442TIP3   OH210331   3.812   0.413   2.031  0.4108  0.4692  0.1521
 3442TIP3    H110332   3.907   0.399   2.035  0.5741  1.7135  1.6307
 3442TIP3    H210333   3.777   0.364   2.105  0.1956  1.9891  1.0811
 3443TIP3   OH210334   4.175   5.257   2.520  0.0596  0.0593 -0.0475
 3443TIP3    H110335   4.245   5.319   2.537  0.5948 -0.2605 -1.0066
 3443TIP3    H210336   4.115   5.303   2.461 -0.0637  0.0092  0.0373
 3444TIP3   OH210337  -0.002   1.202   2.944  0.1546 -0.4862 -0.3043
 3444TIP3    H110338   0.066   1.190   3.010 -1.1291 -0.7391  1.0363
 3444TIP3    H210339   0.026   1.149   2.869  1.9133  0.2484 -0.1931
 3445TIP3   OH210340   5.919   1.567   4.129 -0.3613  0.1178  0.6630
 3445TIP3    H110341   5.909   1.659   4.104 -1.2459 -0.0321  0.4251
 3445TIP3    H210342   5.848   1.550   4.191 -1.3681 -0.8595 -0.6746
 3446TIP3   OH210343   5.224   1.306   3.653  0.8483  0.0804  0.1640
 3446TIP3    H110344   5.241   1.219   3.616 -2.4710  0.1724 -2.0278
 3446TIP3    H210345   5.242   1.366   3.581  1.0547  1.0257  0.9909
 3447TIP3   OH210346   0.490   3.145   5.116 -0.0421  0.0725  0.1460
 3447TIP3    H110347   0.426   3.209   5.084  0.0222 -1.1001 -2.5483
 3447TIP3    H210348   0.437   3.076   5.156 -0.4825 -0.6197 -1.5673
 3448TIP3   OH210349   0.584   4.896   2.877 -0.1461 -0.5183  0.2001
 3448TIP3    H110350   0.535   4.823   2.839 -0.3701 -0.2395 -0.0531
 3448TIP3    H210351   0.554   4.973   2.829 -0.0717 -0.2267  0.6092
 3449TIP3   OH210352   0.237   3.516   2.764  0.0985  0.3618  0.2667
 3449TIP3    H110353   0.145   3.539   2.775 -0.1683 -0.5725 -0.0010
 3449TIP3    H210354   0.241   3.422   2.781  0.9293  0.3091 -0.1715
 3450TIP3   OH210355   1.337   2.879   2.270  0.1121  0.0068  0.2711
 3450TIP3    H110356   1.387   2.836   2.339  1.3368  1.3823  0.2917
 3450TIP3    H210357   1.399   2.889   2.198 -1.0659 -1.1623 -0.9665
 3451TIP3   OH210358   2.642   1.048   0.330  0.1724 -0.2783  0.2959
 3451TIP3    H110359   2.670   1.050   0.239  1.2907 -2.3475  0.5402
 3451TIP3    H210360   2.590   1.128   0.341  1.5192  0.9406 -1.6485
 3452TIP3   OH210361   5.352   3.582   4.349  0.4605  0.0527  0.0527
 3452TIP3    H110362   5.379   3.490   4.353 -0.9722 -0.4281 -0.6402
 3452TIP3    H210363   5.289   3.585   4.276  0.7660  1.6610 -0.1710
 3453TIP3   OH210364   1.791   0.599   4.492 -0.6986  0.3032  0.1798
 3453TIP3    H110365   1.781   0.507   4.515 -0.7189  0.2645  0.0178
 3453TIP3    H210366   1.701   0.630   4.481 -0.7491  0.6163  1.2903
 3454TIP3   OH210367   2.731   4.484   1.704 -0.5747 -0.4054  0.0354
 3454TIP3    H110368   2.702   4.574   1.718 -0.4932 -0.6448  2.0045
 3454TIP3    H210369   2.800   4.491   1.638 -1.3489  0.8195 -0.6839
 3455TIP3   OH210370   4.056   5.577   1.974 -0.3013 -0.6506  0.1029
 3455TIP3    H110371   4.083   5.617   2.056 -0.3253  0.7949 -0.5581
 3455TIP3    H210372   4.127   5.595   1.913 -0.3785 -1.5174 -0.2710
 3456TIP3   OH210373   1.243   4.137   0.525 -0.4606  0.2551  0.0153
 3456TIP3    H110374   1.191   4.145   0.605 -2.0278 -0.0791 -0.9339
 3456TIP3    H210375   1.252   4.043   0.512  1.0461  0.2954  0.5475
 3457TIP3   OH210376   3.301   3.245   5.129  0.6914  0.1135  0.0138
 3457TIP3    H110377   3.274   3.260   5.219  1.2359 -1.7357  0.5235
 3457TIP3    H210378   3.373   3.307   5.116  0.0333  1.0170  0.5316
 3458TIP3   OH210379   1.509   4.725   4.238  0.4594  0.3276  0.7305
 3458TIP3    H110380   1.485   4.646   4.189  0.9576  1.6244 -1.7911
 3458TIP3    H210381   1.429   4.749   4.284 -0.6827  0.0564 -0.9802
 3459TIP3   OH210382   3.112   5.896   4.688 -0.4210  0.4764 -0.1451
 3459TIP3    H110383   3.089   5.943   4.607  0.2332  1.1179  0.0321
 3459TIP3    H210384   3.179   5.950   4.729  0.4465 -0.6771  0.0137
 3460TIP3   OH210385   1.310   1.664   5.004  0.4884  0.0189 -0.5036
 3460TIP3    H110386   1.341   1.693   4.919 -2.5082  0.7160 -1.4961
 3460TIP3    H210387   1.361   1.714   5.067  2.4949 -0.2305 -1.8382
 3461TIP3   OH210388   1.479   5.889   1.193  0.3569  0.2320 -0.3247
 3461TIP3    H110389   1.459   5.978   1.162  0.1835  0.1521 -0.4452
 3461TIP3    H210390   1.405   5.836   1.163 -0.9295  0.5348  2.0717
 3462TIP3   OH210391   1.595   3.418   3.220 -0.0274  0.4089 -0.2674
 3462TIP3    H110392   1.599   3.416   3.316  2.3882  3.1029 -0.1910
 3462TIP3    H210393   1.592   3.326   3.195  0.1997 -0.4193  2.3714
 3463TIP3   OH210394   4.982   4.888   4.941  0.4195  0.1259 -0.0242
 3463TIP3    H110395   4.926   4.965   4.953  0.3848  0.0880  0.0635
 3463TIP3    H210396   5.061   4.908   4.991 -0.2152 -0.5364  1.2983
 3464TIP3   OH210397   5.658   2.376   4.974 -0.5119 -0.6815  0.3703
 3464TIP3    H110398   5.638   2.467   4.996 -2.0075 -1.0836  0.7574
 3464TIP3    H210399   5.738   2.357   5.024 -0.0800  0.4636  0.1340
 3465TIP3   OH210400   0.535   4.184   0.817  0.0613  0.6040  0.1112
 3465TIP3    H110401   0.578   4.099   0.813 -0.7258  0.0377  2.4346
 3465TIP3    H210402   0.585   4.234   0.881 -1.0723  0.9177  0.7782
 3466TIP3   OH210403   4.400   0.625   3.003 -0.8767  0.1973 -0.4451
 3466TIP3    H110404   4.366   0.536   3.009 -1.0174  0.2964  0.3319
 3466TIP3    H210405   4.480   0.617   2.952 -0.5150 -0.4887  0.2074
 3467TIP3   OH210406   3.131   2.353   3.864 -0.5972  0.4338  0.0050
 3467TIP3    H110407   3.040   2.370   3.836 -0.2468  0.0924 -1.4256
 3467TIP3    H210408   3.168   2.440   3.876 -1.4127  0.5789  1.6925
 3468TIP3   OH210409   2.033   2.104   0.774 -0.2462  0.4594  0.2173
 3468TIP3    H110410   2.094   2.177   0.783  0.4650 -0.0914 -0.0760
 3468TIP3    H210411   1.953   2.144   0.738  0.6302  0.8692 -1.3533
 3469TIP3   OH210412   2.157   4.743   2.290  0.0795  0.3624 -0.1412
 3469TIP3    H110413   2.138   4.728   2.197 -1.0767  1.8658 -0.1939
 3469TIP3    H210414   2.138   4.836   2.303 -1.2037 -0.1175  1.9109
 3470TIP3   OH210415   1.558   0.249   2.964  0.0463 -0.7127  0.1295
 3470TIP3    H110416   1.609   0.182   3.009  1.4901  0.9892  1.1948
 3470TIP3    H210417   1.516   0.298   3.035 -0.1856  0.1019 -0.5565
 3471TIP3   OH210418   2.038   5.085   4.866 -0.2076 -0.2015  0.9961
 3471TIP3    H110419   2.114   5.111   4.814  0.2069 -0.8831  1.2423
 3471TIP3    H210420   2.035   5.149   4.938  0.3097 -0.3385  1.1439
 3472TIP3   OH210421   0.444   3.737   0.777 -0.2985  0.4531  0.4665
 3472TIP3    H110422   0.518   3.797   0.768 -0.1348  0.3340  1.0272
 3472TIP3    H210423   0.369   3.794   0.794 -0.3775  0.5879 -0.2835
 3473TIP3   OH210424   3.889   2.492   3.094  0.3865 -0.3035  0.0326
 3473TIP3    H110425   3.976   2.529   3.113 -0.6630  2.2125  0.3784
 3473TIP3    H210426   3.835   2.519   3.168 -0.8568 -1.2526 -0.5011
 3474TIP3   OH210427   6.061   4.211   0.829 -0.4576  0.6922 -0.1840
 3474TIP3    H110428   6.025   4.221   0.741 -0.1565 -2.1366 -0.7265
 3474TIP3    H210429   6.154   4.232   0.820 -0.7740  2.2675 -0.0665
 3475TIP3   OH210430   6.208   5.282   4.442 -0.3861  0.2764 -0.2760
 3475TIP3    H110431   6.205   5.219   4.370  0.5238  1.0804 -1.0554
 3475TIP3    H210432   6.118   5.288   4.473 -0.4952 -1.3500 -0.2118
 3476TIP3   OH210433   5.358   4.498   3.059 -0.4310 -0.0577 -0.3543
 3476TIP3    H110434   5.371   4.404   3.071  0.0589 -0.0501 -0.8033
 3476TIP3    H210435   5.309   4.525   3.137  1.7691 -0.2064  1.1955
 3477TIP3   OH210436   4.697   1.633   3.130 -0.1892  0.3824  0.3067
 3477TIP3    H110437   4.615   1.644   3.081 -0.3217  0.5337  0.5577
 3477TIP3    H210438   4.668   1.604   3.217 -0.0262  1.1843  0.6379
 3478TIP3   OH210439   5.735   1.069   4.335  0.3904 -0.4589 -0.1128
 3478TIP3    H110440   5.681   1.147   4.330 -0.8468 -1.3006 -0.3985
 3478TIP3    H210441   5.699   1.010   4.269  1.6812 -1.0590 -0.3298
 3479TIP3   OH210442   4.474   2.486   1.929 -0.5134 -0.2776 -0.0866
 3479TIP3    H110443   4.445   2.428   2.000  0.5543 -0.1745  0.4599
 3479TIP3    H210444   4.546   2.537   1.968 -0.1387  0.0221 -1.1406
 3480TIP3   OH210445   5.648   3.356   3.112  0.3311 -0.7214 -0.7170
 3480TIP3    H110446   5.648   3.447   3.141  1.6472 -0.7805 -0.4554
 3480TIP3    H210447   5.639   3.305   3.193 -2.8041 -0.8457 -1.0433
 3481TIP3   OH210448   0.156   5.532   2.640  0.1318 -0.2594  0.3106
 3481TIP3    H110449   0.181   5.552   2.549 -1.7951  2.2567  0.2443
 3481TIP3    H210450   0.064   5.508   2.634  0.2138 -0.9139  1.5253
 3482TIP3   OH210451   0.412   3.211   2.378  0.2595  0.1140  0.7333
 3482TIP3    H110452   0.330   3.222   2.330  0.1337 -0.6116  0.7662
 3482TIP3    H210453   0.469   3.280   2.345  0.5173 -0.9547 -1.2038
 3483TIP3   OH210454   1.624   3.202   1.322  0.1466  0.3972  0.2386
 3483TIP3    H110455   1.709   3.164   1.341  0.0670  0.0661 -0.0507
 3483TIP3    H210456   1.588   3.147   1.252 -0.7033 -0.0452  1.0035
 3484TIP3   OH210457   5.143   5.256   2.312  0.3455  0.2544  0.2071
 3484TIP3    H110458   5.215   5.229   2.369  0.6578  2.0735  0.7485
 3484TIP3    H210459   5.185   5.276   2.229  0.4023  0.7427  0.3463
 3485TIP3   OH210460   0.835   1.196   2.535 -0.2243 -0.5855  0.1116
 3485TIP3    H110461   0.822   1.230   2.446  3.6044  0.1951 -0.3521
 3485TIP3    H210462   0.850   1.102   2.523  0.4828 -0.4488 -0.1363
 3486TIP3   OH210463   6.285   3.811   1.487  0.6383  0.2477 -0.3836
 3486TIP3    H110464   6.216   3.814   1.552 -0.3242 -2.4671 -1.1473
 3486TIP3    H210465   6.328   3.897   1.493 -2.4666  1.8897  0.4166
 3487TIP3   OH210466   5.687   1.917   3.504 -0.2392  0.3432  0.5382
 3487TIP3    H110467   5.765   1.893   3.455 -1.0787  1.1786 -1.2620
 3487TIP3    H210468   5.675   2.010   3.488 -0.6443  0.6289  2.2436
 3488TIP3   OH210469   0.977   1.576   1.556  0.2169 -0.0312 -0.4998
 3488TIP3    H110470   0.936   1.658   1.584  1.2321 -0.4608  2.7029
 3488TIP3    H210471   0.907   1.512   1.562 -0.0616  0.2364 -0.8645
 3489TIP3   OH210472   2.917   0.939   4.974 -0.2386 -0.7623 -0.0958
 3489TIP3    H110473   2.838   0.934   4.920 -0.4635  0.5165  0.0813
 3489TIP3    H210474   2.885   0.962   5.061  0.2457 -1.3622  0.2489
 3490TIP3   OH210475   3.878   4.826   0.395  0.3641 -0.3184  0.2987
 3490TIP3    H110476   3.942   4.768   0.355 -1.0105 -0.5816 -1.6383
 3490TIP3    H210477   3.854   4.888   0.326 -1.2397 -0.0628  1.0320
 3491TIP3   OH210478   1.090   5.892   5.141 -0.1429  0.0030  0.5695
 3491TIP3    H110479   0.999   5.874   5.120 -0.2386 -1.5887  2.1152
 3491TIP3    H210480   1.139   5.821   5.101  0.2874  0.1695  0.7942
 3492TIP3   OH210481   0.857   0.245   4.458  0.1959  0.5705  0.2047
 3492TIP3    H110482   0.802   0.248   4.537 -1.6667  0.8287 -1.0351
 3492TIP3    H210483   0.919   0.174   4.474 -0.2263  0.5384  1.8397
 3493TIP3   OH210484   0.593   0.882   5.058  0.3896 -0.0159 -0.2680
 3493TIP3    H110485   0.652   0.834   5.116 -0.9181 -1.6158 -0.1961
 3493TIP3    H210486   0.592   0.971   5.094  1.5447 -0.3399  0.6449
 3494TIP3   OH210487   3.610   5.377   1.446 -0.1680  0.2766  0.0448
 3494TIP3    H110488   3.589   5.437   1.517  1.4702  1.4389 -0.3705
 3494TIP3    H210489   3.612   5.290   1.487 -0.8799  0.7167  1.0453
 3495TIP3   OH210490   2.018   3.545   0.059  0.6283  0.0385  0.2048
 3495TIP3    H110491   2.014   3.628   0.011 -1.5335 -0.7351 -1.0986
 3495TIP3    H210492   1.972   3.561   0.141 -1.0340 -0.1713 -0.6422
 3496TIP3   OH210493   2.792   2.946   3.882 -0.1872  0.2855  0.0466
 3496TIP3    H110494   2.785   2.933   3.788  0.6652 -0.9358  0.1299
 3496TIP3    H210495   2.723   2.890   3.919  0.1471 -0.0489  0.1777
 3497TIP3   OH210496   3.383   0.399   0.066 -0.2591  0.4801 -0.2876
 3497TIP3    H110497   3.359   0.313   0.032 -0.5254  0.7951 -0.9199
 3497TIP3    H210498   3.305   0.452   0.054 -0.4033  0.5792  0.9537
 3498TIP3   OH210499   5.889   1.251   3.755 -0.3688 -0.3861 -0.0999
 3498TIP3    H110500   5.971   1.256   3.706  0.0200  2.6914  0.6307
 3498TIP3    H210501   5.867   1.343   3.773 -3.1076 -1.2003  1.1738
 3499TIP3   OH210502   5.020   0.971   2.734  0.1727  0.6765  0.3019
 3499TIP3    H110503   5.039   0.923   2.653 -2.5555 -0.0637  0.0061
 3499TIP3    H210504   5.102   1.016   2.754  1.4713 -0.4919 -1.9100
 3500TIP3   OH210505   3.974   5.697   4.106 -0.2897  0.3709 -0.2755
 3500TIP3    H110506   4.030   5.684   4.029 -0.9479 -1.2307 -0.5358
 3500TIP3    H210507   4.032   5.680   4.180  0.1547  1.1405 -0.4388
 3501TIP3   OH210508   4.133   4.131   1.460 -0.2944  0.2765  0.2073
 3501TIP3    H110509   4.116   4.037   1.463 -1.3641  0.4728  1.6003
 3501TIP3    H210510   4.074   4.164   1.392 -0.2532  0.0020  0.0387
 3502TIP3   OH210511   3.213   1.656   1.638 -0.1816 -0.6091 -0.6861
 3502TIP3    H110512   3.139   1.621   1.588  0.7670 -1.1288 -1.7546
 3502TIP3    H210513   3.247   1.727   1.583 -1.9827  2.0188  1.3628
 3503TIP3   OH210514   3.924   2.908   1.629  0.3112  0.3162  0.4613
 3503TIP3    H110515   3.871   2.897   1.550  0.6240  2.7215 -0.1792
 3503TIP3    H210516   3.912   2.827   1.678  0.3110 -1.3761 -2.1550
 3504TIP3   OH210517   5.695   0.628   3.569  0.7627 -0.2363  0.5409
 3504TIP3    H110518   5.693   0.709   3.621 -0.5300  0.5384 -0.6416
 3504TIP3    H210519   5.788   0.610   3.556  1.0843  1.4857  0.1972
 3505TIP3   OH210520   1.553   3.992   1.574  0.3673 -0.6714  0.2532
 3505TIP3    H110521   1.524   3.901   1.576 -0.2561 -0.4650  1.2382
 3505TIP3    H210522   1.486   4.037   1.522  1.0789 -0.8856 -0.8967
 3506TIP3   OH210523   1.960   1.392   1.281 -0.5385 -0.1414  0.5133
 3506TIP3    H110524   1.965   1.441   1.199  2.6583  0.6231  1.0070
 3506TIP3    H210525   1.941   1.458   1.347 -1.0102 -0.3925  0.6276
 3507TIP3   OH210526   5.086   3.060   2.012  0.3042 -0.3345 -0.4079
 3507TIP3    H110527   5.106   3.006   2.088  1.2099 -0.3821 -0.6656
 3507TIP3    H210528   5.071   3.147   2.048  0.0459 -0.5029 -0.1077
 3508TIP3   OH210529   3.655   4.005   1.739  0.5183 -0.1392  0.2701
 3508TIP3    H110530   3.685   3.942   1.804  0.9766  0.2932  0.4845
 3508TIP3    H210531   3.634   3.952   1.662 -0.1603 -0.6669  0.8062
 3509TIP3   OH210532   0.186   1.681   1.731  0.3721  0.0022  0.2878
 3509TIP3    H110533   0.124   1.662   1.802 -1.9233 -0.6504 -1.7712
 3509TIP3    H210534   0.141   1.746   1.677  1.3432 -0.7257 -1.4706
 3510TIP3   OH210535   0.828   1.917   4.620  0.6148  0.3600  0.1772
 3510TIP3    H110536   0.810   1.831   4.658  1.3941 -0.5741 -1.4523
 3510TIP3    H210537   0.904   1.903   4.563  0.8130  2.1525 -0.0495
 3511TIP3   OH210538   3.255   0.818   1.287 -0.4151 -0.0359 -0.3278
 3511TIP3    H110539   3.240   0.752   1.355  0.8274 -2.3644 -2.1668
 3511TIP3    H210540   3.327   0.871   1.321  0.4923 -1.4396  0.0298
 3512TIP3   OH210541   4.188   4.576   4.543 -0.0224  0.2691  0.0589
 3512TIP3    H110542   4.167   4.627   4.466  1.3963 -1.1261 -1.3271
 3512TIP3    H210543   4.159   4.487   4.522 -0.5191  0.0436  1.5479
 3513TIP3   OH210544   1.007   3.671   0.632 -0.7438 -0.6434  0.1759
 3513TIP3    H110545   0.942   3.611   0.594 -0.3064 -0.9687 -0.0626
 3513TIP3    H210546   0.995   3.753   0.583 -1.0441 -0.6639  0.2093
 3514TIP3   OH210547   4.697   1.607   0.642 -0.4184  0.0094 -0.1690
 3514TIP3    H110548   4.781   1.606   0.596 -1.1038  1.2379 -1.5387
 3514TIP3    H210549   4.718   1.643   0.729  0.4506  0.4535 -0.5463
 3515TIP3   OH210550   3.298   3.318   4.279 -0.1744  0.1976  0.6509
 3515TIP3    H110551   3.290   3.308   4.374 -0.9287 -1.5733  0.4483
 3515TIP3    H210552   3.237   3.388   4.256  1.2157  1.8009  1.6182
 3516TIP3   OH210553   2.743   2.384   1.692  0.3566  0.2785 -0.0925
 3516TIP3    H110554   2.680   2.338   1.636  1.7996 -2.4901  0.3782
 3516TIP3    H210555   2.773   2.458   1.638 -2.4774  1.1282 -0.6706
 3517TIP3   OH210556   4.914   2.234   4.822  0.0118  0.3519 -0.0846
 3517TIP3    H110557   4.858   2.241   4.899 -0.3590 -0.3392 -0.2895
 3517TIP3    H210558   4.905   2.319   4.778  0.6382  0.9543  0.8956
 3518TIP3   OH210559   3.008   1.996   4.212 -0.4878  0.2279  0.2441
 3518TIP3    H110560   2.926   1.962   4.177 -1.7841  1.3087  2.0138
 3518TIP3    H210561   3.027   2.073   4.158 -0.5823 -0.0943 -0.2524
 3519TIP3   OH210562   4.619   5.266   2.414 -0.0398  0.2437  0.5791
 3519TIP3    H110563   4.570   5.241   2.336  0.5547 -0.2735  0.3592
 3519TIP3    H210564   4.705   5.293   2.381 -0.0202  0.6987  0.9923
 3520TIP3   OH210565   5.498   0.966   4.946 -0.0737 -0.0629 -0.4396
 3520TIP3    H110566   5.559   1.003   5.009  1.2816  0.4427 -1.9678
 3520TIP3    H210567   5.549   0.902   4.897 -1.0260 -0.3089 -1.1489
 3521TIP3   OH210568   1.675   1.437   2.785  0.2763 -0.2941  0.0150
 3521TIP3    H110569   1.595   1.390   2.762 -1.6989  1.7807  2.0681
 3521TIP3    H210570   1.734   1.370   2.819 -1.4769 -1.6065  0.5796
 3522TIP3   OH210571   5.673   4.663   2.618 -0.0846 -0.2375 -0.0666
 3522TIP3    H110572   5.669   4.625   2.706  0.3168  2.3837  1.1973
 3522TIP3    H210573   5.747   4.619   2.576 -0.0764 -1.3178  1.0067
 3523TIP3   OH210574   2.770   1.361   1.153  0.6504 -0.5707  0.2265
 3523TIP3    H110575   2.706   1.334   1.218 -0.4169 -2.6241 -1.5608
 3523TIP3    H210576   2.841   1.400   1.204 -0.5988 -1.0915  2.4994
 3524TIP3   OH210577   5.417   2.895   0.595  0.4361 -0.3746 -0.0022
 3524TIP3    H110578   5.371   2.953   0.655 -0.5132 -1.2338  0.1362
 3524TIP3    H210579   5.424   2.812   0.642  0.2111 -0.8831 -0.8349
 3525TIP3   OH210580   2.834   3.648   0.782 -1.0071 -0.6506  0.3186
 3525TIP3    H110581   2.835   3.626   0.689  0.6409  0.8156 -0.0518
 3525TIP3    H210582   2.747   3.684   0.798 -1.1388 -0.4734 -0.7671
 3526TIP3   OH210583   0.499   4.965   4.581 -0.0062 -0.1726 -0.0202
 3526TIP3    H110584   0.520   4.911   4.505 -2.3415  0.4567 -1.2067
 3526TIP3    H210585   0.472   5.049   4.544 -0.0360  0.5681  1.5877
 3527TIP3   OH210586   5.097   2.442   0.941 -0.1257 -0.0524  0.4639
 3527TIP3    H110587   5.186   2.436   0.904  0.7879 -0.8026  2.6108
 3527TIP3    H210588   5.044   2.479   0.870  1.9187  0.5394 -0.8544
 3528TIP3   OH210589   5.470   0.082   3.080  0.0651  0.5119  0.3041
 3528TIP3    H110590   5.524   0.161   3.079  0.7996  0.0323  1.0109
 3528TIP3    H210591   5.380   0.115   3.072  0.1928  1.5807  2.5818
 3529TIP3   OH210592   2.895   1.756   1.789 -0.6826  0.4835 -0.2147
 3529TIP3    H110593   2.926   1.820   1.725  1.8000  0.8255  1.2091
 3529TIP3    H210594   2.887   1.806   1.870 -1.4694 -0.4416  0.2897
 3530TIP3   OH210595   1.975   1.463   2.387 -0.0298 -0.0001  0.3467
 3530TIP3    H110596   1.942   1.373   2.382  0.3054 -0.0838 -0.6394
 3530TIP3    H210597   1.963   1.488   2.478  0.6219 -1.3263  0.8264
 3531TIP3   OH210598   5.667   3.491   3.774 -0.5700  0.6645  0.1200
 3531TIP3    H110599   5.648   3.557   3.840  1.8609  0.1435  1.4591
 3531TIP3    H210600   5.706   3.419   3.823  2.1993  0.6238 -1.9160
 3532TIP3   OH210601   0.661   5.144   1.852 -0.8972  0.1260 -0.8022
 3532TIP3    H110602   0.732   5.167   1.792 -0.4909  1.2091  0.0552
 3532TIP3    H210603   0.699   5.156   1.939 -1.3598 -1.7588 -0.2852
 3533TIP3   OH210604   1.356   4.308   1.848 -0.9165 -0.0524 -0.0690
 3533TIP3    H110605   1.369   4.402   1.843  1.6805 -0.3439 -0.5470
 3533TIP3    H210606   1.263   4.295   1.834 -1.0150  2.2895 -2.1825
 3534TIP3   OH210607   3.678   1.584   2.859  1.0347  0.1428 -0.4896
 3534TIP3    H110608   3.678   1.653   2.925  2.3985 -0.6389  0.3714
 3534TIP3    H210609   3.737   1.616   2.791 -0.2218  0.8619 -1.2968
 3535TIP3   OH210610   1.912   2.413   0.487 -0.4468  0.5137 -0.5397
 3535TIP3    H110611   1.893   2.492   0.436 -0.9382  1.1698  0.6286
 3535TIP3    H210612   1.934   2.446   0.575 -1.7720 -0.6957  0.2755
 3536TIP3   OH210613   3.995   2.015   3.788 -0.9889 -0.5703  0.1692
 3536TIP3    H110614   3.946   2.087   3.748 -0.8101 -0.0644  0.8439
 3536TIP3    H210615   4.087   2.034   3.767 -1.0910 -2.0157 -1.9118
 3537TIP3   OH210616   5.571   3.332   4.741  0.3796  0.2140 -0.2251
 3537TIP3    H110617   5.498   3.317   4.682  0.1526  0.6562 -0.0629
 3537TIP3    H210618   5.537   3.393   4.806  1.4756  2.0328 -1.2811
 3538TIP3   OH210619   2.766   1.128   3.921 -0.0609  0.2901 -0.1505
 3538TIP3    H110620   2.822   1.074   3.977 -0.6899  0.7921  1.0002
 3538TIP3    H210621   2.808   1.215   3.923 -0.1544  0.3402 -0.3601
 3539TIP3   OH210622   5.303   4.892   3.662 -0.4546  0.0197 -0.2432
 3539TIP3    H110623   5.398   4.880   3.671 -0.5380 -0.6812 -0.2420
 3539TIP3    H210624   5.280   4.958   3.728 -0.2213 -1.0205  0.8988
 3540TIP3   OH210625   3.899   2.835   0.341  0.9706 -0.3951 -0.4305
 3540TIP3    H110626   3.900   2.870   0.430  3.7524 -0.0398 -0.5150
 3540TIP3    H210627   3.834   2.888   0.295 -1.0495 -1.0688  1.4989
 3541TIP3   OH210628   0.357   3.685   5.178 -0.1702 -0.0645 -0.5098
 3541TIP3    H110629   0.358   3.778   5.155  0.9427 -0.4163 -2.0447
 3541TIP3    H210630   0.449   3.660   5.182 -0.3979 -0.7746  1.4707
 3542TIP3   OH210631   2.241   3.699   1.049  0.4633 -0.1214 -0.0065
 3542TIP3    H110632   2.290   3.705   1.131  2.1700 -1.0005 -0.9008
 3542TIP3    H210633   2.239   3.788   1.014  2.9315 -0.2927 -0.7395
 3543TIP3   OH210634   2.050   3.143   4.249 -0.2728 -0.0871  0.0198
 3543TIP3    H110635   2.122   3.088   4.280 -0.6410  0.1112  1.2762
 3543TIP3    H210636   2.088   3.229   4.237  0.0085 -0.3024 -0.6924
 3544TIP3   OH210637   2.070   4.452   1.904  0.0111  0.8829 -0.1798
 3544TIP3    H110638   2.060   4.483   1.814 -2.3097  2.4692  0.5232
 3544TIP3    H210639   2.049   4.528   1.958  2.6332  0.3363  1.7711
 3545TIP3   OH210640   4.061   5.843   4.858  0.1040  0.1333  0.2156
 3545TIP3    H110641   3.980   5.807   4.895 -0.9474  0.4187 -1.7156
 3545TIP3    H210642   4.072   5.927   4.902 -0.2562 -0.1987  0.9665
 3546TIP3   OH210643   1.675   0.408   2.516 -0.2011 -0.1004  0.4926
 3546TIP3    H110644   1.668   0.414   2.421  0.2262 -0.8659  0.4017
 3546TIP3    H210645   1.723   0.487   2.542 -0.0811 -0.0244  0.0454
 3547TIP3   OH210646   0.657   3.157   1.145 -0.1042  0.1493  0.2266
 3547TIP3    H110647   0.740   3.111   1.156  1.1292  1.8288 -1.6026
 3547TIP3    H210648   0.643   3.201   1.229  0.5029 -0.6637  0.7684
 3548TIP3   OH210649   4.743   2.490   5.056 -0.3689 -0.2697 -0.2038
 3548TIP3    H110650   4.688   2.503   4.979 -1.6445 -2.9494  0.1405
 3548TIP3    H210651   4.790   2.409   5.039 -0.0669 -0.4907  1.4931
 3549TIP3   OH210652   1.511  -0.009   2.079  0.0102  0.2533 -0.5081
 3549TIP3    H110653   1.556   0.050   2.140  0.0375 -1.5342  1.3278
 3549TIP3    H210654   1.424   0.028   2.069  0.2000  0.9068  0.1674
 3550TIP3   OH210655   5.712   1.240   3.556  0.3965  0.1553 -0.1995
 3550TIP3    H110656   5.785   1.212   3.611  0.7023 -1.3522 -1.3117
 3550TIP3    H210657   5.689   1.327   3.590  2.5882  0.6121  0.2781
 3551TIP3   OH210658   0.187   5.840   1.315  0.1615 -0.2929  0.1276
 3551TIP3    H110659   0.196   5.886   1.232 -1.1678 -2.8822 -1.5790
 3551TIP3    H210660   0.116   5.886   1.360 -0.2003  0.1596 -0.8857
 3552TIP3   OH210661   5.732   0.821   0.453 -0.2308  0.0168  0.3285
 3552TIP3    H110662   5.718   0.827   0.359 -1.3279  1.2990  0.5536
 3552TIP3    H210663   5.647   0.797   0.489  0.2095 -0.5791  0.9891
 3553TIP3   OH210664   6.175   2.977   3.170 -0.7054  0.4157 -0.0992
 3553TIP3    H110665   6.250   2.936   3.127 -1.0055  0.7560 -0.9620
 3553TIP3    H210666   6.114   2.996   3.099 -0.7552  1.9843  0.3248
 3554TIP3   OH210667   4.938   5.751   1.706  0.0413 -0.3002  0.0710
 3554TIP3    H110668   4.843   5.747   1.699  0.0494 -0.6147  0.1014
 3554TIP3    H210669   4.966   5.659   1.701  0.2333 -0.3505  1.5388
 3555TIP3   OH210670   2.069   1.956   2.024  0.0575  0.2289 -0.6253
 3555TIP3    H110671   2.051   1.998   2.108  2.0122  0.5368 -0.3211
 3555TIP3    H210672   2.075   1.863   2.044 -1.0899  0.1144 -0.7382
 3556TIP3   OH210673   5.524   1.110   0.484  0.2131  0.6306  0.0668
 3556TIP3    H110674   5.487   1.060   0.412 -1.6669  0.0622  1.3528
 3556TIP3    H210675   5.615   1.124   0.459 -0.7509  2.0508 -3.2660
 3557TIP3   OH210676   0.173   3.809   4.869 -0.2990  0.1091 -0.4961
 3557TIP3    H110677   0.131   3.794   4.785  1.1270  1.5657 -1.5209
 3557TIP3    H210678   0.230   3.733   4.882 -1.3496 -0.6640 -0.2739
 3558TIP3   OH210679   0.068   3.939   3.528 -0.0045 -0.2932 -0.2302
 3558TIP3    H110680   0.130   3.872   3.498  0.6947  0.7186 -1.1087
 3558TIP3    H210681   0.099   4.020   3.488 -0.6106  0.6396  1.1112
 3559TIP3   OH210682   4.461   1.145   1.952  0.0008 -0.3185  0.2759
 3559TIP3    H110683   4.468   1.064   1.902  1.3220 -0.0277 -0.0482
 3559TIP3    H210684   4.500   1.212   1.895 -0.9665  0.5375  0.5797
 3560TIP3   OH210685   0.792   2.532   4.836 -0.0268 -0.1489 -0.0897
 3560TIP3    H110686   0.830   2.620   4.836 -2.5298  1.0658  2.1672
 3560TIP3    H210687   0.860   2.477   4.875  0.4795  1.3894  1.2920
 3561TIP3   OH210688   3.613   1.244   2.529  0.2537  0.3998 -0.3305
 3561TIP3    H110689   3.605   1.273   2.438  0.3331  2.1078  0.1623
 3561TIP3    H210690   3.578   1.155   2.529 -0.6938  0.7252 -1.8440
 3562TIP3   OH210691   1.408   0.108   4.958 -0.4586  0.5257  0.1468
 3562TIP3    H110692   1.432   0.194   4.991  0.6409  0.3991 -0.3134
 3562TIP3    H210693   1.480   0.082   4.901 -1.6907  0.1520 -1.3148
 3563TIP3   OH210694   0.318   1.992   4.416  0.4508  0.2163  0.3671
 3563TIP3    H110695   0.232   1.999   4.457  0.3730 -1.2625  0.5081
 3563TIP3    H210696   0.370   2.062   4.456 -0.2177  0.1110  1.4463
 3564TIP3   OH210697   6.050   1.039   0.401  0.2091  0.4766 -0.3710
 3564TIP3    H110698   6.058   0.973   0.471 -0.8695 -0.6388 -1.2640
 3564TIP3    H210699   6.131   1.090   0.407  0.3827  0.0510  1.3250
 3565TIP3   OH210700   2.728   5.132   3.702  0.1776 -0.1336  1.1121
 3565TIP3    H110701   2.725   5.216   3.656 -0.1839 -0.1760  1.0594
 3565TIP3    H210702   2.758   5.070   3.635  1.8746  0.1933  1.5089
 3566TIP3   OH210703   2.959   2.473   1.467 -0.4368  0.4004  0.4385
 3566TIP3    H110704   2.931   2.563   1.451  0.0797  0.4264 -0.3344
 3566TIP3    H210705   3.035   2.482   1.524  0.5226  0.5436 -0.8253
 3567TIP3   OH210706   5.957   3.821   3.964  0.6821  0.1020  0.2092
 3567TIP3    H110707   5.973   3.727   3.961 -1.8702 -0.3893 -1.1171
 3567TIP3    H210708   5.885   3.832   4.026 -0.3640  0.8796 -1.0704
 3568TIP3   OH210709   2.755   2.323   0.874 -0.3577  0.1343  0.0301
 3568TIP3    H110710   2.695   2.253   0.900 -1.4508  1.2321  0.5864
 3568TIP3    H210711   2.755   2.320   0.778 -0.0292 -0.9033  0.0501
 3569TIP3   OH210712   4.694   2.805   3.005 -0.4048 -0.2629  0.1344
 3569TIP3    H110713   4.687   2.896   2.979  0.3969 -0.4035 -0.6564
 3569TIP3    H210714   4.761   2.804   3.074 -0.7352 -0.2031  0.4594
 3570TIP3   OH210715   6.345   2.569   2.253  0.2128  0.3459 -0.4886
 3570TIP3    H110716   6.258   2.606   2.239  0.2985  1.0256  0.6843
 3570TIP3    H210717   6.348   2.492   2.197 -1.3431  0.0079 -0.1292
 3571TIP3   OH210718   4.966   5.216   4.277 -0.3832  0.2839 -0.2701
 3571TIP3    H110719   4.908   5.141   4.262 -0.1179  0.3901 -2.1077
 3571TIP3    H210720   4.967   5.227   4.372 -2.6627 -0.2698 -0.1171
 3572TIP3   OH210721   4.541   4.227   4.932 -0.3590  0.1273 -0.0163
 3572TIP3    H110722   4.628   4.242   4.894 -0.2881  0.0159  0.0996
 3572TIP3    H210723   4.500   4.313   4.934 -0.4563  0.1036 -0.5715
 3573TIP3   OH210724   4.335   5.465   2.755  1.1095 -0.4091 -0.0292
 3573TIP3    H110725   4.405   5.402   2.767  2.1363  0.8187  0.7192
 3573TIP3    H210726   4.378   5.541   2.715 -0.0822 -0.1528 -0.8875
 3574TIP3   OH210727   4.795   3.522   4.101  0.0689  0.0265 -0.3311
 3574TIP3    H110728   4.738   3.481   4.036  0.0418 -0.3443 -0.0757
 3574TIP3    H210729   4.873   3.549   4.051 -0.3537  0.5992 -0.6925
 3575TIP3   OH210730   2.334   5.021   3.744 -0.1758 -0.1494  0.5108
 3575TIP3    H110731   2.356   5.024   3.650  2.5204  0.9014  1.0796
 3575TIP3    H210732   2.312   4.929   3.760  2.2139 -1.0088 -0.6554
 3576TIP3   OH210733   1.359   5.668   0.986 -0.1366  0.0696  0.1321
 3576TIP3    H110734   1.327   5.660   0.896 -0.5299 -0.8849  0.3477
 3576TIP3    H210735   1.285   5.705   1.034  0.5826  2.0881 -0.2126
 3577TIP3   OH210736   1.517   5.670   1.625  0.0187  0.1495 -0.4556
 3577TIP3    H110737   1.517   5.585   1.581 -0.6173 -1.7323  2.8453
 3577TIP3    H210738   1.429   5.705   1.611  0.0370 -0.0845 -1.1800
 3578TIP3   OH210739   1.445   5.472   2.477  0.2256 -0.6507  0.0007
 3578TIP3    H110740   1.358   5.511   2.469 -0.1571 -1.5336 -0.2633
 3578TIP3    H210741   1.504   5.547   2.483 -0.5265 -0.0371 -0.0477
 3579TIP3   OH210742   0.477   2.779   0.003  0.2443 -0.5643  0.2167
 3579TIP3    H110743   0.488   2.739   0.090  0.1731 -0.5026  0.2539
 3579TIP3    H210744   0.482   2.873   0.020  2.5478 -0.5761 -0.1408
 3580TIP3   OH210745   3.510   3.459   2.342  0.3516 -0.1501 -0.3642
 3580TIP3    H110746   3.466   3.440   2.425 -0.6013 -1.7959 -1.1960
 3580TIP3    H210747   3.546   3.375   2.315  0.1751  0.2375 -1.8850
 3581TIP3   OH210748   2.923   5.048   4.116  0.5138  0.2573  0.2746
 3581TIP3    H110749   2.849   5.070   4.060 -1.4273 -2.2499  1.6665
 3581TIP3    H210750   2.891   5.060   4.206  1.9893 -0.3059  0.9254
 3582TIP3   OH210751   3.891   3.208   4.571 -0.5077 -0.5648 -0.0367
 3582TIP3    H110752   3.856   3.159   4.498 -2.5357  0.9679 -0.1840
 3582TIP3    H210753   3.817   3.262   4.602  1.3490  1.8623  0.5063
 3583TIP3   OH210754   6.325   0.042   4.060  0.2135  0.4757  0.2759
 3583TIP3    H110755   6.290   0.044   4.149 -0.7568 -0.2329 -0.0838
 3583TIP3    H210756   6.383  -0.035   4.059  1.0415  1.0754  0.5782
 3584TIP3   OH210757   5.053   0.763   0.190 -0.3664 -0.4420 -0.3367
 3584TIP3    H110758   5.105   0.737   0.114 -1.2525 -2.7059 -0.2480
 3584TIP3    H210759   4.969   0.791   0.153  0.4081  2.0412 -0.3914
 3585TIP3   OH210760   3.189   1.082   5.091  1.2811  0.4979  0.0595
 3585TIP3    H110761   3.275   1.108   5.124  1.1335  0.8059  0.2153
 3585TIP3    H210762   3.129   1.147   5.128  1.1187  0.8978 -0.8802
 3586TIP3   OH210763   1.773   0.900   1.846 -0.2178  0.5308  0.2347
 3586TIP3    H110764   1.795   0.960   1.774 -1.9468  0.4821 -0.3765
 3586TIP3    H210765   1.692   0.936   1.883 -1.2425 -1.3631 -0.0782
 3587TIP3   OH210766   0.158   5.443   4.792 -0.2143 -0.3209 -0.5289
 3587TIP3    H110767   0.216   5.376   4.827  0.4834  0.3156 -0.4467
 3587TIP3    H210768   0.090   5.394   4.745 -0.5606 -1.1395  0.7664
 3588TIP3   OH210769   6.105   3.514   1.369 -0.9270 -0.2522 -0.4585
 3588TIP3    H110770   6.065   3.558   1.444 -1.1039 -0.3658 -0.4845
 3588TIP3    H210771   6.089   3.574   1.296 -2.2719 -0.9250 -0.7365
 3589TIP3   OH210772   1.809   2.914   3.648 -0.5386  0.5057  0.1500
 3589TIP3    H110773   1.753   2.970   3.593 -1.5464  0.3606  0.9838
 3589TIP3    H210774   1.788   2.941   3.737  0.2334 -0.0405  0.4998
 3590TIP3   OH210775   2.186   4.043   2.938  0.0573 -0.1153 -0.3716
 3590TIP3    H110776   2.138   4.038   3.021  0.8478  1.0697  0.1886
 3590TIP3    H210777   2.127   4.089   2.878  0.1409  0.5472  0.0482
 3591TIP3   OH210778   5.631   5.781   1.907 -0.5559  0.0555  0.4503
 3591TIP3    H110779   5.648   5.709   1.967 -0.4285  0.2247  0.6162
 3591TIP3    H210780   5.667   5.858   1.950 -0.1172  0.1170 -0.0107
 3592TIP3   OH210781   5.638   4.114   1.702 -1.2584 -0.1853 -0.2019
 3592TIP3    H110782   5.699   4.085   1.769 -0.9338  0.2400 -0.3136
 3592TIP3    H210783   5.658   4.060   1.626 -1.8795 -0.9334  0.1469
 3593TIP3   OH210784   3.022   3.516   0.967 -0.1660 -0.3137 -0.5118
 3593TIP3    H110785   2.968   3.557   0.900 -1.4678 -0.7856  0.2026
 3593TIP3    H210786   2.973   3.436   0.991  0.2739 -0.1664  0.9574
 3594TIP3   OH210787   4.796   0.511   2.431 -0.6426 -0.0651 -0.1969
 3594TIP3    H110788   4.881   0.518   2.474 -0.2799  0.1258 -0.9248
 3594TIP3    H210789   4.779   0.417   2.427 -0.4347 -0.1066 -0.1060
 3595TIP3   OH210790   0.656   3.848   2.115 -0.1485 -0.3723  0.0913
 3595TIP3    H110791   0.735   3.853   2.061 -0.2943 -1.1205 -0.1998
 3595TIP3    H210792   0.612   3.932   2.101  0.0488 -0.3767 -0.5797
 3596TIP3   OH210793   0.791   3.162   1.575 -0.3490  0.3192 -0.3935
 3596TIP3    H110794   0.822   3.219   1.646  1.6812 -1.4876  0.2659
 3596TIP3    H210795   0.822   3.075   1.598 -0.6400 -0.5487 -2.9386
 3597TIP3   OH210796   5.555   2.068   3.901  0.2478  0.2881 -0.7312
 3597TIP3    H110797   5.557   2.010   3.825  0.7710 -0.4744 -0.1503
 3597TIP3    H210798   5.566   2.156   3.864 -2.3148  0.2350 -1.7850
 3598TIP3   OH210799   2.503   2.120   2.531 -0.0968  0.5433 -0.7641
 3598TIP3    H110800   2.458   2.082   2.456  0.4322 -0.2970 -0.6688
 3598TIP3    H210801   2.488   2.214   2.522  0.1377  0.4853 -2.0452
 3599TIP3   OH210802   3.977   0.604   3.550  0.3430  0.3814 -0.9894
 3599TIP3    H110803   3.987   0.561   3.466 -0.3402 -1.5532 -0.1346
 3599TIP3    H210804   4.060   0.588   3.595 -0.3344 -1.1144 -0.2267
 3600TIP3   OH210805   2.324   5.914   4.642  0.5646 -0.1053 -0.3361
 3600TIP3    H110806   2.402   5.870   4.675  0.9919  0.8384 -0.0321
 3600TIP3    H210807   2.343   6.008   4.654  0.3769  0.2520 -2.5109
 3601TIP3   OH210808   5.404   3.725   0.223 -0.5060 -0.1706 -0.0748
 3601TIP3    H110809   5.493   3.751   0.200  0.0150 -1.2876  0.5697
 3601TIP3    H210810   5.401   3.632   0.200 -1.2466 -0.3370  0.6804
 3602TIP3   OH210811   1.013   3.161   4.825 -0.1868 -0.6361 -0.3099
 3602TIP3    H110812   1.068   3.174   4.903  0.4610 -3.5963 -0.1811
 3602TIP3    H210813   1.075   3.153   4.753 -0.5360 -1.9682 -0.4779
 3603TIP3   OH210814   5.381   0.665   3.296  0.1417 -0.6009 -0.2469
 3603TIP3    H110815   5.410   0.597   3.235 -1.5724 -2.4617  0.8989
 3603TIP3    H210816   5.367   0.619   3.379 -0.6232  1.2356  0.7009
 3604TIP3   OH210817   2.587   0.280   1.654 -0.0106 -0.6024  0.4774
 3604TIP3    H110818   2.506   0.244   1.691 -1.4798 -0.4432 -2.3026
 3604TIP3    H210819   2.623   0.335   1.723 -3.4465  1.0681  1.1475
 3605TIP3   OH210820   4.019   0.983   1.315  0.3739 -0.0726 -0.1103
 3605TIP3    H110821   4.046   1.074   1.302  2.2745 -0.4085  1.1047
 3605TIP3    H210822   3.999   0.976   1.409 -1.4408 -0.5360 -0.4782
 3606TIP3   OH210823   1.531   5.358   2.835  0.3807 -0.3732 -0.0598
 3606TIP3    H110824   1.573   5.347   2.920  0.2619 -0.6218 -0.0321
 3606TIP3    H210825   1.596   5.329   2.772  0.2199 -0.8477 -0.0112
 3607TIP3   OH210826   0.360   3.728   3.033  0.3386 -0.9500 -0.0559
 3607TIP3    H110827   0.377   3.716   2.940  1.3630  0.7143 -0.1197
 3607TIP3    H210828   0.406   3.655   3.075 -1.2826 -2.5261 -0.8881
 3608TIP3   OH210829   6.237   2.410   3.000  0.0129  0.1140 -0.0568
 3608TIP3    H110830   6.184   2.463   3.059 -1.5790 -0.3730 -1.0122
 3608TIP3    H210831   6.176   2.375   2.936  1.2085 -1.8218 -0.2401
 3609TIP3   OH210832   4.878   2.796   3.934 -0.1088 -0.4758 -0.6252
 3609TIP3    H110833   4.819   2.771   4.006  1.0635 -1.6033 -0.0140
 3609TIP3    H210834   4.853   2.886   3.913  1.6139  1.1955  3.4516
 3610TIP3   OH210835   2.625   2.373   2.190 -0.6944  0.4077  0.1499
 3610TIP3    H110836   2.640   2.454   2.141  0.7895  0.9389  1.4039
 3610TIP3    H210837   2.678   2.307   2.144 -0.5514  0.5377  0.1301
 3611TIP3   OH210838   1.032   4.386   1.137  0.1674 -0.5554  0.1071
 3611TIP3    H110839   1.007   4.294   1.133 -2.4401  0.1007 -0.5627
 3611TIP3    H210840   1.012   4.420   1.050  0.0541  0.8807  0.6708
 3612TIP3   OH210841   3.401   1.420   3.421 -0.5560  0.1280 -0.3868
 3612TIP3    H110842   3.386   1.480   3.493 -2.2161  0.7161 -1.1788
 3612TIP3    H210843   3.429   1.339   3.463  0.6311  1.0977  0.7599
 3613TIP3   OH210844   1.074   0.916   3.786  0.1864  0.5449 -0.2967
 3613TIP3    H110845   1.063   0.855   3.860 -1.0101 -0.5638 -1.3464
 3613TIP3    H210846   1.085   0.859   3.710 -0.8589  1.6474 -1.2977
 3614TIP3   OH210847   1.437   5.950   2.561  0.1155 -1.3894  0.3054
 3614TIP3    H110848   1.437   6.043   2.581 -0.5671 -1.0873 -0.9756
 3614TIP3    H210849   1.345   5.927   2.549  0.3786 -1.7982 -1.1541
 3615TIP3   OH210850   1.199   0.257   3.635 -0.0918  0.5035 -1.1192
 3615TIP3    H110851   1.108   0.228   3.640 -0.3488  0.7974 -3.2265
 3615TIP3    H210852   1.244   0.209   3.705 -2.1289  1.6010  1.0766
 3616TIP3   OH210853   5.366   0.041   0.283 -0.4673  0.4468  0.2829
 3616TIP3    H110854   5.418   0.055   0.204  0.4006  0.4090  0.8265
 3616TIP3    H210855   5.424  -0.007   0.342 -0.8087  1.1489  1.2329
 3617TIP3   OH210856   3.655   2.893   5.040 -0.1908 -0.1197  0.2845
 3617TIP3    H110857   3.659   2.939   4.955  0.6262  0.8055  0.7928
 3617TIP3    H210858   3.646   2.964   5.104 -1.1497 -0.8329  0.9593
 3618TIP3   OH210859   0.393   4.247   2.564  0.4166  0.1151  0.8539
 3618TIP3    H110860   0.415   4.238   2.656  0.6355 -0.1188  0.7815
 3618TIP3    H210861   0.376   4.341   2.552 -0.0683  0.0749  1.2280
 3619TIP3   OH210862   3.072   0.870   0.435 -0.4086  0.1986  0.0078
 3619TIP3    H110863   3.042   0.780   0.421  1.1135 -0.3820  0.1962
 3619TIP3    H210864   3.126   0.865   0.514 -0.0831  1.2281 -0.1331
 3620TIP3   OH210865   3.217   2.996   2.757  0.7070 -0.1342  0.2927
 3620TIP3    H110866   3.145   2.936   2.774 -0.4314  1.3488  0.8864
 3620TIP3    H210867   3.287   2.966   2.815 -0.2161 -0.2449  1.3784
 3621TIP3   OH210868   4.982   4.168   0.397  0.4159  0.2257 -0.0859
 3621TIP3    H110869   4.941   4.178   0.482  1.3311  1.3749  0.2542
 3621TIP3    H210870   4.942   4.236   0.343  0.7358  0.3262 -0.2008
 3622TIP3   OH210871   4.317   0.002   1.920 -0.0304 -0.2903  0.1440
 3622TIP3    H110872   4.355   0.067   1.861 -0.5627 -0.2729 -0.1861
 3622TIP3    H210873   4.223   0.020   1.918 -0.3230 -1.7290 -0.7998
 3623TIP3   OH210874   6.280   0.703   1.567  0.2238 -0.0686 -0.6328
 3623TIP3    H110875   6.315   0.709   1.479 -0.0042 -2.2305 -0.9306
 3623TIP3    H210876   6.356   0.715   1.624  0.6736 -0.3735 -1.1655
 3624TIP3   OH210877   2.331   2.423   2.197  0.0046 -0.3860  0.6739
 3624TIP3    H110878   2.281   2.364   2.253 -1.0550  1.0860  1.3378
 3624TIP3    H210879   2.418   2.383   2.192 -0.3195 -1.3555  2.1072
 3625TIP3   OH210880   0.888   3.181   1.316 -0.2345 -0.1319  0.3759
 3625TIP3    H110881   0.839   3.183   1.398  0.1873  1.4836  0.6202
 3625TIP3    H210882   0.980   3.178   1.342 -0.1256 -1.5792 -0.0736
 3626TIP3   OH210883   3.061   5.504   2.173  0.2666  0.4196  0.5418
 3626TIP3    H110884   3.057   5.418   2.214 -0.7311  0.3841  0.3984
 3626TIP3    H210885   3.092   5.486   2.084 -1.5369 -0.0161 -0.0308
 3627TIP3   OH210886   2.341   4.530   0.438  0.1658 -0.6146 -0.0185
 3627TIP3    H110887   2.278   4.458   0.439 -0.9613  0.3448 -0.2573
 3627TIP3    H210888   2.368   4.537   0.347 -1.1759  0.4772 -0.3535
 3628TIP3   OH210889   5.960   3.734   2.616 -0.3931  1.1750  0.0766
 3628TIP3    H110890   6.011   3.719   2.536 -0.4377  1.1995  0.0438
 3628TIP3    H210891   5.928   3.647   2.639 -0.9128  1.2644 -0.2874
 3629TIP3   OH210892   3.820   5.727   3.406 -0.0710  0.1665 -0.0443
 3629TIP3    H110893   3.869   5.784   3.466  1.4965 -1.1164 -0.0256
 3629TIP3    H210894   3.743   5.700   3.456 -0.3521  1.4833  0.2780
 3630TIP3   OH210895   6.151   4.488   1.870 -0.2201  0.0373  0.0433
 3630TIP3    H110896   6.159   4.573   1.913 -0.7309  0.5899 -0.9243
 3630TIP3    H210897   6.186   4.426   1.934  2.3876  1.1952 -0.1393
 3631TIP3   OH210898   5.452   2.847   0.317 -0.0054  0.3980 -0.0864
 3631TIP3    H110899   5.442   2.855   0.412  0.3807 -0.5012  0.0427
 3631TIP3    H210900   5.520   2.910   0.294 -1.0256  1.5765  0.0285
 3632TIP3   OH210901   5.661   3.928   1.472  0.3430 -0.5562  0.3320
 3632TIP3    H110902   5.597   3.889   1.531 -0.6518 -0.9322 -0.9374
 3632TIP3    H210903   5.722   3.858   1.452  0.2191 -0.6524  0.2928
 3633TIP3   OH210904   2.398   4.976   0.768 -0.4592 -0.6111  0.0168
 3633TIP3    H110905   2.447   4.988   0.849 -0.0210  1.2672 -0.4576
 3633TIP3    H210906   2.388   4.882   0.759  1.1439 -0.9503  1.2824
 3634TIP3   OH210907   0.711   4.434   3.741 -0.1795 -0.1274 -0.6015
 3634TIP3    H110908   0.682   4.482   3.664  1.9669 -1.0376 -2.0883
 3634TIP3    H210909   0.688   4.343   3.723  0.8602 -0.4311 -0.4981
 3635TIP3   OH210910   1.516   2.736   1.026  0.2015  0.3098 -0.1937
 3635TIP3    H110911   1.529   2.751   0.932 -1.4568  0.1458 -0.4830
 3635TIP3    H210912   1.492   2.822   1.060 -0.9273  0.0307 -0.2614
 3636TIP3   OH210913   1.579   5.567   3.199  0.1282  0.8976  0.1841
 3636TIP3    H110914   1.548   5.653   3.170 -0.1448  1.0359  0.8701
 3636TIP3    H210915   1.601   5.580   3.292  0.4900  0.3351  0.1777
 3637TIP3   OH210916   3.892   3.516   1.139 -0.0560 -0.1535 -0.8578
 3637TIP3    H110917   3.927   3.517   1.228 -0.0801 -0.4005 -0.8457
 3637TIP3    H210918   3.852   3.602   1.128 -0.9243 -0.4709 -0.2855
 3638TIP3   OH210919   5.677   0.514   2.896 -0.2338  0.0174 -0.6566
 3638TIP3    H110920   5.740   0.580   2.866 -0.1169  0.7020  0.9738
 3638TIP3    H210921   5.601   0.526   2.839 -0.7683  2.5619  0.4548
 3639TIP3   OH210922   3.687   3.323   4.347  0.6080 -0.1427  0.4281
 3639TIP3    H110923   3.728   3.401   4.311  1.5973 -0.4892  0.7639
 3639TIP3    H210924   3.660   3.347   4.435 -1.8352  0.7128 -0.4669
 3640TIP3   OH210925   5.053   3.489   2.318  0.4885 -0.1478 -0.1930
 3640TIP3    H110926   5.053   3.536   2.236 -1.1829  1.1190  0.4862
 3640TIP3    H210927   5.144   3.491   2.347  1.0012 -0.1669 -1.7251
 3641TIP3   OH210928   5.740   1.595   1.295  0.2778 -0.1754 -0.1890
 3641TIP3    H110929   5.802   1.522   1.298  0.1479 -0.2481  1.4477
 3641TIP3    H210930   5.773   1.658   1.359 -0.9814  0.0731  0.2396
 3642TIP3   OH210931   3.332   5.632   3.038  0.2041  0.4763 -0.0126
 3642TIP3    H110932   3.288   5.627   3.122 -1.6558  2.8600 -0.7542
 3642TIP3    H210933   3.400   5.699   3.050 -0.8313  1.6866 -0.6615
 3643TIP3   OH210934   6.043   3.428   2.548 -0.2014 -0.9505 -0.3749
 3643TIP3    H110935   5.984   3.455   2.618  0.2646 -2.3006  0.5782
 3643TIP3    H210936   6.001   3.350   2.511  0.9743 -1.9534  0.3463
 3644TIP3   OH210937   4.613   4.388   2.776 -0.0190  0.0555  0.2257
 3644TIP3    H110938   4.551   4.316   2.766  0.8956 -0.5526 -1.5872
 3644TIP3    H210939   4.658   4.370   2.858 -0.5981 -0.7997  0.3726
 3645TIP3   OH210940   3.220   4.629   4.067 -0.0516 -0.2194  0.5431
 3645TIP3    H110941   3.243   4.587   4.150  0.6851 -0.2460  0.3383
 3645TIP3    H210942   3.173   4.708   4.092 -0.2559 -0.4742  0.9733
 3646TIP3   OH210943   4.961   1.641   2.620  0.0704  0.5442  0.3190
 3646TIP3    H110944   4.899   1.568   2.610 -0.6275  1.2977 -1.2353
 3646TIP3    H210945   5.046   1.603   2.600  0.0707 -0.3631  1.8715
 3647TIP3   OH210946   2.650   5.663   4.411 -0.5141  0.0833  0.2070
 3647TIP3    H110947   2.670   5.711   4.331 -2.6877 -0.1078 -0.5216
 3647TIP3    H210948   2.648   5.571   4.384 -0.8000 -0.0257  0.5929
 3648TIP3   OH210949   0.789   5.721   4.418 -0.6288  0.2180  0.1179
 3648TIP3    H110950   0.736   5.800   4.408 -1.1469 -0.1019  0.3354
 3648TIP3    H210951   0.869   5.752   4.462 -2.0304  0.1856  2.9502
 3649TIP3   OH210952   3.221   0.428   4.079 -0.1766 -0.1321 -0.5949
 3649TIP3    H110953   3.218   0.515   4.119 -1.5238 -0.0157 -0.9063
 3649TIP3    H210954   3.145   0.382   4.116  0.0183 -0.8803 -1.1026
 3650TIP3   OH210955   5.464   3.457   0.309 -0.0552  0.0644  0.1096
 3650TIP3    H110956   5.483   3.390   0.375  0.3276  0.1357  0.0736
 3650TIP3    H210957   5.399   3.415   0.252  0.3750 -0.3787 -0.0664
 3651TIP3   OH210958   1.250   0.068   2.072  0.0851 -0.0414 -0.4104
 3651TIP3    H110959   1.213   0.064   2.160  0.0731 -0.2089 -0.4232
 3651TIP3    H210960   1.182   0.109   2.019  0.5862  1.2809 -0.0780
 3652TIP3   OH210961   5.717   2.037   4.205 -0.0298 -0.0111  0.3576
 3652TIP3    H110962   5.672   2.030   4.290 -0.3058  1.1121  0.3120
 3652TIP3    H210963   5.651   2.010   4.141 -0.1457  0.1372  0.4149
 3653TIP3   OH210964   5.577   0.318   1.972 -0.1477  0.1659  0.3776
 3653TIP3    H110965   5.558   0.227   1.949 -0.5613  0.4184 -0.3094
 3653TIP3    H210966   5.630   0.312   2.052  0.5982 -0.7148 -0.1563
 3654TIP3   OH210967   1.240   3.226   0.814  0.1482  0.0970  0.3530
 3654TIP3    H110968   1.258   3.134   0.794 -1.2691  0.4168 -2.9120
 3654TIP3    H210969   1.146   3.229   0.830 -0.1035  1.1550 -1.1220
 3655TIP3   OH210970   0.697   1.693   5.073  0.3255  0.0640 -0.1264
 3655TIP3    H110971   0.622   1.723   5.125  2.1613  0.8500  2.2177
 3655TIP3    H210972   0.768   1.751   5.098  2.6250 -2.7488  0.3516
 3656TIP3   OH210973   6.074   0.439   5.027 -0.1285  0.8819  0.2748
 3656TIP3    H110974   6.070   0.476   4.938  0.4049  2.3548  0.8224
 3656TIP3    H210975   6.144   0.488   5.070 -0.1626 -0.0286  1.4146
 3657TIP3   OH210976   0.609   0.434   1.977 -0.2804  0.8924  0.1960
 3657TIP3    H110977   0.542   0.371   2.003  0.1993  0.1077 -0.4085
 3657TIP3    H210978   0.691   0.384   1.979  0.3721  1.9498  1.3644
 3658TIP3   OH210979   0.235   0.035   1.033  0.0226  0.1190 -0.4235
 3658TIP3    H110980   0.276   0.016   1.118 -0.6554  1.0385  0.1217
 3658TIP3    H210981   0.189  -0.045   1.010 -0.6452  0.2021  0.5844
 3659TIP3   OH210982   2.177   1.913   0.321 -0.5749  0.1356  0.0307
 3659TIP3    H110983   2.162   1.909   0.416  1.6628  2.4674  0.5946
 3659TIP3    H210984   2.177   1.822   0.292  1.1369 -0.8343  2.7369
 3660TIP3   OH210985   1.998   0.944   0.900  0.3983  0.1307 -0.2105
 3660TIP3    H110986   1.990   0.916   0.991 -1.5048 -1.0839 -0.6833
 3660TIP3    H210987   1.955   1.029   0.897 -0.7227 -0.4293 -0.2161
 3661TIP3   OH210988   1.876   3.210   4.886  0.0724  0.0581 -0.2700
 3661TIP3    H110989   1.859   3.125   4.846  1.9602  0.2075 -1.4435
 3661TIP3    H210990   1.805   3.219   4.950 -2.2302 -0.8187 -2.5072
 3662TIP3   OH210991   2.825   0.372   2.645 -0.0633 -0.4201 -0.0843
 3662TIP3    H110992   2.905   0.355   2.595  0.1350 -1.0151  0.4281
 3662TIP3    H210993   2.845   0.344   2.734  0.4912  3.0557  1.0495
 3663TIP3   OH210994   0.167   3.312   4.080  0.1543 -0.1799  0.1711
 3663TIP3    H110995   0.229   3.268   4.138 -0.4625  1.0297  1.8418
 3663TIP3    H210996   0.207   3.397   4.062 -0.7415  0.3878  0.8009
 3664TIP3   OH210997   5.666   3.096   2.275  0.1831 -0.0158 -0.4970
 3664TIP3    H110998   5.623   3.014   2.250  2.7907 -1.5472 -0.3313
 3664TIP3    H210999   5.651   3.104   2.369 -0.0259 -0.3501 -0.5014
 3665TIP3   OH211000   5.818   4.328   1.862  0.2855 -0.0231  0.5577
 3665TIP3    H111001   5.834   4.344   1.954  1.2369 -0.0732  0.4078
 3665TIP3    H211002   5.723   4.333   1.853 -0.2175 -3.4096  2.1954
 3666TIP3   OH211003   2.212   0.853   0.447  0.5303  0.2365 -0.4208
 3666TIP3    H111004   2.203   0.831   0.540  0.9231  0.2402 -0.3807
 3666TIP3    H211005   2.197   0.947   0.443 -0.2511  0.1173 -0.4689
 3667TIP3   OH211006   5.232   2.444   3.461 -0.3941  0.0746  0.0892
 3667TIP3    H111007   5.303   2.425   3.399 -1.1771 -1.1745 -0.4750
 3667TIP3    H211008   5.270   2.425   3.547  0.1533  0.0342 -0.1556
 3668TIP3   OH211009   0.325   0.117   4.837 -0.1102  0.1183 -0.0259
 3668TIP3    H111010   0.258   0.069   4.884  1.1743  0.2795  2.1150
 3668TIP3    H211011   0.279   0.158   4.764 -2.0914 -0.6729  0.7132
 3669TIP3   OH211012   6.350   2.198   0.702  0.2501 -0.2611  0.8062
 3669TIP3    H111013   6.357   2.160   0.614 -0.0346  1.4571  0.0006
 3669TIP3    H211014   6.263   2.238   0.704 -0.1739 -1.1691  2.2823
 3670TIP3   OH211015   0.072   5.646   3.366  0.1614 -0.0832 -0.4583
 3670TIP3    H111016   0.039   5.556   3.355  2.2011 -0.8433 -0.9276
 3670TIP3    H211017   0.123   5.643   3.447 -1.5433  1.2763  0.7173
 3671TIP3   OH211018   3.376   0.523   1.716 -0.2297  0.3473  0.1291
 3671TIP3    H111019   3.325   0.446   1.693  0.0748  0.4644 -0.9550
 3671TIP3    H211020   3.442   0.491   1.778 -0.3255 -0.1918 -0.0469
 3672TIP3   OH211021   4.694   5.832   4.828  0.0386 -0.0920  0.1760
 3672TIP3    H111022   4.663   5.920   4.851 -0.5807 -0.2607  0.0190
 3672TIP3    H211023   4.613   5.782   4.815  0.3641 -1.0544  1.6451
 3673TIP3   OH211024   1.843   4.694   3.388  0.2356 -0.5906  0.3021
 3673TIP3    H111025   1.757   4.676   3.350  0.6410 -1.7199 -0.1563
 3673TIP3    H211026   1.904   4.682   3.315  0.8810 -1.0839  0.8998
 3674TIP3   OH211027   4.589   4.833   0.798  0.1733  0.2814  0.0475
 3674TIP3    H111028   4.655   4.847   0.866 -1.3962 -0.5859  1.8265
 3674TIP3    H211029   4.565   4.741   0.807 -0.8826  0.4398 -0.9433
 3675TIP3   OH211030   3.293   5.399   0.788  0.2629 -0.1143  0.2255
 3675TIP3    H111031   3.297   5.440   0.875 -0.1343  1.3854 -0.4328
 3675TIP3    H211032   3.369   5.341   0.785  2.6811  2.8262  0.1264
 3676TIP3   OH211033   0.573   6.001   0.678  0.0579 -0.0553  0.4128
 3676TIP3    H111034   0.549   5.915   0.711  1.7341 -0.1425  1.4824
 3676TIP3    H211035   0.653   5.986   0.628  0.5396  0.9159  0.8741
 3677TIP3   OH211036   1.750   2.992   1.753  0.3285 -0.0185 -0.0334
 3677TIP3    H111037   1.710   2.905   1.754 -1.3707  0.6704 -2.0798
 3677TIP3    H211038   1.815   2.988   1.683  0.2366  0.3859 -0.1424
 3678TIP3   OH211039   4.935   0.974   0.367 -0.0811  0.8206  0.0605
 3678TIP3    H111040   4.875   1.008   0.301 -0.1129 -0.5371 -0.6309
 3678TIP3    H211041   4.975   0.897   0.327  0.7968  0.6587  1.1814
 3679TIP3   OH211042   5.228   5.723   0.949  0.0978 -0.0813  0.4095
 3679TIP3    H111043   5.205   5.691   0.861  1.1213  0.7301 -0.1851
 3679TIP3    H211044   5.188   5.660   1.009  1.0373 -1.8040 -0.6791
 3680TIP3   OH211045   4.792   1.915   4.890 -0.3590  0.1697  0.2392
 3680TIP3    H111046   4.860   1.972   4.927  0.7143 -1.4703  0.9203
 3680TIP3    H211047   4.771   1.854   4.961 -3.5350  1.3979  0.4967
 3681TIP3   OH211048   3.586   3.331   3.617  0.3753 -0.1995 -0.5095
 3681TIP3    H111049   3.536   3.370   3.545  0.0052 -0.9585 -0.6799
 3681TIP3    H211050   3.526   3.266   3.654  1.0049 -0.6573 -0.2916
 3682TIP3   OH211051   4.584   1.132   1.556 -0.0016 -0.6076 -0.1154
 3682TIP3    H111052   4.631   1.050   1.575 -0.5957 -1.3350 -1.5696
 3682TIP3    H211053   4.540   1.115   1.473 -0.0811  1.2309 -0.5007
 3683TIP3   OH211054   2.358   0.700   1.553 -0.1241 -0.4349 -0.4860
 3683TIP3    H111055   2.448   0.674   1.532 -0.5105 -1.7136 -0.6615
 3683TIP3    H211056   2.319   0.622   1.591 -0.8815  0.4030  0.5206
 3684TIP3   OH211057   4.303   0.356   3.003  0.2812  0.1322  0.1407
 3684TIP3    H111058   4.218   0.321   3.030 -0.1434  1.1286  0.1575
 3684TIP3    H211059   4.313   0.328   2.912  0.4691 -0.9504  0.4786
 3685TIP3   OH211060   3.867   2.383   2.404 -0.1493 -0.6352 -0.0587
 3685TIP3    H111061   3.950   2.389   2.450  0.2098  3.0559 -0.8021
 3685TIP3    H211062   3.802   2.368   2.472  0.7644  0.5240  1.1176
 3686TIP3   OH211063   3.201   5.704   5.116  0.2514  0.3644  0.4481
 3686TIP3    H111064   3.264   5.700   5.044  1.2221  1.3974  1.1960
 3686TIP3    H211065   3.229   5.635   5.176  0.2310  0.3516  0.4427
 3687TIP3   OH211066   4.151   2.773   3.537 -0.3050  0.0388  0.3120
 3687TIP3    H111067   4.055   2.770   3.545 -0.2308 -0.8423  0.9962
 3687TIP3    H211068   4.167   2.784   3.443 -1.0743  0.3624  0.2068
 3688TIP3   OH211069   2.450   3.020   0.334 -0.2550 -0.4738 -0.5812
 3688TIP3    H111070   2.504   2.947   0.365 -2.7419 -1.2628  2.3695
 3688TIP3    H211071   2.401   2.985   0.260 -0.4001 -1.3503 -0.0793
 3689TIP3   OH211072   5.900   4.879   4.871  0.1773 -0.2964 -0.3474
 3689TIP3    H111073   5.883   4.786   4.882  0.2441 -0.2137  0.4912
 3689TIP3    H211074   5.887   4.917   4.958  2.9359  0.0467  0.0099
 3690TIP3   OH211075   1.327   5.839   4.297  0.1296 -0.5569 -0.2788
 3690TIP3    H111076   1.389   5.905   4.266  1.2230 -0.2205  2.3303
 3690TIP3    H211077   1.347   5.830   4.390 -2.7406 -1.5872  0.3371
 3691TIP3   OH211078   5.168   1.786   0.377 -0.0574 -0.3437  0.3346
 3691TIP3    H111079   5.149   1.831   0.294  2.3210  1.7208  0.7831
 3691TIP3    H211080   5.235   1.722   0.355  0.6960  0.3204  0.6555
 3692TIP3   OH211081   0.821   3.500   2.688  0.6236  0.1983 -0.2079
 3692TIP3    H111082   0.836   3.530   2.777  2.4477  0.7405 -0.6579
 3692TIP3    H211083   0.752   3.557   2.654 -0.2453 -0.1624  0.9018
 3693TIP3   OH211084   6.003   1.999   0.555 -0.0270  0.1802  0.0134
 3693TIP3    H111085   5.913   2.018   0.526 -0.3234 -1.4575 -0.2444
 3693TIP3    H211086   6.000   1.908   0.583  2.0218 -0.5802 -1.9592
 3694TIP3   OH211087   4.378   0.283   1.806 -0.1624  0.2800  0.3212
 3694TIP3    H111088   4.451   0.247   1.756  0.9206  0.5448  1.6353
 3694TIP3    H211089   4.376   0.376   1.783  0.4022  0.4242  0.8081
 3695TIP3   OH211090   5.109   4.536   1.192  0.2881  0.5695  0.3614
 3695TIP3    H111091   5.163   4.495   1.258 -2.9025 -0.7243  2.4152
 3695TIP3    H211092   5.102   4.471   1.122  0.0786  0.0490  0.8577
 3696TIP3   OH211093   5.524   1.419   4.716 -0.5330 -0.3301 -0.2755
 3696TIP3    H111094   5.480   1.497   4.750  1.6185  0.2330  1.4608
 3696TIP3    H211095   5.567   1.448   4.636  0.2809  0.3122  0.3802
 3697TIP3   OH211096   2.049   4.065   3.911 -0.5771 -0.2643  0.4469
 3697TIP3    H111097   2.043   4.160   3.913  1.8878  0.0412 -1.6936
 3697TIP3    H211098   1.967   4.037   3.871 -0.7876  1.0687 -0.1047
 3698TIP3   OH211099   2.971   4.545   4.303 -0.2701 -0.3653  0.1957
 3698TIP3    H111100   2.955   4.628   4.258  0.0117 -0.1268  0.5255
 3698TIP3    H211101   2.976   4.480   4.233 -2.7731 -0.5070  0.0511
 3699TIP3   OH211102   3.549   1.131   0.867 -0.4555 -0.7249  0.0202
 3699TIP3    H111103   3.597   1.054   0.896  0.5097 -0.1808 -0.0949
 3699TIP3    H211104   3.529   1.178   0.948 -0.5508 -0.8077  0.0452
 3700TIP3   OH211105   2.342   1.509   0.839 -0.5009  0.3833  1.2802
 3700TIP3    H111106   2.437   1.502   0.835 -0.6254 -2.5937 -2.1127
 3700TIP3    H211107   2.325   1.600   0.865  3.2852  1.6339  0.0012
 3701TIP3   OH211108   0.069   5.606   2.974  0.6148  0.4220  0.3322
 3701TIP3    H111109   0.070   5.651   2.890 -1.5795  1.3880  0.7529
 3701TIP3    H211110   0.129   5.656   3.029  0.7468  0.8234 -0.1691
 3702TIP3   OH211111   2.086   3.565   1.558  0.4144 -0.2541  0.7999
 3702TIP3    H111112   2.026   3.612   1.499  1.8664  0.5904 -0.0664
 3702TIP3    H211113   2.038   3.485   1.581 -0.7704  0.0536 -0.4035
 3703TIP3   OH211114   2.069   2.103   3.867  0.7063  0.4805  0.2263
 3703TIP3    H111115   2.119   2.058   3.935  0.7027  0.5098  0.2477
 3703TIP3    H211116   2.000   2.150   3.913  1.6402  1.7692  0.3516
 3704TIP3   OH211117   3.246   5.473   2.503  0.1185 -0.0631  0.0771
 3704TIP3    H111118   3.189   5.477   2.427  1.2191  0.3367 -0.7566
 3704TIP3    H211119   3.203   5.412   2.563 -0.4478 -0.8801 -1.1349
 3705TIP3   OH211120   0.466   1.267   4.037 -0.0921 -0.0689  0.0328
 3705TIP3    H111121   0.419   1.203   3.984 -0.7618  0.2796  0.1866
 3705TIP3    H211122   0.549   1.281   3.991 -0.1462 -0.6775 -0.2577
 3706TIP3   OH211123   6.021   1.609   3.494 -0.7687 -0.3349 -0.1405
 3706TIP3    H111124   6.049   1.636   3.581 -0.5605 -0.4171 -0.1818
 3706TIP3    H211125   6.073   1.531   3.474 -0.3201  0.0797 -0.6188
 3707TIP3   OH211126   5.746   3.415   1.487  0.2625  0.3550 -0.2981
 3707TIP3    H111127   5.768   3.428   1.579 -0.5369  1.9082 -0.2787
 3707TIP3    H211128   5.687   3.340   1.486  1.1722 -0.3806  0.3040
 3708TIP3   OH211129   1.954   0.257   0.554 -0.1310  0.1438  0.1277
 3708TIP3    H111130   2.025   0.194   0.542 -1.4838 -1.7625  1.5508
 3708TIP3    H211131   1.897   0.244   0.479 -1.4284 -1.8451  1.3736
 3709TIP3   OH211132   5.851   5.517   2.667  0.1142 -0.5641 -0.2013
 3709TIP3    H111133   5.899   5.548   2.590  2.0292  0.1496  1.1951
 3709TIP3    H211134   5.776   5.468   2.631  1.2612 -0.7692 -2.4901
 3710TIP3   OH211135   5.184   4.171   2.279 -0.1561 -0.1650  0.4912
 3710TIP3    H111136   5.183   4.115   2.356  0.6054 -2.0799 -0.8072
 3710TIP3    H211137   5.271   4.159   2.241 -0.3242  1.1285 -0.4094
 3711TIP3   OH211138   1.790   5.081   2.421  0.6720 -0.0490 -0.3487
 3711TIP3    H111139   1.806   5.145   2.352 -0.1034  0.3582 -0.1681
 3711TIP3    H211140   1.728   5.125   2.480  0.5794 -0.7493  0.0866
 3712TIP3   OH211141   1.441   4.992   3.503  0.0619  0.3935 -0.1752
 3712TIP3    H111142   1.477   5.069   3.458  1.5765 -0.0824  0.1832
 3712TIP3    H211143   1.389   4.948   3.436 -1.7717  2.2930 -0.0897
 3713TIP3   OH211144   1.350   0.756   3.914 -0.2712 -0.0185 -0.0636
 3713TIP3    H111145   1.420   0.692   3.924 -1.6491 -1.6214 -0.0656
 3713TIP3    H211146   1.356   0.785   3.823  0.0924 -0.5013 -0.1954
 3714TIP3   OH211147   4.460   3.903   0.904 -0.2769 -0.5781  0.5613
 3714TIP3    H111148   4.475   3.950   0.986  1.9263 -0.7519  0.3226
 3714TIP3    H211149   4.367   3.880   0.906 -0.0475 -1.7862  3.6925
 3715TIP3   OH211150   0.642   4.995   2.497  0.1989  0.2703  0.3183
 3715TIP3    H111151   0.572   5.016   2.434 -0.2131  1.1435  1.0422
 3715TIP3    H211152   0.718   5.043   2.465  0.5318 -0.8123 -0.5642
 3716TIP3   OH211153   6.199   5.711   4.945 -0.6204  0.5112  0.4372
 3716TIP3    H111154   6.110   5.682   4.965 -0.8552 -0.0747 -1.2757
 3716TIP3    H211155   6.191   5.804   4.928 -0.8954  0.4751  0.3605
 3717TIP3   OH211156   5.148   3.274   4.863  0.3770 -0.9244  0.1483
 3717TIP3    H111157   5.086   3.254   4.933 -0.8193  0.8600 -0.3251
 3717TIP3    H211158   5.229   3.298   4.908 -0.9190  2.0944  1.1312
 3718TIP3   OH211159   2.096   1.340   4.435 -0.4023  0.4848 -0.4729
 3718TIP3    H111160   2.119   1.369   4.346 -1.8468  1.1256 -0.6809
 3718TIP3    H211161   2.016   1.288   4.423 -1.4645  1.8012  0.5775
 3719TIP3   OH211162   0.113   2.104   1.950  0.4111 -0.3015  0.0040
 3719TIP3    H111163   0.056   2.031   1.974  0.1078 -0.3285 -0.7561
 3719TIP3    H211164   0.189   2.062   1.909 -0.6147 -0.1722 -2.2049
 3720TIP3   OH211165   2.511   0.414   4.678 -0.1640 -0.0585 -0.0490
 3720TIP3    H111166   2.511   0.509   4.684  0.6543 -0.0398 -0.2656
 3720TIP3    H211167   2.430   0.393   4.632 -0.0495  0.5730 -0.5542
 3721TIP3   OH211168   5.522   1.758   0.791 -0.3178  0.0569 -0.4800
 3721TIP3    H111169   5.500   1.722   0.705 -1.3228 -0.7920  0.0980
 3721TIP3    H211170   5.611   1.727   0.809 -1.2545 -2.5309  0.1378
 3722TIP3   OH211171   2.444   5.344   3.499 -0.4826  0.5393 -0.0679
 3722TIP3    H111172   2.352   5.319   3.493 -1.5442  3.9985 -1.1885
 3722TIP3    H211173   2.491   5.280   3.445 -1.9315 -2.0703  1.5784
 3723TIP3   OH211174   5.276   1.450   2.636 -0.4654 -0.1205 -0.2345
 3723TIP3    H111175   5.203   1.395   2.664  1.8556 -2.7444  1.1027
 3723TIP3    H211176   5.344   1.388   2.609  0.8540  2.2152 -2.7481
 3724TIP3   OH211177   3.558   4.370   4.975 -0.6417 -0.0637 -0.9246
 3724TIP3    H111178   3.531   4.453   4.936 -1.3104  0.0160 -0.3005
 3724TIP3    H211179   3.554   4.385   5.069 -1.4049 -1.0052 -0.7979
 3725TIP3   OH211180   3.738   0.345   4.076 -0.8860 -0.7004 -0.0536
 3725TIP3    H111181   3.776   0.310   3.996 -0.0476  0.6386 -0.2840
 3725TIP3    H211182   3.804   0.330   4.143 -1.6093 -1.8688  0.4160
 3726TIP3   OH211183   5.075   1.193   0.159 -0.4365  0.3094 -0.3961
 3726TIP3    H111184   5.144   1.191   0.092  0.0465 -0.2766  0.1052
 3726TIP3    H211185   5.074   1.104   0.194 -1.4491  0.3189 -0.3847
 3727TIP3   OH211186   0.918   2.619   1.401 -0.2123  0.0252 -0.5350
 3727TIP3    H111187   0.903   2.705   1.361  0.3942 -0.2284 -1.3261
 3727TIP3    H211188   0.983   2.578   1.345  0.3033 -0.5355  0.4620
 3728TIP3   OH211189   5.185   0.681   0.614  0.2574 -0.3879  0.3978
 3728TIP3    H111190   5.253   0.639   0.667  0.6415  1.8535  1.7760
 3728TIP3    H211191   5.192   0.774   0.634 -0.4084  0.4513 -2.6947
 3729TIP3   OH211192   4.069   2.691   0.578  0.2162  0.2744  0.4072
 3729TIP3    H111193   4.064   2.775   0.624 -0.2767  1.0865 -1.0357
 3729TIP3    H211194   4.150   2.697   0.526 -0.2197  0.2108 -0.3026
 3730TIP3   OH211195   5.186   2.252   1.159 -0.2550 -0.6395 -0.1555
 3730TIP3    H111196   5.123   2.300   1.105 -0.9788  0.8749  1.9315
 3730TIP3    H211197   5.133   2.204   1.222  0.6114  0.2765  1.3260
 3731TIP3   OH211198   5.914   1.211   0.871 -0.3260  0.0259  0.2874
 3731TIP3    H111199   5.821   1.190   0.865 -0.6347  0.7793  1.7298
 3731TIP3    H211200   5.959   1.135   0.835 -1.5037  0.4589 -2.2983
 3732TIP3   OH211201   0.268   2.244  -0.007 -0.7294  0.2101  0.2811
 3732TIP3    H111202   0.302   2.317   0.045  0.9691 -0.0735 -0.3595
 3732TIP3    H211203   0.185   2.222   0.034 -0.0333  0.7966  2.1300
 3733TIP3   OH211204   1.485   5.580   1.954 -0.6578  0.1250  0.4347
 3733TIP3    H111205   1.412   5.530   1.991  0.9413 -2.1170  0.7612
 3733TIP3    H211206   1.443   5.654   1.909 -3.0539 -0.6501  1.2251
 3734TIP3   OH211207   4.809   3.362   2.346  0.0238 -0.2327 -0.4423
 3734TIP3    H111208   4.744   3.405   2.291  0.5911  0.0995 -0.8620
 3734TIP3    H211209   4.865   3.434   2.377  0.6941 -0.6107 -0.7649
 3735TIP3   OH211210   3.788   5.930   1.763  0.2216 -1.1008  0.4378
 3735TIP3    H111211   3.745   5.850   1.794 -2.4054 -0.1354 -0.3574
 3735TIP3    H211212   3.717   5.981   1.724  1.5629  2.0418  1.7077
 3736TIP3   OH211213   5.298   4.241   2.687 -0.0520 -0.7442  0.4899
 3736TIP3    H111214   5.348   4.318   2.658 -0.9561 -0.6281 -0.8542
 3736TIP3    H211215   5.352   4.166   2.660  0.0739 -0.6040  0.3507
 3737TIP3   OH211216   5.621   2.630   3.180  0.3442 -0.2926 -0.3171
 3737TIP3    H111217   5.578   2.579   3.248  0.9724  0.4196  0.6542
 3737TIP3    H211218   5.551   2.652   3.119 -0.7125  0.7746  1.1751
 3738TIP3   OH211219   6.104   5.361   3.875  0.0308 -0.0587  0.3737
 3738TIP3    H111220   6.128   5.451   3.898  0.3230  0.0735 -0.4380
 3738TIP3    H211221   6.178   5.308   3.904 -0.1643 -0.0550  0.9016
 3739TIP3   OH211222   5.365   2.217   1.584 -0.2454 -0.2008 -0.2685
 3739TIP3    H111223   5.343   2.309   1.594  0.0243 -0.2153  0.4807
 3739TIP3    H211224   5.401   2.211   1.496  1.3144  0.7317  0.2683
 3740TIP3   OH211225   4.652   0.345   4.229 -0.1584  0.3087  0.2466
 3740TIP3    H111226   4.626   0.406   4.161 -0.1675 -0.9428 -0.9149
 3740TIP3    H211227   4.741   0.373   4.253  0.2120  0.2140 -0.9523
 3741TIP3   OH211228   5.949   3.175   2.436 -0.3136 -0.0940 -0.2287
 3741TIP3    H111229   5.978   3.091   2.399 -1.3365 -0.4896 -0.1671
 3741TIP3    H211230   5.881   3.205   2.375 -1.9511 -0.7055  1.2193
 3742TIP3   OH211231   4.677   2.162   3.549  0.6016 -0.0738 -0.2263
 3742TIP3    H111232   4.743   2.157   3.480  1.2734  0.0038  0.3852
 3742TIP3    H211233   4.691   2.248   3.589  0.5843 -0.3307  0.3456
 3743TIP3   OH211234   5.478   3.384   4.095  0.1233  0.0076  0.2679
 3743TIP3    H111235   5.444   3.418   4.013  1.2472 -0.9550 -0.6351
 3743TIP3    H211236   5.569   3.414   4.098  0.8819 -2.0508 -0.1336
 3744TIP3   OH211237   5.411   2.210   1.310 -0.1031 -0.5009 -0.8313
 3744TIP3    H111238   5.333   2.205   1.255  0.3288 -1.6760 -1.3779
 3744TIP3    H211239   5.484   2.204   1.248  0.4017 -0.9736 -0.2058
 3745TIP3   OH211240   2.005   0.499   4.185 -0.0046  0.3340 -0.2035
 3745TIP3    H111241   1.978   0.408   4.178 -1.4304  0.8077 -1.1703
 3745TIP3    H211242   2.025   0.526   4.095  2.7436  0.3445  0.3061
 3746TIP3   OH211243   0.757   2.493   2.047 -0.6431 -0.3091 -0.1651
 3746TIP3    H111244   0.775   2.534   2.131  0.5593  0.0608 -0.5794
 3746TIP3    H211245   0.670   2.525   2.023 -2.2438 -2.5857  2.1734
 3747TIP3   OH211246   3.375   1.413   4.976 -0.0921  0.0913 -0.7603
 3747TIP3    H111247   3.426   1.365   5.040  0.9601  1.8018 -0.2636
 3747TIP3    H211248   3.437   1.474   4.936 -0.9047 -0.3496 -2.8343
 3748TIP3   OH211249   5.568   4.914   2.886 -0.3874 -0.5817 -0.0860
 3748TIP3    H111250   5.607   4.920   2.799  0.9961 -0.3814  0.5141
 3748TIP3    H211251   5.531   4.826   2.890  0.9640 -1.1841 -0.3241
 3749TIP3   OH211252   3.497   2.284   1.422 -0.1947 -0.5014 -0.0694
 3749TIP3    H111253   3.423   2.224   1.409 -1.7432  1.4611 -0.8303
 3749TIP3    H211254   3.557   2.263   1.350 -1.2448 -0.4072 -1.0038
 3750TIP3   OH211255   5.353   0.758   2.121 -0.0002  0.0959 -0.4595
 3750TIP3    H111256   5.395   0.838   2.152 -0.9618  0.2161  0.5824
 3750TIP3    H211257   5.291   0.787   2.054  0.2293  0.1281 -0.6589
 3751TIP3   OH211258   1.790   4.746   1.857 -0.4512  0.1138  0.1349
 3751TIP3    H111259   1.749   4.660   1.867 -0.5167  0.0773 -0.4450
 3751TIP3    H211260   1.844   4.738   1.778  0.8250  0.1053  0.9824
 3752TIP3   OH211261   5.896   5.480   3.566  0.5488 -0.3310 -0.7106
 3752TIP3    H111262   5.937   5.395   3.552  0.9787 -0.1100 -0.8055
 3752TIP3    H211263   5.920   5.531   3.489 -0.7698 -0.5195 -1.2785
 3753TIP3   OH211264   2.711   0.880   1.711  0.0577 -0.2922 -0.2640
 3753TIP3    H111265   2.786   0.888   1.652  1.2805  1.2313  1.3829
 3753TIP3    H211266   2.750   0.867   1.798 -1.5426  1.0126  0.7102
 3754TIP3   OH211267   4.741   5.099   2.145  0.0975 -0.6770  0.2174
 3754TIP3    H111268   4.800   5.172   2.128  1.1730 -1.2514  1.3085
 3754TIP3    H211269   4.734   5.053   2.062  0.6578 -0.2204 -0.0866
 3755TIP3   OH211270   6.113   3.053   4.833 -0.1568 -0.0574 -0.0885
 3755TIP3    H111271   6.062   3.120   4.789  2.5835  2.3245 -0.0040
 3755TIP3    H211272   6.073   3.045   4.920 -1.8284 -0.1982 -0.8391
 3756TIP3   OH211273   0.508   2.946   4.020 -0.7507  0.1546  0.4588
 3756TIP3    H111274   0.498   2.962   3.926  0.1056  0.1405  0.3495
 3756TIP3    H211275   0.552   3.025   4.052 -0.9859  0.1299  0.8377
 3757TIP3   OH211276   4.750   1.244   2.220 -0.1019  0.0411 -0.7179
 3757TIP3    H111277   4.721   1.310   2.158  1.8243 -0.1830 -1.9589
 3757TIP3    H211278   4.780   1.171   2.165  1.3711 -0.2889  0.4538
 3758TIP3   OH211279   3.328   1.753   0.014 -0.1564 -0.1242  0.4092
 3758TIP3    H111280   3.245   1.711  -0.008  0.3156 -0.3459 -1.0512
 3758TIP3    H211281   3.364   1.701   0.086 -0.8130 -0.6260  0.3777
 3759TIP3   OH211282   1.344   1.725   3.364  0.2256 -0.3077  0.1761
 3759TIP3    H111283   1.295   1.698   3.286 -0.0239 -0.0542  0.2392
 3759TIP3    H211284   1.382   1.645   3.398  0.6745 -0.3646 -0.4339
 3760TIP3   OH211285   1.914   1.816   2.432  0.2800  0.0866  0.1863
 3760TIP3    H111286   1.935   1.755   2.362 -0.6273 -0.0190  0.0014
 3760TIP3    H211287   1.955   1.779   2.510 -1.6160 -1.6607  0.4339
 3761TIP3   OH211288   3.500   5.387   5.029 -0.4513 -0.2471  0.2412
 3761TIP3    H111289   3.503   5.458   5.093  2.5953 -0.7273  0.7291
 3761TIP3    H211290   3.554   5.318   5.066  0.9607 -0.7603 -2.5297
 3762TIP3   OH211291   5.822   1.448   2.428  0.0240  0.1454  0.3644
 3762TIP3    H111292   5.836   1.442   2.333  1.5530 -1.2073  0.6341
 3762TIP3    H211293   5.768   1.526   2.439  0.5949  0.8690 -1.5395
 3763TIP3   OH211294   4.526   0.407   1.411  0.4085  0.4021  0.2479
 3763TIP3    H111295   4.564   0.320   1.399  1.4552  0.6829  1.3611
 3763TIP3    H211296   4.535   0.449   1.326 -0.0573 -0.5451 -0.2899
 3764TIP3   OH211297   2.704   5.588   2.672  0.2591 -0.5409  0.0020
 3764TIP3    H111298   2.639   5.528   2.709  0.4004 -0.9957 -0.4741
 3764TIP3    H211299   2.780   5.533   2.655  1.0383  0.1267  1.2210
 3765TIP3   OH211300   0.334   0.290   1.053  0.1034  0.3752  0.2463
 3765TIP3    H111301   0.300   0.201   1.045  0.5127  0.2078  0.3527
 3765TIP3    H211302   0.369   0.296   1.142 -0.2429  0.7595  0.3631
 3766TIP3   OH211303   0.805   5.178   1.642  0.4547 -0.7501  0.1957
 3766TIP3    H111304   0.789   5.120   1.568 -1.6837 -1.3226  1.0252
 3766TIP3    H211305   0.838   5.259   1.603 -1.3698 -0.7428 -1.4690
 3767TIP3   OH211306   1.969   4.590   3.884 -0.4529 -0.1275  0.3671
 3767TIP3    H111307   2.006   4.502   3.886 -1.4434 -0.5490  1.3341
 3767TIP3    H211308   1.934   4.600   3.795  1.2251 -0.0108 -0.3107
 3768TIP3   OH211309   6.127   2.660   1.856 -0.2717  0.1112 -0.0210
 3768TIP3    H111310   6.083   2.698   1.932  0.6130 -1.1103  1.1591
 3768TIP3    H211311   6.196   2.723   1.835 -1.5044  1.2329 -0.8513
 3769TIP3   OH211312   1.822   0.037   2.757 -0.2732  0.3465  0.3675
 3769TIP3    H111313   1.864   0.120   2.782 -0.6632  0.2800  1.3025
 3769TIP3    H211314   1.774   0.058   2.677  1.3064  0.4871 -0.5806
 3770TIP3   OH211315   3.536   1.932   1.618 -0.0825 -0.6549  0.1494
 3770TIP3    H111316   3.524   2.017   1.660  2.5756  0.0048 -0.2457
 3770TIP3    H211317   3.560   1.873   1.689  0.2431 -0.5427  0.1341
 3771TIP3   OH211318   0.458   0.835   0.751  0.0831  0.5730  0.6120
 3771TIP3    H111319   0.422   0.897   0.813  0.1168  0.1978  1.0118
 3771TIP3    H211320   0.388   0.770   0.738 -0.2218  1.0764 -0.3528
 3772TIP3   OH211321   4.052   0.311   2.347  0.1648 -0.3838  0.6945
 3772TIP3    H111322   4.042   0.252   2.272 -1.9175 -0.3270  0.8554
 3772TIP3    H211323   4.092   0.257   2.415  1.4153 -0.6380 -0.2059
 3773TIP3   OH211324   4.424   5.570   4.645 -0.0002  0.3080 -0.2680
 3773TIP3    H111325   4.341   5.543   4.607  0.3399 -0.4747 -0.4594
 3773TIP3    H211326   4.399   5.625   4.720 -0.6882 -0.2456 -0.0823
 3774TIP3   OH211327   4.101   0.621   0.957 -0.5265  0.0133 -0.7245
 3774TIP3    H111328   4.139   0.622   1.045  0.3127 -0.7794 -1.0741
 3774TIP3    H211329   4.168   0.659   0.901 -0.1188 -1.6422 -1.3866
 3775TIP3   OH211330   3.066   2.673   0.683  0.1639 -0.2702  0.3066
 3775TIP3    H111331   3.116   2.591   0.683  0.2005 -0.2536  0.9896
 3775TIP3    H211332   3.097   2.720   0.761 -0.0714  0.2620  0.0847
 3776TIP3   OH211333   4.901   2.694   3.200 -0.5107 -0.1494  0.3354
 3776TIP3    H111334   4.920   2.758   3.268  2.7047  1.1144 -1.4734
 3776TIP3    H211335   4.940   2.612   3.232 -0.0219  0.1524  0.5288
 3777TIP3   OH211336   3.167   1.787   1.909 -0.3063 -0.0632  0.0564
 3777TIP3    H111337   3.188   1.724   1.977 -0.6454  1.8529  2.0678
 3777TIP3    H211338   3.177   1.739   1.827 -0.5969 -2.6830  1.4618
 3778TIP3   OH211339   0.090   4.664   1.960  0.1166  0.0335 -0.1756
 3778TIP3    H111340   0.024   4.660   2.030  2.0748  0.9186  1.8642
 3778TIP3    H211341   0.097   4.574   1.928  0.6122 -0.9163  2.3130
 3779TIP3   OH211342   2.594   1.114   2.422  0.3851  0.0343 -1.0299
 3779TIP3    H111343   2.641   1.193   2.397 -0.2436  0.5737 -0.5587
 3779TIP3    H211344   2.517   1.146   2.469  0.7953 -0.9020  0.3231
 3780TIP3   OH211345   6.109   5.869   4.068  0.2098 -0.2712 -0.4188
 3780TIP3    H111346   6.046   5.897   4.135  0.0070 -0.3124 -0.5925
 3780TIP3    H211347   6.191   5.856   4.116  0.6550  1.7924 -0.4861
 3781TIP3   OH211348   5.397   4.738   4.639  0.5817  0.0661  0.1356
 3781TIP3    H111349   5.343   4.746   4.717  0.1368 -0.3115 -0.1271
 3781TIP3    H211350   5.357   4.797   4.575 -1.9997 -3.0419 -1.4090
 3782TIP3   OH211351   4.313   1.771   3.204 -0.0656  0.3389 -0.1902
 3782TIP3    H111352   4.294   1.685   3.167 -2.3187  1.1003 -0.9022
 3782TIP3    H211353   4.324   1.754   3.298 -1.8017 -0.5670 -0.1212
 3783TIP3   OH211354   2.752   5.149   2.160  0.1969  0.0141 -0.4755
 3783TIP3    H111355   2.696   5.077   2.188 -0.9573  0.4888 -1.4116
 3783TIP3    H211356   2.838   5.110   2.148 -0.0672 -0.8843  0.4201
 3784TIP3   OH211357   6.116   2.986   1.207 -0.4804 -0.2768 -0.1946
 3784TIP3    H111358   6.087   2.920   1.269 -0.7267  0.5437  0.5837
 3784TIP3    H211359   6.186   2.943   1.157  1.3519 -0.2800  2.1830
 3785TIP3   OH211360   1.416   4.606   1.887 -0.6043 -0.4714 -0.1622
 3785TIP3    H111361   1.456   4.691   1.868 -0.3621 -0.8237 -1.3234
 3785TIP3    H211362   1.438   4.589   1.978  0.2682  0.2214 -0.2300
 3786TIP3   OH211363   2.664   4.093   0.740  0.3866 -0.2968 -0.1527
 3786TIP3    H111364   2.732   4.032   0.768  0.1841 -0.0882  0.8270
 3786TIP3    H211365   2.582   4.044   0.748  0.4548 -0.8016 -2.0611
 3787TIP3   OH211366   1.269   0.243   4.389  0.0260 -0.1312 -0.0730
 3787TIP3    H111367   1.238   0.179   4.326 -1.2306 -2.6737  2.8422
 3787TIP3    H211368   1.191   0.269   4.438  1.0304  1.0580  0.9799
 3788TIP3   OH211369   3.354   5.843   1.434  0.5596  0.0064  0.6758
 3788TIP3    H111370   3.406   5.771   1.399 -0.9463 -0.3088 -1.0512
 3788TIP3    H211371   3.301   5.803   1.503  0.4186 -0.3481  0.3672
 3789TIP3   OH211372   3.464   3.126   4.143  0.0231 -0.3329  0.0725
 3789TIP3    H111373   3.433   3.198   4.199 -0.2147  0.2176 -0.7519
 3789TIP3    H211374   3.479   3.167   4.058  2.8910 -0.5982  0.3597
 3790TIP3   OH211375   1.593   5.568   4.555  0.2697  0.3742  0.4718
 3790TIP3    H111376   1.587   5.491   4.499 -1.7975  2.4456 -2.5105
 3790TIP3    H211377   1.674   5.556   4.604 -0.8848 -4.4742  1.6443
 3791TIP3   OH211378   0.192   0.330   2.307  0.2566  0.7418  0.3241
 3791TIP3    H111379   0.250   0.255   2.290  0.4465  0.6892  1.1663
 3791TIP3    H211380   0.105   0.297   2.286  0.3963  0.4547  0.1748
 3792TIP3   OH211381   2.155   2.752   0.566  0.7288  0.5739  0.0902
 3792TIP3    H111382   2.104   2.823   0.527  0.6166 -0.5390 -1.9443
 3792TIP3    H211383   2.235   2.794   0.598  0.1012  1.7922  0.1072
 3793TIP3   OH211384   2.583   1.675   1.698 -0.5912 -0.5094 -0.4103
 3793TIP3    H111385   2.660   1.617   1.698  0.2491  0.5688  0.6252
 3793TIP3    H211386   2.513   1.621   1.736 -0.2792 -1.3824 -1.0269
 3794TIP3   OH211387   1.188   1.223   0.458  0.5352  0.2814  0.3269
 3794TIP3    H111388   1.143   1.276   0.392  0.6832  0.5450  0.4346
 3794TIP3    H211389   1.150   1.252   0.541 -2.0324 -2.2980  0.2152
 3795TIP3   OH211390   6.257   4.331   4.011 -0.5548  0.0695 -0.3489
 3795TIP3    H111391   6.169   4.294   4.021 -1.2578  0.7822 -2.9091
 3795TIP3    H211392   6.242   4.425   3.999  0.6112  0.2746 -0.2791
 3796TIP3   OH211393   3.708   2.281   0.717  0.1864 -0.9953  0.2181
 3796TIP3    H111394   3.621   2.305   0.686 -0.0321 -3.3120 -1.1840
 3796TIP3    H211395   3.767   2.339   0.670 -0.5001 -0.5831 -0.1506
 3797TIP3   OH211396   1.203   1.720   0.431  0.1895  0.2453  0.0663
 3797TIP3    H111397   1.131   1.755   0.483  1.3695  2.0755  0.5638
 3797TIP3    H211398   1.175   1.729   0.340  0.4771  2.7162  0.1589
 3798TIP3   OH211399   2.669   0.921   4.833 -0.3345  0.6404  0.2500
 3798TIP3    H111400   2.618   0.965   4.901 -0.1390  1.4186 -0.1036
 3798TIP3    H211401   2.620   0.935   4.753 -0.2239  0.2868  0.1171
 3799TIP3   OH211402   4.661   5.249   4.710 -0.4202  0.1054  0.4639
 3799TIP3    H111403   4.594   5.311   4.736  0.0492  0.1568  1.5891
 3799TIP3    H211404   4.617   5.164   4.713 -0.1795  0.0178  2.2325
 3800TIP3   OH211405   3.142   5.521   0.286  0.0223 -0.3488 -0.3335
 3800TIP3    H111406   3.130   5.460   0.359 -0.1516 -0.7781 -0.7169
 3800TIP3    H211407   3.216   5.576   0.313 -0.2562 -0.2838  0.3114
 3801TIP3   OH211408   0.038   2.736   2.596  0.2871  0.0356  0.3562
 3801TIP3    H111409   0.093   2.783   2.658  0.8085  0.5834 -0.4917
 3801TIP3    H211410  -0.011   2.805   2.551  0.4050 -0.2896 -0.2882
 3802TIP3   OH211411   5.129   3.560   4.175 -0.1897  0.3117 -0.6553
 3802TIP3    H111412   5.101   3.485   4.228 -0.9575  0.2266 -1.1690
 3802TIP3    H211413   5.123   3.530   4.085 -0.4883  0.9847 -0.8671
 3803TIP3   OH211414   2.013   5.645   2.417 -0.1877 -0.7213 -0.0467
 3803TIP3    H111415   1.939   5.664   2.360 -1.8240  0.6491  2.3636
 3803TIP3    H211416   2.065   5.725   2.416 -0.0876 -0.7824  0.1757
 3804TIP3   OH211417   0.311   2.934   4.727  0.0008 -0.8467  0.9642
 3804TIP3    H111418   0.392   2.965   4.767  0.1589 -0.5637  0.4297
 3804TIP3    H211419   0.333   2.921   4.635 -0.6684 -0.3718  0.7316
 3805TIP3   OH211420   0.585   3.930   4.403 -0.7271 -0.4122  0.1875
 3805TIP3    H111421   0.626   3.880   4.332 -2.6431 -0.0869 -1.2263
 3805TIP3    H211422   0.567   3.865   4.471  0.6405 -0.8340  0.1681
 3806TIP3   OH211423   0.574   5.614   1.460  1.0928  0.2585  0.0634
 3806TIP3    H111424   0.523   5.556   1.516 -2.1548  3.0816  0.3623
 3806TIP3    H211425   0.520   5.626   1.382  2.6596  1.1901 -0.9345
 3807TIP3   OH211426   5.588   2.472   1.004 -0.2779 -0.1455  0.3530
 3807TIP3    H111427   5.589   2.377   0.988 -2.9071 -0.5215  1.8368
 3807TIP3    H211428   5.514   2.485   1.063 -0.1890  2.9023 -0.0750
 3808TIP3   OH211429   4.260   4.867   4.741  0.6921 -0.2596 -0.2564
 3808TIP3    H111430   4.224   4.782   4.764 -0.8589  0.2376 -0.6961
 3808TIP3    H211431   4.183   4.921   4.723  1.6434  1.2283 -0.0009
 3809TIP3   OH211432   5.183   2.946   1.365 -0.4487 -0.7458  0.7008
 3809TIP3    H111433   5.222   3.028   1.393 -1.1105 -0.6441  1.3600
 3809TIP3    H211434   5.173   2.955   1.270 -0.0057 -0.2970  0.6931
 3810TIP3   OH211435   0.582   0.174   4.597  0.1221 -0.4798 -0.7421
 3810TIP3    H111436   0.567   0.255   4.647  1.7668 -1.0658  0.8144
 3810TIP3    H211437   0.497   0.130   4.596 -0.2388  0.1400  0.4923
 3811TIP3   OH211438   4.575   1.994   0.892  0.1927 -0.7581 -0.4696
 3811TIP3    H111439   4.645   2.030   0.946 -0.1230  2.4834 -1.9688
 3811TIP3    H211440   4.496   2.041   0.921  0.2875  2.6232 -4.6366
 3812TIP3   OH211441   4.451   0.828   3.476  0.3180  0.4399  0.3430
 3812TIP3    H111442   4.376   0.790   3.431  1.9907 -0.2444 -2.0643
 3812TIP3    H211443   4.454   0.919   3.447  0.4043  0.4778  0.4685
 3813TIP3   OH211444   4.277   5.618   1.787 -0.2912  0.0192  0.4194
 3813TIP3    H111445   4.359   5.665   1.799  0.5092 -0.3838 -2.6136
 3813TIP3    H211446   4.302   5.526   1.787  0.0296 -0.0947 -3.8419
 3814TIP3   OH211447   5.699   3.220   4.989  0.0732 -0.0491  0.0710
 3814TIP3    H111448   5.646   3.222   4.909  0.3160 -1.4383 -0.1360
 3814TIP3    H211449   5.701   3.128   5.015  3.8070 -0.4182 -0.8966
 3815TIP3   OH211450   1.501   1.474   3.705  0.0848  0.7614 -0.2402
 3815TIP3    H111451   1.486   1.483   3.611 -1.5761  1.3631  0.0557
 3815TIP3    H211452   1.513   1.380   3.719  2.1406  0.8098 -1.2571
 3816TIP3   OH211453   5.010   2.057   3.670 -0.4153  0.2533 -0.0314
 3816TIP3    H111454   5.023   2.119   3.598 -1.6908  1.5250  0.7747
 3816TIP3    H211455   5.098   2.035   3.700  0.0720  2.1496  0.0192
 3817TIP3   OH211456   3.936   4.945   1.109  0.1356  0.5805 -0.0519
 3817TIP3    H111457   3.992   4.968   1.183 -0.9755  1.2719  0.6013
 3817TIP3    H211458   3.903   4.857   1.130 -0.0482  0.7083  0.1952
 3818TIP3   OH211459   4.891   0.737   2.216  0.1531 -0.2647  0.5001
 3818TIP3    H111460   4.823   0.781   2.267 -0.7877 -2.6205  1.4410
 3818TIP3    H211461   4.861   0.742   2.126 -0.7126 -0.3165  0.7746
 3819TIP3   OH211462   5.515   0.661   0.495  0.3281 -0.3365 -0.2037
 3819TIP3    H111463   5.475   0.585   0.538 -0.3593  0.2615  0.2350
 3819TIP3    H211464   5.447   0.692   0.435  1.2151 -1.0563 -1.6226
 3820TIP3   OH211465   5.616   1.656   2.437 -0.4397 -0.4133 -0.0645
 3820TIP3    H111466   5.575   1.709   2.504  1.1462 -1.2123  1.6283
 3820TIP3    H211467   5.543   1.619   2.387 -1.6439  0.5740  0.9158
 3821TIP3   OH211468   4.629   2.612   1.231 -0.0242  0.3063 -0.1809
 3821TIP3    H111469   4.559   2.672   1.206  0.1732  1.0051  0.8373
 3821TIP3    H211470   4.694   2.668   1.274  1.1742 -0.3210 -1.1010
 3822TIP3   OH211471   5.180   0.616   2.838 -0.5374  0.1593  0.3466
 3822TIP3    H111472   5.262   0.568   2.842  0.3634  1.4662 -1.1627
 3822TIP3    H211473   5.181   0.658   2.752 -3.3534 -0.7382 -0.2451
 3823TIP3   OH211474   5.954   1.491   0.777  0.0046 -0.0837 -0.0738
 3823TIP3    H111475   5.916   1.405   0.798 -0.5567  0.5574  1.7695
 3823TIP3    H211476   6.048   1.477   0.780 -0.0534 -1.0004 -1.5460
 3824TIP3   OH211477   5.089   0.179   0.206 -0.4744  0.6147 -0.3752
 3824TIP3    H111478   5.149   0.111   0.236  0.5531  1.7201  0.1503
 3824TIP3    H211479   5.050   0.213   0.287 -0.8077  0.8124 -0.6172
 3825TIP3   OH211480   2.396   4.456   2.632 -0.1496 -0.4314  0.4591
 3825TIP3    H111481   2.468   4.397   2.655 -0.2476 -0.4286  0.7842
 3825TIP3    H211482   2.348   4.468   2.714 -2.1234 -2.5807 -0.2674
 3826TIP3   OH211483   2.032   5.181   0.247  0.2868 -0.7478  0.1404
 3826TIP3    H111484   2.104   5.151   0.302  0.9051 -0.7606 -0.6612
 3826TIP3    H211485   1.973   5.106   0.241  1.0642 -1.3278 -0.5933
 3827TIP3   OH211486   3.229   1.270   3.734  0.2508 -0.5453 -0.9072
 3827TIP3    H111487   3.198   1.182   3.754 -0.0985 -0.0905  0.6869
 3827TIP3    H211488   3.232   1.315   3.819  0.3361  1.0074 -1.6907
 3828TIP3   OH211489   4.932   5.007   2.720  0.1153 -0.7751 -0.3510
 3828TIP3    H111490   4.865   5.037   2.781 -0.1582  0.6341 -1.2981
 3828TIP3    H211491   4.892   4.932   2.676 -0.4162 -0.6134 -0.1537
 3829TIP3   OH211492   2.549   2.750   4.620 -0.0039  0.5482  0.4542
 3829TIP3    H111493   2.455   2.731   4.630 -0.0455  0.3135 -0.2902
 3829TIP3    H211494   2.552   2.814   4.549  0.4824 -0.4283 -0.4303
 3830TIP3   OH211495   5.940   3.582   1.157 -0.1871  0.4581  0.3017
 3830TIP3    H111496   5.870   3.589   1.222 -0.7138  0.3563 -0.2424
 3830TIP3    H211497   5.922   3.653   1.095 -0.7277 -0.5231 -0.6970
 3831TIP3   OH211498   1.989   0.756   2.940 -0.8650  1.0381 -0.6726
 3831TIP3    H111499   1.906   0.724   2.975 -0.1329  0.9545  1.0829
 3831TIP3    H211500   1.977   0.851   2.933 -1.2642  0.9724 -0.8787
 3832TIP3   OH211501   4.292   1.149   0.146 -0.0852 -0.1159  0.4743
 3832TIP3    H111502   4.358   1.161   0.078 -2.8979 -2.3233 -3.0050
 3832TIP3    H211503   4.238   1.228   0.141  0.2452  0.1333  0.8192
 3833TIP3   OH211504   3.291   2.564   1.352  0.1955 -0.0331 -0.4642
 3833TIP3    H111505   3.235   2.524   1.286  1.3714 -0.5014 -1.2221
 3833TIP3    H211506   3.294   2.500   1.423  0.2157 -0.2605 -0.6686
 3834TIP3   OH211507   5.897   4.559   4.540  0.0308 -0.4293  0.3763
 3834TIP3    H111508   5.873   4.471   4.512 -0.1840 -0.3549  0.3313
 3834TIP3    H211509   5.816   4.599   4.571  0.3833 -0.7541  1.7778
 3835TIP3   OH211510   3.670   1.471   2.308  0.3338 -0.7753  0.1426
 3835TIP3    H111511   3.589   1.421   2.302  0.3039 -0.6057 -1.2874
 3835TIP3    H211512   3.647   1.559   2.278  1.0697 -0.7717 -0.4684
 3836TIP3   OH211513   4.995   5.905   0.428 -0.0672  0.0296 -0.2221
 3836TIP3    H111514   5.063   5.945   0.483 -1.2355  1.5496  0.1720
 3836TIP3    H211515   4.916   5.907   0.482 -0.9875  0.5410 -1.5441
 3837TIP3   OH211516   1.241   2.253   4.519  0.6002 -0.0945 -0.6112
 3837TIP3    H111517   1.260   2.342   4.546 -0.8673  0.5374 -1.5376
 3837TIP3    H211518   1.229   2.258   4.424 -1.1830 -0.9225 -0.4779
 3838TIP3   OH211519   0.107   0.276   3.953 -0.2571  0.1442 -0.5271
 3838TIP3    H111520   0.090   0.345   4.017 -0.7415 -0.6051  0.1728
 3838TIP3    H211521   0.067   0.197   3.992  1.7826 -0.9248 -0.4722
 3839TIP3   OH211522   2.930   4.400   3.244  0.1799 -0.6753  0.5054
 3839TIP3    H111523   2.941   4.488   3.209 -1.3983 -0.3889  0.6380
 3839TIP3    H211524   2.996   4.348   3.199  0.9755  0.5217  0.2439
 3840TIP3   OH211525   5.751   4.283   3.006 -0.1847 -1.0202 -0.0623
 3840TIP3    H111526   5.831   4.246   3.045 -0.9029 -1.3080  1.2165
 3840TIP3    H211527   5.691   4.208   2.999  0.0634 -1.0808 -2.2306
 3841TIP3   OH211528   1.328   1.464   2.696 -0.3678 -0.2312 -0.1854
 3841TIP3    H111529   1.265   1.536   2.692 -0.4965 -0.3453 -0.2435
 3841TIP3    H211530   1.280   1.389   2.661  0.0785 -0.1296 -1.0347
 3842TIP3   OH211531   1.632   4.474   1.713  0.4732 -0.0969  0.0972
 3842TIP3    H111532   1.643   4.551   1.657  1.8835 -0.0026  0.4732
 3842TIP3    H211533   1.543   4.444   1.695  1.3328 -0.9686 -3.2920
 3843TIP3   OH211534   3.789   4.764   1.675 -0.1963  0.0125 -0.1475
 3843TIP3    H111535   3.748   4.733   1.594  0.1940  0.6083 -0.5762
 3843TIP3    H211536   3.845   4.836   1.648  0.8408 -0.5296  0.4895
 3844TIP3   OH211537   4.227   3.171   2.693  0.0791 -0.0910  0.2051
 3844TIP3    H111538   4.306   3.180   2.746 -0.0441 -0.1050  0.3942
 3844TIP3    H211539   4.252   3.201   2.606 -0.1868  1.7058  0.6954
 3845TIP3   OH211540   0.519   2.772   1.641  0.2211  0.4633  0.3412
 3845TIP3    H111541   0.588   2.802   1.701  0.9336  0.2996 -0.3829
 3845TIP3    H211542   0.469   2.851   1.619 -0.3269  0.4556  1.4852
 3846TIP3   OH211543   3.066   1.853   0.116  0.3627 -0.0652 -0.1627
 3846TIP3    H111544   3.070   1.898   0.032 -3.2421 -0.4044 -0.6857
 3846TIP3    H211545   3.065   1.760   0.093 -0.3478 -0.1655  0.2480
 3847TIP3   OH211546   4.509   0.788   2.063  0.3705  0.3508 -0.4191
 3847TIP3    H111547   4.528   0.718   2.000  0.1117  0.8019 -1.0129
 3847TIP3    H211548   4.518   0.747   2.149 -0.6064 -0.6333 -0.7653
 3848TIP3   OH211549   0.443   2.376   2.800 -0.0736  0.4576  0.1990
 3848TIP3    H111550   0.376   2.325   2.754 -0.8196 -0.0914  1.8125
 3848TIP3    H211551   0.472   2.318   2.871  0.4006  1.5866  0.9518
 3849TIP3   OH211552   5.300   5.887   2.879  0.4184 -0.2526  0.0610
 3849TIP3    H111553   5.336   5.866   2.793  1.5518 -2.2990  0.9711
 3849TIP3    H211554   5.234   5.819   2.896 -1.0593  1.1241  0.1297
 3850TIP3   OH211555   0.017   4.894   0.433 -0.5152 -0.5174 -0.5199
 3850TIP3    H111556   0.046   4.981   0.459 -0.7911 -0.2906 -0.9677
 3850TIP3    H211557   0.083   4.835   0.469 -1.7405 -0.3820  2.2231
 3851TIP3   OH211558   0.870   0.057   0.073  0.1134  0.2715  0.4524
 3851TIP3    H111559   0.939   0.121   0.089  0.6772 -0.2255  0.0643
 3851TIP3    H211560   0.831   0.041   0.159  1.0970 -0.1238  0.8404
 3852TIP3   OH211561   3.706   2.609   0.474 -0.6104  0.6064 -0.0546
 3852TIP3    H111562   3.729   2.701   0.460  0.3026  0.0506 -2.9991
 3852TIP3    H211563   3.616   2.602   0.442 -0.6268  0.4492  0.0248
 3853TIP3   OH211564   5.523   0.928   2.261 -0.0463 -0.0111 -0.6453
 3853TIP3    H111565   5.576   0.932   2.340 -0.6807  0.6025 -0.2436
 3853TIP3    H211566   5.573   0.871   2.202  1.7078  1.5697 -0.7803
 3854TIP3   OH211567   1.091   1.089   2.259 -0.4316 -0.2067  0.0059
 3854TIP3    H111568   1.015   1.034   2.275  0.5143 -1.7764 -0.5773
 3854TIP3    H211569   1.144   1.039   2.197  0.1062  1.7610 -1.2342
 3855TIP3   OH211570   5.126   4.226   0.023  0.0353 -0.2983  0.3914
 3855TIP3    H111571   5.108   4.153   0.082  1.0233  0.2159  1.3415
 3855TIP3    H211572   5.151   4.298   0.080 -1.4262  0.9727 -0.4909
 3856TIP3   OH211573   1.537   0.073   1.752 -0.0744  0.1341 -0.0273
 3856TIP3    H111574   1.484   0.099   1.676 -1.0416  1.7788  1.1652
 3856TIP3    H211575   1.551  -0.021   1.739 -0.8257  0.2233 -1.8631
 3857TIP3   OH211576   6.090   4.052   5.104 -0.0962  0.1482 -0.7626
 3857TIP3    H111577   6.134   4.009   5.177 -0.7720 -1.3434 -1.2012
 3857TIP3    H211578   6.160   4.068   5.041  0.0670 -0.9663 -0.8854
 3858TIP3   OH211579   2.812   1.944   3.197  0.2798  0.5649  0.0157
 3858TIP3    H111580   2.718   1.949   3.213  0.1993 -0.4990 -0.0152
 3858TIP3    H211581   2.819   1.920   3.104  0.4996 -1.3120  0.4741
 3859TIP3   OH211582   5.489   1.515   2.801  0.1091  0.2187 -0.6199
 3859TIP3    H111583   5.414   1.535   2.746 -0.1683  0.2233 -0.2353
 3859TIP3    H211584   5.516   1.599   2.837  0.6482  0.3067 -1.1924
 3860TIP3   OH211585   5.339   4.746   3.379  0.1626 -0.0536 -0.0158
 3860TIP3    H111586   5.356   4.770   3.470 -0.2916 -0.4029  0.1674
 3860TIP3    H211587   5.420   4.767   3.333  0.0139  1.1875  0.2593
 3861TIP3   OH211588   4.303   1.263   0.775  0.3554  0.2583 -0.1247
 3861TIP3    H111589   4.250   1.186   0.797 -0.9904  1.0965 -0.2946
 3861TIP3    H211590   4.393   1.232   0.780 -0.0982 -0.9900  1.1119
 3862TIP3   OH211591   4.754   0.551   3.589 -0.0018  0.1093  0.2810
 3862TIP3    H111592   4.790   0.633   3.625  0.3192  0.3232 -0.5176
 3862TIP3    H211593   4.663   0.573   3.568 -1.0454 -0.7216  3.2943
 3863TIP3   OH211594   0.850   5.654   1.420  0.6859 -0.1611  0.3944
 3863TIP3    H111595   0.874   5.746   1.420  0.5092 -0.1118  0.8869
 3863TIP3    H211596   0.755   5.654   1.405  0.6661 -0.2580  0.5206
 3864TIP3   OH211597   5.864   4.026   1.105 -0.2489 -0.0279 -0.4431
 3864TIP3    H111598   5.778   3.993   1.131  0.1654 -0.3100  0.6387
 3864TIP3    H211599   5.901   4.062   1.186  0.3820  0.6969 -1.0408
 3865TIP3   OH211600   0.767   2.041   3.784  0.6457  0.0616  0.1759
 3865TIP3    H111601   0.727   2.107   3.728 -0.7968 -0.2487  0.7846
 3865TIP3    H211602   0.839   2.087   3.827  0.3521  0.9296 -0.2323
 3866TIP3   OH211603   0.822   3.680   2.262  0.0828 -0.2202 -0.0487
 3866TIP3    H111604   0.897   3.706   2.208  0.5487 -0.4391  0.4833
 3866TIP3    H211605   0.747   3.725   2.223  0.6110  0.5946 -0.1372
 3867TIP3   OH211606   4.333   1.560   2.043 -0.2111 -0.6124  0.2282
 3867TIP3    H111607   4.244   1.592   2.061 -0.3709 -0.9123 -0.0097
 3867TIP3    H211608   4.340   1.479   2.093 -0.1610 -0.7167  0.0548
 3868TIP3   OH211609   5.740   4.071   2.743 -0.9993  0.3714  0.1347
 3868TIP3    H111610   5.795   4.057   2.666 -0.5838 -0.4800  0.5724
 3868TIP3    H211611   5.783   4.021   2.813 -2.6387 -0.8103  0.3500
 3869TIP3   OH211612   3.978   3.979   3.260 -0.4006  0.1344 -0.2371
 3869TIP3    H111613   3.886   3.985   3.235 -0.4599 -0.2777 -0.1220
 3869TIP3    H211614   3.984   4.031   3.340 -0.9481 -1.4075  0.8454
 3870TIP3   OH211615   2.486   3.674   2.954 -0.3400  0.6468 -0.1954
 3870TIP3    H111616   2.436   3.651   2.876  0.9374 -1.2528 -0.5379
 3870TIP3    H211617   2.421   3.688   3.023 -1.5866  3.6504 -1.8017
 3871TIP3   OH211618   1.896   3.854   3.406 -0.0261  0.1703  0.3526
 3871TIP3    H111619   1.938   3.796   3.470  0.3291  0.7187  0.6331
 3871TIP3    H211620   1.821   3.805   3.374  1.4008 -1.2672 -0.9294
 3872TIP3   OH211621   2.703   3.419   3.676 -0.4436  0.0988  0.4214
 3872TIP3    H111622   2.640   3.369   3.624 -0.3327  0.4719 -0.0828
 3872TIP3    H211623   2.653   3.449   3.752 -0.3073 -1.4292  1.1293
 3873TIP3   OH211624   3.949   0.622   4.705 -1.1287  0.1161 -0.0125
 3873TIP3    H111625   3.901   0.705   4.704  0.7301  1.3649  2.3952
 3873TIP3    H211626   3.996   0.620   4.622 -2.2253  0.7858 -0.6816
 3874TIP3   OH211627   2.698   0.580   2.228 -0.0009 -0.4280 -0.2678
 3874TIP3    H111628   2.615   0.562   2.183  0.3320 -0.3410 -0.9389
 3874TIP3    H211629   2.675   0.583   2.320 -0.3354 -2.8746 -0.1909
 3875TIP3   OH211630   0.554   4.830   2.213  0.0394  0.1969  0.0446
 3875TIP3    H111631   0.516   4.909   2.251  0.3506  0.6175 -0.4951
 3875TIP3    H211632   0.478   4.780   2.182 -0.1521  0.3538  0.2555
 3876TIP3   OH211633   2.837   0.742   0.203  0.3645  0.8326  0.4769
 3876TIP3    H111634   2.904   0.798   0.165  1.5078 -1.2983 -0.8979
 3876TIP3    H211635   2.758   0.760   0.153  1.0838  0.2619 -0.9264
 3877TIP3   OH211636   3.198   5.726  -0.020  0.4766 -0.4465 -0.0901
 3877TIP3    H111637   3.206   5.697   0.071  1.4064  0.1727  0.0392
 3877TIP3    H211638   3.152   5.810  -0.014  2.1101  0.4729 -0.0115
 3878TIP3   OH211639   2.397   1.557   4.215  0.1666  1.2440 -0.5477
 3878TIP3    H111640   2.474   1.514   4.252 -0.2137 -0.0662 -1.2123
 3878TIP3    H211641   2.428   1.597   4.134  0.2761  1.2618 -0.4972
 3879TIP3   OH211642   4.662   3.177   4.363  0.2512 -0.3049 -0.2700
 3879TIP3    H111643   4.690   3.189   4.272  0.7236 -0.9768 -0.2181
 3879TIP3    H211644   4.734   3.211   4.415  0.2347 -0.4588 -0.1451
 3880TIP3   OH211645   5.652   5.651   1.254  0.1683 -0.3611  0.6271
 3880TIP3    H111646   5.624   5.696   1.174  1.3383 -1.0322 -0.1876
 3880TIP3    H211647   5.610   5.700   1.325 -1.5106 -0.2156 -0.4229
 3881TIP3   OH211648   2.928   5.520   0.138 -0.1645  0.0883 -0.3292
 3881TIP3    H111649   2.840   5.555   0.151 -0.3856 -0.7631  0.5285
 3881TIP3    H211650   2.978   5.553   0.213 -0.2136 -0.8986  0.1454
 3882TIP3   OH211651   3.349   3.401   3.772 -0.5841  0.9589 -0.1440
 3882TIP3    H111652   3.287   3.372   3.704 -1.3880  2.5947 -0.1709
 3882TIP3    H211653   3.328   3.494   3.785  1.8395  1.5747 -0.1067
 3883TIP3   OH211654   3.466   4.636   1.903  0.1306  0.0362  0.0045
 3883TIP3    H111655   3.446   4.543   1.911  0.1995  0.0184 -0.0378
 3883TIP3    H211656   3.554   4.646   1.939 -0.1611  0.2013  0.6951
 3884TIP3   OH211657   5.135   1.742   3.870  0.1398  0.5810  0.1782
 3884TIP3    H111658   5.051   1.775   3.902 -0.6640 -1.0324 -0.1838
 3884TIP3    H211659   5.171   1.814   3.819 -0.6152  1.6028  1.0472
 3885TIP3   OH211660   4.980   1.793   2.925 -0.1198  0.1976  0.0144
 3885TIP3    H111661   5.009   1.824   2.839  0.7615  0.0045  0.2308
 3885TIP3    H211662   5.040   1.836   2.987 -1.5176  1.3175  0.6391
 3886TIP3   OH211663   5.327   4.850   0.526 -0.2944  0.1916  0.7462
 3886TIP3    H111664   5.278   4.820   0.603 -0.7688  2.0906  1.2537
 3886TIP3    H211665   5.264   4.843   0.454 -0.2875 -0.3300  0.7892
 3887TIP3   OH211666   0.149   3.800   1.176  0.4808  0.8230 -0.0282
 3887TIP3    H111667   0.067   3.848   1.186  0.5785  0.6032  2.4603
 3887TIP3    H211668   0.188   3.835   1.096 -0.2451  3.6976  0.7702
 3888TIP3   OH211669   1.286   0.737   3.371 -1.4525  0.1251  0.4782
 3888TIP3    H111670   1.356   0.756   3.309 -0.3710 -0.4779  1.4901
 3888TIP3    H211671   1.232   0.816   3.371 -0.4816  0.8062  0.0691
 3889TIP3   OH211672   1.030   4.514   4.263 -0.2374  0.7452  0.0568
 3889TIP3    H111673   1.102   4.521   4.326 -0.2996  0.5992  0.1441
 3889TIP3    H211674   0.956   4.557   4.306 -0.5832 -0.3145  0.5388
 3890TIP3   OH211675   5.164   4.972   1.290  0.8160 -0.0887 -0.1158
 3890TIP3    H111676   5.193   4.956   1.380  1.5828  0.7380 -0.1961
 3890TIP3    H211677   5.126   4.889   1.262 -0.5775 -0.0175  1.3825
 3891TIP3   OH211678   2.884   4.479   2.376  0.3474 -0.4055  0.1796
 3891TIP3    H111679   2.962   4.425   2.367  0.0050 -0.7887 -0.5886
 3891TIP3    H211680   2.811   4.420   2.357 -0.1865 -0.2153  1.5201
 3892TIP3   OH211681   2.508   1.600   4.972  0.5350 -0.2215 -0.7125
 3892TIP3    H111682   2.586   1.567   5.017  0.5602 -0.1084 -0.6727
 3892TIP3    H211683   2.437   1.542   5.002  0.2941  0.6848  0.5565
 3893TIP3   OH211684   5.086   5.646   1.174 -0.0715  0.7719  0.0057
 3893TIP3    H111685   5.039   5.719   1.134 -2.0162 -0.7070 -0.5911
 3893TIP3    H211686   5.024   5.610   1.239 -0.1465 -1.6958 -1.3010
 3894TIP3   OH211687   5.277   0.502   2.144 -0.0677 -0.4856  0.4949
 3894TIP3    H111688   5.211   0.508   2.214  0.0854  0.3978  0.5758
 3894TIP3    H211689   5.310   0.591   2.135 -0.0179 -0.6080 -0.6488
 3895TIP3   OH211690   0.728   0.608   1.312 -0.0811 -0.5135 -0.0059
 3895TIP3    H111691   0.704   0.567   1.229 -1.5919  1.9814 -0.9175
 3895TIP3    H211692   0.708   0.541   1.378 -2.7241 -1.2098 -1.3595
 3896TIP3   OH211693   5.551   1.877   3.731  0.2339  0.5072 -0.1736
 3896TIP3    H111694   5.479   1.814   3.726 -0.5926  1.1906  1.9144
 3896TIP3    H211695   5.591   1.875   3.644 -1.6874 -0.6090 -1.1021
 3897TIP3   OH211696   5.238   1.671   2.477  0.3570 -0.0497 -0.4075
 3897TIP3    H111697   5.264   1.591   2.521 -0.5472  0.0954  0.4185
 3897TIP3    H211698   5.294   1.739   2.515 -0.5097  0.0976  0.6447
 3898TIP3   OH211699   0.938   3.885   0.492  0.5061 -0.6969  0.0130
 3898TIP3    H111700   0.941   3.955   0.558 -0.5584 -0.9814  0.3908
 3898TIP3    H211701   0.858   3.903   0.443 -0.3540 -2.2214  0.7878
 3899TIP3   OH211702   6.011   1.299   2.971 -0.6616 -0.5589  0.0286
 3899TIP3    H111703   5.948   1.256   3.029 -0.1268  0.2415  1.2434
 3899TIP3    H211704   6.016   1.241   2.895 -2.8218 -0.6728 -0.1012
 3900TIP3   OH211705   3.380   2.040   4.172  0.2435  0.0929  0.0150
 3900TIP3    H111706   3.352   2.021   4.082  1.0725 -1.0283 -0.0331
 3900TIP3    H211707   3.410   1.955   4.206  1.6782  0.8349  0.7108
 3901TIP3   OH211708   5.655   0.525   3.306 -0.6906 -0.1847  0.6982
 3901TIP3    H111709   5.683   0.608   3.268 -3.3236  0.7241  0.4952
 3901TIP3    H211710   5.651   0.542   3.400 -0.5631 -0.2911  0.7220
 3902TIP3   OH211711   4.147   3.955   4.147 -0.8189  0.5198 -0.1238
 3902TIP3    H111712   4.059   3.926   4.171  0.0163 -0.4442  2.0326
 3902TIP3    H211713   4.182   3.995   4.226  1.1274 -0.2883 -0.5041
 3903TIP3   OH211714   3.989   0.301   3.061  0.0559  0.0617 -0.5014
 3903TIP3    H111715   3.928   0.301   2.987  0.0502  0.5466 -0.5007
 3903TIP3    H211716   3.990   0.210   3.091 -0.3218 -0.0399 -0.7863
 3904TIP3   OH211717   0.843   3.451   3.302 -0.2026  0.4907  0.4717
 3904TIP3    H111718   0.808   3.365   3.279 -1.6392  1.0065  0.6812
 3904TIP3    H211719   0.766   3.505   3.319  0.5438  2.4934 -1.9371
 3905TIP3   OH211720   3.171   1.430   2.606 -0.2834 -0.4688  0.1315
 3905TIP3    H111721   3.129   1.351   2.572 -1.0707  0.3009 -0.7347
 3905TIP3    H211722   3.261   1.403   2.624 -0.5029 -1.5267 -0.2629
 3906TIP3   OH211723   4.878   3.415   3.374 -0.2918  0.1348 -0.6525
 3906TIP3    H111724   4.860   3.355   3.301 -2.6215 -1.1689  0.8643
 3906TIP3    H211725   4.915   3.359   3.442 -1.0441  0.6965  0.2390
 3907TIP3   OH211726   2.961   0.234   3.486 -0.2094  0.3133 -0.1405
 3907TIP3    H111727   2.953   0.295   3.413 -0.2067 -0.0406 -0.4409
 3907TIP3    H211728   2.948   0.147   3.447  0.6350  0.0507  0.1291
 3908TIP3   OH211729   5.537   0.793   0.820  0.4171  0.0668  0.9985
 3908TIP3    H111730   5.599   0.820   0.888  0.6254  0.0343  0.8211
 3908TIP3    H211731   5.586   0.732   0.765 -0.0674 -0.7281  1.4301
 3909TIP3   OH211732   3.299   0.726   0.958 -0.2228  0.5386 -0.4601
 3909TIP3    H111733   3.373   0.736   1.019 -1.0521  0.9724  0.5152
 3909TIP3    H211734   3.292   0.811   0.915 -0.0600  0.4451 -0.6752
 3910TIP3   OH211735   5.440   3.462   1.101 -0.1806 -0.1745 -0.0955
 3910TIP3    H111736   5.480   3.548   1.087 -0.0685 -0.4264 -1.4161
 3910TIP3    H211737   5.346   3.481   1.111 -0.0720  0.1566  0.3572
 3911TIP3   OH211738   4.681   3.966   3.670  0.0589 -0.9710 -0.1998
 3911TIP3    H111739   4.608   3.923   3.714 -1.1228  1.4943  0.3743
 3911TIP3    H211740   4.713   4.031   3.733  1.2999 -0.4782 -1.2834
 3912TIP3   OH211741   2.706   1.282   4.688  0.2845  0.0006 -0.1258
 3912TIP3    H111742   2.796   1.314   4.695  0.0270  0.7033 -0.0209
 3912TIP3    H211743   2.652   1.360   4.685 -0.3668 -0.4178  0.3052
 3913TIP3   OH211744   3.093   3.603   2.031 -0.4855 -0.3373 -0.1294
 3913TIP3    H111745   3.035   3.672   2.000 -2.3969 -1.0444  1.6536
 3913TIP3    H211746   3.100   3.543   1.957 -1.1790  0.2947 -0.7227
 3914TIP3   OH211747   3.502   4.152   0.264  0.0527  0.3791 -0.1724
 3914TIP3    H111748   3.578   4.097   0.245  0.3308  0.5589  0.4131
 3914TIP3    H211749   3.500   4.158   0.359  0.0633  1.4473 -0.2362
 3915TIP3   OH211750   4.902   0.893   1.908  0.2754  0.1100  0.7074
 3915TIP3    H111751   4.869   0.803   1.910  0.0962  0.0393 -1.7866
 3915TIP3    H211752   4.986   0.886   1.863 -0.3521  1.3073 -0.7472
 3916TIP3   OH211753   0.036   4.197   0.512 -0.1404 -0.9583 -0.2168
 3916TIP3    H111754   0.121   4.229   0.543 -1.2299  0.6397  1.2936
 3916TIP3    H211755   0.058   4.138   0.440  2.2447 -0.6089  0.1315
 3917TIP3   OH211756   2.466   1.320   0.407 -0.8782 -0.2399  0.3704
 3917TIP3    H111757   2.547   1.323   0.355 -1.8078  0.4893 -1.0956
 3917TIP3    H211758   2.444   1.412   0.423 -1.5935 -0.4222  0.4791
 3918TIP3   OH211759   4.845   0.914   0.061 -0.1381 -0.0599  0.2515
 3918TIP3    H111760   4.814   0.999   0.028  1.3377  0.9672  1.3739
 3918TIP3    H211761   4.907   0.884  -0.005  0.5034  0.5065  0.5846
 3919TIP3   OH211762   1.941   3.441   3.896  0.1511 -0.0758 -0.2515
 3919TIP3    H111763   1.966   3.398   3.814  0.6582  0.1676 -0.2253
 3919TIP3    H211764   1.916   3.369   3.954 -0.3980 -0.2384 -0.6747
 3920TIP3   OH211765   5.428   0.116   1.570 -0.5800  0.4552  0.4891
 3920TIP3    H111766   5.499   0.180   1.579 -0.6929  0.5388  0.8341
 3920TIP3    H211767   5.468   0.041   1.527 -0.2748  0.4956  0.6992
 3921TIP3   OH211768   3.479   2.121   2.877  0.2206 -0.1671  0.3778
 3921TIP3    H111769   3.456   2.131   2.969 -0.0654  2.4567  0.0909
 3921TIP3    H211770   3.420   2.180   2.831  1.0736 -0.6152 -1.3766
 3922TIP3   OH211771   3.773   2.233   3.938 -0.3712 -0.3728 -0.0504
 3922TIP3    H111772   3.752   2.147   3.900  0.6295  0.5569 -3.0103
 3922TIP3    H211773   3.691   2.282   3.934 -0.1024 -0.0194 -1.9486
 3923TIP3   OH211774   1.312   3.163   2.016 -0.1329 -0.1510  0.2407
 3923TIP3    H111775   1.259   3.188   2.092  0.7401  1.5500  0.3393
 3923TIP3    H211776   1.387   3.222   2.019 -1.0078  1.3611 -3.0117
 3924TIP3   OH211777   5.920   1.875   4.102  0.6502 -0.1460  0.0106
 3924TIP3    H111778   5.847   1.934   4.121  1.1707  0.9039 -1.1317
 3924TIP3    H211779   5.990   1.904   4.160  0.9801  0.5233 -0.7125
 3925TIP3   OH211780   5.040   4.055   4.071  0.2631  0.1385  0.2952
 3925TIP3    H111781   4.967   4.071   4.131 -0.2612  0.4524 -0.4111
 3925TIP3    H211782   5.068   3.966   4.091  1.1542  0.7771  2.1110
 3926TIP3   OH211783   5.646   3.655   3.990  0.5643 -0.2352  0.3162
 3926TIP3    H111784   5.612   3.741   3.965 -2.3372 -1.2202  0.6227
 3926TIP3    H211785   5.677   3.666   4.079 -1.7715  0.0679  1.1521
 3927TIP3   OH211786   3.839   0.538   0.493 -0.1619  0.3850 -0.1405
 3927TIP3    H111787   3.896   0.598   0.541 -1.6920  1.2144  0.7192
 3927TIP3    H211788   3.829   0.579   0.407  0.7063  0.1088 -0.3839
 3928TIP3   OH211789   5.249   4.061   4.524 -0.0975  0.3740  0.3646
 3928TIP3    H111790   5.287   4.147   4.504  1.0478  0.1981  1.6538
 3928TIP3    H211791   5.324   4.002   4.528 -1.0018 -1.1280 -2.3082
 3929TIP3   OH211792   3.925   4.492   3.977  0.2110 -0.0858 -0.2957
 3929TIP3    H111793   3.908   4.398   3.971 -0.9954 -0.1293  2.4943
 3929TIP3    H211794   3.855   4.532   3.925 -0.2872 -0.6804 -0.0929
 3930TIP3   OH211795   2.360   5.838   3.018 -0.2482  0.1222 -0.6648
 3930TIP3    H111796   2.399   5.891   2.949  0.2582  0.0850 -0.4069
 3930TIP3    H211797   2.289   5.790   2.974  0.2879 -0.1579 -1.2359
 3931TIP3   OH211798   4.483   0.983   2.284 -0.1932 -0.2912 -0.0416
 3931TIP3    H111799   4.483   0.928   2.362 -3.2284 -0.5322 -0.0970
 3931TIP3    H211800   4.514   0.926   2.214  0.0038 -0.8631  0.5053
 3932TIP3   OH211801   0.990   3.815   4.394 -0.0305  0.0003 -0.3160
 3932TIP3    H111802   0.910   3.797   4.346 -0.6249  0.6901  0.4043
 3932TIP3    H211803   0.980   3.766   4.476 -0.3263  1.1419  0.3545
 3933TIP3   OH211804   5.707   4.528   2.853 -0.1255 -0.3816 -0.0288
 3933TIP3    H111805   5.705   4.446   2.902  2.3063 -0.7524 -0.4156
 3933TIP3    H211806   5.784   4.574   2.886 -2.1177  2.4011  1.0702
 3934TIP3   OH211807   2.475   3.086   3.814 -0.3362  0.5394  0.2032
 3934TIP3    H111808   2.419   3.012   3.836 -0.1064  0.3414  0.1252
 3934TIP3    H211809   2.475   3.141   3.893 -0.3938  0.3856  0.3091
 3935TIP3   OH211810   1.540   4.412   2.727  0.2956 -0.0462  0.2792
 3935TIP3    H111811   1.467   4.353   2.747 -0.0700  0.2078 -0.2824
 3935TIP3    H211812   1.527   4.437   2.636  1.3685 -0.3801  0.0232
 3936TIP3   OH211813   0.089   1.622   0.900  0.2551  0.2696  0.0195
 3936TIP3    H111814   0.170   1.670   0.879 -0.3595  1.6943  0.7623
 3936TIP3    H211815   0.106   1.585   0.986  0.0136  0.8183  0.3048
 3937TIP3   OH211816   5.578   2.666   1.921 -0.1674  0.1970 -0.6600
 3937TIP3    H111817   5.509   2.600   1.915 -0.4863  0.3809  0.7645
 3937TIP3    H211818   5.534   2.745   1.953  0.3927  0.8347 -1.4118
 3938TIP3   OH211819   0.369   5.035   1.752 -0.6381 -0.3906 -0.4847
 3938TIP3    H111820   0.371   4.976   1.676 -0.5103  0.8378 -1.4736
 3938TIP3    H211821   0.460   5.062   1.764 -0.3028 -2.0951  1.4035
 3939TIP3   OH211822   4.596   5.752   1.119  0.4433 -0.3315  0.3077
 3939TIP3    H111823   4.574   5.712   1.035  0.1199  0.6059 -0.0644
 3939TIP3    H211824   4.514   5.753   1.168  0.0724  1.2782 -0.2894
 3940TIP3   OH211825   0.713   2.498   1.253 -0.1730 -0.1715 -0.2914
 3940TIP3    H111826   0.778   2.548   1.304  0.3575 -0.0322 -1.0869
 3940TIP3    H211827   0.705   2.545   1.171  0.5710 -1.5435 -1.1925
 3941TIP3   OH211828   0.156   2.758   1.702 -0.0341 -0.2203 -0.2758
 3941TIP3    H111829   0.251   2.761   1.696  0.0729 -0.3977  0.9452
 3941TIP3    H211830   0.135   2.818   1.774 -0.8875  0.2134 -0.8693
 3942TIP3   OH211831   2.629   1.045   3.685  0.2423 -0.1767  0.4157
 3942TIP3    H111832   2.600   0.957   3.706 -2.6526  0.5767 -0.0604
 3942TIP3    H211833   2.668   1.077   3.766  0.0076 -1.3850  1.0289
 3943TIP3   OH211834   4.252   5.657   5.102 -0.5689  0.1260 -0.1870
 3943TIP3    H111835   4.233   5.723   5.169 -0.2978 -0.8040  0.8442
 3943TIP3    H211836   4.293   5.585   5.151  0.6899 -0.1117 -1.5399
 3944TIP3   OH211837   1.206   3.768   3.496 -0.1721  0.1649  0.0715
 3944TIP3    H111838   1.189   3.716   3.417  1.4077  0.9603 -0.8385
 3944TIP3    H211839   1.120   3.802   3.522 -0.7527 -0.3059 -1.1616
 3945TIP3   OH211840   0.201   4.526   1.288 -0.1847 -0.4381  0.0846
 3945TIP3    H111841   0.131   4.508   1.350 -1.2018  0.5270 -0.7409
 3945TIP3    H211842   0.162   4.586   1.224  0.8497 -1.2793 -1.4073
 3946TIP3   OH211843   1.708   2.065   0.187 -0.4700  0.3071 -0.0405
 3946TIP3    H111844   1.693   1.974   0.161  2.5531 -0.1277 -0.6350
 3946TIP3    H211845   1.655   2.077   0.265  0.2045 -2.4802  0.9555
 3947TIP3   OH211846   5.912   0.071   2.927  0.0249  0.0951  0.2183
 3947TIP3    H111847   5.867   0.009   2.985  0.6032  0.5159  1.1467
 3947TIP3    H211848   6.005   0.058   2.947  0.2687 -0.1196 -1.0088
 3948TIP3   OH211849   2.599   1.064   1.109 -0.2223 -0.1450  0.0293
 3948TIP3    H111850   2.507   1.054   1.087 -0.2767  0.6264 -0.1068
 3948TIP3    H211851   2.632   1.129   1.047  0.4109 -0.3988  0.0850
 3949TIP3   OH211852   4.891   3.848   1.402  0.5899  0.3838  0.4669
 3949TIP3    H111853   4.959   3.916   1.410  1.6271 -0.5779  0.1166
 3949TIP3    H211854   4.940   3.767   1.387 -0.6776 -0.2056 -0.6748
 3950TIP3   OH211855   0.736   0.377   1.481 -0.3440  0.4899 -0.1685
 3950TIP3    H111856   0.720   0.291   1.519  0.5887  0.6337  0.5936
 3950TIP3    H211857   0.830   0.392   1.494 -0.4890  1.6172 -0.3005
 3951TIP3   OH211858   6.010   1.218   1.167 -0.1114  0.0984  0.0604
 3951TIP3    H111859   6.089   1.172   1.139 -0.9819 -1.8481  0.6835
 3951TIP3    H211860   5.951   1.213   1.091  0.3344  1.6511 -0.4480
 3952TIP3   OH211861   3.555   5.860   3.033  0.0924 -0.6861  0.2833
 3952TIP3    H111862   3.492   5.925   3.065  0.3754  0.5489 -1.5502
 3952TIP3    H211863   3.635   5.878   3.084 -0.3524 -0.7783  1.0274
 3953TIP3   OH211864   1.996   3.246   0.080  0.5382 -0.4603 -0.4517
 3953TIP3    H111865   1.959   3.227  -0.006  1.3700  0.8175 -1.1321
 3953TIP3    H211866   2.022   3.338   0.075 -2.5678  0.7598  2.3615
 3954TIP3   OH211867   6.190   1.878   1.522  0.1253  0.0146  0.4112
 3954TIP3    H111868   6.217   1.798   1.476 -0.0513 -1.6844  3.0488
 3954TIP3    H211869   6.126   1.919   1.463  0.0716 -1.8928 -0.9496
 3955TIP3   OH211870   2.053   0.286   4.844  0.5781  0.3845 -0.1356
 3955TIP3    H111871   2.024   0.290   4.935  1.5424 -0.9435  0.2435
 3955TIP3    H211872   2.070   0.377   4.821  0.0376  0.7692  0.9156
 3956TIP3   OH211873   2.589   3.769   2.682  0.2098  0.2649 -0.1102
 3956TIP3    H111874   2.601   3.738   2.772  0.6096  2.3472  0.5987
 3956TIP3    H211875   2.536   3.701   2.641 -0.3961 -0.5156  1.8230
 3957TIP3   OH211876   4.897   0.348   4.696  0.4329  0.0053 -0.1534
 3957TIP3    H111877   4.989   0.334   4.720  0.0505 -1.6956  0.4312
 3957TIP3    H211878   4.847   0.316   4.771 -0.6676 -0.1808 -0.9397
 3958TIP3   OH211879   1.245   4.560   4.407  0.5529 -0.6649 -0.2247
 3958TIP3    H111880   1.261   4.651   4.430 -1.3663 -0.2567 -0.3175
 3958TIP3    H211881   1.231   4.516   4.490  0.6011 -0.6847 -0.2271
 3959TIP3   OH211882   0.733   0.887   0.878  0.4137  0.2412 -0.6862
 3959TIP3    H111883   0.774   0.901   0.792 -0.5222 -2.0572 -1.6011
 3959TIP3    H211884   0.644   0.858   0.857  0.1076 -0.1914  1.0840
 3960TIP3   OH211885   5.969   5.358   4.971  0.1969  0.1366 -0.0765
 3960TIP3    H111886   6.023   5.280   4.983  0.2376  0.1903  0.0948
 3960TIP3    H211887   5.990   5.388   4.882 -0.2112 -0.3466 -0.3420
 3961TIP3   OH211888   1.458   0.923   4.554 -0.0818 -0.1433  0.2347
 3961TIP3    H111889   1.543   0.968   4.550  0.9764 -1.9623  0.8773
 3961TIP3    H211890   1.418   0.940   4.469  1.2974  0.0962 -0.3928
 3962TIP3   OH211891   4.925   3.168   1.755  0.5076 -0.0245  0.2859
 3962TIP3    H111892   4.880   3.228   1.695  0.0805 -0.1308  0.4975
 3962TIP3    H211893   4.916   3.208   1.841  0.1710 -0.4113  0.4379
 3963TIP3   OH211894   1.205   5.817   3.191 -0.3100  0.0079 -0.2105
 3963TIP3    H111895   1.198   5.872   3.269 -1.8517  0.6261 -0.7529
 3963TIP3    H211896   1.203   5.878   3.117 -2.2032 -0.7210 -0.8363
 3964TIP3   OH211897   3.752   1.392   0.212 -0.5076  0.2516 -0.3965
 3964TIP3    H111898   3.835   1.438   0.227 -0.2929  0.1100 -1.0958
 3964TIP3    H211899   3.727   1.416   0.123 -1.0109 -0.0352 -0.3380
 3965TIP3   OH211900   5.814   4.336   4.395  0.5057  0.2290  0.4158
 3965TIP3    H111901   5.867   4.331   4.315  2.1627  0.9807  1.4393
 3965TIP3    H211902   5.732   4.291   4.371  1.3158 -0.3871 -1.4067
 3966TIP3   OH211903   2.421   0.976   1.792  0.1171 -0.2179  0.3182
 3966TIP3    H111904   2.502   0.949   1.748  0.3821 -0.0180  0.6759
 3966TIP3    H211905   2.451   1.033   1.864 -0.3495 -0.0268  0.3620
 3967TIP3   OH211906   0.667   0.502   2.907 -0.0825 -0.1136  0.4581
 3967TIP3    H111907   0.726   0.449   2.853  0.5689 -0.0289  1.0660
 3967TIP3    H211908   0.618   0.555   2.844 -1.6437 -2.2957 -0.2596
 3968TIP3   OH211909   4.205   2.039   3.235 -0.2453 -0.0675 -0.0306
 3968TIP3    H111910   4.292   2.036   3.275 -0.2305  0.1805 -0.0417
 3968TIP3    H211911   4.209   2.116   3.177 -0.6329  0.2309  0.3349
 3969TIP3   OH211912   3.146   5.286   4.995 -0.0187 -0.1548  0.2154
 3969TIP3    H111913   3.193   5.369   5.010 -1.0670  0.4285  0.3901
 3969TIP3    H211914   3.076   5.309   4.934  0.0787 -1.0692 -0.2527
 3970TIP3   OH211915   1.486   4.969   4.081 -0.2257  0.4284 -0.2854
 3970TIP3    H111916   1.541   4.896   4.109  0.5317  0.5750 -1.3358
 3970TIP3    H211917   1.413   4.928   4.034  1.0231  0.3691 -2.2793
 3971TIP3   OH211918   3.529   0.966   2.639  0.1454  0.3615 -0.1350
 3971TIP3    H111919   3.572   0.884   2.665  0.9915  0.8029 -0.0837
 3971TIP3    H211920   3.522   1.016   2.720 -1.4851 -0.1446  0.0528
 3972TIP3   OH211921   5.423   2.126   4.954 -0.0333  0.2862 -0.7006
 3972TIP3    H111922   5.428   2.031   4.963 -2.0781  0.1762 -0.2521
 3972TIP3    H211923   5.471   2.160   5.029  1.5120 -0.3393 -1.3582
 3973TIP3   OH211924   4.850   3.047   4.059 -0.2627 -0.2761 -0.4675
 3973TIP3    H111925   4.882   2.979   4.119 -1.3345 -1.0092 -0.6956
 3973TIP3    H211926   4.755   3.032   4.054 -0.8895  2.4300  0.9776
 3974TIP3   OH211927   5.610   4.667   1.149  0.7078  0.6081 -0.6042
 3974TIP3    H111928   5.637   4.688   1.059  2.2452  0.9792 -0.0866
 3974TIP3    H211929   5.676   4.708   1.204  0.0708 -0.0490  0.7005
 3975TIP3   OH211930   5.033   2.518   0.676  0.5559  0.0423 -0.0956
 3975TIP3    H111931   4.938   2.521   0.668  0.2955  0.8162  2.4059
 3975TIP3    H211932   5.059   2.440   0.627 -1.3733 -0.2792 -0.6764
 3976TIP3   OH211933   6.170   3.999   3.932 -0.9998 -0.0509  0.4059
 3976TIP3    H111934   6.231   3.968   3.998 -1.6288  0.1639  1.1006
 3976TIP3    H211935   6.100   3.933   3.932 -0.2214 -0.9481 -1.2365
 3977TIP3   OH211936   1.989   3.716   3.612  0.0481  0.1333 -0.1332
 3977TIP3    H111937   2.046   3.642   3.591  1.3922  1.3059 -0.7891
 3977TIP3    H211938   2.046   3.780   3.653 -0.9304  1.1115 -0.2437
 3978TIP3   OH211939   1.408   3.764   1.580  0.4475  0.0648 -0.1703
 3978TIP3    H111940   1.319   3.780   1.609  0.2434 -0.5827 -0.3972
 3978TIP3    H211941   1.397   3.710   1.501  1.0381 -0.2343 -0.0544
 3979TIP3   OH211942   4.210   5.983   1.772  0.1090 -0.0473  0.1228
 3979TIP3    H111943   4.170   5.930   1.704 -1.9472 -0.5324  1.6004
 3979TIP3    H211944   4.175   5.948   1.854 -0.2270  2.6715  1.2620
 3980TIP3   OH211945   5.637   3.853   0.064  0.1241  0.0274  0.3870
 3980TIP3    H111946   5.682   3.924   0.110 -0.6270  0.5206  0.3834
 3980TIP3    H211947   5.701   3.782   0.061  1.0252  0.8311  0.0581
 3981TIP3   OH211948   0.732   0.198   2.814 -0.7810 -0.6299  0.5101
 3981TIP3    H111949   0.823   0.187   2.844 -0.1398  0.9432 -0.6934
 3981TIP3    H211950   0.738   0.191   2.719 -1.4739  2.0247  0.2106
 3982TIP3   OH211951   3.871   3.362   3.944  0.4591  0.5604  0.1386
 3982TIP3    H111952   3.839   3.318   3.865 -2.2389  1.3565  0.6962
 3982TIP3    H211953   3.851   3.300   4.015  0.5613  0.9115  0.4761
 3983TIP3   OH211954   4.995   4.601   2.636 -0.3655 -0.0283 -0.0394
 3983TIP3    H111955   5.042   4.575   2.716  1.4238  0.2678 -0.9452
 3983TIP3    H211956   4.955   4.520   2.605  2.0185 -1.0262 -0.7945
 3984TIP3   OH211957   3.773   4.261   3.377 -0.2131 -0.2527  0.2896
 3984TIP3    H111958   3.825   4.212   3.441 -0.2398 -0.6301  0.0241
 3984TIP3    H211959   3.685   4.263   3.415  0.1408  1.0697  1.1248
 3985TIP3   OH211960   2.996   0.908   0.047 -0.4642  0.7591 -0.4724
 3985TIP3    H111961   3.033   0.962   0.117  0.6252 -2.5532  1.7134
 3985TIP3    H211962   3.070   0.889  -0.010 -0.7157  1.0249 -0.8964
 3986TIP3   OH211963   4.508   5.084   1.149 -0.7821 -0.0227 -0.6318
 3986TIP3    H111964   4.454   5.010   1.179 -0.8358 -0.0290 -0.7441
 3986TIP3    H211965   4.587   5.078   1.202 -1.1283  0.3191 -0.0684
 3987TIP3   OH211966   5.739  -0.008   3.702  0.7632  0.0382 -0.0484
 3987TIP3    H111967   5.755   0.037   3.619  0.0618 -1.0064 -0.7682
 3987TIP3    H211968   5.821   0.002   3.751  0.5743  2.2429 -0.0842
 3988TIP3   OH211969   4.739   1.390   2.826  0.5901 -0.2053 -0.0351
 3988TIP3    H111970   4.789   1.441   2.889  1.7170 -0.9056 -0.3195
 3988TIP3    H211971   4.789   1.309   2.817 -0.8304 -1.1111 -0.0415
 3989TIP3   OH211972   5.192   3.729   3.362  0.2931 -0.2393 -0.2971
 3989TIP3    H111973   5.285   3.716   3.343  0.7437  1.0878  0.8607
 3989TIP3    H211974   5.182   3.700   3.452 -0.0630  1.0454  0.0996
 3990TIP3   OH211975   0.168   1.647   4.116 -0.0952  0.0279  0.2209
 3990TIP3    H111976   0.145   1.565   4.160 -0.3881  0.4377  0.8463
 3990TIP3    H211977   0.262   1.656   4.131  0.0823 -0.5776 -0.5081
 3991TIP3   OH211978   5.393   1.446   0.821 -0.6129 -0.7293  0.5495
 3991TIP3    H111979   5.484   1.448   0.791 -0.6165 -0.3935  0.5489
 3991TIP3    H211980   5.383   1.528   0.870 -1.7221  0.6609 -1.8642
 3992TIP3   OH211981   2.337   3.124   1.272 -0.2466  0.2697 -0.2019
 3992TIP3    H111982   2.313   3.215   1.287 -1.4807  0.2660 -1.8991
 3992TIP3    H211983   2.271   3.092   1.210 -1.1850 -2.4136  1.9908
 3993TIP3   OH211984   1.670   1.000   2.478 -0.3331 -0.0475  1.1828
 3993TIP3    H111985   1.691   1.013   2.385 -1.0422 -1.8627  0.7312
 3993TIP3    H211986   1.589   1.049   2.491  0.2302  0.9355  1.0818
 3994TIP3   OH211987   6.240   5.856   0.287  0.7110 -0.5608  0.0746
 3994TIP3    H111988   6.318   5.910   0.298  0.8801 -0.9831  1.0795
 3994TIP3    H211989   6.258   5.778   0.339 -0.4576 -0.5758  0.4831
 3995TIP3   OH211990   3.775   1.631   5.086 -0.6526  0.1626 -0.0930
 3995TIP3    H111991   3.802   1.716   5.120  1.1032 -0.0758 -0.8217
 3995TIP3    H211992   3.804   1.630   4.995  1.9320 -2.2249  0.6117
 3996TIP3   OH211993   2.413   5.608   3.627 -0.3390  0.2571 -0.0827
 3996TIP3    H111994   2.447   5.521   3.609  0.4704  0.5965 -0.2311
 3996TIP3    H211995   2.319   5.595   3.639  0.0621 -0.9811  2.2230
 3997TIP3   OH211996   1.017   2.948   0.299  0.2393  0.6448  0.0935
 3997TIP3    H111997   1.054   2.942   0.211  0.9430 -0.8319  0.4528
 3997TIP3    H211998   1.078   2.900   0.354 -0.5483  0.9502  1.2730
 3998TIP3   OH211999   3.605   5.362   1.018 -0.1566 -0.0437  0.2025
 3998TIP3    H112000   3.672   5.366   1.085  0.1625  2.2993 -0.1699
 3998TIP3    H212001   3.653   5.363   0.935 -0.5998  1.1645 -0.0616
 3999TIP3   OH212002   4.798   5.074   1.281  0.7136  0.2082 -0.1312
 3999TIP3    H112003   4.849   5.042   1.355  2.3650  3.3088  0.2078
 3999TIP3    H212004   4.863   5.098   1.215 -0.6970 -2.1540 -2.6165
 4000TIP3   OH212005   6.261   3.768   0.854  0.0643  0.3183 -0.3547
 4000TIP3    H112006   6.235   3.685   0.894 -2.0428  0.6564 -0.8978
 4000TIP3    H212007   6.200   3.832   0.890  0.3257  1.2463 -1.5003
 4001TIP3   OH212008   0.093   2.352   2.123  0.3020 -0.6113 -0.6172
 4001TIP3    H112009   0.180   2.377   2.154  0.1851 -2.2919  1.2469
 4001TIP3    H212010   0.102   2.261   2.096 -0.8241 -0.7623 -0.5266
 4002TIP3   OH212011   1.644   2.158   2.976  0.2408  0.2987  0.0763
 4002TIP3    H112012   1.730   2.193   2.954  0.4016 -1.3064 -2.1486
 4002TIP3    H212013   1.661   2.099   3.050  0.9821  0.2750 -0.1034
 4003TIP3   OH212014   1.628   5.745   2.468 -0.2441 -0.1749  0.2800
 4003TIP3    H112015   1.571   5.822   2.462 -0.5435 -0.4917 -1.4830
 4003TIP3    H212016   1.644   5.735   2.561  0.7588  2.7470  0.5506
 4004TIP3   OH212017   1.626   0.722   2.549  0.0605 -0.0080 -0.5883
 4004TIP3    H112018   1.714   0.711   2.585 -0.1749 -0.9004 -0.2319
 4004TIP3    H212019   1.638   0.770   2.468  1.1366 -1.8766 -1.6047
 4005TIP3   OH212020   1.835   5.504   3.914 -0.2554  0.2665 -0.3007
 4005TIP3    H112021   1.893   5.434   3.886  1.2311  1.6516 -0.8235
 4005TIP3    H212022   1.844   5.507   4.009 -1.5637 -1.2568 -0.0922
 4006TIP3   OH212023   2.885   2.378   3.500  0.2149 -0.9143 -0.3125
 4006TIP3    H112024   2.809   2.331   3.464 -0.6889  0.9648 -0.9826
 4006TIP3    H212025   2.873   2.469   3.472  1.2244  0.0124  1.9877
 4007TIP3   OH212026   2.940   0.700   2.330  0.1669  0.0473 -0.2333
 4007TIP3    H112027   2.936   0.699   2.426 -0.7083  0.5924 -0.2554
 4007TIP3    H212028   2.871   0.639   2.303  1.6489 -1.6086 -0.5239
 4008TIP3   OH212029   3.533   3.824   1.120 -0.6149  0.2316 -0.0130
 4008TIP3    H112030   3.503   3.804   1.031 -1.6646 -0.0446  0.3898
 4008TIP3    H212031   3.462   3.875   1.158 -1.7872 -2.5495  1.8246
 4009TIP3   OH212032   3.197   1.578   3.045  0.3476  0.1411  0.4560
 4009TIP3    H112033   3.237   1.639   2.982 -0.4710 -0.1930 -0.4063
 4009TIP3    H212034   3.238   1.494   3.026 -0.4667 -0.1224 -0.1700
 4010TIP3   OH212035   1.354   1.312   4.991  0.0199  0.0094 -0.0895
 4010TIP3    H112036   1.264   1.346   4.997  0.6050  1.6402 -0.0071
 4010TIP3    H212037   1.385   1.312   5.082 -0.9900 -3.9030  0.4138
 4011TIP3   OH212038   0.342   1.193   1.153 -0.1588 -0.1139  0.1268
 4011TIP3    H112039   0.418   1.168   1.205 -0.2431 -1.0033 -0.1583
 4011TIP3    H212040   0.378   1.247   1.083 -0.2007  2.2420  1.8120
 4012TIP3   OH212041   3.326   2.170   3.724 -0.0425 -0.3330  0.2768
 4012TIP3    H112042   3.266   2.119   3.669  0.4546 -0.3694 -0.2436
 4012TIP3    H212043   3.273   2.242   3.757 -0.4580 -0.5467  0.0894
 4013TIP3   OH212044   6.021   0.944   1.333 -0.1040  0.1247 -0.1972
 4013TIP3    H112045   5.956   0.970   1.399 -0.2141  1.9253 -0.9530
 4013TIP3    H212046   6.018   1.014   1.267  0.6768 -1.1344 -1.6411
 4014TIP3   OH212047   3.970   4.794   2.547 -0.5277 -0.1869 -0.4912
 4014TIP3    H112048   3.976   4.823   2.456 -0.7582 -0.0261 -0.4563
 4014TIP3    H212049   4.058   4.808   2.583 -0.3413 -0.5716 -0.7831
 4015TIP3   OH212050   0.788   2.962   2.433  0.0466 -0.2510 -0.1436
 4015TIP3    H112051   0.847   2.998   2.498  0.2479  2.0188 -1.4889
 4015TIP3    H212052   0.703   2.956   2.477  0.2551  0.9326  0.4511
 4016TIP3   OH212053   1.808   3.392   0.751  0.0062 -0.1102  0.5928
 4016TIP3    H112054   1.802   3.302   0.720  0.1028  0.3110 -0.7196
 4016TIP3    H212055   1.893   3.396   0.796  0.4881 -0.4231 -0.2615
 4017TIP3   OH212056   5.195   2.151   0.058  0.4895  0.3840  0.7341
 4017TIP3    H112057   5.253   2.227   0.069  0.2320  0.7852 -0.4444
 4017TIP3    H212058   5.131   2.180  -0.008  0.4991 -0.9168  0.1147
 4018TIP3   OH212059   4.489   2.162   2.823 -0.4837 -0.0781  0.1902
 4018TIP3    H112060   4.490   2.086   2.881  0.4921  0.0873  0.4112
 4018TIP3    H212061   4.578   2.198   2.830 -0.4811  0.1966 -1.0618
 4019TIP3   OH212062   0.562   1.876   0.044  0.2834 -0.4251  0.7583
 4019TIP3    H112063   0.511   1.941  -0.005 -0.8462 -2.4235 -0.9003
 4019TIP3    H212064   0.503   1.848   0.115  0.4029 -0.3014  0.9063
 4020TIP3   OH212065   3.942   5.165   3.130  0.0820  0.5575  0.1698
 4020TIP3    H112066   4.034   5.150   3.106 -0.0619  0.6785 -0.4787
 4020TIP3    H212067   3.946   5.228   3.202  0.5576 -0.3584  0.9663
 4021TIP3   OH212068   5.803   5.373   4.357 -0.0320 -0.0744 -0.3901
 4021TIP3    H112069   5.813   5.463   4.385 -3.2458  0.8061 -1.5884
 4021TIP3    H212070   5.847   5.369   4.272  0.5439  0.2152 -0.1074
 4022TIP3   OH212071   4.100   4.879   1.765  0.4909  0.1477 -0.0606
 4022TIP3    H112072   4.059   4.925   1.839  2.1955  1.0352  0.3790
 4022TIP3    H212073   4.051   4.910   1.689 -0.3279  0.3829  0.5413
 4023TIP3   OH212074   0.721   2.353   0.926 -0.6567 -0.3382 -0.3034
 4023TIP3    H112075   0.711   2.407   0.848  0.3841 -0.3178 -0.4385
 4023TIP3    H212076   0.646   2.376   0.981  0.2356  1.9355  0.0564
 4024TIP3   OH212077   5.938   4.992   4.638  0.5757 -0.5273 -0.3042
 4024TIP3    H112078   5.864   4.973   4.579 -0.2984  3.1496 -0.6451
 4024TIP3    H212079   5.924   4.935   4.713 -1.1510 -1.7379 -1.4542
 4025TIP3   OH212080   5.853   3.492   2.723 -0.0282  0.7562 -0.1402
 4025TIP3    H112081   5.864   3.533   2.809  0.5821 -0.8505  0.5787
 4025TIP3    H212082   5.759   3.495   2.707 -0.1782  0.8655  0.6887
 4026TIP3   OH212083   0.976   4.506   0.270 -0.3614 -0.0462  0.0884
 4026TIP3    H112084   0.997   4.594   0.239  0.4625 -0.0600  0.5855
 4026TIP3    H212085   1.049   4.451   0.241 -0.4127 -0.3844  0.5708
 4027TIP3   OH212086   2.783   1.513   1.836 -0.0664  0.2983  0.2878
 4027TIP3    H112087   2.834   1.584   1.797  0.5249  0.6608  1.6685
 4027TIP3    H212088   2.804   1.517   1.929  1.0310 -2.5230  0.2534
 4028TIP3   OH212089   5.196   5.435   4.557  0.2619 -0.2198 -0.4532
 4028TIP3    H112090   5.253   5.434   4.480  0.5652 -0.6419 -0.2211
 4028TIP3    H212091   5.208   5.522   4.595 -0.2457  0.1680 -1.1465
 4029TIP3   OH212092   4.812   5.186   0.480  0.1223  0.5105 -0.2800
 4029TIP3    H112093   4.898   5.158   0.511 -0.0329  1.3105  0.9583
 4029TIP3    H212094   4.775   5.109   0.437  1.4827  0.1890 -0.9012
 4030TIP3   OH212095   1.068   1.818   0.649 -0.0108 -0.0803  0.2246
 4030TIP3    H112096   1.076   1.803   0.743 -0.1219  0.0844  0.2604
 4030TIP3    H212097   0.995   1.879   0.640 -0.9037 -1.1460 -0.0698
 4031TIP3   OH212098   3.223   1.591   3.322 -0.0984 -0.3437 -0.0116
 4031TIP3    H112099   3.290   1.529   3.351 -0.0602 -0.0924  0.4643
 4031TIP3    H212100   3.217   1.580   3.228  1.0593  0.0619 -0.1468
 4032TIP3   OH212101   5.643   2.130   1.240 -0.4063 -0.0808 -0.0414
 4032TIP3    H112102   5.694   2.058   1.203 -1.6121 -0.3129 -1.3329
 4032TIP3    H212103   5.678   2.208   1.197  0.6109  0.0838  1.0404
 4033TIP3   OH212104   2.324   2.752   1.829  0.5161 -0.3138 -0.2677
 4033TIP3    H112105   2.267   2.722   1.757 -0.8995  0.4480  0.4836
 4033TIP3    H212106   2.358   2.671   1.867  0.0898 -0.7936 -0.8662
 4034TIP3   OH212107   2.757   0.060   1.876 -0.3227  0.0106 -0.1237
 4034TIP3    H112108   2.757   0.093   1.966 -2.3061  0.2055 -0.1572
 4034TIP3    H212109   2.750   0.139   1.822 -0.2493 -0.1809 -0.4172
 4035TIP3   OH212110   2.930   1.604   1.575  0.1241  0.3489  0.0503
 4035TIP3    H112111   2.942   1.667   1.646 -1.0073 -0.6352  1.1547
 4035TIP3    H212112   2.863   1.642   1.519  1.2679  1.2940 -0.7443
 4036TIP3   OH212113   0.679   3.272   0.658  0.2395  1.1791 -0.8813
 4036TIP3    H112114   0.708   3.273   0.749 -0.2243 -0.4761 -0.6836
 4036TIP3    H212115   0.646   3.360   0.642 -0.5388  1.2264  0.8434
 4037TIP3   OH212116   5.660   4.659   4.572  0.0222  0.6328 -0.1480
 4037TIP3    H112117   5.698   4.743   4.545  0.3244  0.3218 -0.7195
 4037TIP3    H212118   5.573   4.682   4.605 -0.5268  1.0270 -1.7439
 4038TIP3   OH212119   5.066   5.069   2.018 -0.4619  0.3969  0.8010
 4038TIP3    H112120   5.038   4.978   2.008  0.2799  0.0788  1.4637
 4038TIP3    H212121   4.995   5.110   2.068  0.5520 -0.6188  3.2350
 4039TIP3   OH212122   4.920   4.621   0.289 -0.4568 -0.6888  0.3974
 4039TIP3    H112123   4.855   4.676   0.243  0.4848 -0.8614 -1.2386
 4039TIP3    H212124   4.897   4.531   0.264 -1.4143 -1.0099  2.3000
 4040TIP3   OH212125   2.411   5.306   4.884  0.2395 -0.0586  0.3437
 4040TIP3    H112126   2.360   5.383   4.862  2.0125  1.6031  1.7289
 4040TIP3    H212127   2.413   5.304   4.980 -0.2675 -2.2112  0.3733
 4041TIP3   OH212128   6.047   5.848   0.479  0.1102  0.1320 -0.1655
 4041TIP3    H112129   6.123   5.855   0.420  0.5004  2.5718  0.5175
 4041TIP3    H212130   6.085   5.856   0.567 -0.8382  0.5194  0.2152
 4042TIP3   OH212131   0.503   1.275   3.409  0.2267  0.2098 -0.0068
 4042TIP3    H112132   0.481   1.272   3.316  1.2915  1.1928 -0.3143
 4042TIP3    H212133   0.531   1.186   3.430  1.7651  0.3980 -1.1111
 4043TIP3   OH212134   5.684   0.236   2.850  0.0665 -0.0239 -0.0573
 4043TIP3    H112135   5.769   0.204   2.878  1.2366  1.7711 -1.2976
 4043TIP3    H212136   5.681   0.326   2.882 -0.1794  0.8066 -2.2153
 4044TIP3   OH212137   1.524   5.211   1.340 -0.0902  0.2501 -0.2994
 4044TIP3    H112138   1.545   5.296   1.379  1.4446 -1.6054  3.4731
 4044TIP3    H212139   1.428   5.209   1.336 -0.1927  1.6905  0.6802
 4045TIP3   OH212140   2.206   3.287   1.665  0.4912  0.4867  0.2047
 4045TIP3    H112141   2.121   3.291   1.622 -0.1832 -1.2298  1.2455
 4045TIP3    H212142   2.195   3.340   1.744  0.2628  0.0138  0.4973
 4046TIP3   OH212143   0.571   0.691   0.189  0.1958  0.1862 -0.6916
 4046TIP3    H112144   0.527   0.615   0.226 -2.4635  1.1598 -1.6195
 4046TIP3    H212145   0.583   0.751   0.262 -0.2210  0.0034 -0.4749
 4047TIP3   OH212146   2.092   5.052   3.112 -0.4660  0.5599 -0.0287
 4047TIP3    H112147   2.087   4.999   3.033 -1.2376  3.0951 -1.8014
 4047TIP3    H212148   2.005   5.046   3.151  0.5542 -2.7284  2.2433
 4048TIP3   OH212149   1.470   3.129   3.871 -0.3178  0.3023 -0.3754
 4048TIP3    H112150   1.390   3.077   3.869  0.7389 -1.4902  0.7905
 4048TIP3    H212151   1.471   3.176   3.788 -2.4842  0.2689 -0.4768
 4049TIP3   OH212152   5.477   2.906   2.018 -0.6790  0.1966  0.1227
 4049TIP3    H112153   5.490   2.908   2.113  2.5537  0.9441 -0.2083
 4049TIP3    H212154   5.445   2.993   1.997 -0.4683  0.3553  0.4430
 4050TIP3   OH212155   3.296   3.447   2.121 -0.2305 -0.1353  0.3518
 4050TIP3    H112156   3.343   3.458   2.038  1.4927 -0.5557  1.2255
 4050TIP3    H212157   3.235   3.521   2.124 -1.4318 -0.9439 -1.9565
 4051TIP3   OH212158   2.725   0.330   1.883  0.0530 -0.9462  0.6740
 4051TIP3    H112159   2.813   0.352   1.853 -0.7198  1.7928  0.1104
 4051TIP3    H212160   2.734   0.318   1.978  0.8818  0.6006  0.8311
 4052TIP3   OH212161   1.892   3.326   3.577  0.0993  0.1493 -0.0618
 4052TIP3    H112162   1.965   3.385   3.594  0.5255  0.8516 -3.6495
 4052TIP3    H212163   1.932   3.241   3.560 -0.0946  0.0872 -0.2097
 4053TIP3   OH212164   2.601   3.376   2.831 -0.2232 -0.3965  0.5035
 4053TIP3    H112165   2.514   3.382   2.871 -0.5000 -3.1111  0.5136
 4053TIP3    H212166   2.584   3.380   2.737 -0.7492 -3.2393  0.3845
 4054TIP3   OH212167   5.541   1.009   2.773 -0.5926 -0.1884 -0.3716
 4054TIP3    H112168   5.587   0.926   2.785  0.9160  0.5898 -0.5188
 4054TIP3    H212169   5.566   1.062   2.848 -1.2574  0.2632 -0.4582
 4055TIP3   OH212170   3.140   0.179   2.204  0.1701  0.3745  1.0476
 4055TIP3    H112171   3.197   0.188   2.281  1.9258 -0.1332 -0.1450
 4055TIP3    H212172   3.154   0.260   2.154  1.9297 -0.8250 -0.5435
 4056TIP3   OH212173   3.053   2.906   1.220 -1.0304  0.1637  0.5026
 4056TIP3    H112174   2.996   2.842   1.176 -0.6597  0.5617 -0.5726
 4056TIP3    H212175   3.067   2.869   1.308 -2.8629  0.0057  0.7716
 4057TIP3   OH212176   6.241   4.556   3.481 -0.2333 -0.0143  0.3050
 4057TIP3    H112177   6.156   4.549   3.526 -0.3006 -1.2152  0.0085
 4057TIP3    H212178   6.224   4.618   3.410 -1.0437 -0.7236 -0.1399
 4058TIP3   OH212179   2.239   3.391   3.953 -0.1110 -0.2155 -0.1773
 4058TIP3    H112180   2.182   3.338   3.896  0.4692  0.4828 -1.4515
 4058TIP3    H212181   2.191   3.472   3.967 -0.0943 -0.2413  0.0302
 4059TIP3   OH212182   3.138   2.088   0.741  0.1248 -0.0211  0.0570
 4059TIP3    H112183   3.045   2.085   0.718 -0.0338  0.0983  0.6475
 4059TIP3    H212184   3.145   2.032   0.818  0.5932 -0.2332 -0.1376
 4060TIP3   OH212185   2.790   1.156   4.307 -0.1747  0.2509 -0.2380
 4060TIP3    H112186   2.841   1.225   4.348  1.1679 -0.4266 -0.7124
 4060TIP3    H212187   2.854   1.105   4.257 -1.0165 -1.6416  0.5135
 4061TIP3   OH212188   0.080   5.154   4.974  0.5591  0.8576 -0.4287
 4061TIP3    H112189   0.115   5.213   5.041 -0.5648  0.1756  0.7927
 4061TIP3    H212190  -0.015   5.165   4.979  0.2494 -1.6075  0.4136
 4062TIP3   OH212191   4.330   5.071   1.600 -0.3168 -0.6463  0.6287
 4062TIP3    H112192   4.316   4.978   1.617  1.2849 -1.3948 -1.6414
 4062TIP3    H212193   4.418   5.075   1.563 -1.2352  1.4449 -1.5395
 4063TIP3   OH212194   0.824   4.803   4.030  0.5563  0.0221 -0.2293
 4063TIP3    H112195   0.885   4.877   4.035  0.0352  0.3904  0.8883
 4063TIP3    H212196   0.744   4.840   3.992  0.6756 -0.2388 -0.7521
 4064TIP3   OH212197   5.215   5.179   0.825 -0.7063  0.4249  0.1098
 4064TIP3    H112198   5.179   5.255   0.870 -2.6690 -0.3824  0.0318
 4064TIP3    H212199   5.202   5.107   0.887  0.8309  0.0624  0.0590
 4065TIP3   OH212200   3.785   2.693   4.569 -0.2365  0.1841 -0.3186
 4065TIP3    H112201   3.845   2.766   4.585 -0.1583  0.0206  0.1264
 4065TIP3    H212202   3.840   2.625   4.530  0.0155 -0.2238  0.7239
 4066TIP3   OH212203   0.017   1.832   2.732  0.6153 -0.0723 -0.0336
 4066TIP3    H112204   0.112   1.842   2.725  0.7676 -1.7763 -1.0986
 4066TIP3    H212205  -0.002   1.753   2.681 -1.5999  1.2948 -1.5072
 4067TIP3   OH212206   1.339   0.768   1.086  0.0234  0.0136 -0.4883
 4067TIP3    H112207   1.380   0.690   1.123  0.0992 -0.9685 -2.5342
 4067TIP3    H212208   1.268   0.789   1.147  0.7476 -0.9342  0.7193
 4068TIP3   OH212209   2.408   2.123   4.240 -0.0788  0.2014  0.5451
 4068TIP3    H112210   2.476   2.073   4.285  1.2221  0.5495 -0.9594
 4068TIP3    H212211   2.341   2.058   4.217  0.3861 -0.3918  0.8552
 4069TIP3   OH212212   0.194   2.408   0.705 -0.1296 -0.0837 -0.3792
 4069TIP3    H112213   0.121   2.456   0.665  0.3828  0.7918 -0.3043
 4069TIP3    H212214   0.159   2.321   0.723 -1.0306  0.1972 -0.7137
 4070TIP3   OH212215   0.011   4.207   0.806  0.3345  0.6252 -0.1573
 4070TIP3    H112216   0.002   4.127   0.756 -0.6616  0.8543 -0.3635
 4070TIP3    H212217   0.102   4.234   0.793  0.3614  0.1427 -1.0111
 4071TIP3   OH212218   4.220   4.670   0.989  0.0440  0.5585  0.1082
 4071TIP3    H112219   4.202   4.595   1.046  2.6113 -1.0816 -1.0333
 4071TIP3    H212220   4.140   4.682   0.938 -0.0356 -2.3682 -0.6219
 4072TIP3   OH212221   5.820   4.223   2.201  0.7671 -0.6882  0.1454
 4072TIP3    H112222   5.846   4.310   2.171  1.3702 -0.7492  0.4742
 4072TIP3    H212223   5.776   4.238   2.284  4.3289 -0.9287  2.3187
 4073TIP3   OH212224   3.679   5.614  -0.014  0.1529 -0.0460  0.3415
 4073TIP3    H112225   3.697   5.644   0.075  1.9108  1.2542 -0.4006
 4073TIP3    H212226   3.745   5.546  -0.030 -1.0925 -1.3534  0.4984
 4074TIP3   OH212227   5.920   1.318   4.499 -0.0978  0.2078  0.6869
 4074TIP3    H112228   5.836   1.356   4.472 -0.4268 -1.6989 -1.2594
 4074TIP3    H212229   5.983   1.353   4.436  0.2154  0.1397  0.9617
 4075TIP3   OH212230   2.350   1.568   4.506  0.4724 -0.3212 -0.0557
 4075TIP3    H112231   2.256   1.583   4.517  0.7782  1.9507 -0.1406
 4075TIP3    H212232   2.366   1.577   4.412  0.8674 -0.1015  0.0285
 4076TIP3   OH212233   4.726   5.376   1.438 -0.1833 -0.9811 -0.3495
 4076TIP3    H112234   4.692   5.363   1.349 -1.4139  1.0834 -0.2567
 4076TIP3    H212235   4.652   5.413   1.486  0.8743 -0.7622  1.1682
 4077TIP3   OH212236   0.088   0.631   3.547  0.5630  0.3593  0.7829
 4077TIP3    H112237   0.051   0.613   3.634  0.3359  0.9811  0.8210
 4077TIP3    H212238   0.178   0.601   3.553  0.9479  1.6300  1.6721
 4078TIP3   OH212239   5.697   3.091   3.567 -0.6666  0.0136 -0.2506
 4078TIP3    H112240   5.770   3.149   3.546 -1.6087  1.9027  1.3305
 4078TIP3    H212241   5.717   3.010   3.521  1.6409  0.9647 -1.0934
 4079TIP3   OH212242   5.930   4.645   4.029  0.1815  0.0013  0.1942
 4079TIP3    H112243   5.951   4.558   4.062 -0.7884 -0.7379 -1.0564
 4079TIP3    H212244   6.015   4.687   4.017  0.6456 -0.6495  1.1222
 4080TIP3   OH212245   2.646   0.379   0.790 -0.1223 -0.1446 -0.1430
 4080TIP3    H112246   2.582   0.438   0.830  1.5449  1.7798 -0.1874
 4080TIP3    H212247   2.607   0.355   0.706 -0.5420  1.5141 -0.4564
 4081TIP3   OH212248   4.366   5.359   1.730  0.1285 -0.2634  0.3324
 4081TIP3    H112249   4.319   5.296   1.675 -0.0180 -0.8036  1.0692
 4081TIP3    H212250   4.411   5.306   1.795  2.4816  0.1610 -0.8392
 4082TIP3   OH212251   3.851   1.061   0.420 -0.2597 -0.0906 -0.3474
 4082TIP3    H112252   3.906   0.991   0.455  0.9732  1.2193  0.4658
 4082TIP3    H212253   3.886   1.078   0.332  0.3367  0.3860 -0.0296
 4083TIP3   OH212254   0.769   3.232   2.620 -0.6325  0.2713 -1.0581
 4083TIP3    H112255   0.773   3.320   2.657 -1.2051 -0.3174  0.4825
 4083TIP3    H212256   0.678   3.223   2.590 -1.4201 -0.7082  1.3299
 4084TIP3   OH212257   4.945   3.088   4.957  0.9195  0.0798 -0.3432
 4084TIP3    H112258   4.863   3.114   4.998  1.8898  0.6591  1.3144
 4084TIP3    H212259   4.920   3.061   4.869 -1.1815 -0.6925  0.4228
 4085TIP3   OH212260   5.766   5.178   2.660  0.8525 -0.4234  0.1137
 4085TIP3    H112261   5.851   5.154   2.624  1.3221 -1.0742  1.5543
 4085TIP3    H212262   5.714   5.098   2.655  0.6050 -0.2535 -0.0168
 4086TIP3   OH212263   2.863   2.769   4.627  0.4075  0.4618 -0.8556
 4086TIP3    H112264   2.945   2.805   4.660  0.7724  0.4935 -1.7712
 4086TIP3    H212265   2.801   2.842   4.631  0.2750  0.3021  0.3055
 4087TIP3   OH212266   5.216   4.422   4.517 -0.6376 -0.3878 -0.2978
 4087TIP3    H112267   5.312   4.421   4.522 -0.6030  0.2406 -0.7101
 4087TIP3    H212268   5.188   4.453   4.603 -0.3668  1.8576 -0.9611
 4088TIP3   OH212269   4.630   1.296   1.804  0.1678  0.1686 -0.2242
 4088TIP3    H112270   4.721   1.318   1.781 -0.4712  2.8423 -0.4901
 4088TIP3    H212271   4.591   1.269   1.721  0.6670 -0.9477 -0.1182
 4089TIP3   OH212272   0.343   1.955   1.789 -0.0106 -0.5193  0.1662
 4089TIP3    H112273   0.383   1.868   1.780  1.3959  0.1509 -0.2349
 4089TIP3    H212274   0.264   1.950   1.734  1.2586 -0.8566 -1.7381
 4090TIP3   OH212275   1.350   4.317   4.642 -0.2065  0.6161 -0.6778
 4090TIP3    H112276   1.273   4.292   4.591  0.6018 -1.6881 -0.8934
 4090TIP3    H212277   1.383   4.396   4.600 -0.1241 -0.6626 -3.1550
 4091TIP3   OH212278   5.197   2.730   1.892  0.4629 -0.4954 -0.2733
 4091TIP3    H112279   5.278   2.767   1.927  1.1250 -1.3705 -0.8474
 4091TIP3    H212280   5.191   2.763   1.803  0.6550 -1.1416 -0.5302
 4092TIP3   OH212281   6.203   5.790   1.470  0.4366  0.3989 -0.0639
 4092TIP3    H112282   6.142   5.849   1.428 -0.5461 -1.5355 -1.5019
 4092TIP3    H212283   6.148   5.722   1.509  1.6026 -1.3794 -1.3836
 4093TIP3   OH212284   0.091   1.514   3.115  0.6573  0.4067  0.0464
 4093TIP3    H112285   0.034   1.521   3.039  1.6330  0.3326 -0.7061
 4093TIP3    H212286   0.119   1.604   3.133  0.7105  0.3800  0.0988
 4094TIP3   OH212287   5.111   5.388   1.061  0.0846 -0.0476  0.5031
 4094TIP3    H112288   5.089   5.462   1.118 -1.4089  0.2072 -0.3456
 4094TIP3    H212289   5.040   5.385   0.997  1.2596 -0.8511 -0.8339
 4095TIP3   OH212290   1.187   0.678   0.823  0.2634 -0.3841  0.0498
 4095TIP3    H112291   1.265   0.677   0.879  2.0530 -0.6871 -2.2662
 4095TIP3    H212292   1.165   0.586   0.810  0.0186 -0.3255  0.0516
 4096TIP3   OH212293   3.007   4.409   3.581  0.0392  0.2576  0.1579
 4096TIP3    H112294   3.077   4.463   3.615  0.4463  1.4857 -2.3903
 4096TIP3    H212295   3.043   4.320   3.578  0.7977  0.5509  0.6029
 4097TIP3   OH212296   1.695   1.774   4.906 -0.2326 -0.1838  0.2196
 4097TIP3    H112297   1.617   1.830   4.906 -0.5197 -0.5518  1.2179
 4097TIP3    H212298   1.742   1.799   4.986  0.6950  0.0492 -0.3896
 4098TIP3   OH212299   3.556   4.386   4.663  0.4494 -0.4363 -0.1765
 4098TIP3    H112300   3.524   4.461   4.712  2.5914 -0.0754  0.7872
 4098TIP3    H212301   3.560   4.416   4.572  0.2307  0.2307  0.0307
 4099TIP3   OH212302   0.792   3.699   0.841  0.3841 -0.2658  0.4108
 4099TIP3    H112303   0.867   3.656   0.800  0.0255  0.8555 -1.5508
 4099TIP3    H212304   0.783   3.655   0.925  0.9670 -2.9697 -0.8206
 4100TIP3   OH212305   1.959   0.864   4.028 -0.2180 -0.1463  0.5948
 4100TIP3    H112306   2.048   0.847   4.056 -0.1008 -1.3614 -0.4158
 4100TIP3    H212307   1.907   0.859   4.108  0.5435  0.0058  1.1073
 4101TIP3   OH212308   3.221   0.800   1.931 -0.2408  0.0464 -0.0957
 4101TIP3    H112309   3.145   0.749   1.902 -0.5229  0.2101  0.3456
 4101TIP3    H212310   3.289   0.779   1.868  0.2988 -2.5351  1.2084
 4102TIP3   OH212311   5.764   0.139   1.458 -0.5907 -0.3741 -0.2761
 4102TIP3    H112312   5.856   0.114   1.444  0.1778  1.6515  0.7532
 4102TIP3    H212313   5.736   0.175   1.374 -0.2462 -0.4197 -0.4131
 4103TIP3   OH212314   3.896   3.966   4.789 -0.1313 -0.9060  0.0719
 4103TIP3    H112315   3.875   4.060   4.794 -0.6243 -1.0579  2.2574
 4103TIP3    H212316   3.855   3.936   4.708 -1.3480  0.4672  0.1294
 4104TIP3   OH212317   4.547   3.055   1.690 -0.3261 -0.1738 -0.3631
 4104TIP3    H112318   4.483   3.097   1.747 -0.3789  0.8816 -1.1571
 4104TIP3    H212319   4.632   3.092   1.717 -0.4485  1.0746 -1.5396
 4105TIP3   OH212320   1.423   2.275   1.138 -0.0661 -0.1498 -0.0255
 4105TIP3    H112321   1.390   2.272   1.228  0.2880  1.5586  0.1940
 4105TIP3    H212322   1.417   2.367   1.114  2.6661 -0.0516 -0.6711
 4106TIP3   OH212323   4.551   2.327   4.656 -0.3810  0.8921  0.0088
 4106TIP3    H112324   4.473   2.324   4.600 -0.1749  1.5279 -0.3199
 4106TIP3    H212325   4.592   2.241   4.645 -1.2267  0.4124  0.4706
 4107TIP3   OH212326   2.374   2.966   1.974 -0.8258 -0.2963  0.2484
 4107TIP3    H112327   2.300   3.012   1.935 -0.1410  0.0364 -0.7156
 4107TIP3    H212328   2.370   2.877   1.939 -0.4749 -0.1282 -0.2289
 4108TIP3   OH212329   0.040   5.791   4.154 -0.2342  0.3446  0.1387
 4108TIP3    H112330   0.122   5.749   4.127 -0.6981 -0.5111  0.0313
 4108TIP3    H212331   0.052   5.808   4.248  0.6409  1.6086 -0.1727
 4109TIP3   OH212332   3.231   5.792   3.385 -0.3062  0.1863  0.3905
 4109TIP3    H112333   3.174   5.769   3.312 -0.6184 -0.4194  0.8186
 4109TIP3    H212334   3.185   5.760   3.463  0.4051  0.0893  0.7834
 4110TIP3   OH212335   2.720   3.304   4.355 -0.1709  0.1397  0.1017
 4110TIP3    H112336   2.757   3.252   4.284  0.9416  1.3906 -0.2673
 4110TIP3    H212337   2.796   3.336   4.404 -0.7302  2.2707 -0.3212
 4111TIP3   OH212338   5.690   2.951   0.187 -0.2196  0.1335  0.1297
 4111TIP3    H112339   5.657   2.961   0.097 -0.5578  1.5150  0.3843
 4111TIP3    H212340   5.632   3.007   0.239 -2.0985 -3.0330  1.7493
 4112TIP3   OH212341   1.512   2.547   3.988  0.6208  0.0044 -0.1148
 4112TIP3    H112342   1.549   2.636   3.986 -0.7216  0.5897  0.0812
 4112TIP3    H212343   1.476   2.538   4.077  0.4413 -0.6093 -0.2445
 4113TIP3   OH212344   6.067   3.013   2.686 -0.0646 -0.3714  0.0464
 4113TIP3    H112345   6.055   2.999   2.780 -0.8279 -2.0715 -0.2630
 4113TIP3    H212346   5.982   3.046   2.656 -0.9022 -2.8406 -0.5130
 4114TIP3   OH212347   2.393   3.725   1.293 -0.0374  0.5882  0.3912
 4114TIP3    H112348   2.387   3.674   1.373  1.4947  0.0011  0.1730
 4114TIP3    H212349   2.481   3.709   1.260 -0.9403 -0.0212 -1.9759
 4115TIP3   OH212350   4.100   5.668   0.627 -0.2096 -0.2701  0.2819
 4115TIP3    H112351   4.105   5.573   0.617  0.6347 -0.2145  0.1401
 4115TIP3    H212352   4.061   5.680   0.714 -1.9653 -0.7311 -0.4103
 4116TIP3   OH212353   1.895   1.230   4.624 -0.0883 -0.3708 -0.1235
 4116TIP3    H112354   1.896   1.306   4.682 -1.2309 -0.9809  0.7327
 4116TIP3    H212355   1.987   1.216   4.603  0.0492  2.2336 -1.6753
 4117TIP3   OH212356   2.851   2.378   3.757  0.2873 -0.4558 -0.2160
 4117TIP3    H112357   2.886   2.363   3.669  1.3599 -0.3408  0.1819
 4117TIP3    H212358   2.773   2.432   3.743  0.8235  0.1221 -1.0471
 4118TIP3   OH212359   4.063   3.728   0.732 -0.0877 -0.4473 -0.4272
 4118TIP3    H112360   3.974   3.727   0.767 -1.0523  1.3637 -2.5267
 4118TIP3    H212361   4.120   3.730   0.809 -1.9521  0.9428  1.0072
 4119TIP3   OH212362   3.730   0.643   0.268  0.4364 -0.1926  0.0245
 4119TIP3    H112363   3.734   0.586   0.191 -1.9400  1.4985 -1.4652
 4119TIP3    H212364   3.739   0.731   0.234  1.1432  0.5569  1.9589
 4120TIP3   OH212365   5.987   3.068   3.703  0.5774 -0.4464  0.1203
 4120TIP3    H112366   5.926   3.008   3.745 -0.3293  1.0539  1.0264
 4120TIP3    H212367   6.024   3.120   3.775 -0.6863  1.8890 -0.8033
 4121TIP3   OH212368   0.228   5.709   3.599 -0.4590 -0.7248  0.1861
 4121TIP3    H112369   0.209   5.707   3.693 -1.1131  0.8555  0.1178
 4121TIP3    H212370   0.245   5.801   3.580 -2.1369 -0.7180 -1.5679
 4122TIP3   OH212371   1.271   1.107   1.025  0.8386 -0.0029  0.8660
 4122TIP3    H112372   1.221   1.087   0.946  1.1031 -0.2134  0.7486
 4122TIP3    H212373   1.228   1.056   1.094  1.9269 -1.5808  0.4373
 4123TIP3   OH212374   5.647   2.061   1.568  0.2134 -0.0532  0.1186
 4123TIP3    H112375   5.619   2.153   1.566 -0.9251 -0.4039 -0.8712
 4123TIP3    H212376   5.664   2.039   1.476 -3.7936 -2.0558 -0.3180
 4124TIP3   OH212377   3.778   3.782   2.201 -0.3037 -0.2271 -0.3948
 4124TIP3    H112378   3.873   3.793   2.202 -0.1980 -1.0723  1.5392
 4124TIP3    H212379   3.764   3.693   2.169 -0.5096  0.1387 -1.3755
 4125TIP3   OH212380   0.151   2.506   5.070 -0.5783 -0.0058 -0.0821
 4125TIP3    H112381   0.110   2.529   4.987 -1.1101 -0.7079 -0.0257
 4125TIP3    H212382   0.140   2.411   5.077 -1.7229  0.1886  1.3915
 4126TIP3   OH212383   2.527   2.596   0.514 -0.0242 -0.2007  0.0266
 4126TIP3    H112384   2.514   2.674   0.568  0.3415  0.8026 -1.2756
 4126TIP3    H212385   2.619   2.573   0.528  0.8135  1.5466 -1.9583
 4127TIP3   OH212386   0.183   1.423   2.814  0.2370 -0.6949 -0.0148
 4127TIP3    H112387   0.255   1.399   2.756  1.8539  0.8878  1.2102
 4127TIP3    H212388   0.161   1.343   2.861  0.8109 -1.3319 -0.8120
 4128TIP3   OH212389   6.134   1.764   3.002 -0.2063  0.3407  0.8640
 4128TIP3    H112390   6.166   1.707   2.931  1.3789  0.0971  1.7234
 4128TIP3    H212391   6.114   1.847   2.959 -1.1431 -0.3846 -0.1700
 4129TIP3   OH212392   0.167   2.757   3.137 -0.1833 -0.6777  0.1415
 4129TIP3    H112393   0.113   2.743   3.060  1.2777  1.2314 -1.3254
 4129TIP3    H212394   0.223   2.680   3.142 -0.7559 -1.1275 -0.2743
 4130TIP3   OH212395   1.937   3.641   4.796  0.1771 -0.0519 -0.0250
 4130TIP3    H112396   1.932   3.728   4.834  0.8285 -0.2275  0.4659
 4130TIP3    H212397   2.025   3.610   4.816 -0.4020 -1.2668  0.7992
 4131TIP3   OH212398   3.653   1.185   1.722 -0.9995 -0.2566  0.4860
 4131TIP3    H112399   3.636   1.214   1.811 -2.2304  0.8042 -0.0569
 4131TIP3    H212400   3.655   1.266   1.671 -4.5106 -0.9815 -1.0973
 4132TIP3   OH212401   6.141   4.753   1.812 -0.2438 -0.2809 -0.1548
 4132TIP3    H112402   6.192   4.808   1.871  1.3834 -0.6461 -1.1691
 4132TIP3    H212403   6.080   4.813   1.770  0.5749  0.5140 -0.2330
 4133TIP3   OH212404   0.259   0.918   2.691 -0.0682  0.2348 -0.1022
 4133TIP3    H112405   0.172   0.951   2.673 -1.3219 -2.4686  0.4305
 4133TIP3    H212406   0.255   0.825   2.667  2.4495 -0.1389  0.5982
 4134TIP3   OH212407   5.522   2.071   2.680 -0.1217  0.2107  0.3593
 4134TIP3    H112408   5.587   2.122   2.631 -1.5649  1.6021 -0.2087
 4134TIP3    H212409   5.537   2.095   2.772  0.7182 -0.1643  0.3276
 4135TIP3   OH212410   3.778   0.573   2.809 -0.4498 -0.1085  0.6688
 4135TIP3    H112411   3.843   0.503   2.806  0.0001  0.3062  0.6181
 4135TIP3    H212412   3.813   0.635   2.874 -0.2926  0.6098 -0.0921
 4136TIP3   OH212413   2.435   5.196   3.927 -0.0098  0.3053 -0.3457
 4136TIP3    H112414   2.457   5.269   3.868  0.4301 -1.0673 -1.9400
 4136TIP3    H212415   2.387   5.134   3.871 -0.9587 -0.3542  1.1454
 4137TIP3   OH212416   2.997   0.919   0.744  0.0892 -0.1400 -0.7043
 4137TIP3    H112417   3.052   0.998   0.737 -2.0878  1.4412 -1.2188
 4137TIP3    H212418   2.920   0.940   0.691 -1.2418 -2.0462  0.3894
 4138TIP3   OH212419   2.217   2.108   0.118 -0.3448  0.6579  0.2475
 4138TIP3    H112420   2.204   2.044   0.187 -0.0374  1.9878  1.5865
 4138TIP3    H212421   2.137   2.102   0.065 -0.1316 -1.1098  0.0532
 4139TIP3   OH212422   0.081   1.231   3.376  0.6825  0.4834 -0.2923
 4139TIP3    H112423   0.103   1.168   3.445  2.4377  0.8725 -0.4372
 4139TIP3    H212424   0.062   1.312   3.423 -2.0033 -0.1845 -0.0776
 4140TIP3   OH212425   0.620   5.467   0.793 -0.0598 -0.4000 -0.3207
 4140TIP3    H112426   0.619   5.380   0.752  0.7515 -0.4659 -0.2078
 4140TIP3    H212427   0.681   5.518   0.739 -0.2631 -0.0039 -0.1751
 4141TIP3   OH212428   5.769   5.095   0.838 -0.1189  0.1212 -0.1593
 4141TIP3    H112429   5.833   5.115   0.770  2.1628  1.2365  2.1497
 4141TIP3    H212430   5.699   5.047   0.793  1.6664  0.0655 -3.0657
 4142TIP3   OH212431   4.580   4.553   0.650  0.5460 -0.0115 -0.7866
 4142TIP3    H112432   4.593   4.560   0.744 -0.8330  1.2545 -0.6586
 4142TIP3    H212433   4.663   4.518   0.617  0.5761 -1.7835  1.0104
 4143TIP3   OH212434   1.631   4.422   2.205 -0.1430 -0.4495  0.1108
 4143TIP3    H112435   1.719   4.395   2.231  0.3376  0.7975 -0.1437
 4143TIP3    H212436   1.572   4.366   2.256  0.7850 -0.1078  1.6220
 4144TIP3   OH212437   2.644   1.072   1.461 -0.3414 -0.6348 -0.2783
 4144TIP3    H112438   2.722   1.020   1.440 -1.2093 -2.2908  0.4160
 4144TIP3    H212439   2.668   1.119   1.541 -0.6226 -2.6093  1.0503
 4145TIP3   OH212440   1.387   2.657   0.037  0.2989 -0.3778  0.1833
 4145TIP3    H112441   1.480   2.633   0.042  0.2447 -0.5750  0.2794
 4145TIP3    H212442   1.380   2.712  -0.041  0.4750 -0.4601  0.1086
 4146TIP3   OH212443   3.759   1.806   0.188  0.4817  0.1632 -0.0661
 4146TIP3    H112444   3.838   1.756   0.165 -0.2127 -0.3325 -1.4620
 4146TIP3    H212445   3.768   1.888   0.139 -0.0600 -0.0650 -0.5525
 4147TIP3   OH212446   1.001   5.386   3.391  0.0043  0.4083  0.7046
 4147TIP3    H112447   0.995   5.387   3.295 -1.5739  1.7282  0.7646
 4147TIP3    H212448   0.981   5.476   3.417  1.0193  0.2237  2.2690
 4148TIP3   OH212449   1.757   2.338   3.282  0.0756 -0.0518  0.2420
 4148TIP3    H112450   1.696   2.265   3.271  0.6411 -0.5463  0.3156
 4148TIP3    H212451   1.783   2.334   3.374 -0.8050  0.9947  0.5646
 4149TIP3   OH212452   2.053   1.744   1.611  0.2860 -0.0909 -0.0698
 4149TIP3    H112453   1.993   1.703   1.673  0.8010  0.1891  0.6262
 4149TIP3    H212454   2.063   1.834   1.642  1.2449 -0.1993 -0.0249
 4150TIP3   OH212455   0.782   5.971   4.207  0.4363 -0.4297 -0.1141
 4150TIP3    H112456   0.868   5.928   4.202  0.4536 -0.2891 -1.7408
 4150TIP3    H212457   0.760   5.971   4.300  2.2521 -0.3699  0.3599
 4151TIP3   OH212458   1.173   0.340   1.108  0.1994  0.0214  0.4184
 4151TIP3    H112459   1.242   0.287   1.147  0.2475  0.6097  1.1599
 4151TIP3    H212460   1.199   0.351   1.017  1.6463  1.1071  0.9310
 4152TIP3   OH212461   0.719   2.104   0.984 -0.0991  0.2047 -0.1282
 4152TIP3    H112462   0.705   2.196   0.961  0.0350  0.4112  0.6028
 4152TIP3    H212463   0.788   2.106   1.050 -0.4801 -0.3811  0.2935
 4153TIP3   OH212464   4.827   4.426   1.255  0.4803  0.4635  0.1436
 4153TIP3    H112465   4.791   4.342   1.285 -1.4960  0.3594 -2.2147
 4153TIP3    H212466   4.898   4.445   1.317 -0.4060 -1.8552  2.0312
 4154TIP3   OH212467   6.044   2.061   3.014 -0.1837 -0.1969  0.4287
 4154TIP3    H112468   6.008   2.126   2.954 -0.0762 -0.1113  0.4564
 4154TIP3    H212469   6.009   2.086   3.100 -2.0911 -1.5490  0.1336
 4155TIP3   OH212470   6.287   4.301   3.601  0.0787  0.0866  0.5442
 4155TIP3    H112471   6.378   4.273   3.594  0.2945  1.0105 -0.6386
 4155TIP3    H212472   6.287   4.391   3.569 -1.5771 -0.5746 -1.5459
 4156TIP3   OH212473   3.412   0.610   3.618 -0.1789 -0.1284  0.5891
 4156TIP3    H112474   3.332   0.611   3.565 -0.8816 -3.8199  1.3071
 4156TIP3    H212475   3.463   0.538   3.583  2.4085  1.4558  0.8704
 4157TIP3   OH212476   1.919   2.926   0.817  0.3980  0.2415 -0.3595
 4157TIP3    H112477   1.943   3.002   0.869  0.7213 -1.7372  2.6215
 4157TIP3    H212478   1.998   2.871   0.818 -1.1526 -2.1234  1.5214
 4158TIP3   OH212479   2.067   2.688   4.892 -0.5954 -0.4882  0.3317
 4158TIP3    H112480   2.034   2.735   4.969 -0.2804 -2.9770  2.1021
 4158TIP3    H212481   2.142   2.740   4.864 -1.2006  0.9209  1.1995
 4159TIP3   OH212482   4.345   0.937   4.282 -0.3365 -0.3561 -0.7387
 4159TIP3    H112483   4.257   0.974   4.276 -0.1382  0.0667 -1.1244
 4159TIP3    H212484   4.336   0.847   4.249 -1.0247 -1.0231  1.1431
 4160TIP3   OH212485   4.685   3.598   1.337  0.3352 -0.6615 -0.6456
 4160TIP3    H112486   4.623   3.532   1.305 -0.1680 -0.8074  0.5892
 4160TIP3    H212487   4.649   3.682   1.306 -0.5271 -0.7409  0.1240
 4161TIP3   OH212488   5.754   0.260   1.695  0.2689 -0.3200 -0.2688
 4161TIP3    H112489   5.731   0.214   1.614 -2.3237 -0.7732  0.6361
 4161TIP3    H212490   5.687   0.328   1.703  1.0824  0.3632  1.0092
 4162TIP3   OH212491   0.753   0.276   4.217 -0.0743  0.4295 -0.2336
 4162TIP3    H112492   0.662   0.300   4.230 -0.7471 -1.5234 -0.9552
 4162TIP3    H212493   0.780   0.239   4.301 -0.0575  0.6922 -0.1235
 4163TIP3   OH212494   3.968   5.938   4.618 -0.2000 -0.3325  0.2754
 4163TIP3    H112495   3.918   5.876   4.565  0.3166 -0.4227 -0.1210
 4163TIP3    H212496   4.006   5.885   4.688 -1.8646 -0.0175  1.4916
 4164TIP3   OH212497   2.189   1.380   1.048 -0.6074 -0.7060 -0.4151
 4164TIP3    H112498   2.137   1.307   1.015  0.6719 -1.2519 -1.2965
 4164TIP3    H212499   2.224   1.422   0.969 -1.4290  0.9734  0.0503
 4165TIP3   OH212500   5.558   0.038   3.923 -0.0824 -0.2498 -0.2373
 4165TIP3    H112501   5.601  -0.004   3.849  1.8102  1.4386 -0.1995
 4165TIP3    H212502   5.527   0.122   3.887  0.9458  0.6304  0.8446
 4166TIP3   OH212503   1.660   4.715   0.834 -0.0715 -0.3461 -0.7064
 4166TIP3    H112504   1.642   4.622   0.851 -1.4988 -0.1449 -0.9689
 4166TIP3    H212505   1.607   4.736   0.758 -0.0539  0.7831 -0.4205
 4167TIP3   OH212506   0.719   4.586   1.122 -0.0700 -0.0568  0.4387
 4167TIP3    H112507   0.787   4.606   1.187 -0.8112 -0.8017  1.4764
 4167TIP3    H212508   0.636   4.598   1.170 -0.6427 -0.2879 -0.4755
 4168TIP3   OH212509   0.349   1.933   2.489  0.1043  0.5456 -0.4431
 4168TIP3    H112510   0.307   1.932   2.576  3.1743  0.2450  1.1691
 4168TIP3    H212511   0.394   2.018   2.485  0.5721  0.2657 -1.4496
 4169TIP3   OH212512   3.922   0.609   1.483 -0.4205  0.3769  0.4287
 4169TIP3    H112513   3.882   0.696   1.495 -0.0807  0.7763 -1.1005
 4169TIP3    H212514   3.856   0.548   1.515 -1.4052  1.1341 -0.0737
 4170TIP3   OH212515   4.409   0.897   1.772  0.0687  0.1817 -0.5315
 4170TIP3    H112516   4.419   0.828   1.837  1.6169  1.3569  0.5224
 4170TIP3    H212517   4.321   0.931   1.787  0.6478  0.9098  1.4592
 4171TIP3   OH212518   0.154   0.244   1.918  0.0916 -0.4599 -0.1403
 4171TIP3    H112519   0.143   0.321   1.861  1.0167 -0.1906  0.0343
 4171TIP3    H212520   0.076   0.245   1.974 -0.0684  0.1669 -0.3624
 4172TIP3   OH212521   4.720   0.571   4.051  0.2065 -0.1513  0.5168
 4172TIP3    H112522   4.660   0.617   3.992 -1.4966 -0.6219  1.7838
 4172TIP3    H212523   4.719   0.623   4.131  4.2249  1.7493 -0.4018
 4173TIP3   OH212524   4.478   4.705   2.590 -0.2336  0.3259  0.0005
 4173TIP3    H112525   4.464   4.647   2.515  1.9374  1.4203 -1.3367
 4173TIP3    H212526   4.549   4.664   2.639  1.4195  1.8398 -1.0361
 4174TIP3   OH212527   2.656   5.771   1.740 -0.5676 -0.2658  0.3463
 4174TIP3    H112528   2.591   5.779   1.810  1.3440  2.1988  2.0253
 4174TIP3    H212529   2.637   5.687   1.699 -1.5305 -2.1060  4.1204
 4175TIP3   OH212530   0.591   4.992   0.405 -0.3513  0.1904 -0.5442
 4175TIP3    H112531   0.624   5.006   0.316  0.3188 -0.0052 -0.3311
 4175TIP3    H212532   0.574   4.898   0.410  0.9739 -0.0541 -0.0277
 4176TIP3   OH212533   0.753   3.817   3.803 -1.1679  0.3725  0.1797
 4176TIP3    H112534   0.749   3.878   3.729 -2.0091  0.6518  0.4433
 4176TIP3    H212535   0.662   3.793   3.819 -0.7547 -3.2794 -1.7850
 4177TIP3   OH212536   6.322   1.010   3.878 -0.0746 -0.0068  0.1870
 4177TIP3    H112537   6.305   0.976   3.966 -0.9175 -1.2255 -0.4243
 4177TIP3    H212538   6.363   1.095   3.893 -0.1464 -0.2184  1.7571
 4178TIP3   OH212539   6.218   0.976   2.253 -0.4176 -0.4731  0.4951
 4178TIP3    H112540   6.218   1.034   2.177  0.2117  0.1657  0.9705
 4178TIP3    H212541   6.283   0.908   2.231  0.3064  0.1214  0.7551
 4179TIP3   OH212542   6.075   1.098   4.190 -0.2071 -0.1179  0.3328
 4179TIP3    H112543   6.139   1.166   4.168 -0.2582 -0.4350 -0.8812
 4179TIP3    H212544   6.004   1.110   4.126  0.2116 -1.8646 -0.5310
 4180TIP3   OH212545   6.196   0.533   2.886  0.2937 -0.0854 -0.2673
 4180TIP3    H112546   6.174   0.493   2.802  0.2666 -0.8087  0.0744
 4180TIP3    H212547   6.201   0.459   2.947  2.2209  0.1926 -0.0218
 4181TIP3   OH212548   1.022   2.056   3.146 -0.3388 -1.3936  0.2016
 4181TIP3    H112549   1.034   1.996   3.220 -0.4169 -1.0127  0.5295
 4181TIP3    H212550   1.108   2.096   3.134 -0.5431 -0.8156  0.6520
 4182TIP3   OH212551   1.901   2.606   2.592  0.2030 -0.4974 -0.0726
 4182TIP3    H112552   1.875   2.541   2.657  0.0616  0.5111  0.9218
 4182TIP3    H212553   1.819   2.648   2.566  0.3348 -0.4460 -0.4099
 4183TIP3   OH212554   0.843   2.733   1.811 -0.0273  0.0931 -0.4018
 4183TIP3    H112555   0.774   2.786   1.850  1.1803  2.1349 -0.8864
 4183TIP3    H212556   0.904   2.716   1.883 -0.0016  0.0512 -0.4331
 4184TIP3   OH212557   3.381   4.296   4.122 -0.1652 -0.6572  0.4624
 4184TIP3    H112558   3.461   4.330   4.082 -1.7709  1.7088 -1.0216
 4184TIP3    H212559   3.376   4.340   4.207 -1.0591  1.2071 -0.4869
 4185TIP3   OH212560   2.412   5.731   2.199 -0.0853  0.1278 -0.3626
 4185TIP3    H112561   2.351   5.803   2.187  1.2110  1.1489 -1.1638
 4185TIP3    H212562   2.365   5.654   2.166 -0.7662  0.9637 -1.4202
 4186TIP3   OH212563   5.575   1.445   3.672 -0.5498  0.2790  0.0619
 4186TIP3    H112564   5.573   1.511   3.741 -1.5659  2.8467 -2.2705
 4186TIP3    H212565   5.545   1.490   3.594 -0.9286 -2.8898 -1.8006
 4187TIP3   OH212566   0.163   0.735   1.721 -0.4693  0.1343  0.7110
 4187TIP3    H112567   0.129   0.786   1.795  0.0454 -0.6235  1.4956
 4187TIP3    H212568   0.233   0.790   1.685 -1.0543  0.7297  0.4616
 4188TIP3   OH212569   4.555   3.981   4.203  0.0752  0.3355 -0.0528
 4188TIP3    H112570   4.507   3.919   4.258 -2.3399  0.9427 -1.3357
 4188TIP3    H212571   4.626   3.929   4.164 -0.9200 -1.2139  0.1270
 4189TIP3   OH212572   0.908   3.946   3.095 -0.0805  0.2416  0.2214
 4189TIP3    H112573   0.920   3.874   3.157 -0.7860  0.3290  0.4683
 4189TIP3    H212574   0.960   3.921   3.019 -0.8509 -0.8731  0.0233
 4190TIP3   OH212575   4.083   2.423   1.726 -0.0256 -0.6008 -0.0677
 4190TIP3    H112576   4.105   2.517   1.728  1.0410 -0.8230 -0.5537
 4190TIP3    H212577   4.006   2.418   1.670  0.2959 -0.0801 -0.5728
 4191TIP3   OH212578   4.936   2.688   2.051 -0.0721 -0.2399  0.0302
 4191TIP3    H112579   4.915   2.597   2.030  2.6295 -1.1927  1.0965
 4191TIP3    H212580   4.960   2.728   1.967 -1.0963 -0.5314 -0.4117
 4192TIP3   OH212581   0.697   4.679   3.395  0.3148  0.5297 -0.1312
 4192TIP3    H112582   0.702   4.585   3.377  0.8605  0.6587 -0.6718
 4192TIP3    H212583   0.661   4.716   3.315 -1.2401  0.6395  0.5702
 4193TIP3   OH212584   5.650   2.222   3.455 -0.1445  0.1423  0.4941
 4193TIP3    H112585   5.627   2.238   3.547  2.1673 -3.8249  2.0161
 4193TIP3    H212586   5.722   2.283   3.438 -1.0736  1.4316  1.0034
 4194TIP3   OH212587   3.869   2.858   3.288  0.2327  0.4439  0.1587
 4194TIP3    H112588   3.963   2.860   3.273  0.0880  0.4343 -0.8040
 4194TIP3    H212589   3.853   2.772   3.329  0.3624 -0.5792 -1.8178
 4195TIP3   OH212590   4.186   3.902   3.880  0.1858 -0.0269 -0.1256
 4195TIP3    H112591   4.178   3.924   3.973 -1.1903  0.0152 -0.2390
 4195TIP3    H212592   4.101   3.924   3.842  1.2285  1.4865 -1.7460
 4196TIP3   OH212593   3.707   0.276   0.416  0.2947  0.1695  0.1673
 4196TIP3    H112594   3.744   0.356   0.454 -0.5360  0.2467  0.8376
 4196TIP3    H212595   3.614   0.295   0.407  0.3870 -0.0092 -1.5296
 4197TIP3   OH212596   3.231   0.355   3.814 -0.3160 -0.5518  0.1797
 4197TIP3    H112597   3.239   0.374   3.907 -0.5385 -0.2591  0.1373
 4197TIP3    H212598   3.223   0.440   3.772  0.6954 -0.6267 -0.1987
 4198TIP3   OH212599   5.901   2.418   2.136  0.2776  0.1119 -0.5770
 4198TIP3    H112600   5.867   2.400   2.048 -0.0478  0.5842 -0.5570
 4198TIP3    H212601   5.844   2.488   2.169 -0.1537 -0.6482  0.3504
 4199TIP3   OH212602   2.235   3.570   4.848 -0.0364  0.5474 -0.3397
 4199TIP3    H112603   2.275   3.518   4.779  0.1446  0.1737  0.0396
 4199TIP3    H212604   2.213   3.506   4.916 -1.5444  0.6850 -0.6481
 4200TIP3   OH212605   2.063   0.546   4.439  0.2390 -0.2740 -0.3100
 4200TIP3    H112606   1.983   0.593   4.465  0.1949  0.6235 -1.9437
 4200TIP3    H212607   2.047   0.520   4.349  0.3897 -3.2975  0.4370
 4201TIP3   OH212608   1.846   2.882   3.036 -0.0997  0.8745 -0.3943
 4201TIP3    H112609   1.797   2.876   3.118 -0.9304 -0.1979 -0.9413
 4201TIP3    H212610   1.786   2.927   2.975  0.5520  1.7633 -0.3894
 4202TIP3   OH212611   0.845   5.512   2.838 -0.1404  0.2601 -0.0691
 4202TIP3    H112612   0.901   5.493   2.762 -1.8054 -1.8873 -0.8654
 4202TIP3    H212613   0.756   5.512   2.802 -0.9697 -0.8145  1.8506
 4203TIP3   OH212614   1.232   4.309   4.898  0.6459 -0.1607  0.5452
 4203TIP3    H112615   1.280   4.311   4.816 -0.9483 -2.4132 -0.5721
 4203TIP3    H212616   1.140   4.308   4.872  0.1004 -1.6637  2.2712
 4204TIP3   OH212617   0.529   1.331   0.238  0.8367  0.6394  0.1315
 4204TIP3    H112618   0.575   1.263   0.188  0.4082  0.0532  0.5308
 4204TIP3    H212619   0.558   1.318   0.328  0.2153  0.5381  0.3198
 4205TIP3   OH212620   0.220   2.287   4.749  0.0988  0.5397  0.1048
 4205TIP3    H112621   0.140   2.301   4.699 -0.5553 -0.2482  0.9206
 4205TIP3    H212622   0.266   2.372   4.744 -0.9413  1.1066 -0.0715
 4206TIP3   OH212623   5.680   0.055   0.809  0.0964  0.2996  0.5734
 4206TIP3    H112624   5.627   0.010   0.875  0.2621  0.7072  0.9927
 4206TIP3    H212625   5.749   0.098   0.859  0.5837  0.1236  0.0735
 4207TIP3   OH212626   2.810   2.311   3.151  0.1468  0.1908 -0.1870
 4207TIP3    H112627   2.776   2.310   3.241 -0.5398 -0.6072 -0.4423
 4207TIP3    H212628   2.750   2.367   3.103  0.0064 -0.0903 -0.3391
 4208TIP3   OH212629   0.441   3.512   0.097 -0.6803  0.2869 -0.0648
 4208TIP3    H112630   0.498   3.437   0.079 -0.9126 -0.0216  0.4571
 4208TIP3    H212631   0.422   3.505   0.190 -0.0894  1.4257  0.1600
 4209TIP3   OH212632   5.012   3.937   4.931 -0.1607 -0.0786 -0.2923
 4209TIP3    H112633   5.021   3.920   5.025 -0.8750 -1.8780 -0.5102
 4209TIP3    H212634   5.093   3.904   4.893  0.6937  1.7950 -0.2322
 4210TIP3   OH212635   2.450   5.072   1.476  0.1846  0.2547 -0.0734
 4210TIP3    H112636   2.456   5.052   1.570  0.0195 -0.1331 -0.1464
 4210TIP3    H212637   2.419   5.163   1.474 -0.5654  0.0095  0.2437
 4211TIP3   OH212638   2.936   1.401   3.940 -0.1854  0.3923 -0.1543
 4211TIP3    H112639   3.030   1.399   3.960  0.3993  1.4757 -2.5052
 4211TIP3    H212640   2.899   1.459   4.007  0.4520 -1.4234  1.8931
 4212TIP3   OH212641   2.915   1.360   3.679 -0.5299 -0.3762  0.0162
 4212TIP3    H112642   2.910   1.383   3.771  0.5000 -2.6016  0.7022
 4212TIP3    H212643   2.959   1.434   3.638  0.6850 -0.1294  1.6665
 4213TIP3   OH212644   2.074   0.940   2.384 -0.0379 -0.2525 -0.1104
 4213TIP3    H112645   2.124   0.928   2.465 -0.1746  0.0037  0.0131
 4213TIP3    H212646   2.140   0.959   2.318 -0.0815  1.6872  0.3623
 4214TIP3   OH212647   0.571   3.215   0.406  0.0490  0.1659 -0.4918
 4214TIP3    H112648   0.641   3.196   0.343  0.8690 -0.6861  0.6286
 4214TIP3    H212649   0.617   3.229   0.489 -1.1869 -2.7502  0.8155
 4215TIP3   OH212650   3.016   4.915   0.452 -0.0199  0.5389 -0.4590
 4215TIP3    H112651   2.926   4.904   0.420  0.3090  0.7560 -1.4862
 4215TIP3    H212652   3.044   4.827   0.474 -0.5497  0.4927  0.0516
 4216TIP3   OH212653   0.516   4.267   1.276 -0.3283  0.2265 -0.4230
 4216TIP3    H112654   0.553   4.315   1.350 -0.1717  0.4493 -0.6455
 4216TIP3    H212655   0.421   4.274   1.288 -0.3112  0.9513 -0.6826
 4217TIP3   OH212656   3.013   0.252   4.138  0.0010 -0.3305  0.1124
 4217TIP3    H112657   3.048   0.163   4.136 -0.5165 -0.5489 -2.2736
 4217TIP3    H212658   2.928   0.244   4.183  0.6721 -0.7110  1.3537
 4218TIP3   OH212659   4.481   5.084   0.730  0.1966  0.2294 -0.2420
 4218TIP3    H112660   4.557   5.028   0.742 -0.5275 -0.4422  1.4440
 4218TIP3    H212661   4.417   5.053   0.794 -0.8478  1.9214 -0.3905
 4219TIP3   OH212662   4.060   4.630   2.018  0.2651 -0.7370  0.0265
 4219TIP3    H112663   4.147   4.666   1.999 -0.8978  1.9050 -0.7158
 4219TIP3    H212664   4.041   4.574   1.943  1.0723 -0.8288 -0.1151
 4220TIP3   OH212665   6.269   3.466   3.050 -0.1421  0.3119  0.1262
 4220TIP3    H112666   6.208   3.486   3.121 -0.6759 -1.9881  0.4007
 4220TIP3    H212667   6.230   3.392   3.004  3.4602 -3.1244  1.9161
 4221TIP3   OH212668   1.305   0.108   3.838  0.4124  0.0694  0.1613
 4221TIP3    H112669   1.240   0.073   3.899 -0.1986 -0.7365 -0.9139
 4221TIP3    H212670   1.372   0.039   3.831 -0.6598 -0.8727 -1.7606
 4222TIP3   OH212671   0.999   0.039   0.923 -0.5707 -0.8912  0.2845
 4222TIP3    H112672   1.007  -0.054   0.942  0.0120 -0.6006  1.5924
 4222TIP3    H212673   1.079   0.061   0.876 -1.8866 -1.5540 -2.4177
 4223TIP3   OH212674   2.063   4.524   0.932 -0.0462 -0.1174 -0.6898
 4223TIP3    H112675   1.996   4.468   0.892 -0.2107 -0.4463  0.0248
 4223TIP3    H212676   2.014   4.599   0.965 -0.0229 -0.2027 -0.4573
 4224TIP3   OH212677   0.228   4.728   0.388  0.5589 -0.5793 -0.1246
 4224TIP3    H112678   0.201   4.647   0.345  0.8442 -0.8525  0.1985
 4224TIP3    H212679   0.237   4.703   0.480 -1.4508  0.3240  0.3762
 4225TIP3   OH212680   6.069   0.043   1.536  0.2430  0.4365  0.2192
 4225TIP3    H112681   6.128  -0.032   1.544 -0.9480 -0.7977 -1.6230
 4225TIP3    H212682   6.015   0.041   1.615 -0.4557 -1.3499 -0.2437
 4226TIP3   OH212683   2.461   4.444   3.359  0.2173  0.3624 -0.1986
 4226TIP3    H112684   2.430   4.414   3.444 -0.9670  0.6865 -0.5037
 4226TIP3    H212685   2.534   4.386   3.338 -1.3814 -1.7012 -0.3407
 4227TIP3   OH212686   4.080   2.806   0.930  0.2104 -0.6095 -0.4855
 4227TIP3    H112687   4.111   2.758   1.007 -0.4980 -0.6435 -0.2132
 4227TIP3    H212688   3.992   2.835   0.954 -0.2382 -1.1069 -1.4980
 4228TIP3   OH212689   2.238   0.548   3.964  0.1887 -0.2212  0.2679
 4228TIP3    H112690   2.323   0.586   3.988  0.4158  0.1626 -1.0405
 4228TIP3    H212691   2.232   0.561   3.869 -2.3072  1.7514  0.5893
 4229TIP3   OH212692   1.277   4.877   3.699  0.4963 -0.1178  0.5957
 4229TIP3    H112693   1.339   4.900   3.630  0.2637 -0.5347  0.2467
 4229TIP3    H212694   1.199   4.847   3.653 -0.1016  0.7227  1.0305
 4230TIP3   OH212695   2.790   0.272   4.887 -0.2766  0.1084 -0.5581
 4230TIP3    H112696   2.771   0.268   4.793  0.5203  0.4412 -0.7450
 4230TIP3    H212697   2.867   0.329   4.893  0.8735 -1.4655  0.1235
 4231TIP3   OH212698   3.638   5.104   3.257  0.0639 -0.2946 -0.0850
 4231TIP3    H112699   3.732   5.125   3.255  0.3278 -1.3920 -1.5730
 4231TIP3    H212700   3.596   5.185   3.284  1.2935  0.9532 -1.6805
 4232TIP3   OH212701   0.114   2.374   3.252 -0.7189  0.0289 -0.0450
 4232TIP3    H112702   0.104   2.361   3.346 -1.3724  0.2291 -0.0825
 4232TIP3    H212703   0.092   2.289   3.213  0.2626 -0.2637  0.0191
 4233TIP3   OH212704   0.549   4.515   0.706 -0.2270 -0.0392 -0.1480
 4233TIP3    H112705   0.504   4.496   0.788 -0.8426 -0.9838 -0.6797
 4233TIP3    H212706   0.602   4.437   0.689 -1.4989 -0.6693 -1.5329
 4234TIP3   OH212707   4.091   0.609   0.132  0.1708 -0.2609  0.2815
 4234TIP3    H112708   4.122   0.520   0.115  0.5284  0.1925 -1.7359
 4234TIP3    H212709   4.160   0.650   0.184 -0.6046 -1.5059  2.4249
 4235TIP3   OH212710   5.193   3.128   2.579 -0.4453 -0.2268 -0.3946
 4235TIP3    H112711   5.264   3.181   2.617 -2.7558  1.0932  2.3948
 4235TIP3    H212712   5.191   3.049   2.632 -0.5753 -0.6194 -0.9779
 4236TIP3   OH212713   4.851   3.796   3.793 -0.3522  0.5437  0.5556
 4236TIP3    H112714   4.933   3.846   3.788 -0.1618  0.5098  2.6636
 4236TIP3    H212715   4.790   3.845   3.737  0.4721  1.8591  0.7599
 4237TIP3   OH212716   2.907   1.512   3.142  0.0629  0.3107 -0.2400
 4237TIP3    H112717   2.930   1.604   3.160 -0.6197  0.7652 -1.5201
 4237TIP3    H212718   2.815   1.505   3.169  0.3247 -0.2236  0.5544
 4238TIP3   OH212719   0.188   1.062   4.248  0.2367  0.1204  0.2200
 4238TIP3    H112720   0.216   1.061   4.156 -1.6866  1.5495 -0.4641
 4238TIP3    H212721   0.130   0.986   4.255 -0.3479  0.5349 -0.0307
 4239TIP3   OH212722   4.216   1.833   2.354  0.1096  0.4893 -0.0242
 4239TIP3    H112723   4.276   1.857   2.283 -1.1427 -1.5851 -1.9162
 4239TIP3    H212724   4.267   1.776   2.411  0.4469  0.1183 -0.6862
 4240TIP3   OH212725   3.500   3.689   4.374 -0.3573 -0.5988 -0.3483
 4240TIP3    H112726   3.494   3.635   4.295 -2.1422 -0.5425 -0.2921
 4240TIP3    H212727   3.517   3.777   4.342  1.3633 -0.9524 -0.5063
 4241TIP3   OH212728   2.408   4.928   2.138  0.7441  0.2610  0.4889
 4241TIP3    H112729   2.472   4.955   2.204  0.4838  0.2436  0.7507
 4241TIP3    H212730   2.360   4.856   2.179  0.2102  0.6166  0.4926
 4242TIP3   OH212731   5.895   4.931   0.116 -0.2806  0.3653  0.0088
 4242TIP3    H112732   5.961   4.862   0.127 -2.5119 -1.9327 -0.1043
 4242TIP3    H212733   5.918   4.972   0.032 -0.1321 -1.7939 -1.1020
 4243TIP3   OH212734   5.333   0.102   4.365 -0.4645 -0.7472 -0.2263
 4243TIP3    H112735   5.246   0.063   4.379 -1.2513  1.7318  2.6472
 4243TIP3    H212736   5.351   0.150   4.445  3.3373 -0.6002 -1.0181
 4244TIP3   OH212737   3.101   3.875   2.753  0.0369 -0.4436  0.7134
 4244TIP3    H112738   3.091   3.837   2.841  1.6506 -0.2396  1.0010
 4244TIP3    H212739   3.119   3.800   2.697 -1.6461 -0.6628  0.3923
 4245TIP3   OH212740   1.537   3.734   2.680  0.0672  0.5515  0.0305
 4245TIP3    H112741   1.501   3.820   2.659 -0.2065  0.1419 -1.2230
 4245TIP3    H212742   1.602   3.751   2.748  2.4374  2.2214 -2.4576
 4246TIP3   OH212743   0.870   3.765   3.312  0.5021  0.1558 -0.4318
 4246TIP3    H112744   0.784   3.763   3.353 -0.0317  1.2158 -1.4391
 4246TIP3    H212745   0.926   3.810   3.376  0.0108  0.5559 -0.2791
 4247TIP3   OH212746   4.628   1.381   4.537  0.0190  0.4736 -0.3090
 4247TIP3    H112747   4.583   1.302   4.508  0.7648 -0.5452  1.1770
 4247TIP3    H212748   4.721   1.363   4.522  0.4362 -0.0457  2.3933
 4248TIP3   OH212749   0.784   2.985   0.494  0.4170 -0.4800 -0.0474
 4248TIP3    H112750   0.795   3.069   0.537 -1.7691  0.3144 -0.9178
 4248TIP3    H212751   0.870   2.967   0.454  1.8906 -0.2827  2.7709
 4249TIP3   OH212752   1.781   2.233   2.416 -0.2499  0.1660  0.4435
 4249TIP3    H112753   1.793   2.326   2.400 -1.5264  0.4081  0.7604
 4249TIP3    H212754   1.744   2.228   2.504 -1.4320 -0.5243 -0.0668
 4250TIP3   OH212755   1.199   2.551   3.080 -0.2259 -0.3224 -0.0566
 4250TIP3    H112756   1.287   2.549   3.117  0.2190 -0.9092 -1.1085
 4250TIP3    H212757   1.211   2.587   2.992 -0.9961 -0.6508 -0.3041
 4251TIP3   OH212758   2.692   1.055   0.044  0.0956  0.0546  0.8031
 4251TIP3    H112759   2.599   1.080   0.047 -0.1318 -0.7218  3.8666
 4251TIP3    H212760   2.693   0.972  -0.003 -0.7983  0.0426  0.7900
 4252TIP3   OH212761   2.846   3.951   4.680 -0.2273 -1.3506 -0.5622
 4252TIP3    H112762   2.895   4.016   4.629 -0.8716  1.5781  2.2245
 4252TIP3    H212763   2.910   3.917   4.743 -1.1002  1.1323  1.8696
 4253TIP3   OH212764   3.866  -0.000   2.855 -0.1585 -0.0707  0.3293
 4253TIP3    H112765   3.890  -0.012   2.947 -0.8627  0.5922  0.6059
 4253TIP3    H212766   3.780   0.041   2.858 -0.0081  0.3247 -0.6278
 4254TIP3   OH212767   2.787   4.614   0.448  0.1447 -0.0531  0.1386
 4254TIP3    H112768   2.883   4.617   0.449  0.1324  0.6406  1.4014
 4254TIP3    H212769   2.765   4.573   0.364  1.5381 -0.0725 -0.2424
 4255TIP3   OH212770   4.767   2.466   2.256 -0.2975  0.2522  0.3218
 4255TIP3    H112771   4.721   2.519   2.191 -0.8289 -0.4883  0.0845
 4255TIP3    H212772   4.860   2.488   2.243 -0.1889 -1.1053 -1.8739
 4256TIP3   OH212773   1.255   3.240   1.602 -0.2210 -0.6683 -0.0973
 4256TIP3    H112774   1.296   3.312   1.553 -0.0062 -1.5685 -1.2944
 4256TIP3    H212775   1.226   3.280   1.684 -0.9439  1.0048 -1.1087
 4257TIP3   OH212776   5.963   5.074   0.617 -0.3335 -0.0847  0.1023
 4257TIP3    H112777   6.025   5.006   0.644  1.0964  1.9306  2.3700
 4257TIP3    H212778   5.972   5.079   0.522 -0.8398 -3.2792 -0.2194
 4258TIP3   OH212779   1.914   1.528   2.633  0.3668 -0.3182 -0.1213
 4258TIP3    H112780   1.825   1.515   2.664  0.8197 -0.8670  1.0390
 4258TIP3    H212781   1.952   1.590   2.695  1.2986 -1.4298  0.4672
 4259TIP3   OH212782   3.106   2.597   4.781  0.2321  0.3023 -0.4447
 4259TIP3    H112783   3.105   2.669   4.844 -0.9015  0.5318 -0.7027
 4259TIP3    H212784   3.115   2.518   4.835 -1.0897  0.4722  0.0400
 4260TIP3   OH212785   5.067   0.280   3.316 -0.1864  0.1675  0.5882
 4260TIP3    H112786   4.983   0.307   3.280 -1.0843 -0.7365  1.9039
 4260TIP3    H212787   5.083   0.341   3.388  1.0386  1.2636 -0.5717
 4261TIP3   OH212788   1.759   1.115   0.499 -0.2333 -0.1963  0.2429
 4261TIP3    H112789   1.666   1.101   0.479  0.2146 -2.0663 -0.7232
 4261TIP3    H212790   1.779   1.199   0.457 -1.0865 -0.5850 -1.0161
 4262TIP3   OH212791   6.299   1.962   4.812  0.3504  0.0096  0.7233
 4262TIP3    H112792   6.232   1.926   4.871 -1.1047 -1.2935 -1.5941
 4262TIP3    H212793   6.249   2.009   4.745  1.9279  0.9638  0.1605
 4263TIP3   OH212794   2.851   5.607   1.944 -0.3102  0.1574 -0.0376
 4263TIP3    H112795   2.833   5.559   2.024  1.3260 -0.7986 -0.2001
 4263TIP3    H212796   2.770   5.601   1.893 -0.8824 -0.4405  0.9212
 4264TIP3   OH212797   6.075   0.272   3.587  0.1977 -0.2929  0.3283
 4264TIP3    H112798   6.107   0.327   3.659  2.3935 -0.2223 -0.6132
 4264TIP3    H212799   6.074   0.330   3.511 -1.9621 -0.4066  0.2024
 4265TIP3   OH212800   4.053   1.945   0.406 -0.4124  0.1100  0.2827
 4265TIP3    H112801   4.005   1.866   0.432  3.4192 -2.8345 -0.6391
 4265TIP3    H212802   4.143   1.929   0.435  0.3115  5.1554  1.8020
 4266TIP3   OH212803   0.247   4.255   1.294  0.1350  0.1608  0.2327
 4266TIP3    H112804   0.233   4.350   1.297  0.5111  0.2458 -0.4773
 4266TIP3    H212805   0.171   4.221   1.247  0.2928  0.1748 -0.0322
 4267TIP3   OH212806   2.017   4.483   2.665  0.3030 -0.2043  0.8613
 4267TIP3    H112807   2.034   4.480   2.570  1.5927  1.7526  0.9762
 4267TIP3    H212808   1.933   4.528   2.673  1.8981  3.0823  0.6708
 4268TIP3   OH212809   2.468   3.324   4.299  0.2463 -0.8027  0.0401
 4268TIP3    H112810   2.447   3.392   4.363 -0.5170 -1.6627  0.7156
 4268TIP3    H212811   2.552   3.288   4.328  1.4669  0.8592 -1.1943
 4269TIP3   OH212812   2.709   5.138   2.519 -0.0594 -0.2638  0.6587
 4269TIP3    H112813   2.629   5.090   2.495  0.0496 -0.3761  0.5126
 4269TIP3    H212814   2.778   5.070   2.519  0.3220  0.0775 -0.7080
 4270TIP3   OH212815   0.330   0.747   1.132 -0.2009  0.3929 -0.1354
 4270TIP3    H112816   0.397   0.716   1.071 -1.3575 -0.1639 -1.1629
 4270TIP3    H212817   0.344   0.695   1.211  0.3825  0.0664 -0.4453
 4271TIP3   OH212818   1.499   1.921   0.575  0.5516  0.4162 -0.0160
 4271TIP3    H112819   1.448   1.999   0.554 -0.6450 -0.5086 -0.5983
 4271TIP3    H212820   1.473   1.856   0.511  1.6270 -0.4472  0.3823
 4272TIP3   OH212821   1.327   3.965   3.678  0.1971  0.4652 -0.4823
 4272TIP3    H112822   1.337   3.920   3.594  1.5649 -0.9252  0.3805
 4272TIP3    H212823   1.303   3.896   3.739 -0.9200  1.4857  0.2743
 4273TIP3   OH212824   2.818   2.303   0.613 -0.2711 -0.1926  0.5166
 4273TIP3    H112825   2.822   2.307   0.517  0.6339 -0.3111  0.5455
 4273TIP3    H212826   2.822   2.210   0.633 -0.1846 -0.1521  0.6848
 4274TIP3   OH212827   3.219   1.662   2.148 -0.6417 -0.0635 -0.5362
 4274TIP3    H112828   3.165   1.583   2.142 -0.0263 -0.5227 -0.0618
 4274TIP3    H212829   3.157   1.731   2.170 -1.1727 -0.4309 -0.8609
 4275TIP3   OH212830   0.064   0.722   2.415  0.6364 -0.0646 -0.0039
 4275TIP3    H112831   0.065   0.655   2.483  1.3204  0.4250  0.4795
 4275TIP3    H212832  -0.007   0.781   2.440 -0.6717 -1.1400 -0.9900
 4276TIP3   OH212833   3.130   3.406   1.852  0.1259 -0.2274  0.5384
 4276TIP3    H112834   3.070   3.358   1.795 -0.6576  0.6246  0.6159
 4276TIP3    H212835   3.216   3.368   1.835 -0.0380  0.1987 -1.4388
 4277TIP3   OH212836   0.623   1.599   0.275 -0.1487  0.1559 -0.3064
 4277TIP3    H112837   0.540   1.647   0.278 -1.3052 -1.7049 -0.9450
 4277TIP3    H212838   0.599   1.511   0.247  2.0725 -0.4264 -0.5652
 4278TIP3   OH212839   4.664   5.700   2.150  0.1352 -0.1152 -0.5519
 4278TIP3    H112840   4.605   5.640   2.105 -0.8252  0.9511 -0.7501
 4278TIP3    H212841   4.612   5.737   2.221  1.0648 -0.3535  0.2883
 4279TIP3   OH212842   3.144   4.463   0.658 -0.4618  0.4179 -0.5082
 4279TIP3    H112843   3.104   4.378   0.638 -2.2749  0.8981  0.7764
 4279TIP3    H212844   3.224   4.442   0.705 -2.0102 -0.6374  1.8213
 4280TIP3   OH212845   1.147   1.796   4.617 -0.1008  0.1707  0.1517
 4280TIP3    H112846   1.097   1.716   4.628 -2.0612  1.0805 -1.5103
 4280TIP3    H212847   1.190   1.787   4.532  0.7621  0.3385  0.5583
 4281TIP3   OH212848   4.309   4.135   2.455  0.1977  0.4111 -0.1300
 4281TIP3    H112849   4.358   4.177   2.385  0.0186 -2.2188 -1.9910
 4281TIP3    H212850   4.236   4.194   2.472  1.8889  2.5985  0.0931
 4282TIP3   OH212851   1.648   2.763   2.393  0.1558  0.2919  0.1878
 4282TIP3    H112852   1.646   2.726   2.305 -1.9281 -1.8735  1.0182
 4282TIP3    H212853   1.604   2.697   2.448  0.2600  2.0955  2.6240
 4283TIP3   OH212854   3.599   4.850   0.503 -0.0464  0.3964  0.0268
 4283TIP3    H112855   3.536   4.778   0.502  0.0280  0.2900 -2.2008
 4283TIP3    H212856   3.555   4.920   0.455  0.5093  1.2683  0.7778
 4284TIP3   OH212857   1.715   1.551   0.325  0.2623 -0.3305 -0.5183
 4284TIP3    H112858   1.770   1.596   0.389  0.7487 -0.9173 -0.5176
 4284TIP3    H212859   1.765   1.556   0.243  2.1198 -3.9613  0.1796
 4285TIP3   OH212860   2.826   3.337   2.300  0.3979  0.2450 -0.2492
 4285TIP3    H112861   2.897   3.369   2.355  0.8376  1.9739 -1.7301
 4285TIP3    H212862   2.860   3.341   2.211 -0.9194 -0.7086 -0.8385
 4286TIP3   OH212863   0.793   4.034   2.398 -0.2044  0.4055  0.0964
 4286TIP3    H112864   0.844   3.998   2.325  2.5422  1.6435  1.2827
 4286TIP3    H212865   0.711   4.064   2.357  0.6889 -0.0679 -2.2197
 4287TIP3   OH212866   0.498   2.929   4.919 -0.1666  0.2442  0.7063
 4287TIP3    H112867   0.576   2.976   4.947 -0.2117 -0.5878  2.3419
 4287TIP3    H212868   0.464   2.889   4.999 -1.0163 -1.2446 -0.3489
 4288TIP3   OH212869   5.894   2.768   0.609  0.0380 -0.0425  0.0765
 4288TIP3    H112870   5.808   2.756   0.650 -0.8407  0.8337 -1.4180
 4288TIP3    H212871   5.876   2.817   0.529  1.8321 -0.6812 -0.7743
 4289TIP3   OH212872   3.052   1.075   1.712 -0.4524 -0.2059 -0.7567
 4289TIP3    H112873   3.142   1.072   1.744 -0.4693 -1.0644 -0.7670
 4289TIP3    H212874   2.998   1.076   1.791 -0.4647 -1.1207 -0.7488
 4290TIP3   OH212875   0.344   0.565   3.641 -0.0764 -0.1288  0.4987
 4290TIP3    H112876   0.358   0.479   3.680 -0.2484 -0.1529  0.5103
 4290TIP3    H212877   0.432   0.601   3.629  0.2087 -1.3781 -1.9047
 4291TIP3   OH212878   1.893   1.942   1.305  0.0876  0.0616  0.7083
 4291TIP3    H112879   1.826   1.959   1.238  0.3871  0.9743  0.6220
 4291TIP3    H212880   1.905   1.847   1.302  0.2962  0.0991 -0.7445
 4292TIP3   OH212881   6.270   3.477   1.731  0.3048 -0.0704  0.2250
 4292TIP3    H112882   6.227   3.508   1.811  1.0419  1.2714  0.1102
 4292TIP3    H212883   6.323   3.550   1.702 -0.4399 -0.3119 -1.8633
 4293TIP3   OH212884   5.746   0.722   1.278 -0.1981 -0.6269  0.1576
 4293TIP3    H112885   5.771   0.700   1.368  2.2629 -0.2965 -0.3657
 4293TIP3    H212886   5.686   0.796   1.287  2.1587  1.2841  1.5443
 4294TIP3   OH212887   1.870   4.268   3.620  0.0353 -0.1398 -0.4258
 4294TIP3    H112888   1.892   4.194   3.676  1.5226  0.2410 -0.4848
 4294TIP3    H212889   1.775   4.280   3.632  0.1660 -0.6467  1.2820
 4295TIP3   OH212890   4.031   5.852   1.932 -0.1977  0.0556 -0.8476
 4295TIP3    H112891   3.991   5.833   1.848  0.4117 -0.9517 -0.9316
 4295TIP3    H212892   3.964   5.829   1.997  0.3954 -2.2100 -0.9587
 4296TIP3   OH212893   2.158   2.392   4.827  0.4442  0.4882 -0.1802
 4296TIP3    H112894   2.177   2.305   4.862 -0.5961 -0.1397 -1.1032
 4296TIP3    H212895   2.066   2.387   4.798  0.2288  2.0297  0.1548
 4297TIP3   OH212896   3.776   3.204   2.120 -0.2612  0.3237 -0.0362
 4297TIP3    H112897   3.702   3.189   2.179  0.6958 -0.4011  1.0310
 4297TIP3    H212898   3.813   3.117   2.105  1.5320  0.8367  1.0493
 4298TIP3   OH212899   4.942   2.925   5.190 -0.3380  0.5700  0.0515
 4298TIP3    H112900   4.867   2.867   5.174 -2.0099  2.7380 -0.4707
 4298TIP3    H212901   4.958   2.966   5.105  1.3978  0.2377  0.1946
 4299TIP3   OH212902   5.604   5.443   1.566 -0.1089  0.4951  0.4606
 4299TIP3    H112903   5.649   5.385   1.504 -0.5889  0.2271  0.3655
 4299TIP3    H212904   5.641   5.420   1.651 -1.7806 -1.4164  0.7189
 4300TIP3   OH212905   5.027   1.448   5.134 -0.4402  0.5953 -0.5986
 4300TIP3    H112906   5.001   1.425   5.044  1.5775 -1.3002 -0.7772
 4300TIP3    H212907   5.121   1.464   5.128 -0.0490 -0.7090  1.3406
 4301TIP3   OH212908   3.933   0.295   3.751  0.9562  0.6806 -0.3606
 4301TIP3    H112909   4.005   0.313   3.690  1.0648 -0.9056 -0.7457
 4301TIP3    H212910   3.867   0.360   3.728  1.9977  1.7668 -0.4256
 4302TIP3   OH212911   4.349   2.744   0.494 -0.6873 -0.2548  0.0823
 4302TIP3    H112912   4.371   2.824   0.447 -2.0538  0.3629  0.4315
 4302TIP3    H212913   4.344   2.677   0.425  1.6805 -0.3550 -0.0625
 4303TIP3   OH212914   4.019   2.115   2.108  0.5131 -0.2069  0.1614
 4303TIP3    H112915   4.094   2.065   2.075  0.7664 -0.5694  1.2356
 4303TIP3    H212916   4.014   2.191   2.050  1.5408 -0.3176 -0.1024
 4304TIP3   OH212917   5.328   0.590   0.827 -0.4635 -0.2411  0.1758
 4304TIP3    H112918   5.422   0.599   0.809 -0.0382  3.2960  3.1222
 4304TIP3    H212919   5.324   0.529   0.901 -0.6463 -1.2512 -0.6454
 4305TIP3   OH212920   5.294   1.963   1.881 -0.0613 -0.1936  0.4220
 4305TIP3    H112921   5.254   1.969   1.967 -0.6186  0.0597  0.1517
 4305TIP3    H212922   5.309   2.054   1.855 -0.0820 -0.2604  0.1695
 4306TIP3   OH212923   2.146   3.249   2.582 -0.0811  0.1335 -0.3633
 4306TIP3    H112924   2.123   3.162   2.548  0.3947 -0.1711  0.0671
 4306TIP3    H212925   2.158   3.303   2.504  0.5454 -0.4327 -0.6668
 4307TIP3   OH212926   2.975   0.323   1.452  0.0605 -0.4331 -0.4240
 4307TIP3    H112927   2.981   0.265   1.528 -1.5677  0.6479  0.5929
 4307TIP3    H212928   2.882   0.346   1.447  0.1799 -0.2174 -2.5638
 4308TIP3   OH212929   1.196   1.727   0.168 -0.0634 -0.3309 -0.4024
 4308TIP3    H112930   1.238   1.680   0.097 -0.1227  0.1185 -0.7409
 4308TIP3    H212931   1.161   1.806   0.127  1.9491  1.1282  0.5197
 4309TIP3   OH212932   1.015   1.020   4.771 -0.3164  0.0026  0.2603
 4309TIP3    H112933   0.922   1.018   4.791 -0.2689  0.9905  0.6521
 4309TIP3    H212934   1.019   1.049   4.680 -0.3949 -0.0072  0.2537
 4310TIP3   OH212935   3.975   1.222   3.460  0.1089 -0.3890 -0.2886
 4310TIP3    H112936   3.936   1.302   3.494  2.8123  1.3695 -0.9834
 4310TIP3    H212937   4.004   1.245   3.372  4.0038 -0.8896  0.6614
 4311TIP3   OH212938   3.479   2.215   3.225  0.3930  0.1448  0.5932
 4311TIP3    H112939   3.450   2.257   3.306 -0.3970 -0.6174  0.7114
 4311TIP3    H212940   3.460   2.280   3.157  2.0926  1.2543  1.1148
 4312TIP3   OH212941   4.983   1.432   1.046  0.5336  0.3495  0.0642
 4312TIP3    H112942   4.970   1.465   0.957  0.0850  0.0090 -0.0047
 4312TIP3    H212943   5.068   1.389   1.043 -0.7242 -2.3315 -1.0764
 4313TIP3   OH212944   2.726   1.734   1.434 -0.2860  0.0000 -0.2288
 4313TIP3    H112945   2.683   1.687   1.362  1.4631 -2.0888 -0.0089
 4313TIP3    H212946   2.654   1.776   1.481 -1.8206 -1.3235 -1.2764
 4314TIP3   OH212947   1.079   0.728   3.976 -0.2927  0.1272 -0.5003
 4314TIP3    H112948   1.053   0.636   3.977  0.4154 -0.1256  1.8762
 4314TIP3    H212949   1.175   0.726   3.978 -0.2231  0.7511  2.4764
 4315TIP3   OH212950   5.178   4.991   3.174  0.9107 -0.2694  0.3989
 4315TIP3    H112951   5.206   4.914   3.123 -0.3293  0.1383 -0.9767
 4315TIP3    H212952   5.087   4.974   3.196  0.1253  1.4168 -1.2519
 4316TIP3   OH212953   4.990   0.598   3.047 -0.1641 -0.1115 -0.4813
 4316TIP3    H112954   4.921   0.532   3.039 -0.7541  0.4739 -0.2705
 4316TIP3    H212955   5.029   0.602   2.959 -0.7355 -0.0725 -0.7380
 4317TIP3   OH212956   1.831   5.647   3.632  0.0060  0.3076 -0.3301
 4317TIP3    H112957   1.798   5.676   3.717 -2.7218 -1.4590 -0.6555
 4317TIP3    H212958   1.846   5.553   3.643  0.1218  0.1548 -1.6483
 4318TIP3   OH212959   6.276   0.968   5.011 -0.1612 -0.0699  0.1393
 4318TIP3    H112960   6.230   0.995   4.932  1.2107  0.1063 -0.6306
 4318TIP3    H212961   6.360   1.014   5.006  0.4552 -1.0677  1.0439
 4319TIP3   OH212962   5.415   1.922   0.989  0.1702  0.5649 -0.3702
 4319TIP3    H112963   5.440   1.859   1.056  0.0068  0.2387 -0.6136
 4319TIP3    H212964   5.436   1.878   0.906 -0.6557  0.5251 -0.5592
 4320TIP3   OH212965   4.700   5.336   1.860 -0.3120 -0.1789  0.3440
 4320TIP3    H112966   4.793   5.324   1.880  0.2514  0.8842 -1.4085
 4320TIP3    H212967   4.664   5.247   1.861  1.0092 -0.7510 -0.1912
 4321TIP3   OH212968   0.926   2.040   4.928 -0.1098 -0.4985  0.1168
 4321TIP3    H112969   0.965   1.963   4.968 -0.6908 -1.5399 -1.2341
 4321TIP3    H212970   0.996   2.077   4.874  0.9390  1.3791  2.5422
 4322TIP3   OH212971   2.337   2.017   0.806  0.0349 -0.2494 -0.0713
 4322TIP3    H112972   2.288   2.061   0.737  0.2005 -0.8553 -0.5893
 4322TIP3    H212973   2.342   2.081   0.876  3.6106  2.1580 -2.1791
 4323TIP3   OH212974   3.397   2.143   4.955 -0.4877 -0.3315  0.1065
 4323TIP3    H112975   3.374   2.206   4.887 -1.2014 -1.8916 -1.1688
 4323TIP3    H212976   3.384   2.190   5.037 -0.9797  1.1641 -0.7946
 4324TIP3   OH212977   3.021   2.143   3.223 -0.4557  0.4105  0.5913
 4324TIP3    H112978   2.987   2.210   3.164  1.4837 -0.1000 -1.2391
 4324TIP3    H212979   2.953   2.076   3.225 -0.9037  0.8126 -0.4151
 4325TIP3   OH212980   3.805   4.382   0.050 -0.1918  0.0913  0.1289
 4325TIP3    H112981   3.715   4.355   0.029  0.4322 -0.8899 -1.4736
 4325TIP3    H212982   3.812   4.370   0.145 -1.5688 -0.3918  0.1962
 4326TIP3   OH212983   5.451   2.645   0.137 -0.3087 -0.0787  0.2437
 4326TIP3    H112984   5.452   2.723   0.192  0.8663  0.2836 -0.2542
 4326TIP3    H212985   5.400   2.669   0.060 -0.4711 -0.0079  0.3742
 4327TIP3   OH212986   5.944   0.355   4.247  0.5187 -0.3137  0.2349
 4327TIP3    H112987   5.932   0.260   4.248  1.8922 -0.5375 -1.2435
 4327TIP3    H212988   5.876   0.387   4.187  1.4972 -0.6491 -1.1121
 4328TIP3   OH212989   4.900   4.549   4.798 -0.2494 -0.6332 -0.1108
 4328TIP3    H112990   4.941   4.471   4.759 -1.1110 -0.6830 -0.9581
 4328TIP3    H212991   4.895   4.611   4.725 -0.1406 -0.0126  0.4109
 4329TIP3   OH212992   2.789   0.688   4.683 -0.0012 -0.2521  0.4073
 4329TIP3    H112993   2.867   0.730   4.647 -0.3852  0.9313  0.9185
 4329TIP3    H212994   2.756   0.750   4.748 -1.5602 -0.5773 -0.0365
 4330TIP3   OH212995   4.335   3.409   1.471  0.6433 -0.8829 -0.0117
 4330TIP3    H112996   4.346   3.502   1.487  1.4715 -0.9551 -0.1194
 4330TIP3    H212997   4.316   3.371   1.557 -1.9836 -0.3377 -0.2611
 4331TIP3   OH212998   2.452   5.615   0.055 -0.6499  0.1993 -0.3352
 4331TIP3    H112999   2.382   5.567   0.010 -0.4690 -1.0246  0.6244
 4331TIP3    H213000   2.513   5.547   0.083  0.3380  1.1448 -0.1343
 4332TIP3   OH213001   0.922   4.528   0.938  0.2847  0.5830 -0.2451
 4332TIP3    H113002   0.843   4.519   0.992 -0.1469 -2.4000 -1.1918
 4332TIP3    H213003   0.892   4.576   0.860  0.0782  1.8428  0.5953
 4333TIP3   OH213004   0.198   5.174   2.382 -0.3613  0.7933 -0.4707
 4333TIP3    H113005   0.217   5.238   2.314  0.7977 -0.5605 -1.4936
 4333TIP3    H213006   0.281   5.162   2.428 -0.2712 -0.6716 -0.9556
 4334TIP3   OH213007   4.918   2.224   2.387 -0.1011 -0.0856  0.2013
 4334TIP3    H113008   4.920   2.311   2.347 -1.8019  0.8962  2.0934
 4334TIP3    H213009   4.826   2.198   2.381  0.4633 -2.0319 -0.8146
 4335TIP3   OH213010   0.866   4.805   4.820  0.5009  0.2731 -0.3545
 4335TIP3    H113011   0.879   4.813   4.726 -1.5528  0.7940 -0.6596
 4335TIP3    H213012   0.824   4.888   4.845 -1.0825 -0.7478  0.5648
 4336TIP3   OH213013   1.976   4.875   1.352 -0.0847  0.1676 -0.5263
 4336TIP3    H113014   2.020   4.956   1.325  0.8183  0.3906  1.4133
 4336TIP3    H213015   1.885   4.900   1.366 -0.0849  0.5377 -1.1523
 4337TIP3   OH213016   5.967   4.333   0.053 -0.2531 -0.1248  0.2452
 4337TIP3    H113017   6.039   4.364   0.109 -0.3397 -0.9647  0.8457
 4337TIP3    H213018   5.891   4.382   0.082 -0.0765  0.2258  0.1218
 4338TIP3   OH213019   0.786   0.784   1.759 -0.1912 -0.2216 -0.7229
 4338TIP3    H113020   0.717   0.738   1.711 -0.2884 -0.0978 -0.7060
 4338TIP3    H213021   0.762   0.877   1.751  0.2840 -0.1419 -1.1897
 4339TIP3   OH213022   3.910   4.246   3.874 -0.3696  0.9437  0.1782
 4339TIP3    H113023   3.896   4.154   3.855  0.1927  0.9336 -0.1916
 4339TIP3    H213024   3.947   4.282   3.794 -1.1911  1.6368  0.0843
 4340TIP3   OH213025   1.302   5.084   4.862 -0.2429  0.3593 -0.1434
 4340TIP3    H113026   1.277   5.083   4.954  2.4732 -1.7870  0.6918
 4340TIP3    H213027   1.241   5.023   4.820  0.9454 -1.7895  1.0858
 4341TIP3   OH213028   3.262   1.743   1.126  0.7128 -0.2299  0.0456
 4341TIP3    H113029   3.329   1.684   1.161  0.6654 -0.1376  0.2902
 4341TIP3    H213030   3.180   1.696   1.141  0.7581 -0.5490 -0.6702
 4342TIP3   OH213031   0.481   1.762   4.116  0.3232 -0.3856  0.1818
 4342TIP3    H113032   0.531   1.774   4.035 -0.7572  0.9692 -0.3208
 4342TIP3    H213033   0.515   1.829   4.175  0.7868 -1.0681  0.6939
 4343TIP3   OH213034   4.232   3.624   3.065  0.7845 -0.5158  0.0241
 4343TIP3    H113035   4.299   3.557   3.072 -1.3066 -2.7916 -0.1777
 4343TIP3    H213036   4.212   3.629   2.971 -0.3724 -1.0401  0.2215
 4344TIP3   OH213037   5.332   1.265   0.379  0.3007  0.2755 -0.5172
 4344TIP3    H113038   5.418   1.241   0.415  0.1476 -0.0959 -0.3951
 4344TIP3    H213039   5.311   1.194   0.319 -1.5545 -1.5935  2.0977
 4345TIP3   OH213040   3.446   1.761   4.244  0.3183 -0.2133  0.6998
 4345TIP3    H113041   3.474   1.754   4.152 -0.6074  0.7156  0.3240
 4345TIP3    H213042   3.503   1.700   4.291 -0.4731 -2.1988 -0.7667
 4346TIP3   OH213043   3.106   5.501   1.860  0.3534 -0.5800 -0.9184
 4346TIP3    H113044   3.069   5.413   1.863 -0.6887 -0.1218  1.2189
 4346TIP3    H213045   3.029   5.559   1.854  0.8329  0.2694  0.6001
 4347TIP3   OH213046   0.980   0.173   2.925 -0.0631 -0.0819 -0.8166
 4347TIP3    H113047   1.054   0.187   2.984 -1.6620  2.4289  0.7856
 4347TIP3    H213048   0.999   0.090   2.883  3.8408  0.5713 -0.7843
 4348TIP3   OH213049   2.629   3.004   0.013 -0.4694 -0.4409 -0.0944
 4348TIP3    H113050   2.667   3.007   0.101  1.8873 -1.3145 -1.0037
 4348TIP3    H213051   2.659   2.921  -0.024 -3.0106 -1.0206 -1.0991
 4349TIP3   OH213052   1.591   4.527   3.321 -0.1088 -0.0507  0.3953
 4349TIP3    H113053   1.509   4.573   3.339  0.3871  0.1203  2.3587
 4349TIP3    H213054   1.610   4.478   3.401  1.2943 -0.7336 -0.3165
 4350TIP3   OH213055   2.530   3.956   2.085  0.0259 -0.3870  0.0706
 4350TIP3    H113056   2.561   3.972   1.996 -1.4089 -0.7896 -0.5250
 4350TIP3    H213057   2.601   3.905   2.126  0.6071 -0.3846 -0.8985
 4351TIP3   OH213058   1.791   4.729   2.962 -0.1096  0.1266 -0.1083
 4351TIP3    H113059   1.809   4.647   3.009 -0.5029  0.0485 -0.0905
 4351TIP3    H213060   1.721   4.771   3.012 -0.1619  0.2989 -0.3250
 4352TIP3   OH213061   4.004   0.315   0.562  0.5119  0.6278  0.1405
 4352TIP3    H113062   4.015   0.394   0.614 -0.2441  1.7335 -1.3197
 4352TIP3    H213063   3.910   0.297   0.564  0.3687  1.0412 -1.2632
 4353TIP3   OH213064   4.574   5.491   1.643  1.2012 -0.3546 -0.3460
 4353TIP3    H113065   4.495   5.445   1.671  0.5371  0.8076 -0.2516
 4353TIP3    H213066   4.634   5.483   1.717  0.7534 -0.3005  0.0271
 4354TIP3   OH213067   6.015   4.865   2.682 -0.0631 -0.1843 -0.7480
 4354TIP3    H113068   5.984   4.916   2.608 -2.4942  0.3873  0.5750
 4354TIP3    H213069   6.066   4.927   2.734  0.6519 -0.2841 -1.3129
 4355TIP3   OH213070   1.598   3.699   1.762 -0.2891 -0.2824  0.2590
 4355TIP3    H113071   1.673   3.729   1.710 -0.1291  0.2575  0.7924
 4355TIP3    H213072   1.522   3.714   1.707 -0.0549 -0.3493 -0.0824
 4356TIP3   OH213073   1.362   3.259   2.320 -0.3427  0.4500  0.0188
 4356TIP3    H113074   1.452   3.258   2.287 -0.3820 -1.4444 -0.1265
 4356TIP3    H213075   1.365   3.317   2.397  1.3208 -0.6849  0.8582
 4357TIP3   OH213076   2.633   4.763   3.066 -0.0057  0.2459 -0.5995
 4357TIP3    H113077   2.658   4.705   3.138 -0.0543  0.0235 -0.7615
 4357TIP3    H213078   2.580   4.708   3.009  0.6067  0.2292 -1.1640
 4358TIP3   OH213079   3.416   0.478   2.551  0.2405 -0.3437  0.1755
 4358TIP3    H113080   3.484   0.537   2.518 -0.9233  0.3510 -1.0960
 4358TIP3    H213081   3.365   0.533   2.611 -1.4311  0.3169 -1.7405
 4359TIP3   OH213082   2.452   0.163   4.332  0.2181  0.1059  0.4507
 4359TIP3    H113083   2.487   0.092   4.385  0.5953  0.0838  0.1757
 4359TIP3    H213084   2.361   0.171   4.360 -0.0469 -0.9820 -0.0240
 4360TIP3   OH213085   1.071   4.004   1.527 -0.3359  0.1009 -0.0588
 4360TIP3    H113086   1.105   3.976   1.443  0.9523  0.3280  0.3713
 4360TIP3    H213087   1.036   4.092   1.511 -0.0742  0.1522 -0.3477
 4361TIP3   OH213088   5.498   1.321   1.669 -0.9695  0.0185 -0.8047
 4361TIP3    H113089   5.456   1.354   1.748 -1.5709  0.7706 -1.4255
 4361TIP3    H213090   5.534   1.398   1.626  3.3070 -0.7823  0.9034
 4362TIP3   OH213091   6.067   0.724   3.773 -0.0784  0.6055 -0.0633
 4362TIP3    H113092   6.070   0.809   3.816  1.0834  0.3387  0.4119
 4362TIP3    H213093   6.146   0.679   3.802 -0.7574 -0.7152 -0.1540
 4363TIP3   OH213094   0.616   3.983   3.189  0.2250 -0.2842  0.2689
 4363TIP3    H113095   0.583   3.915   3.247  0.1192 -0.2324  0.2699
 4363TIP3    H213096   0.680   3.938   3.133  0.8883 -0.1772  0.9239
 4364TIP3   OH213097   3.292   1.072   0.191 -0.5107 -0.2936  0.0891
 4364TIP3    H113098   3.359   1.123   0.147 -0.4993  1.1720  1.7366
 4364TIP3    H213099   3.333   0.987   0.207  0.2926 -0.0347 -0.5494
 4365TIP3   OH213100   4.688   2.987   0.493 -0.2842 -0.0417  0.0444
 4365TIP3    H113101   4.731   2.901   0.493  2.1167  1.0481  1.4542
 4365TIP3    H213102   4.600   2.969   0.460  0.2899 -2.9408 -0.2508
 4366TIP3   OH213103   3.312   5.172   1.197  0.5214 -0.2782 -0.0735
 4366TIP3    H113104   3.339   5.087   1.163  1.9384  0.0929  0.0430
 4366TIP3    H213105   3.316   5.163   1.292 -0.5916 -0.4460 -0.0273
 4367TIP3   OH213106   3.258   4.129   2.232  0.0647  0.5213  0.0930
 4367TIP3    H113107   3.266   4.084   2.315  0.2261 -0.6186 -0.5248
 4367TIP3    H213108   3.338   4.106   2.184 -1.0867 -0.8047 -1.2882
 4368TIP3   OH213109   0.421   5.300   2.542 -0.3599 -0.6676  0.1923
 4368TIP3    H113110   0.343   5.337   2.583 -0.7124 -2.4364  1.2139
 4368TIP3    H213111   0.460   5.373   2.494 -2.4734  0.3361 -0.1110
 4369TIP3   OH213112   2.874   4.006   4.125  0.5880  0.1163  0.1344
 4369TIP3    H113113   2.848   4.077   4.183  2.5028  0.0828  1.1257
 4369TIP3    H213114   2.865   3.927   4.178  1.0541 -0.0662 -0.0540
 4370TIP3   OH213115   4.614   4.484   2.058  0.2272  0.2191  0.6530
 4370TIP3    H113116   4.593   4.568   2.018  0.5032 -0.3097 -0.6610
 4370TIP3    H213117   4.563   4.420   2.008  0.0791 -0.4102  1.5799
 4371TIP3   OH213118   1.703   0.657   0.757  0.2017 -0.3965  0.4260
 4371TIP3    H113119   1.778   0.625   0.708  0.1767  1.4032 -0.8671
 4371TIP3    H213120   1.740   0.687   0.840  0.6691 -0.9299  0.4149
 4372TIP3   OH213121   0.340   1.336   3.775 -0.2786  0.1432 -0.1319
 4372TIP3    H113122   0.400   1.262   3.766 -0.4105  0.0142  0.0280
 4372TIP3    H213123   0.354   1.367   3.865 -1.3661 -0.7028  0.3567
 4373TIP3   OH213124   4.086   2.835   4.345  0.5505 -0.0220  0.2195
 4373TIP3    H113125   4.110   2.877   4.428  0.6022  1.8088 -0.6670
 4373TIP3    H213126   3.991   2.838   4.344  0.5677  0.5284 -0.0537
 4374TIP3   OH213127   6.117   1.853   1.799 -0.5334  0.0821 -0.5657
 4374TIP3    H113128   6.141   1.875   1.709 -2.1796  1.7198 -0.6691
 4374TIP3    H213129   6.192   1.880   1.852 -0.7110  1.9090 -1.1790
 4375TIP3   OH213130   5.677   1.651   4.946 -0.6286  0.3440 -0.4697
 4375TIP3    H113131   5.691   1.556   4.945  0.8752  0.5174  0.6712
 4375TIP3    H213132   5.737   1.685   4.879  1.3021  0.7116  1.3371
 4376TIP3   OH213133   0.656   5.716   2.345  0.2030 -0.1350 -0.4341
 4376TIP3    H113134   0.652   5.791   2.286 -0.2998 -0.0467 -0.2947
 4376TIP3    H213135   0.723   5.739   2.409  0.8906 -0.3122 -1.0767
 4377TIP3   OH213136   2.601   3.923   4.519 -0.8189  0.0815 -0.4121
 4377TIP3    H113137   2.545   3.902   4.445 -0.1153  0.6261 -1.1168
 4377TIP3    H213138   2.690   3.905   4.488 -0.6334 -1.7390  1.0208
 4378TIP3   OH213139   0.224   4.283   2.166 -0.2418  0.1311  0.7011
 4378TIP3    H113140   0.190   4.295   2.255  0.8794  0.7673  1.0521
 4378TIP3    H213141   0.280   4.205   2.172 -2.3257 -1.5402 -0.1035
 4379TIP3   OH213142   5.808   0.287   0.652 -0.1288  0.0226 -0.4295
 4379TIP3    H113143   5.743   0.235   0.700 -0.2121  1.9176  1.6512
 4379TIP3    H213144   5.888   0.278   0.704  0.2954  0.6418 -0.9625
 4380TIP3   OH213145   2.379   0.496   1.780 -0.2083  0.2311  0.1745
 4380TIP3    H113146   2.355   0.412   1.819  0.3907  0.0979  0.2740
 4380TIP3    H213147   2.467   0.513   1.814  0.1470  0.3324 -0.7744
 4381TIP3   OH213148   5.468   5.382   2.821  0.2682 -0.1534  0.1899
 4381TIP3    H113149   5.502   5.306   2.867  0.2796 -0.3665 -0.1725
 4381TIP3    H213150   5.427   5.435   2.889 -0.0849 -0.6706  0.3831
 4382TIP3   OH213151   5.764   4.581   3.733 -0.0961  0.3987 -0.7853
 4382TIP3    H113152   5.827   4.644   3.767 -0.7542  1.9166 -2.2065
 4382TIP3    H213153   5.774   4.504   3.788  1.5666  1.3251  0.2844
 4383TIP3   OH213154   1.073   1.845   4.005 -0.2336 -0.2974 -0.2662
 4383TIP3    H113155   1.007   1.827   3.938 -0.5813 -0.4487  0.1095
 4383TIP3    H213156   1.069   1.769   4.064 -0.3720  0.1194  0.2706
 4384TIP3   OH213157   5.915   4.426   3.521  0.0058 -0.1011  0.2153
 4384TIP3    H113158   5.951   4.476   3.595  1.6957 -0.5782 -0.2489
 4384TIP3    H213159   5.956   4.340   3.528 -2.6215 -1.3941  0.8079
 4385TIP3   OH213160   5.621   2.269   2.491  0.1682  0.1467  0.2095
 4385TIP3    H113161   5.552   2.322   2.451 -1.7667 -2.0625  0.4113
 4385TIP3    H213162   5.671   2.233   2.418 -0.5047 -0.2522 -0.0610
 4386TIP3   OH213163   4.971   5.424   3.435  0.0406 -0.0846 -0.5965
 4386TIP3    H113164   4.985   5.513   3.404 -0.7199  0.1922 -0.1746
 4386TIP3    H213165   4.928   5.379   3.362  1.9031 -0.6012 -1.4418
 4387TIP3   OH213166   5.423   5.584   3.061  0.3896 -0.4835  0.2133
 4387TIP3    H113167   5.402   5.660   3.115 -0.0558 -0.9522  0.7136
 4387TIP3    H213168   5.502   5.609   3.013  0.2121  0.3121  0.3298
 4388TIP3   OH213169   0.192   4.881   2.822  0.6933 -0.3745 -0.3901
 4388TIP3    H113170   0.225   4.956   2.872 -0.3882  0.3000 -0.6703
 4388TIP3    H213171   0.163   4.918   2.739 -0.7657 -0.9320 -0.1523
 4389TIP3   OH213172   0.148   4.800   4.457 -0.5116  0.2171  0.4834
 4389TIP3    H113173   0.118   4.891   4.457 -0.2991  0.2883  0.9235
 4389TIP3    H213174   0.206   4.794   4.532  3.1586  0.9409 -1.9935
 4390TIP3   OH213175   2.909   0.678   2.638  0.0933  0.7124  0.2388
 4390TIP3    H113176   2.876   0.628   2.713  2.2832  0.2249  0.9449
 4390TIP3    H213177   2.901   0.770   2.665  0.8935  0.5419  1.1188
 4391TIP3   OH213178   0.532   3.337   3.340  0.4319 -0.1663 -0.3803
 4391TIP3    H113179   0.569   3.259   3.382 -0.4085 -0.6358 -0.4824
 4391TIP3    H213180   0.455   3.358   3.393  1.3581  1.3860  0.4153
 4392TIP3   OH213181   5.345   1.980   3.233 -0.1782  0.5173 -0.5734
 4392TIP3    H113182   5.424   2.029   3.213 -0.3186  0.0406 -2.5259
 4392TIP3    H213183   5.276   2.024   3.183 -0.5343 -0.8820 -1.3756
 4393TIP3   OH213184   0.513   1.224   0.901 -0.3239  0.0256 -0.3608
 4393TIP3    H113185   0.587   1.275   0.936 -0.1841  0.6142 -1.4664
 4393TIP3    H213186   0.549   1.136   0.888 -0.5129 -0.3482  1.3759
 4394TIP3   OH213187   4.399   3.145   2.474  0.7891 -0.0158 -0.6989
 4394TIP3    H113188   4.370   3.058   2.445  0.0475 -0.0747  0.1965
 4394TIP3    H213189   4.491   3.134   2.497  0.1424 -1.1092  1.5267
 4395TIP3   OH213190   4.826   0.260   2.839 -0.0285  0.1592 -0.2868
 4395TIP3    H113191   4.827   0.313   2.919 -0.5961  2.0231 -1.4531
 4395TIP3    H213192   4.742   0.214   2.842 -0.6862  1.3120 -0.4618
 4396TIP3   OH213193   1.133   4.456   3.597  0.0203 -0.2921  0.6753
 4396TIP3    H113194   1.051   4.474   3.550 -0.6009  2.1421  2.5075
 4396TIP3    H213195   1.107   4.393   3.665 -0.6996  1.3937  2.0336
 4397TIP3   OH213196   5.195   2.171   2.485 -0.3379  0.4157 -0.3433
 4397TIP3    H113197   5.243   2.253   2.478  0.8486 -0.0187  1.9662
 4397TIP3    H213198   5.103   2.196   2.477  0.0821  1.7129 -1.3391
 4398TIP3   OH213199   4.049   5.314   1.895  0.0535  0.0156  0.5428
 4398TIP3    H113200   4.067   5.403   1.925  0.8046 -0.4407  1.5202
 4398TIP3    H213201   4.105   5.259   1.950  1.2968 -0.9131 -1.5309
 4399TIP3   OH213202   0.080   3.317   0.769 -0.0044 -0.0697  0.2149
 4399TIP3    H113203   0.035   3.332   0.686  0.5124 -1.6275 -0.3837
 4399TIP3    H213204   0.011   3.285   0.828 -0.7963  2.8684  1.0602
 4400TIP3   OH213205   1.884   1.540   3.365  0.0737 -0.0482  0.4978
 4400TIP3    H113206   1.805   1.594   3.375 -1.0530 -1.3111 -1.1035
 4400TIP3    H213207   1.854   1.461   3.320  2.5169  0.1537 -1.7220
 4401TIP3   OH213208   5.575   1.596   3.441  0.0833  0.3447  1.0415
 4401TIP3    H113209   5.591   1.608   3.348 -0.3133 -0.5676  0.8380
 4401TIP3    H213210   5.629   1.662   3.484  0.1048  0.9175  0.1598
 4402TIP3   OH213211   3.562   2.526   2.423 -0.4939  0.7018 -0.1898
 4402TIP3    H113212   3.602   2.530   2.510 -0.1511 -0.3382 -0.2851
 4402TIP3    H213213   3.469   2.543   2.439 -0.6650 -0.7182  0.5817
 4403TIP3   OH213214   3.340   5.732   2.594  0.3101 -0.2147  0.0100
 4403TIP3    H113215   3.303   5.652   2.555  1.8584  0.2389 -2.5837
 4403TIP3    H213216   3.418   5.702   2.640 -0.0734 -0.3929  0.5625
 4404TIP3   OH213217   0.401   4.423   2.016  0.4165  0.0312  0.6076
 4404TIP3    H113218   0.376   4.418   1.924  3.6153 -0.5436 -0.3580
 4404TIP3    H213219   0.330   4.380   2.063 -0.4502 -1.3159 -1.7950
 4405TIP3   OH213220   2.402   4.690   1.134 -0.2582  0.1367  0.2963
 4405TIP3    H113221   2.395   4.775   1.179 -1.3621  0.0599  0.2911
 4405TIP3    H213222   2.417   4.713   1.042 -0.0653  0.3214  0.3726
 4406TIP3   OH213223   6.096   3.877   2.298  0.0945 -0.1639  0.0944
 4406TIP3    H113224   6.186   3.847   2.289 -0.4014 -1.6656 -0.0078
 4406TIP3    H213225   6.058   3.821   2.365 -0.1908  1.8503  1.7376
 4407TIP3   OH213226   6.360   5.161   0.472  0.2940 -0.0040 -0.0022
 4407TIP3    H113227   6.377   5.196   0.560  0.0329  1.9312 -0.6671
 4407TIP3    H213228   6.271   5.190   0.452  1.5822  2.8945 -2.2982
 4408TIP3   OH213229   1.547   0.264   3.876  0.8254 -0.2381  0.3506
 4408TIP3    H113230   1.535   0.229   3.965  0.3889  1.5602  1.0508
 4408TIP3    H213231   1.501   0.202   3.820 -0.8655 -0.2487  1.6479
 4409TIP3   OH213232   0.638   5.454   1.053 -0.1811 -0.2787 -0.0389
 4409TIP3    H113233   0.728   5.441   1.021 -0.1117 -0.2277  0.1329
 4409TIP3    H213234   0.585   5.461   0.974 -0.1970 -1.4392 -0.1429
 4410TIP3   OH213235   4.272   4.087   1.738 -0.1630 -0.7029  0.2034
 4410TIP3    H113236   4.227   4.029   1.676  0.1775  1.3245 -2.1264
 4410TIP3    H213237   4.234   4.173   1.722  1.8115  0.3754  0.9239
 4411TIP3   OH213238   3.264   5.044   4.916 -0.7284  0.0148  0.3020
 4411TIP3    H113239   3.224   5.125   4.948 -0.4320  0.7926 -1.2062
 4411TIP3    H213240   3.192   4.980   4.916 -1.5647  0.9082 -0.6684
 4412TIP3   OH213241   4.499   3.851   0.552  0.1629 -0.0404  0.2299
 4412TIP3    H113242   4.547   3.912   0.609 -0.0849  0.0870  0.3036
 4412TIP3    H213243   4.420   3.899   0.527 -1.4965 -1.3272  2.6162
 4413TIP3   OH213244   2.361   2.333   3.076  0.2207 -0.2716 -0.2295
 4413TIP3    H113245   2.346   2.255   3.130 -0.4527  0.8479  1.2782
 4413TIP3    H213246   2.305   2.400   3.116  3.0742  1.8613  0.4924
 4414TIP3   OH213247   2.725   2.076   4.823  0.0961 -0.0347  0.6810
 4414TIP3    H113248   2.693   1.989   4.849  1.0466 -1.2771 -1.9594
 4414TIP3    H213249   2.767   2.111   4.902 -0.9745 -1.6308  2.0249
 4415TIP3   OH213250   4.026   2.523   0.926  1.3582  0.0144  0.5912
 4415TIP3    H113251   4.067   2.449   0.881 -0.3366 -0.1398 -0.7934
 4415TIP3    H213252   4.088   2.595   0.915  1.3467 -0.2152 -1.4297
 4416TIP3   OH213253   3.390   2.878   0.142 -0.5237 -0.5302  0.2150
 4416TIP3    H113254   3.361   2.798   0.186  0.6391  0.2501  2.6389
 4416TIP3    H213255   3.485   2.867   0.133 -0.1687  0.9135  1.5734
 4417TIP3   OH213256   5.889   2.578   1.699  0.1907  0.8175  0.2030
 4417TIP3    H113257   5.948   2.641   1.742  0.0793  0.7151  0.5093
 4417TIP3    H213258   5.942   2.541   1.628  0.3403  1.0717  0.1798
 4418TIP3   OH213259   2.031   4.605   5.115 -0.0222 -0.4379  0.0392
 4418TIP3    H113260   2.105   4.557   5.076  2.1152  1.8313  1.0676
 4418TIP3    H213261   1.968   4.614   5.043  1.1990 -1.4039 -1.2112
 4419TIP3   OH213262   1.827   3.900   3.113  0.2519 -0.7066  0.4587
 4419TIP3    H113263   1.806   3.963   3.182 -0.0006 -0.1510 -0.1123
 4419TIP3    H213264   1.844   3.954   3.036  1.9219 -1.2504  0.4198
 4420TIP3   OH213265   1.365   4.096   5.057  1.0542 -0.0795  1.0145
 4420TIP3    H113266   1.427   4.077   4.988  2.0460  0.9698  1.5767
 4420TIP3    H213267   1.320   4.176   5.029 -1.1084 -1.5504 -0.0445
 4421TIP3   OH213268   5.410   1.931   1.364 -0.0986  0.3200 -0.0283
 4421TIP3    H113269   5.320   1.920   1.333  0.0001  1.0841 -0.6124
 4421TIP3    H213270   5.427   2.025   1.356 -0.3016  0.7198  2.9907
 4422TIP3   OH213271   5.609   3.857   0.465 -0.1603 -0.3101  0.4960
 4422TIP3    H113272   5.589   3.882   0.556  0.4274 -0.7232  0.7481
 4422TIP3    H213273   5.549   3.909   0.412 -0.3659  0.0970  1.1147
 4423TIP3   OH213274   5.613   4.176   4.310 -0.5470 -0.1205 -0.4293
 4423TIP3    H113275   5.548   4.169   4.241 -0.3692 -0.6253 -0.5491
 4423TIP3    H213276   5.650   4.088   4.317  1.7082  0.6170 -1.9115
 4424TIP3   OH213277   0.775   5.646   0.343 -0.0456 -0.1768  0.2294
 4424TIP3    H113278   0.834   5.706   0.297  0.2394  0.8241  1.8547
 4424TIP3    H213279   0.766   5.572   0.282  2.4596 -0.1431 -0.3147
 4425TIP3   OH213280   1.250   4.020   4.501  0.0204  0.4751 -0.3898
 4425TIP3    H113281   1.243   3.989   4.592  0.6516  3.0307  0.6113
 4425TIP3    H213282   1.168   4.066   4.485  0.7436  1.8518 -0.3192
 4426TIP3   OH213283   4.244   4.332   4.296  0.2411  0.4079 -0.3061
 4426TIP3    H113284   4.186   4.373   4.231  0.3871 -0.3537 -0.9234
 4426TIP3    H213285   4.323   4.310   4.247  0.1822 -0.5766  0.0207
 4427TIP3   OH213286   4.218   3.814   1.943  0.2835 -0.3715 -0.1324
 4427TIP3    H113287   4.257   3.734   1.907 -1.0921  0.0768 -2.8723
 4427TIP3    H213288   4.138   3.784   1.987  0.3610 -0.6091 -0.1482
 4428TIP3   OH213289   1.787   3.713   2.884  0.3773  0.9931  0.1842
 4428TIP3    H113290   1.859   3.749   2.831  1.3229 -2.1187 -0.8192
 4428TIP3    H213291   1.795   3.758   2.969  3.1134  1.2225 -0.1204
 4429TIP3   OH213292   4.538   1.150   0.795 -0.8339 -0.2716  0.0725
 4429TIP3    H113293   4.551   1.074   0.851  2.2778  0.1748  0.0907
 4429TIP3    H213294   4.594   1.218   0.833  0.4521  0.4370 -2.8267
 4430TIP3   OH213295   5.085   0.749   4.151 -0.5587  0.0804 -0.8246
 4430TIP3    H113296   5.157   0.689   4.132 -0.0638  0.6781 -0.8871
 4430TIP3    H213297   5.024   0.698   4.203 -0.2638 -0.5472 -1.0813
 4431TIP3   OH213298   2.807   4.608   3.959  0.5729  0.2402 -0.2590
 4431TIP3    H113299   2.759   4.560   3.892 -1.3718  0.7977  0.6753
 4431TIP3    H213300   2.855   4.675   3.911 -0.4766  0.3817 -1.1356
 4432TIP3   OH213301   1.403   4.162   2.180 -0.1789 -0.1251  0.1613
 4432TIP3    H113302   1.441   4.156   2.092 -1.6988 -0.8023 -0.4708
 4432TIP3    H213303   1.470   4.123   2.237  0.3068 -0.8129 -0.8428
 4433TIP3   OH213304   0.439   5.869   1.897  0.6443  0.0667  0.3901
 4433TIP3    H113305   0.512   5.923   1.868  0.3498  0.4838  0.4180
 4433TIP3    H213306   0.432   5.799   1.832 -0.6658  1.5602 -1.1507
 4434TIP3   OH213307   0.247   0.437   0.624 -0.5570 -0.0220  0.6242
 4434TIP3    H113308   0.196   0.358   0.608  1.1491 -1.3428  1.4195
 4434TIP3    H213309   0.310   0.440   0.552 -1.2532  1.2069  0.0360
 4435TIP3   OH213310   1.761   0.152   2.512  0.1463  0.2180  0.3606
 4435TIP3    H113311   1.830   0.174   2.450  1.6256 -0.6152  1.6285
 4435TIP3    H213312   1.729   0.237   2.543 -0.3311  0.6350 -1.1942
 4436TIP3   OH213313   5.750   3.874   4.162  0.0389  0.5348 -0.9190
 4436TIP3    H113314   5.803   3.826   4.225  0.9049 -1.1237 -2.7833
 4436TIP3    H213315   5.660   3.855   4.187  0.2230  2.6833  1.7792
 4437TIP3   OH213316   5.993   1.371   0.382  0.1576 -0.1211 -0.3846
 4437TIP3    H113317   5.957   1.284   0.400  0.5961 -0.0200  1.1415
 4437TIP3    H213318   5.920   1.431   0.396  0.1280 -0.1639 -0.3557
 4438TIP3   OH213319   4.451   3.622   3.965 -0.1949 -0.5705  0.1941
 4438TIP3    H113320   4.426   3.656   4.051  1.7441  0.3194  0.4590
 4438TIP3    H213321   4.456   3.527   3.977 -1.8208 -0.6459  0.5068
 4439TIP3   OH213322   0.640   2.734   3.027 -0.2070  0.3365 -0.1432
 4439TIP3    H113323   0.563   2.687   2.995  0.1119 -1.0983  1.0658
 4439TIP3    H213324   0.637   2.723   3.122  1.6478 -0.0082 -0.0859
 4440TIP3   OH213325   1.397   0.834   2.757 -0.2467  0.1643  0.0969
 4440TIP3    H113326   1.460   0.828   2.685 -1.1906 -0.5554 -0.6864
 4440TIP3    H213327   1.394   0.745   2.793 -1.3132  0.0174 -0.3222
 4441TIP3   OH213328   0.470   4.143   4.238 -0.0633 -0.4376 -0.1743
 4441TIP3    H113329   0.497   4.065   4.288 -0.5866 -0.4381  0.1239
 4441TIP3    H213330   0.537   4.208   4.258  0.5958 -0.9305 -0.7404
 4442TIP3   OH213331   6.150   4.430   4.620 -0.7820  0.6116 -0.0168
 4442TIP3    H113332   6.196   4.389   4.547 -0.9589  0.9896 -0.3417
 4442TIP3    H213333   6.079   4.480   4.579 -1.2080  0.3979  0.4467
 4443TIP3   OH213334   3.745   4.461   4.197 -0.5797 -0.1656  0.3773
 4443TIP3    H113335   3.772   4.376   4.162 -0.2183  0.5417 -1.1418
 4443TIP3    H213336   3.749   4.520   4.122  0.1238  1.4142  1.5923
 4444TIP3   OH213337   3.466   4.681   1.630  0.1093  0.0319  0.1169
 4444TIP3    H113338   3.519   4.606   1.604 -0.2055 -0.7516  1.5819
 4444TIP3    H213339   3.486   4.693   1.723 -0.5392  1.1870  0.1231
 4445TIP3   OH213340   3.990   2.182   0.155  0.1270  0.1319 -0.2708
 4445TIP3    H113341   3.946   2.253   0.107  2.2731  1.7103 -0.0599
 4445TIP3    H213342   4.008   2.116   0.088 -1.8766 -0.2705 -0.4782
 4446TIP3   OH213343   5.084   1.348   1.323  0.7048 -0.2372  0.2097
 4446TIP3    H113344   5.170   1.311   1.341  1.4523  1.8832  1.3258
 4446TIP3    H213345   5.097   1.401   1.244  1.3825  2.8097  2.2263
 4447TIP3   OH213346   0.787   4.075   4.867  0.3889  0.0928 -0.0901
 4447TIP3    H113347   0.693   4.092   4.856  0.3861  1.1696  1.2996
 4447TIP3    H213348   0.791   3.992   4.914  0.1361  0.0845 -0.0819
 4448TIP3   OH213349   3.634   0.576   2.404  0.0636 -0.4300  0.2276
 4448TIP3    H113350   3.717   0.530   2.415  1.1878  1.1593 -1.0805
 4448TIP3    H213351   3.586   0.524   2.339 -0.6867 -2.1877  2.0811
 4449TIP3   OH213352   0.617   5.377   3.952  0.3059 -0.3399 -0.2186
 4449TIP3    H113353   0.679   5.308   3.973 -0.8517 -1.2841  0.1751
 4449TIP3    H213354   0.649   5.413   3.869  2.6225  0.7109  1.0382
 4450TIP3   OH213355   5.510   4.635   0.510 -0.3861  0.2023 -0.2234
 4450TIP3    H113356   5.597   4.674   0.501  0.3018 -1.3341 -0.7152
 4450TIP3    H213357   5.454   4.706   0.540  1.3337  0.9113  1.5124
 4451TIP3   OH213358   2.589   5.654   2.396 -0.4630  0.1461 -0.2617
 4451TIP3    H113359   2.559   5.570   2.430  0.7110 -0.3062 -0.2789
 4451TIP3    H213360   2.534   5.670   2.319  0.6626 -1.6825 -1.5381
 4452TIP3   OH213361   0.109   1.486   1.154 -0.4813 -0.0830 -0.0167
 4452TIP3    H113362   0.067   1.420   1.098 -0.8412 -0.1733  0.3568
 4452TIP3    H213363   0.144   1.437   1.228 -2.3945  0.3234  1.2454
 4453TIP3   OH213364   1.316   3.279   4.805 -0.2362 -0.1749  0.4920
 4453TIP3    H113365   1.268   3.249   4.728 -0.3796  1.1380  0.0497
 4453TIP3    H213366   1.268   3.242   4.879 -0.4965 -0.8802 -0.0244
 4454TIP3   OH213367   2.341   2.869   3.747  0.1679  0.4815 -0.3337
 4454TIP3    H113368   2.349   2.838   3.657 -0.4108 -4.0503  0.9414
 4454TIP3    H213369   2.251   2.901   3.754 -0.9179 -2.1924 -0.7296
 4455TIP3   OH213370   3.451   1.421   4.418 -0.8715  0.5228 -0.5852
 4455TIP3    H113371   3.397   1.362   4.470 -1.1666  0.3512 -1.0918
 4455TIP3    H213372   3.501   1.364   4.360  1.6089  0.4361  1.4027
 4456TIP3   OH213373   0.761   5.750   2.032 -0.2558  0.2905  0.1580
 4456TIP3    H113374   0.843   5.706   2.011 -1.0699 -1.4063  0.3833
 4456TIP3    H213375   0.784   5.809   2.104  1.2158  1.5902 -1.2831
 4457TIP3   OH213376   3.591   1.547   1.045 -0.0612  0.5112  0.2574
 4457TIP3    H113377   3.502   1.547   1.080 -0.1539  0.9727  0.0359
 4457TIP3    H213378   3.618   1.455   1.047 -0.7615  0.2871 -0.2308
 4458TIP3   OH213379   3.704   3.557   0.518 -0.3011  0.4095  0.3695
 4458TIP3    H113380   3.676   3.490   0.455  0.3685  0.5803 -0.1255
 4458TIP3    H213381   3.771   3.513   0.571  1.0103  1.0047 -0.7291
 4459TIP3   OH213382   3.839   2.045   4.360  0.4347  0.5468 -0.0546
 4459TIP3    H113383   3.764   2.060   4.303  0.1679  0.0819  0.1662
 4459TIP3    H213384   3.914   2.046   4.302  0.4613  2.8310 -0.0448
 4460TIP3   OH213385   3.437   2.100   2.049 -0.2325 -0.0814  0.4719
 4460TIP3    H113386   3.522   2.136   2.024  0.2113 -0.5732  1.2459
 4460TIP3    H213387   3.418   2.140   2.134 -0.7335 -0.0509  0.3505
 4461TIP3   OH213388   1.215   3.972   4.795 -0.5244  0.0553 -0.4775
 4461TIP3    H113389   1.304   4.005   4.805 -0.5644  0.1590 -0.4633
 4461TIP3    H213390   1.190   3.942   4.883 -0.3172 -0.4495 -0.5871
 4462TIP3   OH213391   1.792   1.949   3.336 -0.2927 -0.4191  0.7674
 4462TIP3    H113392   1.878   1.907   3.341  0.1514  0.3634  0.0169
 4462TIP3    H213393   1.778   1.961   3.242 -2.9754 -4.0465  0.5075
 4463TIP3   OH213394   3.079   4.537   0.939  0.2160  0.3441  0.1304
 4463TIP3    H113395   3.051   4.627   0.958 -0.5305 -0.0349  0.8590
 4463TIP3    H213396   3.086   4.535   0.843  1.1554  1.4339  0.1564
 4464TIP3   OH213397   1.854   1.582   0.093 -0.4664 -0.0044  0.0020
 4464TIP3    H113398   1.825   1.507   0.041 -0.0582 -0.8681  0.9715
 4464TIP3    H213399   1.922   1.624   0.040  0.2085 -1.0859 -0.0287
 4465TIP3   OH213400   0.297   2.489   4.004 -0.0197 -0.0407 -0.4709
 4465TIP3    H113401   0.234   2.466   3.936 -0.5479  0.2484 -0.0794
 4465TIP3    H213402   0.349   2.409   4.016  1.1799  0.3757 -2.3807
 4466TIP3   OH213403   4.062   5.389   0.597 -0.2069 -0.3128  0.8668
 4466TIP3    H113404   3.970   5.378   0.624 -0.9136 -0.5719 -1.3991
 4466TIP3    H213405   4.067   5.343   0.513  2.3841 -1.5189  1.5893
 4467TIP3   OH213406   3.963   0.817   2.431  0.1989 -0.2746  0.8097
 4467TIP3    H113407   4.035   0.758   2.411  0.5964  0.3372  0.3831
 4467TIP3    H213408   4.006   0.901   2.452 -0.4026  0.3005 -0.1966
 4468TIP3   OH213409   2.370   4.318   4.450  0.4308  0.4133  0.1267
 4468TIP3    H113410   2.368   4.386   4.382 -0.3543  0.6137  0.3358
 4468TIP3    H213411   2.305   4.254   4.421  2.6513 -1.3923 -1.1861
 4469TIP3   OH213412   0.185   4.306   4.037 -0.1346  0.0727 -0.2966
 4469TIP3    H113413   0.090   4.296   4.023 -0.1032  0.1963 -0.6136
 4469TIP3    H213414   0.211   4.373   3.974  0.3732 -0.8147 -1.0536
 4470TIP3   OH213415   4.150   3.472   4.706  0.3719  0.2480 -0.0824
 4470TIP3    H113416   4.101   3.551   4.685 -0.5659 -0.4530 -0.6033
 4470TIP3    H213417   4.233   3.504   4.741 -0.0988  1.4563 -0.0238
 4471TIP3   OH213418   3.540   1.232   1.115 -0.3456  0.0126  0.2312
 4471TIP3    H113419   3.524   1.190   1.199  2.3877 -1.6515  0.0143
 4471TIP3    H213420   3.631   1.260   1.118 -0.9391  2.4335 -1.1824
 4472TIP3   OH213421   0.687   5.631   4.035 -0.3612 -0.1303  0.0574
 4472TIP3    H113422   0.781   5.625   4.050 -0.3716 -2.3807 -0.3841
 4472TIP3    H213423   0.656   5.541   4.040 -2.5629  0.5721  0.4721
 4473TIP3   OH213424   3.044   0.845   3.347  0.2592 -0.1980  0.2547
 4473TIP3    H113425   3.021   0.760   3.384  4.5761 -0.9448  1.8181
 4473TIP3    H213426   3.026   0.837   3.253 -3.2143 -1.2387  0.8840
 4474TIP3   OH213427   1.810   3.909   2.120  0.3207  0.0993  0.2700
 4474TIP3    H113428   1.734   3.933   2.066 -1.4350 -1.5179  1.8731
 4474TIP3    H213429   1.855   3.842   2.069 -0.6228 -0.5270  0.2309
 4475TIP3   OH213430   6.065   4.579   3.680  0.0790  0.0827 -0.0310
 4475TIP3    H113431   6.149   4.581   3.726 -0.1200 -0.8111  0.3885
 4475TIP3    H213432   6.033   4.669   3.685  1.9670  0.9592 -2.0366
 4476TIP3   OH213433   2.065   1.791   4.771  0.2375  0.1978 -0.4382
 4476TIP3    H113434   2.072   1.782   4.676  0.1115 -0.8055 -0.3625
 4476TIP3    H213435   2.046   1.702   4.803  0.7330  0.4282  0.5640
 4477TIP3   OH213436   5.763   2.651   0.160  0.0729  0.8768  0.4516
 4477TIP3    H113437   5.683   2.699   0.140 -0.2561 -0.1329 -0.7619
 4477TIP3    H213438   5.825   2.679   0.092 -0.2396 -0.6364 -0.5138
 4478TIP3   OH213439   4.471   1.411   2.876  0.0481 -0.0761  0.1374
 4478TIP3    H113440   4.564   1.390   2.882 -0.1214 -1.1037 -0.6515
 4478TIP3    H213441   4.447   1.392   2.785 -0.7580  0.9418  0.1087
 4479TIP3   OH213442   0.584   0.820   2.496 -0.4656 -0.0115 -0.5298
 4479TIP3    H113443   0.612   0.745   2.549 -0.9413 -0.1583 -0.4829
 4479TIP3    H213444   0.496   0.797   2.465 -0.6509  0.5560 -0.4482
 4480TIP3   OH213445   2.154   2.193   3.405  0.3449  0.4436  0.2484
 4480TIP3    H113446   2.078   2.243   3.374 -0.1000 -1.3992 -1.8881
 4480TIP3    H213447   2.126   2.156   3.489 -1.1891 -0.2192 -0.5158
 4481TIP3   OH213448   2.718   1.194   2.760 -0.3966 -0.1525 -0.3456
 4481TIP3    H113449   2.635   1.146   2.761  0.1809 -1.1888  0.8367
 4481TIP3    H213450   2.716   1.247   2.840 -0.2116  0.3540 -0.6731
 4482TIP3   OH213451   4.258   4.449   3.856  0.5240  0.0970 -0.2638
 4482TIP3    H113452   4.206   4.470   3.934 -1.4641 -0.9794 -1.2129
 4482TIP3    H213453   4.282   4.357   3.867  0.9289  0.1650 -0.5503
 4483TIP3   OH213454   2.653   2.529   3.995 -0.1611  0.1840  0.2404
 4483TIP3    H113455   2.736   2.536   3.949  0.4688 -0.1134  1.3064
 4483TIP3    H213456   2.642   2.436   4.012 -0.3657  0.2962  0.7379
 4484TIP3   OH213457   3.158   0.909   3.672  0.0430  0.4883 -0.2607
 4484TIP3    H113458   3.088   0.970   3.696 -0.2157  0.1808 -0.2163
 4484TIP3    H213459   3.122   0.860   3.598  0.1995  0.3072 -0.2175
 4485TIP3   OH213460   3.633   3.949   5.034 -0.5523 -0.1767 -0.3977
 4485TIP3    H113461   3.640   3.863   5.075 -0.5597 -0.5550 -1.1818
 4485TIP3    H213462   3.663   3.936   4.944  1.8677  1.1764  0.1321
 4486TIP3   OH213463   2.377   3.922   1.648 -0.5261  0.1830  0.5039
 4486TIP3    H113464   2.468   3.936   1.621 -0.8384 -0.3073 -0.8846
 4486TIP3    H213465   2.383   3.863   1.723  0.3925  1.7426  1.7047
 4487TIP3   OH213466   5.436   2.734   3.011  0.2948  0.3401  0.8305
 4487TIP3    H113467   5.448   2.663   2.948 -1.2645  1.0303 -0.2878
 4487TIP3    H213468   5.430   2.813   2.957 -2.1922  0.8287  1.6938
 4488TIP3   OH213469   1.873   1.634   1.767 -0.2164 -0.0537  0.2573
 4488TIP3    H113470   1.789   1.661   1.731  0.1131 -0.7429 -1.1113
 4488TIP3    H213471   1.866   1.650   1.861 -1.7826  0.1041  0.1286
 4489TIP3   OH213472   2.273   5.238   2.772  0.8122 -0.1935 -0.3182
 4489TIP3    H113473   2.315   5.164   2.729 -0.0245 -0.6690 -0.3358
 4489TIP3    H213474   2.195   5.256   2.718 -1.3694 -2.0539  1.9610
 4490TIP3   OH213475   2.332   3.798   4.982  0.1505 -0.2338 -0.9566
 4490TIP3    H113476   2.380   3.774   5.061 -1.2517 -1.4156 -0.4121
 4490TIP3    H213477   2.303   3.714   4.945 -1.2763  0.3992 -1.3661
 4491TIP3   OH213478   1.107   2.807   3.154  0.2191  0.1244  0.5358
 4491TIP3    H113479   1.028   2.800   3.100  0.2583  1.6416  0.2069
 4491TIP3    H213480   1.143   2.719   3.156 -0.2369 -0.1492 -1.2619
 4492TIP3   OH213481   4.278   0.007   3.956  0.6245 -0.0228  0.1432
 4492TIP3    H113482   4.220  -0.068   3.946 -0.6716  0.7351  1.5446
 4492TIP3    H213483   4.220   0.081   3.973  1.9419  1.0127  0.3317
 4493TIP3   OH213484   2.007   0.880   1.173  0.3048  0.1018  0.2330
 4493TIP3    H113485   2.011   0.970   1.206  0.6002  0.4939 -0.8571
 4493TIP3    H213486   2.081   0.836   1.214 -0.6363 -0.0489  1.8826
 4494TIP3   OH213487   2.046   1.678   2.175  0.2142  0.4194 -0.6759
 4494TIP3    H113488   2.034   1.593   2.216  0.6494  0.8601  0.3853
 4494TIP3    H213489   2.116   1.663   2.110  0.5142  0.0448 -0.2707
 4495TIP3   OH213490   4.781   5.627   0.518 -0.2850 -0.6411 -0.3280
 4495TIP3    H113491   4.748   5.544   0.552 -1.0284 -0.3434 -0.2976
 4495TIP3    H213492   4.833   5.603   0.441 -0.2633 -1.1568 -0.1538
 4496TIP3   OH213493   0.941   3.672   1.806  0.0127  0.6638  0.2112
 4496TIP3    H113494   0.922   3.586   1.769 -0.1599  0.4519  0.7799
 4496TIP3    H213495   0.970   3.654   1.895 -2.8475  1.3416  1.3970
 4497TIP3   OH213496   3.385   4.247   0.729 -0.6228 -0.0197 -0.3136
 4497TIP3    H113497   3.328   4.169   0.729 -0.4477 -0.1552  0.4181
 4497TIP3    H213498   3.467   4.216   0.768  0.6121 -0.2680 -2.9031
 4498TIP3   OH213499   2.935   3.845   2.466 -0.0309  0.7630 -0.3088
 4498TIP3    H113500   2.892   3.760   2.460  0.3462  0.6089 -0.9651
 4498TIP3    H213501   2.993   3.837   2.542  0.9000  0.0016 -1.0762
 4499TIP3   OH213502   1.069   2.120   1.120  0.5739 -0.0811 -0.2981
 4499TIP3    H113503   1.048   2.126   1.213 -0.1994  0.8282 -0.5262
 4499TIP3    H213504   1.152   2.072   1.118 -0.6986 -2.5061  0.7047
 4500TIP3   OH213505   2.403   5.337   0.103 -0.0475 -0.2320  0.1462
 4500TIP3    H113506   2.392   5.351   0.009  0.7587  0.3643  0.1328
 4500TIP3    H213507   2.393   5.242   0.115  0.2603 -0.3630 -0.6049
 4501TIP3   OH213508   0.740   5.660   3.568  0.1563 -0.8074  0.4955
 4501TIP3    H113509   0.653   5.652   3.528  0.3053  0.0774 -0.0264
 4501TIP3    H213510   0.742   5.749   3.603  1.5637 -0.0875 -1.2533
 4502TIP3   OH213511   5.198   5.188   0.281 -0.7659  0.1613 -0.1718
 4502TIP3    H113512   5.207   5.222   0.370 -1.0216  0.3937 -0.2303
 4502TIP3    H213513   5.184   5.094   0.292  0.3486  0.0092 -0.0253
 4503TIP3   OH213514   2.262   3.946   2.015 -0.0454  0.0956  0.2860
 4503TIP3    H113515   2.248   4.020   1.955 -0.7686  0.5352  0.9873
 4503TIP3    H213516   2.355   3.951   2.036 -0.2331  1.2942  0.9429
 4504TIP3   OH213517   1.624   0.099   0.025 -0.5849 -0.3947 -0.1156
 4504TIP3    H113518   1.615   0.188   0.058 -0.9433 -0.1019 -0.9535
 4504TIP3    H213519   1.699   0.063   0.071 -0.4397  0.3410  0.2377
 4505TIP3   OH213520   6.128   2.088   4.644 -0.1956  0.2399 -0.5234
 4505TIP3    H113521   6.085   2.173   4.643  1.4950  1.1452 -0.1657
 4505TIP3    H213522   6.066   2.029   4.601 -1.1273  1.7897 -1.3935
 4506TIP3   OH213523   1.291   4.771   3.958  0.4906 -0.0388 -0.2489
 4506TIP3    H113524   1.222   4.719   3.999  0.1376  0.2723 -0.4411
 4506TIP3    H213525   1.250   4.808   3.880  0.4262  1.3126  0.3879
 4507TIP3   OH213526   6.233   0.895   3.551  0.3348  0.4455  0.1515
 4507TIP3    H113527   6.292   0.970   3.547  1.0285 -0.0186  1.3023
 4507TIP3    H213528   6.284   0.826   3.594 -0.7363 -0.2471  0.3538
 4508TIP3   OH213529   0.977   3.638   4.596 -0.3436  0.4523  0.0499
 4508TIP3    H113530   1.070   3.634   4.617 -0.3501 -1.2891 -0.1136
 4508TIP3    H213531   0.933   3.609   4.675 -0.7001  0.4050 -0.1632
 4509TIP3   OH213532   6.064   0.535   1.647 -0.7335  0.7834 -0.5612
 4509TIP3    H113533   6.042   0.553   1.738  2.2935 -1.0849  0.6919
 4509TIP3    H213534   6.143   0.587   1.631 -0.6395  0.2895 -1.7933
 4510TIP3   OH213535   2.909   2.094   1.945 -0.4466 -0.2182 -0.2559
 4510TIP3    H113536   2.857   2.042   2.007  0.6642 -0.9772  0.0704
 4510TIP3    H213537   2.848   2.159   1.912 -1.2776 -0.2615  1.0895
 4511TIP3   OH213538   5.221   4.122   0.309  0.1838  0.6908 -0.0310
 4511TIP3    H113539   5.237   4.031   0.334  1.4433  0.3743 -1.8063
 4511TIP3    H213540   5.139   4.145   0.354 -1.5502 -2.1150 -1.4671
 4512TIP3   OH213541   4.170   5.292   4.635 -0.3616 -0.6610  0.2952
 4512TIP3    H113542   4.216   5.299   4.552 -2.0569 -0.1735 -0.6384
 4512TIP3    H213543   4.079   5.311   4.615 -0.7013  0.3219  2.4187
 4513TIP3   OH213544   5.146   1.671   2.102  0.2624  0.1520 -0.0378
 4513TIP3    H113545   5.236   1.686   2.131  0.6175 -1.0684 -0.4541
 4513TIP3    H213546   5.119   1.754   2.064  1.1845  0.5542  0.1627
 4514TIP3   OH213547   1.367   5.345   0.706  0.2419  0.2238 -0.7288
 4514TIP3    H113548   1.348   5.439   0.712  2.6164  0.7380 -0.2255
 4514TIP3    H213549   1.416   5.335   0.624 -0.3148 -0.6616 -0.9729
 4515TIP3   OH213550   5.977   0.842   4.247  0.6016 -0.2161 -0.3376
 4515TIP3    H113551   5.891   0.866   4.212  1.1934 -2.3140 -3.7865
 4515TIP3    H213552   6.023   0.925   4.259 -1.6007  0.8901  0.8199
 4516TIP3   OH213553   0.378   4.011   1.926  0.6885 -0.4256 -0.1227
 4516TIP3    H113554   0.416   3.943   1.870  3.0069  0.3438  0.4063
 4516TIP3    H213555   0.444   4.026   1.994 -1.0403  0.3106  1.4812
 4517TIP3   OH213556   3.910   5.657   1.105  0.0684 -0.5720 -0.2432
 4517TIP3    H113557   3.853   5.590   1.143 -0.4065  0.1601  0.3645
 4517TIP3    H213558   3.900   5.732   1.162  0.3483  0.1325 -1.0989
 4518TIP3   OH213559   1.833   3.666   1.413  0.3081 -0.3062 -0.0818
 4518TIP3    H113560   1.788   3.584   1.396 -1.3704  0.5866 -0.1972
 4518TIP3    H213561   1.808   3.724   1.341  0.8177  0.5575  0.4064
 4519TIP3   OH213562   4.233   4.964   2.324  0.6439 -0.4608 -0.2408
 4519TIP3    H113563   4.248   4.960   2.419  1.2126 -0.7252 -0.3377
 4519TIP3    H213564   4.256   4.877   2.292  1.7140  0.0031 -0.7914
 4520TIP3   OH213565   3.209   2.233   1.297 -0.1905  0.3667  0.0049
 4520TIP3    H113566   3.186   2.142   1.279  0.4697  0.4473 -1.3759
 4520TIP3    H213567   3.248   2.232   1.385  0.0910 -0.7288 -0.1271
 4521TIP3   OH213568   1.755   2.651   3.683  0.1624  0.4669 -0.2371
 4521TIP3    H113569   1.811   2.587   3.728 -1.2089  0.2248  1.2277
 4521TIP3    H213570   1.798   2.735   3.697  0.6362  0.1749  0.0683
 4522TIP3   OH213571   2.274   2.583   4.649 -0.2651 -0.6888 -0.7315
 4522TIP3    H113572   2.233   2.526   4.715 -0.7248 -0.8763 -1.1637
 4522TIP3    H213573   2.257   2.672   4.680 -0.5479 -0.7745 -0.6351
 4523TIP3   OH213574   5.543   4.103   3.108 -0.3788  0.1138  0.4257
 4523TIP3    H113575   5.587   4.022   3.080 -2.0655 -0.9172  0.6570
 4523TIP3    H213576   5.468   4.111   3.050  0.4792  2.2828 -0.4845
 4524TIP3   OH213577   4.305   5.326   4.854 -0.3039  0.4876 -0.0653
 4524TIP3    H113578   4.262   5.284   4.779 -0.7141  0.4457  0.1898
 4524TIP3    H213579   4.273   5.416   4.853 -1.1992  0.2069  0.7032
 4525TIP3   OH213580   2.020   0.625   0.757  0.2265 -0.1659 -0.0986
 4525TIP3    H113581   2.066   0.708   0.752  0.6280 -0.3545  0.4337
 4525TIP3    H213582   2.014   0.596   0.666  0.5929  0.1674 -0.2314
 4526TIP3   OH213583   0.933   3.718   3.576  0.6164  0.4484 -0.1594
 4526TIP3    H113584   0.917   3.744   3.667 -0.1378 -0.2241 -0.0874
 4526TIP3    H213585   0.867   3.651   3.559  0.8056  0.5159 -1.1814
 4527TIP3   OH213586   4.422   1.948   0.331 -0.0303  0.2776 -0.0009
 4527TIP3    H113587   4.463   2.021   0.378  0.4014 -0.2764  0.4849
 4527TIP3    H213588   4.413   1.879   0.396 -0.1904 -0.2056 -0.5279
 4528TIP3   OH213589   1.828   2.336   3.569  0.1533 -0.0521  0.2201
 4528TIP3    H113590   1.829   2.359   3.662  0.2608 -0.3098  0.2819
 4528TIP3    H213591   1.825   2.241   3.567  2.0567 -0.1321 -0.0464
 4529TIP3   OH213592   5.306   5.106   3.405 -0.1004 -0.1340  0.0868
 4529TIP3    H113593   5.310   5.014   3.433 -2.1142 -0.7699 -1.4551
 4529TIP3    H213594   5.267   5.103   3.318  3.4378  1.9381 -1.8048
 4530TIP3   OH213595   0.538   3.667   0.462  0.0685 -0.3660 -0.0666
 4530TIP3    H113596   0.487   3.668   0.543  0.8098 -2.2497  0.4794
 4530TIP3    H213597   0.490   3.607   0.405 -0.0655  0.3999 -0.7736
 4531TIP3   OH213598   6.051   5.926   1.293 -0.6340 -0.1260  0.0061
 4531TIP3    H113599   5.960   5.947   1.270 -0.6972  0.4837  0.7511
 4531TIP3    H213600   6.101   5.952   1.216 -0.9778  0.6482  0.0274
 4532TIP3   OH213601   1.069   4.966   2.686  0.5014  0.3662 -0.5385
 4532TIP3    H113602   1.100   4.936   2.771  0.3360 -1.1848 -1.0046
 4532TIP3    H213603   0.981   4.929   2.677  0.3595  0.8459 -1.2194
 4533TIP3   OH213604   0.242   1.438   1.438  0.8440 -0.2791 -0.2357
 4533TIP3    H113605   0.190   1.371   1.393 -1.9301  1.5872  0.0014
 4533TIP3    H213606   0.277   1.392   1.515 -1.2236 -1.4326  0.0878
 4534TIP3   OH213607   4.371   4.209   3.921 -0.0568  0.2031  0.0883
 4534TIP3    H113608   4.422   4.207   4.002 -0.0867 -0.2448  0.1006
 4534TIP3    H213609   4.399   4.131   3.873  0.2902  0.7050 -0.5459
 4535TIP3   OH213610   6.301   5.474   2.321 -0.3458 -0.7714  0.1849
 4535TIP3    H113611   6.276   5.442   2.234  0.5075 -0.1799 -0.2951
 4535TIP3    H213612   6.397   5.467   2.322 -0.1660  1.1845  0.2661
 4536TIP3   OH213613   0.799   2.671   0.273 -0.2286 -0.3854 -0.3153
 4536TIP3    H113614   0.721   2.647   0.324  0.4625 -0.8580  0.5638
 4536TIP3    H213615   0.872   2.633   0.323  0.6156  0.5996 -0.7717
 4537TIP3   OH213616   5.727   0.809   4.131 -0.1669 -0.0324 -0.0739
 4537TIP3    H113617   5.789   0.799   4.059  0.3371  0.1084  0.3366
 4537TIP3    H213618   5.645   0.773   4.097  0.2865 -0.7620 -0.4194
 4538TIP3   OH213619   3.865   4.154   0.698  0.6838 -0.2661  0.5064
 4538TIP3    H113620   3.912   4.073   0.678  0.0816 -0.4892 -0.0269
 4538TIP3    H213621   3.916   4.194   0.769  0.5810 -1.4534  1.2661
 4539TIP3   OH213622   0.846   5.202   2.868  0.3475  0.3452 -0.4614
 4539TIP3    H113623   0.939   5.178   2.858  0.3043 -0.1217  0.1650
 4539TIP3    H213624   0.847   5.296   2.886  0.9951 -0.1658  2.9089
 4540TIP3   OH213625   5.011   5.404  -0.008  0.1162 -0.3941  0.1599
 4540TIP3    H113626   5.019   5.437   0.082  3.3503  1.2760 -0.6036
 4540TIP3    H213627   5.007   5.482  -0.062 -1.1342 -1.3790 -1.2487
 4541TIP3   OH213628   0.290   4.817   4.699 -0.5022 -0.4523  0.3401
 4541TIP3    H113629   0.259   4.857   4.780 -1.1971  0.4522 -0.3551
 4541TIP3    H213630   0.366   4.869   4.674 -2.3552  1.6268 -1.4371
 4542TIP3   OH213631   2.989   1.242   3.131  0.4687  0.2391  0.0446
 4542TIP3    H113632   2.935   1.196   3.196 -0.5203 -1.6658 -1.9678
 4542TIP3    H213633   2.966   1.334   3.142  0.3830 -0.0141  2.3926
 4543TIP3   OH213634   3.208   5.766   4.181 -0.8717  0.4528  0.1419
 4543TIP3    H113635   3.215   5.700   4.112 -2.4172  0.3118  0.0890
 4543TIP3    H213636   3.214   5.849   4.135  0.6562  0.3860  0.1600
 4544TIP3   OH213637   0.813   5.950   1.461 -0.4918 -1.0116  0.0731
 4544TIP3    H113638   0.848   6.019   1.518 -1.2581  1.4630 -2.2356
 4544TIP3    H213639   0.718   5.953   1.476 -0.5887 -1.1078 -0.5132
 4545TIP3   OH213640   4.931   4.777   1.448  0.5116  0.2310  0.1827
 4545TIP3    H113641   4.974   4.692   1.447  0.8960  0.4213  0.2588
 4545TIP3    H213642   4.952   4.813   1.534  0.2904  0.3691  0.1780
 4546TIP3   OH213643   1.642   2.493   0.296 -0.0036  0.4411 -0.0050
 4546TIP3    H113644   1.647   2.462   0.386  0.2851  1.2366  0.2590
 4546TIP3    H213645   1.712   2.558   0.289 -1.9281  2.6147  0.0915
 4547TIP3   OH213646   0.457   3.550   2.069  0.5629  0.1584  0.3744
 4547TIP3    H113647   0.385   3.555   2.006  0.5836  0.7256  0.3956
 4547TIP3    H213648   0.532   3.588   2.024  0.2905  1.6713  1.1424
 4548TIP3   OH213649   0.992   2.612   2.706  0.1615 -0.0267 -0.7391
 4548TIP3    H113650   1.019   2.701   2.729 -0.3324 -0.2281  0.7273
 4548TIP3    H213651   0.964   2.573   2.789  0.0933 -1.4587 -1.4001
 4549TIP3   OH213652   5.952   2.613   4.115 -0.0529  0.3415 -0.8262
 4549TIP3    H113653   5.931   2.550   4.046 -0.7560 -0.4304  0.0734
 4549TIP3    H213654   6.007   2.678   4.071  1.9403 -1.6313 -1.4632
 4550TIP3   OH213655   0.755   1.630   2.606  0.0588 -0.3397  0.1967
 4550TIP3    H113656   0.788   1.634   2.695 -0.6624  1.0875  0.4108
 4550TIP3    H213657   0.661   1.642   2.614 -0.0901 -0.8241 -0.7096
 4551TIP3   OH213658   0.740   1.834   3.547 -0.1938 -0.1610 -0.2820
 4551TIP3    H113659   0.733   1.904   3.482 -0.6917 -0.5012 -0.5989
 4551TIP3    H213660   0.694   1.760   3.508 -1.2625 -0.1070  0.8284
 4552TIP3   OH213661   4.315   4.937   2.851  0.6563 -0.4004  0.0835
 4552TIP3    H113662   4.332   4.923   2.944 -1.2138 -1.4141  0.3077
 4552TIP3    H213663   4.401   4.956   2.814  1.3263  1.0066  2.1586
 4553TIP3   OH213664   1.504   5.035   2.347  0.1267 -0.4473  0.4474
 4553TIP3    H113665   1.442   4.995   2.287  0.8100 -0.6632 -0.1273
 4553TIP3    H213666   1.565   5.083   2.291  0.3144 -0.0088  1.0182
 4554TIP3   OH213667   2.269   0.249   0.953 -0.6917 -0.3484 -0.4583
 4554TIP3    H113668   2.192   0.293   0.988 -0.9995 -1.3110  0.1116
 4554TIP3    H213669   2.343   0.305   0.977 -1.2025  0.5573 -0.9663
 4555TIP3   OH213670   3.465   3.948   4.583  0.0989  0.5303  0.2930
 4555TIP3    H113671   3.391   3.939   4.523  0.3927  0.0291 -0.0001
 4555TIP3    H213672   3.428   3.929   4.669 -0.2769  1.0345  0.2540
 4556TIP3   OH213673   1.845   0.611   2.643 -0.9713 -0.5262  0.1281
 4556TIP3    H113674   1.834   0.547   2.714 -0.7965 -1.7747 -0.9366
 4556TIP3    H213675   1.913   0.670   2.675 -0.8501 -1.1024  0.9714
 4557TIP3   OH213676   1.882   4.426   1.174 -0.3823 -0.4424  0.6712
 4557TIP3    H113677   1.902   4.437   1.267  0.5689 -0.5229  0.4853
 4557TIP3    H213678   1.936   4.492   1.130  0.3842 -1.4602  0.0527
 4558TIP3   OH213679   1.039   5.048   4.013 -0.4220 -0.6125  0.3583
 4558TIP3    H113680   1.040   5.132   4.059 -3.0711 -0.4488  0.2579
 4558TIP3    H213681   1.115   5.051   3.955  0.0453  1.3203  1.0058
 4559TIP3   OH213682   2.507   5.470   3.011 -0.2042 -0.1421 -0.1339
 4559TIP3    H113683   2.492   5.498   2.921  1.4216  1.9803  0.1580
 4559TIP3    H213684   2.427   5.424   3.036 -2.4451  2.8085 -1.3157
 4560TIP3   OH213685   4.114   1.405   4.310 -0.2497 -0.2582 -0.4711
 4560TIP3    H113686   4.166   1.475   4.350 -1.0920  0.3374 -0.3883
 4560TIP3    H213687   4.127   1.417   4.216 -0.6071  0.1953 -0.4686
 4561TIP3   OH213688   4.304   3.099   3.270  0.5282 -0.1988  0.1897
 4561TIP3    H113689   4.356   3.075   3.193  2.1536  0.9443  0.8672
 4561TIP3    H213690   4.229   3.146   3.235 -0.2940 -2.1471 -0.8454
 4562TIP3   OH213691   3.877   5.042   0.230 -0.2144 -0.1363  0.3322
 4562TIP3    H113692   3.879   5.119   0.286 -1.5458 -0.8811  1.4820
 4562TIP3    H213693   3.811   5.063   0.163  0.5135  0.2935 -0.2553
 4563TIP3   OH213694   2.873   1.722   4.338 -0.3663  0.0118  0.0039
 4563TIP3    H113695   2.968   1.734   4.332 -0.1057 -1.5916  0.4805
 4563TIP3    H213696   2.846   1.778   4.410  0.4035 -0.3687  0.6025
 4564TIP3   OH213697   4.695   3.320   0.992  0.5150  0.1171 -0.0465
 4564TIP3    H113698   4.633   3.391   1.012  0.3019  0.1748 -0.8698
 4564TIP3    H213699   4.696   3.316   0.896  2.8987  1.1153 -0.1481
 4565TIP3   OH213700   3.775   0.240   0.738  0.6021 -0.0477  0.5056
 4565TIP3    H113701   3.866   0.234   0.768 -0.0169 -0.0825  2.5126
 4565TIP3    H213702   3.742   0.322   0.775  0.1848  0.6886 -1.3866
 4566TIP3   OH213703   2.160   2.369   2.611  0.0082  0.2106  0.0740
 4566TIP3    H113704   2.213   2.444   2.585  0.1194  0.8453  2.0354
 4566TIP3    H213705   2.195   2.343   2.696 -2.3554  0.2041  1.0990
 4567TIP3   OH213706   6.009   5.750   4.695  0.4210 -0.1938 -0.1526
 4567TIP3    H113707   6.100   5.780   4.700  0.2835  0.1209  0.6624
 4567TIP3    H213708   6.011   5.661   4.729  0.0555  0.6976  2.4536
 4568TIP3   OH213709   5.879   4.496   2.542 -0.3345  0.1610  0.7909
 4568TIP3    H113710   5.929   4.464   2.467 -2.4802 -0.6499 -0.3658
 4568TIP3    H213711   5.865   4.418   2.596  1.2897  0.7571  2.1718
 4569TIP3   OH213712   1.125   1.053   1.701  0.3376  0.6227 -0.1448
 4569TIP3    H113713   1.193   1.080   1.762  0.6240 -0.8228  0.2016
 4569TIP3    H213714   1.105   1.133   1.651  1.7134  1.2565  0.2680
 4570TIP3   OH213715   3.877   2.326   4.803  0.1794 -0.7547  0.2878
 4570TIP3    H113716   3.831   2.317   4.719  1.4062 -1.5030 -0.3339
 4570TIP3    H213717   3.960   2.279   4.790  0.0111 -1.6857  2.2208
 4571TIP3   OH213718   0.954  -0.004   2.205  0.3504  1.0154  0.1937
 4571TIP3    H113719   1.021   0.055   2.237  0.1114  1.9597 -0.9760
 4571TIP3    H213720   0.966  -0.006   2.110 -0.5022  0.2439  0.0777
 4572TIP3   OH213721   3.214   1.875   2.801 -0.0737  0.5168  0.6821
 4572TIP3    H113722   3.271   1.924   2.741 -0.5841  1.5008  0.9734
 4572TIP3    H213723   3.160   1.821   2.743  0.1824  0.6439  0.3191
 4573TIP3   OH213724   4.964   5.513   2.742  0.0450  0.8404  0.2990
 4573TIP3    H113725   4.998   5.432   2.703 -0.2312 -0.1625  2.0108
 4573TIP3    H213726   5.028   5.580   2.717  0.3233  0.1068 -1.0986
 4574TIP3   OH213727   2.864   2.852   4.196  0.4362  0.4130 -0.4385
 4574TIP3    H113728   2.811   2.928   4.174  0.6640 -0.4110 -4.5055
 4574TIP3    H213729   2.801   2.780   4.202  0.5713  0.3247 -0.0501
 4575TIP3   OH213730   3.595   4.065   0.833 -0.6521  0.1140 -0.2415
 4575TIP3    H113731   3.670   4.079   0.891 -0.5322  1.6437 -0.7232
 4575TIP3    H213732   3.552   3.987   0.868 -0.0847  0.4792  1.3678
 4576TIP3   OH213733   1.588   2.875   2.054  0.5461  0.5941  0.2300
 4576TIP3    H113734   1.671   2.914   2.082  0.8037 -0.1901  0.5853
 4576TIP3    H213735   1.613   2.801   1.998  0.0754  0.7251 -0.1626
 4577TIP3   OH213736   0.955   0.130   3.704 -0.0879 -0.1001 -0.1244
 4577TIP3    H113737   0.974   0.155   3.795  3.0924  0.6659 -0.8785
 4577TIP3    H213738   0.955   0.034   3.705  0.3932 -0.1021  0.6109
 4578TIP3   OH213739   2.136   3.006   1.135  0.1025  0.1230  0.2172
 4578TIP3    H113740   2.079   2.929   1.141 -0.3071  0.5018  1.6803
 4578TIP3    H213741   2.170   3.004   1.046  0.0952 -1.7416  0.2246
 4579TIP3   OH213742   3.468   1.595   4.701 -0.5183  0.5115 -0.4942
 4579TIP3    H113743   3.409   1.538   4.652 -0.2550 -2.2764  2.1977
 4579TIP3    H213744   3.545   1.604   4.644 -1.3319 -0.2682 -1.7658
 4580TIP3   OH213745   1.036   4.127   5.139 -0.2436 -0.6499  0.5187
 4580TIP3    H113746   1.061   4.044   5.097  0.7858  0.3735 -1.0057
 4580TIP3    H213747   1.018   4.186   5.066 -0.7586  0.5394  1.5804
 4581TIP3   OH213748   3.132   1.988   3.636 -0.2478  0.7382  0.0817
 4581TIP3    H113749   3.111   1.911   3.688  0.3109  1.2177  1.0676
 4581TIP3    H213750   3.150   1.955   3.548  1.2043 -0.4256  0.7667
 4582TIP3   OH213751   2.431   2.016   1.084 -0.2236  0.0195  0.1756
 4582TIP3    H113752   2.453   2.013   1.178  0.5811  0.1421 -0.0021
 4582TIP3    H213753   2.345   2.058   1.082  0.8588  2.4145  0.7081
 4583TIP3   OH213754   0.485   4.614   3.806 -0.2146  0.6104  0.3932
 4583TIP3    H113755   0.548   4.681   3.781  0.3118  0.8922  2.3319
 4583TIP3    H213756   0.538   4.544   3.844 -0.6966 -1.1994 -2.0395
 4584TIP3   OH213757   0.219   4.726   4.177 -0.3264  0.0897 -0.2952
 4584TIP3    H113758   0.168   4.740   4.257 -1.4695  1.2860 -1.1934
 4584TIP3    H213759   0.223   4.630   4.169 -1.0518 -0.0407  0.6623
 4585TIP3   OH213760   2.974   0.411   3.251  0.1929  0.3525 -0.3963
 4585TIP3    H113761   2.958   0.505   3.253 -1.9155  0.0323  0.2670
 4585TIP3    H213762   2.896   0.374   3.210  0.9991 -1.1143 -0.6959
 4586TIP3   OH213763   6.218   1.201   0.137  0.0871  0.1908  0.2105
 4586TIP3    H113764   6.245   1.153   0.215 -0.2324 -3.1169 -1.5454
 4586TIP3    H213765   6.124   1.185   0.130  0.3301 -0.7253 -1.5171
 4587TIP3   OH213766   3.988   2.356   1.978  0.0960  0.9888 -0.2859
 4587TIP3    H113767   4.026   2.368   1.891 -1.6328  0.8381 -1.1047
 4587TIP3    H213768   4.022   2.430   2.029 -0.2462  2.1139 -1.6121
 4588TIP3   OH213769   1.614   2.029   0.808 -0.0506  0.2111 -0.1242
 4588TIP3    H113770   1.587   1.975   0.733  0.8616 -0.6258  0.1219
 4588TIP3    H213771   1.683   2.085   0.773  2.2441 -1.9562  0.5724
 4589TIP3   OH213772   0.571   5.558   2.727  0.4968 -0.3228 -0.1032
 4589TIP3    H113773   0.561   5.617   2.802 -1.6826  0.9796 -1.3320
 4589TIP3    H213774   0.525   5.601   2.656  1.1618 -2.2701 -1.8168
 4590TIP3   OH213775   3.989   3.613   2.405  0.4606  0.2905  0.2440
 4590TIP3    H113776   3.984   3.696   2.358 -0.8589  0.7083  1.0465
 4590TIP3    H213777   4.052   3.629   2.475 -0.4222  0.9204  0.9189
 4591TIP3   OH213778   1.974   2.002   4.211 -0.2845  0.4891  0.1523
 4591TIP3    H113779   1.938   2.075   4.260 -1.3728  0.9166 -1.2146
 4591TIP3    H213780   1.902   1.972   4.156  1.2618  1.1022 -2.3954
 4592TIP3   OH213781   2.211   2.376   1.044  1.0993  0.0413 -0.3812
 4592TIP3    H113782   2.115   2.369   1.045  1.1760 -2.4148  2.5128
 4592TIP3    H213783   2.235   2.354   0.954 -1.0089 -0.5713 -0.8518
 4593TIP3   OH213784   6.121   3.427   3.277  0.0653 -0.2196  0.4046
 4593TIP3    H113785   6.175   3.354   3.246 -0.6209 -0.4918 -0.1906
 4593TIP3    H213786   6.122   3.419   3.372 -0.3373 -1.2677  0.3344
 4594TIP3   OH213787   3.193   5.539   4.033  0.3258  0.2965 -0.1894
 4594TIP3    H113788   3.253   5.495   3.974  0.6764  1.2570 -0.5701
 4594TIP3    H213789   3.204   5.495   4.117  0.1425 -0.7897 -0.7294
 4595TIP3   OH213790   3.011   5.430   2.751 -0.2138 -0.7910 -0.3921
 4595TIP3    H113791   3.086   5.371   2.755  1.2619  0.8920 -1.5589
 4595TIP3    H213792   3.034   5.501   2.811 -1.0346 -0.4214 -0.5060
 4596TIP3   OH213793   0.166   2.911   3.946  0.5412  0.6971 -0.2134
 4596TIP3    H113794   0.216   2.923   3.865  1.2665  1.8097  0.3736
 4596TIP3    H213795   0.232   2.897   4.013 -0.0441  0.0313  0.2415
 4597TIP3   OH213796   3.949   2.217   0.482  0.3394  0.2258 -0.0038
 4597TIP3    H113797   3.913   2.305   0.494  0.0825  0.3341 -1.3842
 4597TIP3    H213798   3.943   2.177   0.568  0.2202  1.4727  0.5940
 4598TIP3   OH213799   5.051   4.789   3.666  0.1114  0.2870 -0.3241
 4598TIP3    H113800   5.125   4.842   3.636  0.8285 -0.8684 -0.6585
 4598TIP3    H213801   5.007   4.762   3.586  0.1792 -0.2149 -0.1948
 4599TIP3   OH213802   1.764   0.503   2.869 -0.6447  0.6119  0.1067
 4599TIP3    H113803   1.814   0.421   2.865 -2.9428 -0.8370 -1.1166
 4599TIP3    H213804   1.782   0.538   2.956  1.3678 -0.5060  0.2103
 4600TIP3   OH213805   4.126   3.147   1.532  0.1790 -0.6420 -0.6127
 4600TIP3    H113806   4.065   3.075   1.549 -1.7062  0.9983 -0.0689
 4600TIP3    H213807   4.139   3.146   1.437 -0.1595 -1.4045 -0.6610
 4601TIP3   OH213808   6.118   4.110   3.697 -0.0463 -0.1639 -0.3570
 4601TIP3    H113809   6.179   4.183   3.683  2.2708 -2.0066 -0.5803
 4601TIP3    H213810   6.130   4.087   3.790 -2.4071  1.0343  0.3302
 4602TIP3   OH213811   2.726   3.608   0.504  0.3336 -0.3371  0.0925
 4602TIP3    H113812   2.689   3.687   0.465  0.6129 -0.6282 -0.7837
 4602TIP3    H213813   2.764   3.560   0.431  0.0586 -1.3481  0.5923
 4603TIP3   OH213814   5.819   0.845   4.531 -0.4849 -0.4074  0.2272
 4603TIP3    H113815   5.740   0.879   4.488  0.5266  2.4362  0.4000
 4603TIP3    H213816   5.881   0.832   4.460 -0.2340  0.0307  0.3638
 4604TIP3   OH213817   6.143   1.756   1.259  0.1007  0.3789 -0.3183
 4604TIP3    H113818   6.062   1.804   1.245  0.3033  0.3486 -1.8596
 4604TIP3    H213819   6.200   1.784   1.187  1.1316 -0.2752  0.2079
 4605TIP3   OH213820   1.013   2.275   2.794  0.5340 -1.1098 -0.5895
 4605TIP3    H113821   1.020   2.192   2.747  0.9947 -1.5885  0.2979
 4605TIP3    H213822   1.090   2.325   2.766  1.3466 -1.7839  0.3786
 4606TIP3   OH213823   2.556   5.679   1.070 -0.0659  0.0704  0.0147
 4606TIP3    H113824   2.539   5.763   1.026  0.1123  0.3484  0.4690
 4606TIP3    H213825   2.525   5.613   1.008  1.2518  0.3971 -1.0523
 4607TIP3   OH213826   4.526   4.056   1.131 -0.0649 -0.1666 -0.4273
 4607TIP3    H113827   4.481   4.044   1.215  1.6135  0.3516  0.5832
 4607TIP3    H213828   4.527   4.150   1.118  3.0759  0.1114  0.9875
 4608TIP3   OH213829   5.962   4.811   3.794 -0.4213 -0.0269  0.3113
 4608TIP3    H113830   5.897   4.827   3.725 -0.1171 -0.2016 -0.0172
 4608TIP3    H213831   6.021   4.886   3.789 -0.8490  0.3584  0.9059
 4609TIP3   OH213832   1.627   2.557   0.001  0.3187  0.1209  0.4251
 4609TIP3    H113833   1.705   2.612  -0.005  0.0733  0.4188 -0.0909
 4609TIP3    H213834   1.655   2.481   0.052  0.9207  0.2626  0.3105
 4610TIP3   OH213835   2.332   1.274   3.375  0.3762  0.2821  0.0214
 4610TIP3    H113836   2.275   1.333   3.326  2.1932  0.5214 -1.9898
 4610TIP3    H213837   2.340   1.314   3.461  0.2926  2.1246 -0.7800
 4611TIP3   OH213838   2.025   5.337   0.006  0.0674 -0.1497  0.0410
 4611TIP3    H113839   2.000   5.282   0.080 -0.2031  1.3426  1.1031
 4611TIP3    H213840   2.056   5.419   0.046 -0.7051  0.9497 -1.5024
 4612TIP3   OH213841   3.164   3.644   1.205  0.7119 -0.2558  0.3652
 4612TIP3    H113842   3.094   3.605   1.152  0.1320  0.7608  0.3520
 4612TIP3    H213843   3.229   3.574   1.214 -0.5221 -1.3937  0.7993
 4613TIP3   OH213844  -0.020   2.708   4.345 -0.0156  0.1382  0.0663
 4613TIP3    H113845   0.020   2.738   4.427  2.0375  1.7930 -1.4234
 4613TIP3    H213846   0.050   2.714   4.281 -1.9985  0.6494 -2.2029
 4614TIP3   OH213847   3.857   1.130   0.167  0.0147  0.4414  0.0433
 4614TIP3    H113848   3.800   1.206   0.174 -3.2056 -1.8199  0.3160
 4614TIP3    H213849   3.878   1.123   0.074 -1.9099  0.1750 -0.3975
 4615TIP3   OH213850   0.464   4.567   5.057  0.0689 -0.0286  0.1010
 4615TIP3    H113851   0.524   4.609   4.996 -0.3088 -0.1526 -0.3573
 4615TIP3    H213852   0.381   4.559   5.009 -0.0383 -0.7382  0.3887
 4616TIP3   OH213853   2.888   5.545   5.126  0.0785  0.4750 -0.7202
 4616TIP3    H113854   2.900   5.565   5.219  0.7676 -2.1096 -0.1641
 4616TIP3    H213855   2.822   5.608   5.096 -0.0063  1.5076  1.4542
 4617TIP3   OH213856   2.557   0.550   3.358  0.2231  0.1864 -0.3446
 4617TIP3    H113857   2.618   0.547   3.432 -0.8912 -1.5786  0.5670
 4617TIP3    H213858   2.514   0.635   3.367  0.7550  0.3864  0.4934
 4618TIP3   OH213859   4.778   2.825   2.565 -0.0889  0.0969 -0.6317
 4618TIP3    H113860   4.687   2.842   2.591 -0.5482 -1.0292 -1.4224
 4618TIP3    H213861   4.787   2.869   2.480  0.7783  2.0131  0.4043
 4619TIP3   OH213862   4.811   5.991   1.344 -0.2154 -0.0684 -0.2817
 4619TIP3    H113863   4.749   5.936   1.391  0.1580  0.3167  0.6662
 4619TIP3    H213864   4.834   5.939   1.266 -0.1025 -1.1293  0.4452
 4620TIP3   OH213865   3.840   5.072   3.938  0.7353 -0.1031  0.5561
 4620TIP3    H113866   3.894   5.150   3.927 -2.1687  1.8711 -0.9760
 4620TIP3    H213867   3.789   5.089   4.017  0.3262 -0.5975  0.4045
 4621TIP3   OH213868   1.250   4.657   2.157 -0.1296  0.1847 -0.7143
 4621TIP3    H113869   1.248   4.562   2.162 -0.9462  0.2621  0.7989
 4621TIP3    H213870   1.342   4.680   2.172 -0.2940 -0.2763  1.1655
 4622TIP3   OH213871   4.349   0.755   4.070  0.1435 -0.5769  0.1734
 4622TIP3    H113872   4.406   0.767   3.995  0.2788  0.5427  0.4386
 4622TIP3    H213873   4.261   0.747   4.033 -0.0228  1.6822 -0.0604
 4623TIP3   OH213874   4.970   2.397   1.649 -0.1122  0.4191 -0.0396
 4623TIP3    H113875   5.030   2.469   1.630  0.2543  0.5386  1.4330
 4623TIP3    H213876   4.907   2.434   1.711  0.8234 -0.8255  1.7452
 4624TIP3   OH213877   3.214   2.832   0.460  0.2668 -0.0825  0.3416
 4624TIP3    H113878   3.169   2.787   0.532  0.9454 -1.0494  0.1751
 4624TIP3    H213879   3.297   2.860   0.498  1.0030 -1.3668 -0.2878
 4625TIP3   OH213880   2.233   4.657   0.652  0.1572  0.1482  0.2242
 4625TIP3    H113881   2.164   4.593   0.670  1.6654 -1.4423  0.6606
 4625TIP3    H213882   2.260   4.637   0.562 -1.2716  2.1080 -0.6964
 4626TIP3   OH213883   4.268   0.064   3.036 -0.6252  0.6208 -0.0166
 4626TIP3    H113884   4.345   0.007   3.043 -0.3221  0.7357 -1.9018
 4626TIP3    H213885   4.222   0.032   2.959 -1.2072  2.0275 -0.2836
 4627TIP3   OH213886   2.339   1.269   1.669 -0.4035  0.0112 -0.7844
 4627TIP3    H113887   2.279   1.195   1.669 -0.6745  0.2114  0.2359
 4627TIP3    H213888   2.288   1.342   1.634 -1.8071  0.9191  2.6946
 4628TIP3   OH213889   0.436   1.393   1.667  0.5045 -0.2692  0.1970
 4628TIP3    H113890   0.480   1.360   1.590 -2.2850  0.5923 -1.9388
 4628TIP3    H213891   0.401   1.315   1.711 -1.2200 -0.5929 -1.6482
 4629TIP3   OH213892   2.161   5.438   0.248  0.3697  0.3464  0.0356
 4629TIP3    H113893   2.249   5.414   0.221  0.1994 -0.0529 -0.1820
 4629TIP3    H213894   2.118   5.354   0.264  0.4569  0.5649  1.5249
 4630TIP3   OH213895   4.675   0.806   3.644 -0.1987  0.5775 -0.0073
 4630TIP3    H113896   4.592   0.797   3.597 -1.3432  1.8928  1.6301
 4630TIP3    H213897   4.722   0.876   3.599 -0.1626  0.1518 -0.6489
 4631TIP3   OH213898   2.851   4.123   2.297 -0.3609 -0.4947 -0.4013
 4631TIP3    H113899   2.856   4.037   2.254  1.5061 -0.7075  0.1561
 4631TIP3    H213900   2.824   4.183   2.228 -0.1893 -1.2840 -1.1763
 4632TIP3   OH213901   5.347   5.436   0.696 -0.5899  0.3529  0.3790
 4632TIP3    H113902   5.302   5.483   0.766  1.1426 -0.7348  2.3386
 4632TIP3    H213903   5.416   5.496   0.667 -0.5987  0.3664  0.3862
 4633TIP3   OH213904   3.327   2.121   0.337  0.4943 -0.4376  1.0051
 4633TIP3    H113905   3.314   2.070   0.257 -0.6877  0.1740  0.7849
 4633TIP3    H213906   3.389   2.190   0.312  0.1347 -0.2533  0.6084
 4634TIP3   OH213907   1.852   0.951   0.279 -0.1113 -0.4784  0.3063
 4634TIP3    H113908   1.923   1.002   0.240 -1.3341  0.3046 -1.0043
 4634TIP3    H213909   1.829   0.999   0.359 -1.2549  1.0962 -0.9212
 4635TIP3   OH213910   1.419   2.656   3.178  0.0966  0.4305 -0.3151
 4635TIP3    H113911   1.458   2.728   3.226 -1.2948  0.4511  0.8502
 4635TIP3    H213912   1.383   2.599   3.245 -0.8941 -0.1373 -1.2930
 4636TIP3   OH213913   5.347   2.464   1.866  0.1748  0.2897  0.7319
 4636TIP3    H113914   5.292   2.539   1.887  0.0337 -0.3091  2.6113
 4636TIP3    H213915   5.304   2.424   1.790 -3.1412 -1.2049  3.1448
 4637TIP3   OH213916   2.611   5.259   1.954 -0.1516 -0.4254 -0.4317
 4637TIP3    H113917   2.593   5.177   1.907  0.3255 -1.5255  1.1989
 4637TIP3    H213918   2.662   5.231   2.031 -0.2731  1.3789  0.3434
 4638TIP3   OH213919   4.218   3.042   0.823 -0.2219  0.4092 -0.2667
 4638TIP3    H113920   4.190   2.953   0.843  1.5624 -0.0992  0.1540
 4638TIP3    H213921   4.211   3.089   0.906 -2.0457  0.9645 -0.6814
 4639TIP3   OH213922   2.834   5.808   3.995  0.1465 -0.2153 -0.2279
 4639TIP3    H113923   2.830   5.713   3.983 -0.1405 -0.1085 -1.0537
 4639TIP3    H213924   2.920   5.832   3.960  0.9423 -0.3648  1.5351
 4640TIP3   OH213925   0.931   3.440   3.984  0.4734  0.1132  0.1530
 4640TIP3    H113926   0.872   3.389   4.038  0.9114 -2.3374 -1.5303
 4640TIP3    H213927   1.018   3.407   4.005  0.9892  1.5219  0.3797
 4641TIP3   OH213928   0.918   4.097   1.172  0.3155  0.2055  0.0658
 4641TIP3    H113929   0.844   4.063   1.223  1.3096 -1.5899  0.3951
 4641TIP3    H213930   0.923   4.040   1.095  1.2570  0.3847 -0.0186
 4642TIP3   OH213931   1.516   5.884   0.816 -0.1328  0.0511  0.4412
 4642TIP3    H113932   1.429   5.919   0.793 -0.9793  0.5049  3.8665
 4642TIP3    H213933   1.498   5.805   0.867  1.5600 -0.6404  0.0481
 4643TIP3   OH213934   0.584   3.148   4.693  0.3385  0.3083  0.6020
 4643TIP3    H113935   0.540   3.187   4.769 -0.0305 -1.0617  1.1243
 4643TIP3    H213936   0.663   3.108   4.730  1.0636  1.1194 -0.0305
 4644TIP3   OH213937   1.193   1.440   4.174  0.4791  0.2636 -0.2107
 4644TIP3    H113938   1.211   1.402   4.088  1.8456  0.9534 -0.2636
 4644TIP3    H213939   1.278   1.475   4.202 -0.4054  2.0073  0.4344
 4645TIP3   OH213940   4.571   3.156   4.044  0.0874  0.2636 -0.0798
 4645TIP3    H113941   4.511   3.104   3.991  0.6813  0.4995 -1.0104
 4645TIP3    H213942   4.534   3.244   4.044  0.9558  0.6740 -1.5775
 4646TIP3   OH213943   2.649   0.571   2.502  0.1509 -0.0405 -0.2912
 4646TIP3    H113944   2.663   0.657   2.540 -1.2003 -0.8117  2.1509
 4646TIP3    H213945   2.702   0.511   2.555 -2.3585 -1.2455  1.0622
 4647TIP3   OH213946   2.371   0.768   2.535 -0.0126  0.1133  0.1617
 4647TIP3    H113947   2.339   0.737   2.450 -0.3035 -1.9361  0.9811
 4647TIP3    H213948   2.296   0.812   2.574  0.5083  2.3936 -1.1550
 4648TIP3   OH213949   4.240   4.598   0.316  0.0168 -0.3482 -0.3398
 4648TIP3    H113950   4.263   4.541   0.242  0.1362 -0.2042 -0.4131
 4648TIP3    H213951   4.305   4.577   0.383 -0.5055 -0.9738 -0.0230
 4649TIP3   OH213952   2.810   2.980   0.228 -0.4997 -0.1980 -0.1707
 4649TIP3    H113953   2.904   2.962   0.230 -0.2986  0.1594 -2.8046
 4649TIP3    H213954   2.799   3.062   0.277  0.4700 -0.4402  0.4759
 4650TIP3   OH213955   3.712   3.410   4.640  0.0263  0.3521  0.9377
 4650TIP3    H113956   3.627   3.388   4.679 -1.9459 -1.2239 -3.5698
 4650TIP3    H213957   3.731   3.498   4.672 -3.7775  1.1138  1.5838
 4651TIP3   OH213958   5.998   5.623   2.447 -0.3087  0.0041 -0.5481
 4651TIP3    H113959   5.985   5.718   2.449 -0.9893 -0.0997  0.4222
 4651TIP3    H213960   5.976   5.598   2.357 -0.6168  0.6959 -0.6705
 4652TIP3   OH213961   1.382   5.527   0.116  0.0526 -0.1604 -0.0664
 4652TIP3    H113962   1.429   5.590   0.170  0.1500  0.2086 -0.5780
 4652TIP3    H213963   1.366   5.453   0.175  0.6546 -0.0026  0.3055
 4653TIP3   OH213964   4.837   4.730   4.608  0.4818  0.0288 -0.2142
 4653TIP3    H113965   4.774   4.801   4.621  0.2803 -0.1903  0.0254
 4653TIP3    H213966   4.923   4.772   4.613  0.3804  0.1390  0.6584
 4654TIP3   OH213967   1.585   2.218   4.985 -0.0135  0.4040  0.5219
 4654TIP3    H113968   1.595   2.296   4.930 -1.0709 -0.0625 -0.3745
 4654TIP3    H213969   1.552   2.150   4.925 -0.5244 -0.3219  1.5856
 4655TIP3   OH213970   6.283   5.493   1.639  0.0202 -0.6674 -0.5899
 4655TIP3    H113971   6.329   5.536   1.566  1.3262 -0.0731  0.5297
 4655TIP3    H213972   6.192   5.520   1.629  0.6370  1.6807 -0.4586
 4656TIP3   OH213973   5.742   2.784   4.209  0.1788  0.1768  0.4280
 4656TIP3    H113974   5.787   2.869   4.211  0.6162 -0.0553  0.8167
 4656TIP3    H213975   5.807   2.723   4.173 -0.5855  0.2495 -1.1503
 4657TIP3   OH213976   3.889   2.587   0.145 -0.5112  0.7571 -0.5120
 4657TIP3    H113977   3.939   2.661   0.111  1.8604 -0.5645 -0.1293
 4657TIP3    H213978   3.941   2.555   0.219 -2.8633  0.3550  1.0667
 4658TIP3   OH213979   2.486   1.158   2.002 -0.4350  0.3982 -0.7564
 4658TIP3    H113980   2.573   1.118   2.000 -0.4564  0.3518 -0.7694
 4658TIP3    H213981   2.496   1.236   2.056 -0.4965  0.1340 -0.3645
 4659TIP3   OH213982   0.059   2.066   4.505  0.0078  0.1725 -0.5281
 4659TIP3    H113983   0.003   2.100   4.435  0.0066 -1.0203 -1.1342
 4659TIP3    H213984   0.012   2.086   4.586  0.5973  2.7201 -0.7150
 4660TIP3   OH213985   5.294   2.852   4.872  0.5236  0.0401  0.1777
 4660TIP3    H113986   5.336   2.767   4.860  0.6769  0.1214  0.1343
 4660TIP3    H213987   5.229   2.837   4.940 -0.8164 -0.5944 -1.1591
 4661TIP3   OH213988   3.038   3.502   1.553 -0.0323  0.3237  0.1238
 4661TIP3    H113989   2.975   3.444   1.509 -0.7177  1.1595 -0.0278
 4661TIP3    H213990   3.122   3.480   1.513 -0.3953 -0.0853 -0.4367
 4662TIP3   OH213991   0.606   4.994   1.412  0.3614  0.0242  0.3674
 4662TIP3    H113992   0.685   4.987   1.358 -0.3655  1.2773 -0.9273
 4662TIP3    H213993   0.579   5.085   1.403 -1.4439 -0.4658  0.4481
 4663TIP3   OH213994   5.097   4.036   1.460  0.3546  0.0688 -0.1542
 4663TIP3    H113995   5.172   3.992   1.421  1.4210  1.7705 -0.0898
 4663TIP3    H213996   5.127   4.125   1.479 -1.4451  0.5796  0.5680
 4664TIP3   OH213997   2.111   5.252   1.063 -0.0936  0.1572 -0.3742
 4664TIP3    H113998   2.188   5.306   1.081 -1.5792  2.3905 -0.2302
 4664TIP3    H213999   2.140   5.191   0.996  1.9760  0.4656  0.1762
 4665TIP3   OH214000   0.129   2.014   0.848 -0.1310 -0.7742 -0.5182
 4665TIP3    H114001   0.075   2.069   0.792 -1.1656 -1.0345  0.2085
 4665TIP3    H214002   0.216   2.053   0.843 -1.1287  1.8687  1.1825
 4666TIP3   OH214003   3.170   4.128   5.068 -0.3491  0.2165  0.3666
 4666TIP3    H114004   3.234   4.166   5.128 -2.1576  0.2975  2.3493
 4666TIP3    H214005   3.170   4.035   5.087 -1.0283  0.2607  0.6060
 4667TIP3   OH214006   3.577   2.578   1.286  0.1712 -0.3672  0.0186
 4667TIP3    H114007   3.551   2.504   1.340 -0.4015  0.9213  1.6015
 4667TIP3    H214008   3.496   2.611   1.249  0.0864  0.8216  1.1820
 4668TIP3   OH214009   3.463   1.278   2.303  0.3836 -0.3284  0.3094
 4668TIP3    H114010   3.396   1.237   2.358  0.7409  0.6719  1.5271
 4668TIP3    H214011   3.418   1.296   2.220 -0.6630 -0.3308  0.8628
 4669TIP3   OH214012   0.107   0.883   1.183 -0.2241  0.1643  0.2573
 4669TIP3    H114013   0.197   0.853   1.171  0.0237  0.9178  0.1632
 4669TIP3    H214014   0.053   0.810   1.154  0.3541 -0.3854  0.5315
 4670TIP3   OH214015   2.572   1.312   1.367  0.6268 -0.2227  0.0646
 4670TIP3    H114016   2.566   1.364   1.446  2.4390  0.4294 -0.1665
 4670TIP3    H214017   2.565   1.221   1.397  3.7063 -0.1432  1.4011
 4671TIP3   OH214018   1.313   4.262   0.908 -0.8987 -0.2337  0.0653
 4671TIP3    H114019   1.338   4.188   0.852  1.3238 -0.2168  0.9620
 4671TIP3    H214020   1.307   4.337   0.848 -0.7806 -0.6543 -0.4797
 4672TIP3   OH214021   3.566   5.380   3.020  0.3802 -0.0563  0.2155
 4672TIP3    H114022   3.640   5.321   3.004  0.9105  0.9764 -1.3836
 4672TIP3    H214023   3.591   5.427   3.100  1.2664 -0.0129 -0.0740
 4673TIP3   OH214024   5.245   4.718   1.603  0.2329  0.4948 -0.1071
 4673TIP3    H114025   5.328   4.685   1.638 -0.7384  0.5731  2.4174
 4673TIP3    H214026   5.260   4.811   1.589  0.1301  0.8264  1.8420
 4674TIP3   OH214027   5.522   5.576   0.578 -0.7385 -0.5287 -0.5095
 4674TIP3    H114028   5.528   5.503   0.516 -1.5058  0.5562 -1.9354
 4674TIP3    H214029   5.611   5.610   0.585 -0.5075 -1.1609 -0.3996
 4675TIP3   OH214030   0.875   3.194   2.901  0.0619 -0.1263 -0.0129
 4675TIP3    H114031   0.808   3.139   2.942  0.3040  0.6057  1.4025
 4675TIP3    H214032   0.845   3.204   2.810 -2.0918  0.6639  0.7206
 4676TIP3   OH214033   1.027   2.340   0.939 -0.0214  0.4945 -0.1580
 4676TIP3    H114034   0.931   2.349   0.934 -0.1490 -0.3331  0.4984
 4676TIP3    H214035   1.041   2.283   1.015  0.8303 -1.6400 -1.8022
 4677TIP3   OH214036   0.984   5.103   0.882  0.2844  0.0753 -0.0553
 4677TIP3    H114037   0.987   5.007   0.891  2.9984 -0.0911 -1.4309
 4677TIP3    H214038   0.912   5.130   0.938 -1.0835 -2.8237 -0.1950
 4678TIP3   OH214039   0.449   1.667   1.693 -0.5323 -0.3054  0.7556
 4678TIP3    H114040   0.356   1.685   1.697 -0.5502  0.3604 -1.4511
 4678TIP3    H214041   0.455   1.573   1.678 -0.9304 -0.0872 -0.8587
 4679TIP3   OH214042   1.790   5.562   4.183  0.3493  0.2831 -0.0271
 4679TIP3    H114043   1.744   5.594   4.261  1.0072  0.4980  0.2747
 4679TIP3    H214044   1.882   5.566   4.206  0.4826 -1.5682 -0.0799
 4680TIP3   OH214045   0.899   4.236   2.717 -1.4822  0.5130  0.0786
 4680TIP3    H114046   0.965   4.179   2.757 -2.2631 -1.1602 -0.8738
 4680TIP3    H214047   0.943   4.276   2.642 -0.8792  1.3082  0.8458
 4681TIP3   OH214048   4.282   0.739   0.301 -0.3641 -0.1905 -0.2117
 4681TIP3    H114049   4.296   0.833   0.313 -0.1463 -0.4007  1.3810
 4681TIP3    H214050   4.370   0.703   0.290 -0.4176 -0.2701 -0.3861
 4682TIP3   OH214051   2.870   3.651   4.662 -0.4134 -0.1629 -0.1792
 4682TIP3    H114052   2.946   3.693   4.702 -0.8316 -0.5996  1.1445
 4682TIP3    H214053   2.804   3.720   4.656 -1.1429 -0.5788  2.1029
 4683TIP3   OH214054   1.097   0.921   3.361  0.1529 -1.0702  0.3185
 4683TIP3    H114055   1.052   0.852   3.410 -0.4830 -1.3372 -0.6246
 4683TIP3    H214056   1.049   0.928   3.279  0.0640  0.6505  0.4789
 4684TIP3   OH214057   4.301   2.111   1.828  0.5953  0.0021 -0.3789
 4684TIP3    H114058   4.218   2.108   1.779  1.3416  0.4977 -1.7304
 4684TIP3    H214059   4.345   2.190   1.796  0.8227  0.7390  1.6426
 4685TIP3   OH214060   1.563   2.120   2.203  0.1818 -0.0624 -0.2990
 4685TIP3    H114061   1.496   2.136   2.137  0.0892  0.7550 -0.0189
 4685TIP3    H214062   1.540   2.177   2.276  1.0781  0.1051 -0.1260
 4686TIP3   OH214063   3.413   3.539   2.617 -0.1210  0.1793  0.2204
 4686TIP3    H114064   3.489   3.571   2.665 -0.3099 -1.5806  1.8039
 4686TIP3    H214065   3.394   3.453   2.656 -1.1128 -0.7565 -2.1311
 4687TIP3   OH214066   3.582   1.531   1.860  0.2217 -0.6912 -0.0614
 4687TIP3    H114067   3.675   1.519   1.879  0.0463 -0.9662  0.6599
 4687TIP3    H214068   3.543   1.554   1.944 -0.7462 -2.8711  0.1470
 4688TIP3   OH214069   1.103   1.905   1.728  0.1891  0.0413  0.0135
 4688TIP3    H114070   1.183   1.862   1.698 -0.9320 -2.1168 -0.0757
 4688TIP3    H214071   1.123   1.930   1.819  1.1800  0.1607 -0.2187
 4689TIP3   OH214072   6.317   1.595   1.896  0.5659  0.0883  0.1674
 4689TIP3    H114073   6.335   1.568   1.986 -1.1571  0.0864  0.5578
 4689TIP3    H214074   6.276   1.518   1.856 -2.6653  1.3236  0.7325
 4690TIP3   OH214075   2.341   4.347   4.124 -0.3922 -0.1321  0.3734
 4690TIP3    H114076   2.297   4.328   4.041  0.1608  1.5848 -0.3610
 4690TIP3    H214077   2.434   4.338   4.104 -0.1698  2.0196  0.2973
 4691TIP3   OH214078   5.663   3.640   1.676 -0.2642  0.0750  0.7314
 4691TIP3    H114079   5.714   3.595   1.608 -0.9358 -0.9221  0.8759
 4691TIP3    H214080   5.718   3.635   1.754  0.2013  0.6056  0.4485
 4692TIP3   OH214081   3.540   1.898   4.567 -0.5279 -0.0402 -0.3083
 4692TIP3    H114082   3.456   1.852   4.566  0.0488 -1.2741  2.0446
 4692TIP3    H214083   3.593   1.852   4.502 -1.2704 -0.0033 -0.9585
 4693TIP3   OH214084   2.100   4.289   0.084 -0.2008 -0.0458  0.1169
 4693TIP3    H114085   2.017   4.336   0.073 -1.0063 -1.7412 -1.5280
 4693TIP3    H214086   2.144   4.299  -0.000 -0.0941 -1.6367 -0.0411
 4694TIP3   OH214087   2.754   1.942   3.605  0.2604  0.1214 -0.1284
 4694TIP3    H114088   2.812   1.890   3.550  0.6013  0.6752 -0.3012
 4694TIP3    H214089   2.811   1.976   3.674 -0.4737 -2.0040  1.6567
 4695TIP3   OH214090   3.407   2.332   4.741 -0.3350  0.0780 -0.2695
 4695TIP3    H114091   3.396   2.422   4.772 -0.5685 -0.5018  1.4571
 4695TIP3    H214092   3.485   2.335   4.686  0.4148  1.1118  0.7909
 4696TIP3   OH214093   2.354   1.483   1.840 -0.2727  0.3884  0.0820
 4696TIP3    H114094   2.351   1.412   1.776  0.8718 -0.8343  1.3227
 4696TIP3    H214095   2.406   1.448   1.912 -0.6811  2.0823  1.2520
 4697TIP3   OH214096   0.331   3.948   2.264  0.4670 -0.0875  0.1941
 4697TIP3    H114097   0.282   3.924   2.342 -0.7172  0.5789 -0.3267
 4697TIP3    H214098   0.276   3.920   2.191 -0.0423  2.3366 -0.4323
 4698TIP3   OH214099   2.915   1.327   0.483 -0.2598 -0.5495  0.5994
 4698TIP3    H114100   2.882   1.386   0.551 -0.1110  0.7913 -0.4350
 4698TIP3    H214101   2.836   1.291   0.443 -0.3871 -0.1919  0.5229
 4699TIP3   OH214102   5.719   5.136   1.815  0.2650 -0.1262 -0.4052
 4699TIP3    H114103   5.799   5.178   1.786  0.2556  0.2313  0.0782
 4699TIP3    H214104   5.745   5.084   1.890 -0.0912  0.6064  0.2407
 4700TIP3   OH214105   1.238   4.431   0.489 -0.3121  0.3410  0.1872
 4700TIP3    H114106   1.221   4.346   0.447  0.0788  0.7710 -0.8715
 4700TIP3    H214107   1.308   4.412   0.552 -1.6382 -0.5354  1.4848
 4701TIP3   OH214108   3.241   1.291   1.025  0.7833  0.0320  0.0617
 4701TIP3    H114109   3.333   1.311   1.041  0.4828  1.3035  0.2526
 4701TIP3    H214110   3.222   1.217   1.082  1.4603  0.3145  0.6580
 4702TIP3   OH214111   5.143   1.846   1.343 -0.8850  0.0594 -0.9489
 4702TIP3    H114112   5.130   1.759   1.307 -1.1065  0.0906 -0.9456
 4702TIP3    H214113   5.151   1.832   1.438  1.4161 -0.2205 -1.1233
 4703TIP3   OH214114   0.793   5.873   2.914  0.2089 -0.1568  0.5953
 4703TIP3    H114115   0.839   5.823   2.847 -1.0150 -2.0641  1.0883
 4703TIP3    H214116   0.859   5.890   2.982  0.9494 -0.0081 -0.1531
 4704TIP3   OH214117   1.336   1.829   3.850 -0.1279 -0.1727 -0.3875
 4704TIP3    H114118   1.275   1.858   3.918  0.7730  0.5987  0.1213
 4704TIP3    H214119   1.282   1.781   3.787 -0.6272 -3.2726  2.1587
 4705TIP3   OH214120   1.270   1.990   1.348  0.1496  0.0020 -0.1407
 4705TIP3    H114121   1.309   1.914   1.304  1.9480  0.6542  0.2407
 4705TIP3    H214122   1.300   1.982   1.439  2.1367  2.2291 -0.5177
 4706TIP3   OH214123   4.544   2.965   1.405  0.0115  0.7647  0.5611
 4706TIP3    H114124   4.557   2.979   1.498 -0.5772  0.4873  0.6896
 4706TIP3    H214125   4.520   2.872   1.398  3.5309 -0.2259 -0.2222
 4707TIP3   OH214126   4.778   2.024   4.570 -0.1805 -0.7641 -0.1326
 4707TIP3    H114127   4.747   1.995   4.484 -0.3699  0.0826 -0.3550
 4707TIP3    H214128   4.869   2.050   4.556  0.2866 -2.0735  0.2623
 4708TIP3   OH214129   1.730   1.320   0.129 -0.2519  0.4997 -0.4851
 4708TIP3    H114130   1.820   1.302   0.158 -0.6747 -0.2986  0.3925
 4708TIP3    H214131   1.732   1.305   0.034  0.2066 -0.9749 -0.2665
 4709TIP3   OH214132   3.388   2.025   2.625  0.2587  0.1111  0.2814
 4709TIP3    H114133   3.431   2.057   2.546  0.0727 -0.6869 -0.1524
 4709TIP3    H214134   3.452   2.040   2.695  0.3848  0.9163  0.0017
 4710TIP3   OH214135   2.644   4.494   3.754 -0.2390 -0.5086 -0.3389
 4710TIP3    H114136   2.682   4.477   3.667  1.4688 -1.6484  0.5770
 4710TIP3    H214137   2.587   4.570   3.740 -0.6706 -1.1724 -2.6154
 4711TIP3   OH214138   2.850   2.000   1.440  0.4797  0.0728 -0.0589
 4711TIP3    H114139   2.825   1.911   1.416  1.2184 -0.4790  1.1109
 4711TIP3    H214140   2.894   1.990   1.525 -1.3743  1.7918  1.2172
 4712TIP3   OH214141   0.676   2.964   5.140 -0.1838  0.1081 -0.1054
 4712TIP3    H114142   0.652   2.905   5.212 -1.7923  1.3070  0.3965
 4712TIP3    H214143   0.620   3.040   5.152  0.6622  1.0331 -1.7163
 4713TIP3   OH214144   5.694   1.499   4.505 -0.0262 -0.1703 -0.2727
 4713TIP3    H114145   5.759   1.566   4.522 -3.0117  2.1477  3.7677
 4713TIP3    H214146   5.633   1.539   4.443  0.3428 -0.8873 -1.1327
 4714TIP3   OH214147   4.673   4.188   3.857  0.2300  0.0392  0.1174
 4714TIP3    H114148   4.633   4.186   3.944  0.7152 -0.5621  0.3395
 4714TIP3    H214149   4.757   4.233   3.871  0.8560 -1.1095  0.2226
 4715TIP3   OH214150   0.910   0.097   1.339 -0.5284 -0.1869 -0.2365
 4715TIP3    H114151   0.940   0.128   1.254  1.0832  0.3334  0.4861
 4715TIP3    H214152   0.817   0.078   1.326 -0.5920  0.9885 -1.7901
 4716TIP3   OH214153   5.793   0.794   1.690 -0.1035 -0.0662  0.0037
 4716TIP3    H114154   5.809   0.867   1.630  1.7963  0.6053  1.2287
 4716TIP3    H214155   5.749   0.833   1.765 -1.3911 -0.6846 -0.4059
 4717TIP3   OH214156   5.886   5.536   1.320  0.0999  0.2431 -0.0334
 4717TIP3    H114157   5.811   5.583   1.355  0.3101  1.2830 -0.9491
 4717TIP3    H214158   5.855   5.446   1.311 -0.9742  0.6146 -0.2074
 4718TIP3   OH214159   0.110   2.951   1.902  0.1374 -0.1526 -0.3362
 4718TIP3    H114160   0.188   3.002   1.922  0.8589 -1.4241  0.2074
 4718TIP3    H214161   0.072   2.930   1.987  0.4146 -1.3444 -0.4856
 4719TIP3   OH214162   6.163   0.334   1.479  0.2007  0.3062  0.8603
 4719TIP3    H114163   6.120   0.249   1.480  0.2195  0.2933  0.5302
 4719TIP3    H214164   6.126   0.380   1.555 -0.5975  0.3947  0.4218
 4720TIP3   OH214165   1.875   4.754   0.270  0.1825 -0.1128  0.8331
 4720TIP3    H114166   1.837   4.688   0.328  1.2414 -0.1072  1.5735
 4720TIP3    H214167   1.958   4.777   0.312 -0.0524  1.5041  0.4523
 4721TIP3   OH214168   4.275   4.130   4.779  0.2867  0.2241 -0.3530
 4721TIP3    H114169   4.339   4.185   4.826  1.7614 -0.6723 -1.2401
 4721TIP3    H214170   4.227   4.085   4.849  2.0164 -0.6164  0.3554
 4722TIP3   OH214171   4.707   2.409   2.507  0.1417 -0.3617  0.9169
 4722TIP3    H114172   4.766   2.479   2.533  0.9454 -0.7968  0.2904
 4722TIP3    H214173   4.707   2.412   2.412 -1.3006 -0.0060  0.8967
 4723TIP3   OH214174   0.622   5.199   4.731 -0.3908  0.7678 -0.3469
 4723TIP3    H114175   0.582   5.164   4.651 -0.7529  0.5636 -0.0790
 4723TIP3    H214176   0.700   5.145   4.744 -0.2434  0.9037 -0.6470
 4724TIP3   OH214177   5.016   5.783   4.435  0.4231 -0.1339  0.0920
 4724TIP3    H114178   4.986   5.822   4.518  0.2387 -0.2116  0.0615
 4724TIP3    H214179   5.101   5.824   4.420  1.4185 -1.6064  1.3685
 4725TIP3   OH214180   0.674   0.934   3.168  0.1076  0.0380  0.2376
 4725TIP3    H114181   0.737   0.997   3.133 -0.3243 -0.2127 -1.0534
 4725TIP3    H214182   0.593   0.984   3.181 -0.1707 -0.1855 -0.5767
 4726TIP3   OH214183   2.201   5.226   3.481  0.2391 -0.8013 -0.3580
 4726TIP3    H114184   2.114   5.227   3.520  0.5478  0.7369  0.3698
 4726TIP3    H214185   2.209   5.139   3.443 -1.6266 -0.9605 -0.4839
 4727TIP3   OH214186   4.548   5.957   0.182  0.1002 -0.2853  0.6331
 4727TIP3    H114187   4.454   5.952   0.200  0.1664 -2.5646  0.5181
 4727TIP3    H214188   4.588   5.973   0.267 -0.4141  1.8573  0.5319
 4728TIP3   OH214189   5.076   1.625   3.385  0.2151 -0.5652 -0.3272
 4728TIP3    H114190   5.166   1.597   3.403  0.6527  1.0751  0.2207
 4728TIP3    H214191   5.022   1.573   3.444  1.1424  0.8204  1.8596
 4729TIP3   OH214192   5.343   5.201   2.488 -0.3786 -0.2820 -0.2797
 4729TIP3    H114193   5.387   5.118   2.472 -1.6346 -0.7422 -1.5357
 4729TIP3    H214194   5.336   5.207   2.583  1.8869 -0.4283 -0.0606
 4730TIP3   OH214195   1.916   2.151   2.712  0.2358  0.0113 -0.0158
 4730TIP3    H114196   1.907   2.236   2.756  0.3206  1.4730 -2.6258
 4730TIP3    H214197   1.994   2.161   2.657 -0.9605 -0.9812 -1.9713
 4731TIP3   OH214198   3.179   2.996   4.479  0.1724 -0.1570 -0.4349
 4731TIP3    H114199   3.268   3.022   4.503 -0.1362 -0.5265  1.2321
 4731TIP3    H214200   3.136   2.977   4.562 -1.0478 -1.3709 -1.2960
 4732TIP3   OH214201   3.605   1.332   2.886 -0.2544 -0.0671 -0.2251
 4732TIP3    H114202   3.687   1.283   2.887 -0.6462 -0.7427  0.2169
 4732TIP3    H214203   3.631   1.424   2.886  0.4976 -0.2788 -0.7116
 4733TIP3   OH214204   1.096   3.402   1.905  0.3889  0.2380  0.1254
 4733TIP3    H114205   1.137   3.392   1.991 -3.5108 -3.0380  1.9318
 4733TIP3    H214206   1.088   3.312   1.872 -0.5764  1.2094 -2.5054
 4734TIP3   OH214207   0.308   0.045   1.304  0.5665  0.2518 -0.1350
 4734TIP3    H114208   0.389   0.057   1.354  0.4965  0.2258 -0.0159
 4734TIP3    H214209   0.238   0.067   1.366  0.3476 -2.1006  0.5522
 4735TIP3   OH214210   2.595   3.880   1.498 -0.0109 -0.8887 -0.3623
 4735TIP3    H114211   2.582   3.788   1.521  1.2330 -0.7766  0.8989
 4735TIP3    H214212   2.641   3.878   1.414  2.2257 -1.5314  0.8015
 4736TIP3   OH214213   5.769   4.977   2.357  0.4720  0.1837  0.2506
 4736TIP3    H114214   5.799   4.899   2.310 -0.0119  0.1983 -0.0885
 4736TIP3    H214215   5.742   4.944   2.442 -0.1586 -0.0898 -0.0531
 4737TIP3   OH214216   0.079   1.962   1.655 -0.0275 -0.5086  0.1789
 4737TIP3    H114217   0.043   2.045   1.625 -0.2826 -0.8839 -0.6035
 4737TIP3    H214218   0.015   1.896   1.625  0.8186 -1.0982 -0.3972
 4738TIP3   OH214219   2.957   3.882   2.002 -0.2565 -0.2517  0.2025
 4738TIP3    H114220   3.004   3.960   1.972 -1.3492  1.4647  2.6226
 4738TIP3    H214221   3.003   3.854   2.081 -0.6657 -1.2923  0.0956
 4739TIP3   OH214222   1.024   2.972   1.049  0.8230 -0.0875  0.6061
 4739TIP3    H114223   1.090   2.942   0.987  1.4235  0.0930  1.1472
 4739TIP3    H214224   0.941   2.953   1.006  1.2259  0.2744 -0.3667
 4740TIP3   OH214225   2.203   3.593   5.163  0.0994  0.0490  0.2909
 4740TIP3    H114226   2.188   3.688   5.164 -0.0979  0.0184  0.3110
 4740TIP3    H214227   2.119   3.556   5.188  0.2396 -0.1247  0.4980
 4741TIP3   OH214228   1.392   1.047   3.917  0.5883 -0.2463 -0.0354
 4741TIP3    H114229   1.313   0.992   3.918 -0.1994  0.8571  0.0615
 4741TIP3    H214230   1.457   0.996   3.966  0.1129 -1.4124 -0.5818
 4742TIP3   OH214231   2.676   2.642   4.242  0.2254  0.4462  0.3127
 4742TIP3    H114232   2.655   2.574   4.306  1.4979 -0.3901 -0.1163
 4742TIP3    H214233   2.647   2.606   4.158  2.0324 -0.1779 -0.1000
 4743TIP3   OH214234   2.164   5.308   2.470 -0.2718 -0.6749 -0.8389
 4743TIP3    H114235   2.077   5.269   2.460 -0.0713 -1.7915  1.1882
 4743TIP3    H214236   2.148   5.402   2.464 -2.0805 -0.6985  1.6522
 4744TIP3   OH214237   5.706   4.150   4.709  0.5184  0.7032 -0.7526
 4744TIP3    H114238   5.654   4.226   4.734  0.4308  0.9413 -1.6449
 4744TIP3    H214239   5.797   4.180   4.713  0.5832  0.3812  0.4854
 4745TIP3   OH214240   2.346   0.784   0.983  0.1127 -0.3205  0.3644
 4745TIP3    H114241   2.442   0.788   0.981  0.1083  0.2477  1.1517
 4745TIP3    H214242   2.324   0.768   1.074 -0.5697  0.0931  0.2782
 4746TIP3   OH214243   4.207   2.058   4.478 -0.9120 -0.3306  0.6097
 4746TIP3    H114244   4.266   2.129   4.504 -3.8818  3.1764 -1.3747
 4746TIP3    H214245   4.228   2.043   4.386  0.6437 -3.2757  1.3203
 4747TIP3   OH214246   3.715   3.518   3.771 -0.0962 -0.1086 -0.4352
 4747TIP3    H114247   3.735   3.472   3.853 -0.1791 -0.7674 -0.7724
 4747TIP3    H214248   3.667   3.453   3.719 -1.0809  0.6920 -0.5413
 4748TIP3   OH214249   0.788   0.396   3.775 -0.1090 -0.2255 -0.0164
 4748TIP3    H114250   0.754   0.350   3.699 -1.6922 -0.9585  1.0760
 4748TIP3    H214251   0.853   0.337   3.812  1.7640  0.7518 -1.5443
 4749TIP3   OH214252   5.828   0.579   1.540  0.2437 -0.8435  0.3290
 4749TIP3    H114253   5.911   0.550   1.578 -0.1206 -1.4355  0.6922
 4749TIP3    H214254   5.797   0.647   1.599 -0.1703 -1.5471  0.9398
 4750TIP3   OH214255   6.016   4.934   1.615 -0.1582 -0.8503  0.8969
 4750TIP3    H114256   6.017   5.022   1.652  1.7165 -0.5938  0.3506
 4750TIP3    H214257   5.928   4.901   1.633 -0.7656  0.9716  1.4739
 4751TIP3   OH214258   1.933   1.186   2.350  0.1485  0.1698  0.2870
 4751TIP3    H114259   1.970   1.102   2.377 -0.3886  0.3994  1.8639
 4751TIP3    H214260   1.870   1.164   2.282  0.3274 -0.6597  0.3763
 4752TIP3   OH214261   4.726   5.087   2.898 -0.1595 -0.1524 -0.1221
 4752TIP3    H114262   4.673   5.159   2.863 -1.6404 -2.0752 -2.1205
 4752TIP3    H214263   4.663   5.031   2.944  0.3214 -1.6539 -1.1737
 4753TIP3   OH214264   0.691   0.397   1.113 -0.2374  0.2351  0.1020
 4753TIP3    H114265   0.695   0.420   1.020 -2.1780  1.4803  0.2865
 4753TIP3    H214266   0.770   0.344   1.127 -0.4247 -0.8816 -2.4775
 4754TIP3   OH214267   3.282   0.826   5.079  0.0216 -0.3766  0.0144
 4754TIP3    H114268   3.371   0.835   5.113 -0.1145 -1.7184  0.8584
 4754TIP3    H214269   3.244   0.913   5.087  0.4572 -0.3137  2.1208
 4755TIP3   OH214270   4.055   0.194   2.096  0.3284 -0.0992 -0.3783
 4755TIP3    H114271   4.140   0.237   2.102 -0.8516  2.5307 -1.1385
 4755TIP3    H214272   4.058   0.148   2.012  1.0192 -0.1404 -0.3417
 4756TIP3   OH214273   6.020   0.389   1.040  0.1035  0.3168  0.0700
 4756TIP3    H114274   6.017   0.428   1.128 -0.4076 -2.5944  1.4831
 4756TIP3    H214275   6.113   0.370   1.025  0.2524  1.2577 -0.2706
 4757TIP3   OH214276   4.393   5.717   1.303  0.1744  0.1972 -0.7303
 4757TIP3    H114277   4.358   5.633   1.332  0.2420 -0.7135 -3.0221
 4757TIP3    H214278   4.381   5.776   1.377 -0.9925 -1.5301  0.5184
 4758TIP3   OH214279   3.262   2.202   1.544 -0.0985  0.3479  0.2366
 4758TIP3    H114280   3.187   2.157   1.584 -0.8968  2.1572  0.8831
 4758TIP3    H214281   3.314   2.233   1.619 -0.0746  1.2775 -0.1496
 4759TIP3   OH214282   1.282   3.821   3.110  1.1185 -0.1328  0.6138
 4759TIP3    H114283   1.316   3.732   3.096  0.7092 -0.2597  0.3971
 4759TIP3    H214284   1.222   3.812   3.184  1.5303  0.0849  0.9767
 4760TIP3   OH214285   2.386   5.896   0.974 -0.5509  0.4417  0.5064
 4760TIP3    H114286   2.382   5.974   1.029 -1.8115  0.6661  0.1218
 4760TIP3    H214287   2.359   5.926   0.888 -1.9258 -0.5748  0.5470
 4761TIP3   OH214288   1.451   5.931   5.094 -0.0470  0.1835  0.7583
 4761TIP3    H114289   1.540   5.944   5.061 -0.4862 -0.9951 -1.0968
 4761TIP3    H214290   1.400   6.000   5.051 -0.6649 -1.4955 -1.4195
 4762TIP3   OH214291   1.682   3.954   2.375 -0.1237  0.1427 -0.2884
 4762TIP3    H114292   1.725   3.933   2.292 -0.0498 -0.2905 -0.1456
 4762TIP3    H214293   1.612   3.889   2.382 -0.5937  0.6315 -0.3554
 4763TIP3   OH214294   0.428   0.269   0.171  0.1710  0.0605 -0.4447
 4763TIP3    H114295   0.402   0.202   0.235  1.6528  1.9505  2.3652
 4763TIP3    H214296   0.433   0.350   0.222  0.6855  1.8970 -3.1862
 4764TIP3   OH214297   1.966   0.633   5.064  0.5906  0.4328 -0.2657
 4764TIP3    H114298   1.956   0.543   5.095 -1.1888  0.5690 -0.3465
 4764TIP3    H214299   2.061   0.646   5.058  0.9102 -1.8774 -1.5252
 4765TIP3   OH214300   3.840   1.768   4.225  0.0908  0.6494 -0.0772
 4765TIP3    H114301   3.816   1.859   4.212 -0.0187  0.4308 -1.5580
 4765TIP3    H214302   3.863   1.736   4.138  0.0707 -0.7512  0.4029
 4766TIP3   OH214303   5.436   5.915   4.886 -0.0563 -0.0238 -0.3689
 4766TIP3    H114304   5.497   5.988   4.881  0.5893 -0.3512  1.8964
 4766TIP3    H214305   5.403   5.915   4.976 -0.6695 -2.0171 -0.5237
 4767TIP3   OH214306   0.398   3.996   3.019  0.1884  0.4810  0.1404
 4767TIP3    H114307   0.340   3.920   3.018  0.1999  0.4727  0.0551
 4767TIP3    H214308   0.477   3.966   3.064  0.6341  0.1095 -0.8516
 4768TIP3   OH214309   1.347   1.727   1.982  0.2433  0.6193 -0.0211
 4768TIP3    H114310   1.301   1.645   1.962  0.4513  0.4355  0.2435
 4768TIP3    H214311   1.411   1.703   2.049 -2.5432  1.7871  3.3187
 4769TIP3   OH214312   5.801   2.709   1.295  0.1846 -0.4489  0.1911
 4769TIP3    H114313   5.843   2.635   1.252  0.9057  0.3661 -0.5416
 4769TIP3    H214314   5.871   2.752   1.344 -0.1713 -0.1078  0.4106
 4770TIP3   OH214315   3.627   2.295   2.238 -0.1372  0.3548 -0.3875
 4770TIP3    H114316   3.641   2.351   2.315 -1.7405  0.5839 -0.2360
 4770TIP3    H214317   3.569   2.346   2.182 -0.1357 -0.4121 -1.0984
 4771TIP3   OH214318   4.234   2.642   4.644 -0.2829  0.1915  0.4561
 4771TIP3    H114319   4.161   2.622   4.584 -0.5314  1.7642  0.1839
 4771TIP3    H214320   4.279   2.715   4.602 -0.2545  1.1159  2.0185
 4772TIP3   OH214321   1.719   2.517   1.817  0.0922 -0.0908 -0.2324
 4772TIP3    H114322   1.769   2.533   1.897  1.0049 -1.2670 -0.5480
 4772TIP3    H214323   1.683   2.429   1.829 -1.1389  0.3708 -0.4191
 4773TIP3   OH214324   2.506   2.166   4.572 -0.3951  0.6967 -1.1831
 4773TIP3    H114325   2.558   2.113   4.511  0.4523 -1.3041  1.1102
 4773TIP3    H214326   2.417   2.131   4.564  0.1815 -1.3317  0.4222
 4774TIP3   OH214327   1.366   3.220   0.558  0.1378 -0.7263 -0.6863
 4774TIP3    H114328   1.292   3.176   0.518 -0.1124 -0.6444 -0.3172
 4774TIP3    H214329   1.333   3.253   0.642  0.6092 -0.7577 -0.4810
 4775TIP3   OH214330   2.201   5.657   0.504  0.1072 -0.1926 -0.0933
 4775TIP3    H114331   2.247   5.730   0.547 -1.6882  1.3656 -0.6655
 4775TIP3    H214332   2.241   5.652   0.418  0.2324  0.1334 -0.0573
 4776TIP3   OH214333   5.608   4.839   0.090 -0.3392  0.2688  0.4937
 4776TIP3    H114334   5.580   4.924   0.124 -0.4402  0.4851 -0.1075
 4776TIP3    H214335   5.665   4.861   0.016 -0.5618 -0.1835  0.1865
 4777TIP3   OH214336   4.848   5.790   5.055  0.6189  0.0446  0.2890
 4777TIP3    H114337   4.785   5.769   4.986 -0.4842  0.2708  1.1943
 4777TIP3    H214338   4.933   5.790   5.011  0.0273 -0.6028 -0.8941
 4778TIP3   OH214339   2.541   3.382   2.256 -0.1299 -0.1190  0.2726
 4778TIP3    H114340   2.559   3.293   2.227  2.3790  0.3341  0.2169
 4778TIP3    H214341   2.626   3.417   2.280 -1.1993  1.9133  1.3824
 4779TIP3   OH214342   3.544   5.207   2.056  0.0579  0.3463 -0.1340
 4779TIP3    H114343   3.589   5.249   1.983 -1.0020  0.5193 -0.7174
 4779TIP3    H214344   3.554   5.113   2.039 -0.7166  0.3836 -0.8644
 4780TIP3   OH214345   4.405   4.744   4.024  0.5335 -0.0888 -0.1434
 4780TIP3    H114346   4.417   4.650   4.036 -0.5567 -0.0419  1.7635
 4780TIP3    H214347   4.493   4.781   4.028  0.7770 -0.6077  4.1505
 4781TIP3   OH214348   3.158   3.120   3.701  0.0459  0.2113  0.2553
 4781TIP3    H114349   3.081   3.117   3.645  0.1392 -0.6176  0.1606
 4781TIP3    H214350   3.127   3.092   3.787  0.5613 -1.8908 -0.1857
 4782TIP3   OH214351   2.546   3.065   5.122 -0.1055 -0.1257 -0.1682
 4782TIP3    H114352   2.535   3.024   5.208 -0.7972  1.0299  0.3196
 4782TIP3    H214353   2.536   2.993   5.060 -0.4895 -0.8378  0.6883
 4783TIP3   OH214354   5.144   0.322   1.360 -0.4298 -0.6545 -0.1697
 4783TIP3    H114355   5.236   0.332   1.334 -0.3380  0.2416  0.4505
 4783TIP3    H214356   5.148   0.274   1.443 -0.4123  0.4798  0.5191
 4784TIP3   OH214357   3.170   2.443   1.145 -0.3102  0.2901  0.8209
 4784TIP3    H114358   3.090   2.428   1.096 -0.7797  0.3340  1.5553
 4784TIP3    H214359   3.193   2.358   1.181  0.1897  0.1992  0.3091
 4785TIP3   OH214360   1.960   0.228   4.256  0.1394  0.3547  0.6084
 4785TIP3    H114361   1.885   0.169   4.255  0.3795  0.0575  0.1353
 4785TIP3    H214362   2.029   0.180   4.212  0.1917  1.1799 -0.2247
 4786TIP3   OH214363   1.144   3.417   1.278 -0.2278  0.4297 -0.2815
 4786TIP3    H114364   1.101   3.502   1.287  0.3796  0.9244 -1.7181
 4786TIP3    H214365   1.238   3.437   1.278 -0.0827 -0.0383 -1.9749
 4787TIP3   OH214366   0.671   2.634   3.294  0.6064  0.3088 -0.0291
 4787TIP3    H114367   0.690   2.567   3.228 -1.2963 -0.6499  0.3245
 4787TIP3    H214368   0.749   2.635   3.349  0.9926 -1.0809 -0.4932
 4788TIP3   OH214369   0.175   1.053   0.335  0.3560  0.1629  0.5710
 4788TIP3    H114370   0.231   1.096   0.271  0.0656  0.6065  0.6077
 4788TIP3    H214371   0.168   0.963   0.304 -1.2417  0.7813 -1.0650
 4789TIP3   OH214372   0.302   5.955   3.934 -0.1667  0.3283 -0.3446
 4789TIP3    H114373   0.388   5.925   3.904  0.2346  1.2106 -0.0821
 4789TIP3    H214374   0.319   6.036   3.981 -1.1466  0.5257 -0.3066
 4790TIP3   OH214375   1.636   1.719   3.338 -0.1043  0.0676  0.6702
 4790TIP3    H114376   1.611   1.713   3.246  0.0968 -0.2044  0.6319
 4790TIP3    H214377   1.685   1.802   3.344 -0.1508  0.1045  0.5398
 4791TIP3   OH214378   4.449   5.379   1.332  0.8183  0.4670 -0.2205
 4791TIP3    H114379   4.501   5.433   1.273 -1.2121  1.3646 -1.2839
 4791TIP3    H214380   4.405   5.316   1.275  2.3382 -1.7812  0.8803
 4792TIP3   OH214381   1.226   1.612   3.135 -0.1524  0.1392  0.6486
 4792TIP3    H114382   1.240   1.703   3.109  2.0337 -0.0556  1.0151
 4792TIP3    H214383   1.271   1.560   3.068 -1.8781 -0.7445  0.1044
 4793TIP3   OH214384   0.082   5.819   4.431 -0.9293  0.5306 -0.1515
 4793TIP3    H114385   0.022   5.782   4.496 -0.7875  1.4412  0.5206
 4793TIP3    H214386   0.161   5.766   4.439 -2.0701 -1.5854 -2.0213
 4794TIP3   OH214387   6.344   2.189   1.442 -0.3269  0.5670 -0.5182
 4794TIP3    H114388   6.285   2.219   1.512  0.0872 -0.1057  0.1458
 4794TIP3    H214389   6.303   2.109   1.409 -0.6861  1.0559 -1.2808
 4795TIP3   OH214390   3.557   2.814   4.484  0.3495  0.7630  0.2572
 4795TIP3    H114391   3.636   2.764   4.504 -0.3343 -0.0608  1.0181
 4795TIP3    H214392   3.553   2.815   4.389 -0.9974 -3.0426  0.0978
 4796TIP3   OH214393   6.124   0.740   5.023 -0.4747 -0.1614  0.3788
 4796TIP3    H114394   6.054   0.753   4.959 -1.3385  2.0470  1.6420
 4796TIP3    H214395   6.178   0.819   5.015  1.0555 -1.1649  0.4455
 4797TIP3   OH214396   4.625   1.350   0.560 -0.0012 -0.0608  0.0113
 4797TIP3    H114397   4.606   1.308   0.644  1.0785 -0.5549  0.0233
 4797TIP3    H214398   4.610   1.443   0.575 -0.0140 -0.1718  0.6903
 4798TIP3   OH214399   0.764   2.258   2.566  0.5724  0.2985  0.1326
 4798TIP3    H114400   0.763   2.204   2.645 -1.6186 -0.3402 -0.2752
 4798TIP3    H214401   0.806   2.203   2.500  1.1241  0.2964  0.4718
 4799TIP3   OH214402   5.461   3.813   1.606 -0.5988  0.5193 -0.0780
 4799TIP3    H114403   5.382   3.759   1.617 -1.1910  0.6722 -2.7916
 4799TIP3    H214404   5.533   3.756   1.631 -1.3785 -0.7704 -0.6772
 4800TIP3   OH214405   4.899   1.834   1.762  0.2510  0.7079 -0.0120
 4800TIP3    H114406   4.899   1.866   1.852  0.5092  0.5871  0.0309
 4800TIP3    H214407   4.820   1.779   1.756 -0.2181  1.3777 -0.0967
 4801TIP3   OH214408   5.291   0.326   4.171  0.0035  0.5739  0.2707
 4801TIP3    H114409   5.198   0.339   4.154 -0.2360 -0.6684  0.5141
 4801TIP3    H214410   5.294   0.289   4.260  0.7527  0.8840  0.3820
 4802TIP3   OH214411   4.508   2.112   2.044 -0.3909 -0.6205 -1.0134
 4802TIP3    H114412   4.436   2.057   2.013 -0.0623 -1.2660 -0.6674
 4802TIP3    H214413   4.559   2.131   1.966 -1.4454  0.6403 -1.4241
 4803TIP3   OH214414   4.994   1.538   0.767  0.0292  0.5837 -0.2808
 4803TIP3    H114415   4.963   1.450   0.747 -0.0490 -0.7411  4.5100
 4803TIP3    H214416   4.939   1.596   0.714 -4.3766 -2.0035  1.0154
 4804TIP3   OH214417   2.976   2.735   0.092 -0.0990  0.0367 -0.4323
 4804TIP3    H114418   2.926   2.801   0.044 -1.3562 -0.1813  0.5356
 4804TIP3    H214419   2.927   2.722   0.173 -0.3282 -2.6616 -0.9356
 4805TIP3   OH214420   5.345   0.594   4.254  0.1547 -0.0564 -0.0087
 4805TIP3    H114421   5.302   0.509   4.249 -1.4383  0.7759 -1.2288
 4805TIP3    H214422   5.422   0.579   4.309  0.1793 -2.3793 -0.6014
 4806TIP3   OH214423   2.552   0.433   4.386  0.1479 -0.3440 -0.5170
 4806TIP3    H114424   2.460   0.421   4.410  0.4960 -0.7680  0.6723
 4806TIP3    H214425   2.591   0.346   4.397  0.8221 -0.0368 -0.4136
 4807TIP3   OH214426   4.038   5.358   3.335 -0.1940 -0.7032  0.0872
 4807TIP3    H114427   3.950   5.334   3.362 -0.1728 -0.5772  0.2782
 4807TIP3    H214428   4.093   5.285   3.364 -0.2554 -0.8521 -0.1689
 4808TIP3   OH214429   2.411   5.687   0.337 -0.5419  0.1474  0.6283
 4808TIP3    H114430   2.441   5.694   0.246 -0.4387  1.6349  0.7470
 4808TIP3    H214431   2.440   5.601   0.365 -2.4725 -1.2770 -1.3936
 4809TIP3   OH214432   0.150   5.471   0.546  0.3289  0.5178 -0.0701
 4809TIP3    H114433   0.229   5.453   0.494  1.4874  4.4288 -0.0250
 4809TIP3    H214434   0.149   5.402   0.612  0.7909 -2.5679 -2.9932
 4810TIP3   OH214435   1.394   0.250   2.346 -0.2897  0.2982  0.0352
 4810TIP3    H114436   1.397   0.319   2.279  0.3577 -0.9969 -1.3315
 4810TIP3    H214437   1.485   0.223   2.357 -0.4177  0.3563  1.3222
 4811TIP3   OH214438   3.099   3.193   1.685 -0.0197 -0.1253  0.0718
 4811TIP3    H114439   3.194   3.184   1.679  0.1235 -0.2767  1.9400
 4811TIP3    H214440   3.069   3.109   1.722 -0.8814 -0.0677 -0.4568
 4812TIP3   OH214441   6.269   3.592   2.782  0.5704 -0.1594 -0.2111
 4812TIP3    H114442   6.248   3.525   2.717 -4.4080  1.8896 -1.1504
 4812TIP3    H214443   6.279   3.542   2.864  2.4471 -2.3975 -1.6876
 4813TIP3   OH214444   4.029   0.212   3.990 -0.4613  0.5478  0.0017
 4813TIP3    H114445   4.106   0.264   4.014 -0.1347  0.1123 -0.0898
 4813TIP3    H214446   4.009   0.240   3.901 -0.1239  0.3311 -0.1453
 4814TIP3   OH214447   3.973   5.380   2.332 -0.0381 -0.3542  0.5650
 4814TIP3    H114448   3.880   5.373   2.311  0.5478  0.0228 -2.6204
 4814TIP3    H214449   3.983   5.467   2.371 -1.3134 -1.3650  3.4257
 4815TIP3   OH214450   0.579   0.670   3.582 -0.9348  0.2506 -0.7201
 4815TIP3    H114451   0.671   0.690   3.600 -0.2531 -3.2143  0.2659
 4815TIP3    H214452   0.560   0.716   3.501  0.9072  2.9508  0.2409
 4816TIP3   OH214453   4.732   2.580   0.647  0.7061  0.6031 -0.4251
 4816TIP3    H114454   4.724   2.596   0.553  0.7953 -0.1708 -0.5713
 4816TIP3    H214455   4.673   2.644   0.687 -0.3922  0.0402 -1.0908
 4817TIP3   OH214456   0.248   4.238   5.135  0.5075  0.1730 -0.1525
 4817TIP3    H114457   0.290   4.308   5.186 -0.0258  0.4473 -0.0698
 4817TIP3    H214458   0.304   4.226   5.059 -0.2845  1.9238 -1.0709
 4818TIP3   OH214459   3.018   3.974   1.232  0.5095  0.4981 -0.2517
 4818TIP3    H114460   2.996   4.057   1.275 -1.1626  0.2679 -0.6115
 4818TIP3    H214461   2.935   3.926   1.227  1.2972 -0.8903 -0.7410
 4819TIP3   OH214462   4.718   5.149   3.730 -0.3507  0.4427  0.3105
 4819TIP3    H114463   4.735   5.055   3.740  0.2961  0.2708 -1.8660
 4819TIP3    H214464   4.782   5.178   3.666 -0.6686  2.3585  0.8054
 4820TIP3   OH214465   5.525   5.875   0.623 -0.4257 -0.0420 -0.0020
 4820TIP3    H114466   5.499   5.812   0.556 -0.0733 -1.7766  1.4058
 4820TIP3    H214467   5.615   5.851   0.645  0.1222  1.6887 -0.2024
 4821TIP3   OH214468   4.817   2.754   4.513 -0.0517 -0.0119  0.4637
 4821TIP3    H114469   4.880   2.748   4.585 -0.9147 -0.9394  1.1609
 4821TIP3    H214470   4.733   2.732   4.553 -0.4872 -0.9598 -0.9232
 4822TIP3   OH214471   3.954   1.602   1.061  0.4952  0.5404  0.6422
 4822TIP3    H114472   4.047   1.625   1.057  0.5688  0.1825  0.1979
 4822TIP3    H214473   3.910   1.686   1.076  0.7561  1.0363 -1.1266
 4823TIP3   OH214474   2.513   0.241   3.341  0.0691 -0.1205 -0.5210
 4823TIP3    H114475   2.547   0.328   3.362 -0.0743  0.6399 -3.0904
 4823TIP3    H214476   2.418   0.252   3.336 -0.0189 -0.6272 -0.0306
 4824TIP3   OH214477   6.372   4.221   1.129  0.9188 -0.3103 -0.0080
 4824TIP3    H114478   6.306   4.152   1.117 -0.2612  0.7762  0.1089
 4824TIP3    H214479   6.327   4.302   1.106  1.7150  0.6529  1.6814
 4825TIP3   OH214480   1.052   5.252   4.804  0.1176  0.0588  0.0858
 4825TIP3    H114481   1.132   5.201   4.797  1.6356  2.3258 -0.2230
 4825TIP3    H214482   1.013   5.247   4.716  0.3048 -0.4712  0.0300
 4826TIP3   OH214483   5.505   0.263   3.500  0.5397 -0.2049 -0.2905
 4826TIP3    H114484   5.600   0.273   3.507  0.6866  1.0835 -2.9820
 4826TIP3    H214485   5.492   0.194   3.435 -0.4241 -0.9424  0.6316
 4827TIP3   OH214486   3.253   5.428   1.561 -0.1068  0.0682 -0.1290
 4827TIP3    H114487   3.182   5.400   1.504 -0.1184  1.4608 -0.8467
 4827TIP3    H214488   3.213   5.490   1.621  0.0946 -0.7043  0.8219
 4828TIP3   OH214489   2.893   1.256  -0.013 -0.2543 -0.0047 -0.2023
 4828TIP3    H114490   2.843   1.174  -0.018  0.2083 -0.3697  0.8366
 4828TIP3    H214491   2.945   1.247   0.067  0.5493  0.8914 -0.6088
 4829TIP3   OH214492   1.196   0.998   2.657 -0.4393  0.4355  0.8348
 4829TIP3    H114493   1.126   1.040   2.708 -1.0337 -1.4899  1.7177
 4829TIP3    H214494   1.247   0.950   2.722  0.6093  0.3366 -0.0468
 4830TIP3   OH214495   1.928   4.942   4.463 -0.2421  0.0589  0.4344
 4830TIP3    H114496   2.014   4.904   4.444 -0.9146 -1.1182 -0.3886
 4830TIP3    H214497   1.867   4.887   4.415 -1.5670  0.1992  1.8918
 4831TIP3   OH214498   1.617   0.437   4.117  0.0008 -0.6216  0.2558
 4831TIP3    H114499   1.550   0.374   4.145 -0.2539 -0.3968  0.1528
 4831TIP3    H214500   1.581   0.479   4.039  0.8776 -1.5215 -0.6635
 4832TIP3   OH214501   5.308   4.414   4.170 -0.0078 -0.1035  0.2866
 4832TIP3    H114502   5.243   4.457   4.114 -0.3184 -1.1793 -0.2016
 4832TIP3    H214503   5.333   4.481   4.233  0.2299  1.1104 -1.0235
 4833TIP3   OH214504   5.340   3.845   1.944  0.5981  0.0324 -0.3605
 4833TIP3    H114505   5.305   3.788   1.876 -1.4803  0.7127  0.0481
 4833TIP3    H214506   5.263   3.872   1.994  1.6826  2.0483  0.3310
 4834TIP3   OH214507   0.171   3.332   3.098  0.0790 -0.2646 -0.3226
 4834TIP3    H114508   0.250   3.370   3.059  0.0400 -0.1954 -0.3339
 4834TIP3    H214509   0.110   3.405   3.104  0.7320  0.2006  1.5976
 4835TIP3   OH214510   5.603   3.230   0.057 -0.1044 -0.3550  0.3470
 4835TIP3    H114511   5.567   3.181   0.132  1.0417  1.5875  2.2813
 4835TIP3    H214512   5.698   3.219   0.065  0.2171  2.2453  0.9887
 4836TIP3   OH214513   0.732   0.933   3.822  0.4099  0.1684  0.0001
 4836TIP3    H114514   0.721   0.839   3.836 -0.4201  0.2477 -0.0624
 4836TIP3    H214515   0.802   0.959   3.882  0.7881 -0.5254 -0.1366
 4837TIP3   OH214516   4.565   3.240   0.541 -0.6849  0.0099 -0.8655
 4837TIP3    H114517   4.593   3.148   0.536  0.3945  0.1128  1.6406
 4837TIP3    H214518   4.569   3.271   0.451  0.3871 -1.9913 -1.5814
 4838TIP3   OH214519   2.480   0.952   0.748 -0.1437 -0.1952 -0.3769
 4838TIP3    H114520   2.462   0.972   0.656 -1.4110  0.4739 -0.0098
 4838TIP3    H214521   2.506   0.860   0.749 -0.8418 -0.4080 -1.3151
 4839TIP3   OH214522   3.258   2.583   2.717 -0.1205  0.1044  0.1139
 4839TIP3    H114523   3.200   2.632   2.659  2.8484  2.1851 -1.3574
 4839TIP3    H214524   3.308   2.651   2.763 -0.4914 -1.5429  3.2573
 4840TIP3   OH214525   6.314   2.345   4.646  0.4861 -0.5449 -0.0102
 4840TIP3    H114526   6.274   2.430   4.628  2.0160  0.4315  0.9688
 4840TIP3    H214527   6.272   2.314   4.726  1.1877  0.1474  0.6316
 4841TIP3   OH214528   3.951   3.448   0.185  0.6921 -0.5006 -0.5927
 4841TIP3    H114529   3.864   3.454   0.227  0.7765 -1.5028 -0.2272
 4841TIP3    H214530   3.943   3.374   0.125  1.6026 -1.3554  0.2803
 4842TIP3   OH214531   0.763   1.444   5.155 -0.4059  0.5743 -0.5714
 4842TIP3    H114532   0.748   1.493   5.075  2.6158  0.3815 -1.3610
 4842TIP3    H214533   0.802   1.361   5.126 -0.6496 -0.1409  1.0185
 4843TIP3   OH214534   6.150   5.638   3.155 -0.9360 -0.0807  0.6792
 4843TIP3    H114535   6.116   5.605   3.072  0.0904 -2.2495  1.0672
 4843TIP3    H214536   6.238   5.669   3.134 -0.0060 -2.1968  1.2040
 4844TIP3   OH214537   1.000   5.301   3.649 -0.3005  0.0237  0.1861
 4844TIP3    H114538   1.019   5.330   3.560 -0.7533  0.6362  0.2845
 4844TIP3    H214539   1.077   5.250   3.674  0.7657  1.5593  0.1865
 4845TIP3   OH214540   5.122   5.718   2.997  0.1580  0.3226 -0.7859
 4845TIP3    H114541   5.099   5.625   3.002  1.6191 -0.0274  0.0144
 4845TIP3    H214542   5.038   5.762   2.985 -0.7982 -0.9567  0.7564
 4846TIP3   OH214543   5.347   1.536   0.331 -0.1041  0.0283  0.6980
 4846TIP3    H114544   5.313   1.548   0.243  1.7159  0.8298  0.0471
 4846TIP3    H214545   5.353   1.442   0.343  0.0804 -0.0868 -0.2385
 4847TIP3   OH214546   3.503   0.662   0.049 -0.3457 -0.2783 -0.1252
 4847TIP3    H114547   3.567   0.638  -0.019  0.4822  0.0748  0.5173
 4847TIP3    H214548   3.466   0.578   0.077 -2.1058 -0.3406 -2.2977
 4848TIP3   OH214549   1.886   5.334   2.295  0.1190 -0.6628 -0.3693
 4848TIP3    H114550   1.965   5.307   2.249  0.1456 -0.7802 -0.2542
 4848TIP3    H214551   1.880   5.428   2.279  0.7596 -0.4864  0.3352
 4849TIP3   OH214552   1.724   5.690   0.676 -0.0704  0.3405  0.4977
 4849TIP3    H114553   1.633   5.683   0.646 -0.2014 -0.7611  1.1302
 4849TIP3    H214554   1.749   5.780   0.654 -0.0316 -0.4291 -3.2922
 4850TIP3   OH214555   2.787   2.655   1.985  0.3551  0.2554 -0.0825
 4850TIP3    H114556   2.747   2.737   1.957 -1.7417 -1.0723 -1.2447
 4850TIP3    H214557   2.881   2.673   1.985 -0.0380  2.6664 -0.1312
 4851TIP3   OH214558   5.491   4.047   0.308  0.0740  0.1786  0.5039
 4851TIP3    H114559   5.431   4.122   0.314  0.1269  0.2449  0.2076
 4851TIP3    H214560   5.526   4.051   0.219  0.8702  0.4112  0.8210
 4852TIP3   OH214561   2.442   5.911   1.561  0.1250 -0.0432  0.2174
 4852TIP3    H114562   2.435   5.825   1.601 -1.1297 -0.1253 -0.1360
 4852TIP3    H214563   2.354   5.949   1.571 -0.1558  0.0639 -2.1108
 4853TIP3   OH214564   0.522   2.125   0.702 -0.1621 -0.0263  0.6886
 4853TIP3    H114565   0.478   2.158   0.781  1.5819 -1.9241  2.5973
 4853TIP3    H214566   0.603   2.175   0.696 -0.0252 -0.2768  0.4140
 4854TIP3   OH214567   5.088   1.290   2.787  0.0912 -0.2557  0.1766
 4854TIP3    H114568   5.161   1.259   2.841  0.1503  0.1911  0.3666
 4854TIP3    H214569   5.009   1.262   2.834  0.1261 -1.3082 -0.3640
 4855TIP3   OH214570   1.570   3.272   2.112 -0.4615  0.4550  0.5730
 4855TIP3    H114571   1.622   3.283   2.033  1.0716 -1.8121  1.1584
 4855TIP3    H214572   1.625   3.218   2.170 -2.2626  0.4882  2.4464
 4856TIP3   OH214573   0.251   3.552   2.257  0.1436 -0.4047 -0.6892
 4856TIP3    H114574   0.295   3.540   2.341 -1.5705 -2.1846  0.0250
 4856TIP3    H214575   0.322   3.564   2.194  1.5862 -1.5104  0.6496
 4857TIP3   OH214576   3.354   0.708   3.148 -0.4592 -0.5333 -0.5523
 4857TIP3    H114577   3.335   0.791   3.104  0.5745 -0.6849 -1.3325
 4857TIP3    H214578   3.346   0.642   3.078 -1.0724 -1.0720  0.0149
 4858TIP3   OH214579   5.099   5.521   3.730 -0.5652 -0.6248  0.4641
 4858TIP3    H114580   5.091   5.452   3.666 -0.5540 -2.5517  2.4180
 4858TIP3    H214581   5.188   5.512   3.765 -1.2789 -1.1145  2.2761
 4859TIP3   OH214582   0.582   1.004   4.063 -0.1468  0.4633  0.1178
 4859TIP3    H114583   0.583   0.908   4.063  1.2583  0.3717  2.8759
 4859TIP3    H214584   0.498   1.028   4.102 -0.9292  0.4121 -1.4978
 4860TIP3   OH214585   5.476   4.052   2.618  0.3801 -0.2096  0.0543
 4860TIP3    H114586   5.472   3.978   2.557 -0.5850  0.0222 -0.1824
 4860TIP3    H214587   5.562   4.043   2.660  0.1060 -1.7318  0.3791
 4861TIP3   OH214588   0.932   2.751   4.905  0.1506 -0.0731  1.0461
 4861TIP3    H114589   1.020   2.766   4.872  0.1781  2.2232  1.9739
 4861TIP3    H214590   0.925   2.809   4.981 -2.3766  0.3648  0.5748
 4862TIP3   OH214591   5.274   3.449   0.833 -0.2050 -0.1204 -0.5469
 4862TIP3    H114592   5.278   3.544   0.821 -0.0169 -0.0142  0.2373
 4862TIP3    H214593   5.246   3.414   0.749  0.5688  0.5680 -1.1078
 4863TIP3   OH214594   1.285   2.469   5.034 -0.2524  0.2803  0.5522
 4863TIP3    H114595   1.347   2.450   5.104  2.0444 -1.0459 -1.6988
 4863TIP3    H214596   1.339   2.483   4.956 -2.6207  2.8167 -0.8115
 4864TIP3   OH214597   1.213   1.356   4.503 -0.1133 -0.3407 -0.2047
 4864TIP3    H114598   1.232   1.302   4.580  0.9513 -1.3882 -1.1586
 4864TIP3    H214599   1.199   1.293   4.432  0.0482  0.6076 -1.1105
 4865TIP3   OH214600   0.553   3.190   2.051  0.6829  0.4167  0.2441
 4865TIP3    H114601   0.630   3.159   2.099  1.0466 -0.7369 -1.0301
 4865TIP3    H214602   0.580   3.275   2.016  1.4574 -0.0655 -0.3568
 4866TIP3   OH214603   6.311   5.264   4.696  0.4267  0.9620 -0.2138
 4866TIP3    H114604   6.264   5.262   4.612 -0.1864  0.3090  0.1268
 4866TIP3    H214605   6.306   5.173   4.727  3.4046  0.4262 -0.9535
 4867TIP3   OH214606   1.390   0.925   1.384 -0.1917  0.0925 -0.1150
 4867TIP3    H114607   1.413   0.870   1.459 -0.9097 -1.6780 -1.1248
 4867TIP3    H214608   1.300   0.900   1.363 -0.3266  1.2340 -1.0130
 4868TIP3   OH214609   1.385   3.657   1.320  0.3276 -0.0517  0.4038
 4868TIP3    H114610   1.447   3.610   1.265  0.6764  0.8867 -0.0234
 4868TIP3    H214611   1.399   3.749   1.299  1.1969  0.4466  2.7919
 4869TIP3   OH214612   5.436   3.349   3.668 -0.2668 -0.5042 -0.0231
 4869TIP3    H114613   5.405   3.379   3.583 -1.2768  1.2523  0.8937
 4869TIP3    H214614   5.512   3.406   3.687 -0.5795 -0.2825  0.6092
 4870TIP3   OH214615   1.681   2.474   1.118 -0.4065 -0.4284 -0.2968
 4870TIP3    H114616   1.610   2.538   1.107 -0.5263 -0.5170 -0.0249
 4870TIP3    H214617   1.662   2.430   1.200  0.3225  0.0077  0.1249
 4871TIP3   OH214618   0.288   2.935   4.408 -0.0206 -0.2590  0.4216
 4871TIP3    H114619   0.308   2.887   4.328 -0.7412  1.4108 -0.8003
 4871TIP3    H214620   0.211   2.890   4.444 -1.2027  0.4221 -1.1501
 4872TIP3   OH214621   4.698   0.900   4.893  0.2073  0.1518 -0.7686
 4872TIP3    H114622   4.726   0.861   4.975  1.4412 -1.1317 -1.7547
 4872TIP3    H214623   4.602   0.903   4.899  0.3305  1.3865  1.2492
 4873TIP3   OH214624   3.994   2.731   3.988 -0.2266  0.0311  0.4263
 4873TIP3    H114625   4.062   2.721   3.921 -0.3233  0.4173  0.2696
 4873TIP3    H214626   4.029   2.684   4.064  1.0087  1.6614  0.9293
 4874TIP3   OH214627   1.792   1.935   1.589  0.0318  0.0121  0.0611
 4874TIP3    H114628   1.740   1.855   1.594 -1.1001  0.7063 -0.2266
 4874TIP3    H214629   1.839   1.928   1.506 -0.2912 -0.2079 -0.1042
 4875TIP3   OH214630   5.795   4.805   1.726 -0.4948 -0.0104  0.0560
 4875TIP3    H114631   5.839   4.722   1.747 -0.8980 -0.2709 -0.1091
 4875TIP3    H214632   5.750   4.829   1.807  2.1847  1.7279  1.1680
 4876TIP3   OH214633   1.362   0.613   2.373 -0.0906 -0.1496  0.5542
 4876TIP3    H114634   1.321   0.544   2.425  0.4474 -2.3419 -1.7389
 4876TIP3    H214635   1.420   0.567   2.312  1.2817  2.4350 -0.2743
 4877TIP3   OH214636   2.835   2.250   1.333 -0.1862  0.0988  0.1344
 4877TIP3    H114637   2.862   2.162   1.358 -0.8588  0.2363  1.4483
 4877TIP3    H214638   2.900   2.308   1.375  0.4097  0.2380 -0.9416
 4878TIP3   OH214639   2.468   1.111   4.001  0.2197 -0.0310  0.5639
 4878TIP3    H114640   2.408   1.091   4.073 -0.5496  0.4116  0.0593
 4878TIP3    H214641   2.554   1.085   4.034 -0.3235 -1.2334  1.0701
 4879TIP3   OH214642   4.363   5.649   0.711 -0.8005 -0.1103  0.1757
 4879TIP3    H114643   4.280   5.659   0.664 -0.7815 -1.2675 -0.1197
 4879TIP3    H214644   4.408   5.577   0.667  0.0523  0.0270  0.7886
 4880TIP3   OH214645   4.478   3.741   2.802 -0.2755 -0.0360 -0.0659
 4880TIP3    H114646   4.388   3.767   2.782  0.0094  0.4277 -0.7654
 4880TIP3    H214647   4.518   3.723   2.717  0.8073  1.4531  0.0897
 4881TIP3   OH214648   4.025   0.428   2.705  0.0902  0.3267 -0.4826
 4881TIP3    H114649   4.064   0.509   2.736  0.3784 -0.3267  0.9672
 4881TIP3    H214650   4.096   0.363   2.712 -0.8713 -0.6176  1.0414
 4882TIP3   OH214651   4.246   3.617   0.272 -0.2653  0.2999 -0.1741
 4882TIP3    H114652   4.307   3.686   0.246 -1.5701  0.6848 -2.5045
 4882TIP3    H214653   4.190   3.658   0.337 -0.5722  1.2592 -1.0177
 4883TIP3   OH214654   1.535   2.218   0.022  0.9572  0.8101  0.1232
 4883TIP3    H114655   1.473   2.152   0.054 -0.5540  1.5788 -1.1007
 4883TIP3    H214656   1.621   2.180   0.040  0.1408 -0.7874  0.8790
 4884TIP3   OH214657   5.644   3.842   4.464 -0.7333 -0.1636 -0.4147
 4884TIP3    H114658   5.686   3.757   4.476 -0.6682 -0.0538  0.1757
 4884TIP3    H214659   5.583   3.829   4.391 -1.2794 -0.9190  0.1663
 4885TIP3   OH214660   5.259   1.987   2.767  0.1345 -0.0750 -0.0840
 4885TIP3    H114661   5.329   2.038   2.725 -0.2681  2.2441  1.8484
 4885TIP3    H214662   5.184   1.996   2.708  0.1934  1.2749  0.0186
 4886TIP3   OH214663   0.586   5.751   1.046  0.3793 -0.2146  0.2515
 4886TIP3    H114664   0.605   5.662   1.075 -2.4228 -0.7187  0.8437
 4886TIP3    H214665   0.561   5.742   0.954 -0.7543 -0.2153  0.5427
 4887TIP3   OH214666   5.978   4.570   0.742  0.0882  0.5200  0.2356
 4887TIP3    H114667   5.906   4.611   0.695  0.6514  1.3982  0.0915
 4887TIP3    H214668   5.987   4.483   0.703 -0.3176  0.7336 -0.3511
 4888TIP3   OH214669   5.783   4.402   0.425  0.4082 -0.3004  0.1923
 4888TIP3    H114670   5.778   4.493   0.455 -2.0688 -0.7554  1.3824
 4888TIP3    H214671   5.761   4.406   0.332  0.9941  0.3613  0.0721
 4889TIP3   OH214672   5.110   0.814   3.552 -0.1105 -0.0890 -0.2621
 4889TIP3    H114673   5.145   0.744   3.607  1.5326  0.1947 -0.8923
 4889TIP3    H214674   5.082   0.771   3.472  0.8319 -0.0778 -0.6196
 4890TIP3   OH214675   4.110   2.177   4.701  0.6749 -0.2344  0.1610
 4890TIP3    H114676   4.126   2.125   4.623  1.1921  0.2321 -0.0521
 4890TIP3    H214677   4.185   2.159   4.758  0.9362  0.3757  0.0242
 4891TIP3   OH214678   1.998   0.412   1.977 -0.2589  0.5972  0.0323
 4891TIP3    H114679   1.913   0.456   1.967 -0.3397  0.6801  0.9845
 4891TIP3    H214680   2.040   0.458   2.049  0.9860  1.1325 -0.9889
 4892TIP3   OH214681   1.259   2.824   4.248  0.1146  0.1101 -0.4790
 4892TIP3    H114682   1.286   2.908   4.284  1.3069 -1.2362  1.9913
 4892TIP3    H214683   1.167   2.836   4.225 -0.0273  1.7726  0.7690
 4893TIP3   OH214684   3.155   0.643   3.770 -0.1913  0.1934 -0.2206
 4893TIP3    H114685   3.201   0.725   3.786  0.1420 -0.0698  0.2119
 4893TIP3    H214686   3.066   0.669   3.747  0.3479  0.7382 -1.7855
 4894TIP3   OH214687   0.517   5.785   3.215  0.4688  0.5758 -0.3519
 4894TIP3    H114688   0.553   5.723   3.153  0.5218  1.7259 -1.5038
 4894TIP3    H214689   0.518   5.739   3.299  1.1067 -0.7239 -1.0569
 4895TIP3   OH214690   6.096   2.928   1.940 -0.4209  0.4078  0.0527
 4895TIP3    H114691   6.017   2.930   1.994 -1.2809  1.3170 -1.1953
 4895TIP3    H214692   6.134   3.015   1.949 -1.6705  1.2779 -2.3156
 4896TIP3   OH214693   0.389   1.101   0.544  0.0012 -0.1791 -0.2263
 4896TIP3    H114694   0.338   1.118   0.623  0.4318 -0.0946  0.0349
 4896TIP3    H214695   0.324   1.069   0.480 -0.3381 -0.3129  0.1789
 4897TIP3   OH214696   2.555   3.580   0.704 -0.4560  0.1979  0.1780
 4897TIP3    H114697   2.501   3.502   0.689 -1.7963  1.3760 -1.6015
 4897TIP3    H214698   2.623   3.576   0.637 -0.2263  0.3146  0.3999
 4898TIP3   OH214699   5.928   3.873   1.470 -0.6011  0.1550 -0.2184
 4898TIP3    H114700   5.914   3.966   1.454 -0.4340  0.7316  2.4470
 4898TIP3    H214701   5.991   3.870   1.542 -1.0142 -2.0057  0.1384
 4899TIP3   OH214702   2.028   1.590   3.603 -0.0918  0.3383  0.2587
 4899TIP3    H114703   1.963   1.550   3.545 -0.9398  0.7349  0.9162
 4899TIP3    H214704   2.102   1.611   3.545  0.9201 -3.1715  0.0211
 4900TIP3   OH214705   3.655   0.091   1.389 -0.4106 -0.5917  0.4496
 4900TIP3    H114706   3.678   0.177   1.353  2.2488 -0.7474  1.5352
 4900TIP3    H214707   3.662   0.031   1.315 -1.2783 -0.0330 -0.0981
 4901TIP3   OH214708   1.241   3.521   1.699 -0.1269 -0.1812  0.0133
 4901TIP3    H114709   1.208   3.611   1.702 -0.0769 -0.1840  2.4685
 4901TIP3    H214710   1.206   3.480   1.777 -0.1631 -2.3486 -1.0689
 4902TIP3   OH214711   5.483   5.258   3.259  0.4191  0.1272 -0.5953
 4902TIP3    H114712   5.436   5.191   3.309 -1.4425  1.6322 -0.2069
 4902TIP3    H214713   5.426   5.335   3.262  1.5728  1.1580 -2.6442
 4903TIP3   OH214714   1.337   2.774   4.646  0.4036  0.2095 -0.4464
 4903TIP3    H114715   1.429   2.756   4.663  0.3963 -0.8144 -1.3865
 4903TIP3    H214716   1.338   2.841   4.578  0.4214  3.0691  2.1493
 4904TIP3   OH214717   6.005   2.734   0.847 -0.4030 -0.5016 -0.1878
 4904TIP3    H114718   5.916   2.702   0.862 -0.4001 -1.7781 -2.4502
 4904TIP3    H214719   6.014   2.735   0.751  1.5689  0.9127 -0.0435
 4905TIP3   OH214720   3.499   2.327   0.268  0.4775  0.3875  0.8796
 4905TIP3    H114721   3.528   2.368   0.187 -0.4504 -1.4173 -0.4444
 4905TIP3    H214722   3.492   2.399   0.331 -0.1943  2.0912 -1.0452
 4906TIP3   OH214723   5.922   1.848   3.377 -0.2214  0.1250  0.0613
 4906TIP3    H114724   5.872   1.804   3.308 -0.8508  0.0749  0.5443
 4906TIP3    H214725   5.954   1.776   3.432  0.4833  0.1481 -0.3003
 4907TIP3   OH214726   4.577   4.124   2.123  0.1449  0.3121  0.3985
 4907TIP3    H114727   4.544   4.155   2.039 -0.0420  0.2880  0.4610
 4907TIP3    H214728   4.542   4.186   2.187 -0.4642 -0.1804  0.5533
 4908TIP3   OH214729   3.274   5.154   0.579  0.2413  0.1688 -0.1675
 4908TIP3    H114730   3.351   5.154   0.636  1.1828 -0.8669 -1.3521
 4908TIP3    H214731   3.206   5.111   0.630  1.2180 -1.2291  0.0390
 4909TIP3   OH214732   2.305   1.875   3.664  0.3495  0.0234 -0.4621
 4909TIP3    H114733   2.321   1.824   3.584  1.0847  2.1265 -1.7278
 4909TIP3    H214734   2.210   1.883   3.668  0.2935 -0.2930 -0.9781
 4910TIP3   OH214735   3.819   4.626   0.589  0.1804 -0.0814  0.0143
 4910TIP3    H114736   3.764   4.548   0.585 -0.5236  0.4658 -1.5289
 4910TIP3    H214737   3.908   4.593   0.588 -0.0031 -1.0051  2.8537
 4911TIP3   OH214738   6.096   3.683   4.959  0.1810  0.0036 -0.3012
 4911TIP3    H114739   6.084   3.730   5.041 -0.5634  0.1978 -0.5142
 4911TIP3    H214740   6.162   3.733   4.912  0.9499 -0.3619  0.3602
 4912TIP3   OH214741   1.986   2.809   1.291 -0.3340 -0.1320  0.0896
 4912TIP3    H114742   1.896   2.842   1.290 -1.4723 -2.9114  0.0406
 4912TIP3    H214743   1.982   2.731   1.346  1.9902 -0.5162 -0.1811
 4913TIP3   OH214744   2.257   2.877   1.372 -0.1692  0.6483 -0.1284
 4913TIP3    H114745   2.193   2.829   1.320 -0.0794 -1.2201  1.3500
 4913TIP3    H214746   2.247   2.968   1.346 -2.1062  0.1480 -1.2915
 4914TIP3   OH214747   3.211   4.289   0.990 -0.1342 -0.1539  0.3415
 4914TIP3    H114748   3.158   4.231   0.937 -0.7173  1.2946 -0.7366
 4914TIP3    H214749   3.163   4.372   0.991  1.7948  1.0628 -0.2235
 4915TIP3   OH214750   1.624   4.544   0.280 -0.1753  0.3409  0.2998
 4915TIP3    H114751   1.588   4.586   0.358  2.0689  2.3746  0.3585
 4915TIP3    H214752   1.583   4.590   0.207 -0.3375  0.2076  0.3055
 4916TIP3   OH214753   2.571   4.086   4.211  0.6845  0.1268  0.4770
 4916TIP3    H114754   2.644   4.026   4.200  1.2587  0.8531  0.2686
 4916TIP3    H214755   2.610   4.173   4.205 -0.0432  0.5276  1.3812
 4917TIP3   OH214756   1.909   4.619   4.148 -0.5063 -0.0652  0.1199
 4917TIP3    H114757   1.891   4.629   4.055 -0.6814 -0.0116  0.1588
 4917TIP3    H214758   1.996   4.658   4.160 -1.5850  2.4984  0.4389
 4918TIP3   OH214759   5.430   2.332   3.330 -0.1744 -0.1726  0.6657
 4918TIP3    H114760   5.503   2.289   3.374  1.1931 -0.2533 -1.5328
 4918TIP3    H214761   5.407   2.273   3.258  0.5029  1.7950 -1.2920
 4919TIP3   OH214762   1.450   0.263   3.526 -0.0585  0.0959 -0.1765
 4919TIP3    H114763   1.366   0.281   3.567 -0.3210 -2.8980  0.8960
 4919TIP3    H214764   1.428   0.217   3.445  0.4934 -1.3887  0.4828
 4920TIP3   OH214765   2.094   5.678   1.923 -0.3297 -1.0219  0.4894
 4920TIP3    H114766   2.004   5.678   1.955 -0.9086  0.9648 -0.9573
 4920TIP3    H214767   2.086   5.681   1.827  1.2667 -1.0019  0.3266
 4921TIP3   OH214768   2.627   4.031   4.859  0.3511 -0.0675  0.2456
 4921TIP3    H114769   2.552   4.047   4.802 -0.0433  0.5703  0.9381
 4921TIP3    H214770   2.697   4.005   4.798  0.1168  1.1966 -0.6045
 4922TIP3   OH214771   5.670   3.177   2.885  0.0397 -0.6281  0.4659
 4922TIP3    H114772   5.662   3.224   2.968  0.2906  0.7363 -0.2402
 4922TIP3    H214773   5.747   3.121   2.896  0.1099 -0.4092  1.1389
 4923TIP3   OH214774   4.578   0.153   3.358 -0.1496  1.0470 -0.5733
 4923TIP3    H114775   4.619   0.135   3.273  1.4961  0.5570  0.2951
 4923TIP3    H214776   4.563   0.067   3.397  0.8278  1.3050  0.4105
 4924TIP3   OH214777   0.213   1.218   1.674 -0.0657 -0.2961  0.2817
 4924TIP3    H114778   0.231   1.199   1.767  1.3429 -0.6945 -0.0386
 4924TIP3    H214779   0.234   1.136   1.629 -0.2142  0.0601 -0.4510
 4925TIP3   OH214780   1.986   0.956   4.809 -0.4764  0.6778 -0.0367
 4925TIP3    H114781   1.995   1.022   4.878  0.2458 -0.1189  0.6496
 4925TIP3    H214782   1.905   0.980   4.764 -0.7917  1.4105  0.8772
 4926TIP3   OH214783   3.663   5.091   4.733  0.5907  0.0092  0.2081
 4926TIP3    H114784   3.738   5.053   4.686 -0.3772 -1.4991 -0.1908
 4926TIP3    H214785   3.625   5.153   4.671  0.9012  0.0180  0.0218
 4927TIP3   OH214786   0.056   0.063   0.266 -0.5493 -0.6066 -0.4394
 4927TIP3    H114787   0.108   0.133   0.306 -0.4604 -1.4098  0.9364
 4927TIP3    H214788   0.027   0.010   0.341 -1.2500 -1.5989 -1.3897
 4928TIP3   OH214789   3.887   1.981   3.143  0.1753  0.4004  0.2359
 4928TIP3    H114790   3.842   2.021   3.069  1.7435  2.4342  0.3035
 4928TIP3    H214791   3.881   2.045   3.213  2.7885  0.6068  0.3514
 4929TIP3   OH214792   6.186   3.593   1.964  0.0675  0.0431 -0.6156
 4929TIP3    H114793   6.241   3.665   1.995  0.3282  0.1893 -1.4139
 4929TIP3    H214794   6.159   3.548   2.044  2.4215 -0.8386 -0.2299
 4930TIP3   OH214795   6.066   3.559   3.574  0.3718  0.2597 -0.1134
 4930TIP3    H114796   6.089   3.646   3.607  1.4680 -0.4425  1.0960
 4930TIP3    H214797   6.009   3.576   3.499  1.0620  2.0258 -0.2974
 4931TIP3   OH214798   5.863   1.028   1.554  0.1059  0.1288 -0.1097
 4931TIP3    H114799   5.826   1.115   1.565 -0.1122  0.3058 -1.9124
 4931TIP3    H214800   5.939   1.026   1.613 -0.4976  1.1356  0.7370
 4932TIP3   OH214801   1.094   0.735   0.142 -0.2492  0.1180 -0.1198
 4932TIP3    H114802   1.068   0.774   0.058  0.8399 -0.6832 -0.8533
 4932TIP3    H214803   1.021   0.756   0.201 -0.7171  1.3103 -1.0624
 4933TIP3   OH214804   5.654   5.751   3.104 -0.4297  0.2467 -0.0608
 4933TIP3    H114805   5.656   5.657   3.122  0.6272  0.1054 -0.8429
 4933TIP3    H214806   5.668   5.792   3.188  0.1074 -0.3198  0.1362
 4934TIP3   OH214807   3.045   1.320   2.847  0.0989 -0.5859  0.0438
 4934TIP3    H114808   3.133   1.357   2.857  0.3334 -1.4353  1.4712
 4934TIP3    H214809   3.025   1.284   2.934 -1.5425 -0.6617 -0.3506
 4935TIP3   OH214810   2.135   2.644   1.656  0.0534  0.2185  0.1445
 4935TIP3    H114811   2.166   2.560   1.689  0.3813 -0.3983 -1.6274
 4935TIP3    H214812   2.040   2.633   1.649  0.2095 -0.4302 -1.1561
 4936TIP3   OH214813   4.167   5.042   1.363  0.0125  0.0670  0.2220
 4936TIP3    H114814   4.233   5.087   1.416  1.2809 -0.0248 -1.2436
 4936TIP3    H214815   4.178   4.949   1.385  0.6778  0.0080 -0.3527
 4937TIP3   OH214816   4.954   3.658   3.275  0.0653 -0.7471 -0.4157
 4937TIP3    H114817   4.911   3.586   3.322 -0.9724 -0.8533 -1.4769
 4937TIP3    H214818   5.033   3.675   3.325 -1.7728  0.3327  2.4136
 4938TIP3   OH214819   5.654   0.196   5.142  0.2398  0.4891  0.2386
 4938TIP3    H114820   5.642   0.228   5.052  1.5378  2.0782  0.5791
 4938TIP3    H214821   5.623   0.268   5.197 -0.4357 -0.4257  1.0855
 4939TIP3   OH214822   4.748   2.158   1.842 -0.1646 -0.2462  0.0167
 4939TIP3    H114823   4.839   2.151   1.871  0.9602  0.3094 -2.9889
 4939TIP3    H214824   4.738   2.089   1.777 -1.3691  0.7240 -0.8821
 4940TIP3   OH214825   1.452   5.014   4.613 -0.2307 -0.0342  0.2348
 4940TIP3    H114826   1.537   5.057   4.614 -0.6971  0.9772 -0.8900
 4940TIP3    H214827   1.427   5.004   4.705  1.4216 -1.0425  0.6092
 4941TIP3   OH214828   2.740   3.645   3.500 -0.3164 -0.1854 -0.0362
 4941TIP3    H114829   2.821   3.670   3.546  0.8150 -1.5141 -1.2215
 4941TIP3    H214830   2.722   3.556   3.530 -1.0378 -0.0986 -0.2027
 4942TIP3   OH214831   3.319   5.694   0.390  0.4003 -0.5185 -0.1437
 4942TIP3    H114832   3.358   5.634   0.454 -0.1938  1.3337  2.0812
 4942TIP3    H214833   3.372   5.774   0.397 -0.7031  0.2906 -0.7703
 4943TIP3   OH214834   6.336   0.422   4.562  0.0586  0.3734  0.5635
 4943TIP3    H114835   6.344   0.359   4.490  0.6529 -1.3588  2.0714
 4943TIP3    H214836   6.242   0.437   4.572 -0.0966 -0.3895  0.2694
 4944TIP3   OH214837   5.299   3.783   1.094  0.4941 -0.1422 -0.0646
 4944TIP3    H114838   5.223   3.726   1.107 -1.2365  1.9071 -0.6666
 4944TIP3    H214839   5.337   3.754   1.011  1.3166 -2.1260  0.9308
 4945TIP3   OH214840   4.989   3.292   2.098 -0.2338  0.1710 -0.0930
 4945TIP3    H114841   4.899   3.289   2.067 -0.7679 -2.4075  1.4068
 4945TIP3    H214842   4.982   3.309   2.192  0.7147 -1.4503  0.3049
 4946TIP3   OH214843   2.191   3.466   4.536  0.4792 -0.2622 -0.5030
 4946TIP3    H114844   2.268   3.503   4.494  1.1336 -1.3078 -0.2785
 4946TIP3    H214845   2.120   3.527   4.515  1.1532  0.1879 -1.5830
 4947TIP3   OH214846   1.989   4.484   0.652 -0.0626  0.3468  0.9045
 4947TIP3    H114847   1.933   4.500   0.576  0.6771 -0.9834  0.0320
 4947TIP3    H214848   1.947   4.411   0.699  0.1855  0.2769  1.0239
 4948TIP3   OH214849   3.416   4.530   0.754 -0.2234 -0.4119  0.2943
 4948TIP3    H114850   3.471   4.528   0.832  1.4158 -1.5528 -0.8181
 4948TIP3    H214851   3.387   4.439   0.743 -2.2137  0.1123  0.7167
 4949TIP3   OH214852   3.585   1.101   3.937  0.2938  0.2061  0.4000
 4949TIP3    H114853   3.623   1.029   3.987 -0.1199 -1.2187 -1.2687
 4949TIP3    H214854   3.505   1.066   3.900  0.0117  1.5747 -0.3515
 4950TIP3   OH214855   1.141   4.638   0.703 -0.2073 -0.4595  0.1337
 4950TIP3    H114856   1.166   4.557   0.659  0.0760 -1.0536  1.3709
 4950TIP3    H214857   1.046   4.638   0.701 -0.2123 -0.9652  0.3968
 4951TIP3   OH214858   1.027   0.465   4.043 -0.2104  0.1474  0.5212
 4951TIP3    H114859   1.016   0.458   4.138  0.6546  0.6930  0.6686
 4951TIP3    H214860   0.982   0.387   4.008  1.3559 -1.2749  1.5130
 4952TIP3   OH214861   1.229   5.473   2.030 -0.1554  0.2599  0.0925
 4952TIP3    H114862   1.159   5.474   1.964  0.9719  2.4906 -1.1693
 4952TIP3    H214863   1.219   5.388   2.074 -1.9419 -0.6326 -1.8674
 4953TIP3   OH214864   3.727   3.972   4.559 -0.0008  0.1809  0.0402
 4953TIP3    H114865   3.719   4.042   4.494  2.2536  1.3310  0.9015
 4953TIP3    H214866   3.638   3.962   4.594 -0.9553  0.5915 -2.1007
 4954TIP3   OH214867   0.341   3.185   4.262  0.7963 -0.4532 -0.0513
 4954TIP3    H114868   0.322   3.110   4.317 -0.4152 -0.2889 -0.2367
 4954TIP3    H214869   0.401   3.239   4.315 -1.3205  0.3374  1.6891
 4955TIP3   OH214870   6.072   5.730   3.607 -0.3179 -0.0509  0.1701
 4955TIP3    H114871   5.995   5.777   3.576 -0.1805 -1.1832 -2.1149
 4955TIP3    H214872   6.045   5.638   3.609  1.1553 -0.5800 -1.5462
 4956TIP3   OH214873   1.215   2.825   1.171 -0.6810  0.1609 -0.2986
 4956TIP3    H114874   1.216   2.789   1.259  0.4294  0.3811 -0.2050
 4956TIP3    H214875   1.145   2.890   1.172 -1.6265 -0.8298 -0.0037
 4957TIP3   OH214876   5.810   4.391   1.462  0.3651  0.3593  0.2295
 4957TIP3    H114877   5.893   4.360   1.499  0.9962  0.0210 -1.3972
 4957TIP3    H214878   5.790   4.470   1.512  0.1147 -1.1351  2.6295
 4958TIP3   OH214879   4.688   0.281   0.573 -0.0410  0.1181 -0.1617
 4958TIP3    H114880   4.745   0.337   0.520  0.3781  0.1109  0.2799
 4958TIP3    H214881   4.738   0.263   0.652 -1.1208  1.1513  0.8055
 4959TIP3   OH214882   1.354   2.799   5.077  0.8867 -0.6712 -0.0174
 4959TIP3    H114883   1.267   2.772   5.106  0.7764  0.7224  1.0355
 4959TIP3    H214884   1.412   2.729   5.108  0.3273 -0.8613  0.6147
 4960TIP3   OH214885   3.495   1.799   3.710 -0.3257  0.2472 -0.2619
 4960TIP3    H114886   3.545   1.771   3.634 -0.9553 -0.4082 -0.4438
 4960TIP3    H214887   3.428   1.732   3.722 -0.3842  0.4520  0.7331
 4961TIP3   OH214888   2.902   3.874   4.358  0.3640 -0.1249  0.0416
 4961TIP3    H114889   2.846   3.797   4.347  1.1279 -0.6122 -0.5516
 4961TIP3    H214890   2.989   3.844   4.334  0.9047  0.6005  1.0175
 4962TIP3   OH214891   3.902   4.298   4.530  0.6929 -0.0363  0.4586
 4962TIP3    H114892   3.932   4.385   4.504 -0.2375  0.2573  0.3277
 4962TIP3    H214893   3.819   4.287   4.484  1.1048 -1.2661 -0.0562
 4963TIP3   OH214894   3.182   3.656   0.646 -0.3319 -0.4558 -0.2126
 4963TIP3    H114895   3.208   3.709   0.570 -0.1035  0.2643  0.3593
 4963TIP3    H214896   3.107   3.605   0.615  0.8433 -1.5273 -1.4769
 4964TIP3   OH214897   4.184   4.656   5.127  0.1270  0.8093 -0.1057
 4964TIP3    H114898   4.193   4.743   5.090  0.4477  0.6520 -0.3964
 4964TIP3    H214899   4.250   4.603   5.082 -2.4704 -0.5201 -2.7336
 4965TIP3   OH214900   4.439   4.721   3.506  0.0088  0.0920  0.0342
 4965TIP3    H114901   4.371   4.767   3.554 -0.8615 -1.4712  0.3480
 4965TIP3    H214902   4.441   4.633   3.544  1.5736 -0.1834 -0.5827
 4966TIP3   OH214903   4.918   4.130   1.812  0.0464 -0.7787  0.3320
 4966TIP3    H114904   4.898   4.114   1.904 -1.8133 -0.8517 -0.0274
 4966TIP3    H214905   4.966   4.212   1.811  0.3875 -0.9612  1.3951
 4967TIP3   OH214906   4.851   0.430   4.448  0.3953 -0.1467 -0.6263
 4967TIP3    H114907   4.889   0.516   4.462 -1.2689  0.3565  1.2873
 4967TIP3    H214908   4.865   0.384   4.531 -0.5907 -0.9635 -0.8929
 4968TIP3   OH214909   2.713   5.947   3.364 -0.5646  0.4496  0.1580
 4968TIP3    H114910   2.663   5.939   3.282  0.8424 -0.8063 -0.6220
 4968TIP3    H214911   2.671   5.886   3.424 -0.9616  0.6101  0.0480
 4969TIP3   OH214912   5.094   3.245   1.100  0.2045  0.3537  0.4569
 4969TIP3    H114913   5.145   3.214   1.025  0.1260 -0.5827  0.7785
 4969TIP3    H214914   5.129   3.332   1.119  1.5355 -0.1839  0.5473
 4970TIP3   OH214915   0.127   2.844   3.389 -0.3637  0.1966 -0.5340
 4970TIP3    H114916   0.048   2.793   3.405 -0.5704  0.8102  0.4911
 4970TIP3    H214917   0.151   2.823   3.299 -1.2462 -0.5971 -0.6041
 4971TIP3   OH214918   0.348   1.500   0.368  0.3760  0.0291  0.3081
 4971TIP3    H114919   0.281   1.505   0.300 -0.6317 -1.4538  1.1406
 4971TIP3    H214920   0.406   1.430   0.339  0.1812 -0.3232  0.7566
 4972TIP3   OH214921   4.367   0.963   0.669  0.8089  0.8418  0.4437
 4972TIP3    H114922   4.371   0.957   0.574 -0.4237 -1.1029  0.4629
 4972TIP3    H214923   4.444   1.014   0.693  0.0535  3.2140 -1.6936
 4973TIP3   OH214924   5.356   5.248   1.117  0.0815 -1.3525 -0.2548
 4973TIP3    H114925   5.270   5.287   1.101 -0.1477 -2.1873 -1.1751
 4973TIP3    H214926   5.381   5.279   1.204 -0.2160  0.5896 -0.8125
 4974TIP3   OH214927   1.450   3.171   3.015 -0.4077  0.2914  0.2897
 4974TIP3    H114928   1.376   3.118   2.987  0.1936 -0.8798  0.8169
 4974TIP3    H214929   1.459   3.238   2.948 -2.1193  0.6507  0.3696
 4975TIP3   OH214930   4.164   2.542   3.063 -0.0917 -0.0218 -0.4113
 4975TIP3    H114931   4.169   2.534   3.159 -2.7561  2.9000  0.1244
 4975TIP3    H214932   4.234   2.603   3.040 -0.0354  0.0013 -0.1799
 4976TIP3   OH214933   4.772   1.790   3.518  0.3073  0.0948 -0.2247
 4976TIP3    H114934   4.857   1.831   3.533  0.1350  0.1387  0.6863
 4976TIP3    H214935   4.794   1.701   3.491  0.7010  0.9470 -2.9562
 4977TIP3   OH214936   5.475   1.543   2.239 -0.3937  0.6913  0.0812
 4977TIP3    H114937   5.484   1.498   2.154  0.9160  0.6669  0.2142
 4977TIP3    H214938   5.439   1.629   2.217  0.2287  0.8000 -0.5442
 4978TIP3   OH214939   5.125   3.863   2.111  0.3627  0.4647  0.1949
 4978TIP3    H114940   5.087   3.777   2.096 -1.8222  1.4830 -0.4889
 4978TIP3    H214941   5.071   3.902   2.179 -0.8337  2.4979 -1.7813
 4979TIP3   OH214942   4.563   4.006   4.607  0.0935 -0.0973  0.1821
 4979TIP3    H114943   4.503   4.058   4.553  1.3409  0.5680 -0.6056
 4979TIP3    H214944   4.524   3.919   4.609  0.3644 -0.3508 -2.4443
 4980TIP3   OH214945   5.678   4.256   2.476  0.0212 -0.6432  0.4741
 4980TIP3    H114946   5.605   4.195   2.485 -0.7639  0.4524  2.1732
 4980TIP3    H214947   5.755   4.204   2.496 -0.4612 -1.4428  0.2992
 4981TIP3   OH214948   5.069   0.870   4.780 -0.4853  0.3267 -0.2457
 4981TIP3    H114949   5.002   0.863   4.848 -1.2457  0.0418 -1.0006
 4981TIP3    H214950   5.140   0.813   4.808 -0.4954  0.7474  0.6435
 4982TIP3   OH214951   5.197   5.373   0.483  0.4684  0.3761  0.2667
 4982TIP3    H114952   5.258   5.380   0.557  0.8966 -0.4924  0.0193
 4982TIP3    H214953   5.118   5.417   0.512  1.5419  2.4410  0.2241
 4983TIP3   OH214954   6.198   3.098   0.634  0.4916 -0.2879  0.2443
 4983TIP3    H114955   6.221   3.022   0.688 -0.9800 -1.4398 -0.6923
 4983TIP3    H214956   6.202   3.172   0.695  4.7944 -0.5454  0.5833
 4984TIP3   OH214957   1.376   5.064   0.520  0.3601  0.1076 -0.3288
 4984TIP3    H114958   1.334   5.013   0.450 -0.0588 -1.4322  0.9733
 4984TIP3    H214959   1.328   5.040   0.599  1.8466  0.5451  0.7551
 4985TIP3   OH214960   5.478   0.027   1.223  0.1974 -0.6804 -0.1276
 4985TIP3    H114961   5.459  -0.037   1.292  1.2709 -2.0052 -0.9818
 4985TIP3    H214962   5.568   0.054   1.241  0.1073 -0.2089 -0.3852
 4986TIP3   OH214963   2.352   3.314   2.989 -0.2661 -0.7667 -0.0714
 4986TIP3    H114964   2.321   3.241   2.936  1.4730 -1.1028 -0.7000
 4986TIP3    H214965   2.291   3.385   2.968 -1.5773 -1.8125  0.0260
 4987TIP3   OH214966   0.425   4.438   4.776 -0.2929  0.1168  0.0917
 4987TIP3    H114967   0.358   4.437   4.708 -0.3777 -0.1938  0.1801
 4987TIP3    H214968   0.461   4.527   4.772 -1.8887  0.8427  1.2012
 4988TIP3   OH214969   3.615   4.547   3.275  0.6153  0.6599  0.4570
 4988TIP3    H114970   3.644   4.498   3.352  2.4348  2.1368  0.7810
 4988TIP3    H214971   3.656   4.633   3.285 -0.5115  1.4496 -1.3111
 4989TIP3   OH214972   3.460   3.354   3.362 -0.1917 -0.0426 -0.1066
 4989TIP3    H114973   3.365   3.366   3.371 -0.1570  0.0079  0.2331
 4989TIP3    H214974   3.481   3.391   3.276 -0.5326 -0.3886 -0.3403
 4990TIP3   OH214975   3.701   5.347   2.240 -0.2290  0.0791 -0.1624
 4990TIP3    H114976   3.655   5.282   2.186  1.3511 -1.9812  0.8266
 4990TIP3    H214977   3.641   5.364   2.313  0.6257 -3.0914  1.4843
 4991TIP3   OH214978   1.444   0.760   3.588 -0.6797  0.7506  0.8632
 4991TIP3    H114979   1.376   0.755   3.520 -0.1696  1.1547  0.3185
 4991TIP3    H214980   1.467   0.668   3.605 -1.1214  0.6258  0.8172
 4992TIP3   OH214981   5.271   0.848   0.342  0.3744 -0.4034  0.3714
 4992TIP3    H114982   5.194   0.842   0.286  0.8217 -0.5967 -0.2248
 4992TIP3    H214983   5.239   0.891   0.422  0.3137  2.5128 -1.1024
 4993TIP3   OH214984   4.325   4.856   1.156  0.3758 -0.5039 -0.3446
 4993TIP3    H114985   4.275   4.801   1.095 -0.6372 -0.2328  0.2246
 4993TIP3    H214986   4.334   4.803   1.235  0.5905 -0.3725 -0.2798
 4994TIP3   OH214987   3.305   1.490   1.856 -0.8042 -0.3833  0.0661
 4994TIP3    H114988   3.398   1.502   1.839  0.0887 -3.0172  2.4029
 4994TIP3    H214989   3.262   1.533   1.782  2.2212  0.5785 -1.3158
 4995TIP3   OH214990   3.480   5.627   3.316 -0.5923  0.0563 -0.2675
 4995TIP3    H114991   3.528   5.632   3.399 -1.3535 -3.3701  0.5284
 4995TIP3    H214992   3.408   5.689   3.327  1.6426  2.8468 -0.1974
 4996TIP3   OH214993   2.616   4.182   0.330  0.0621 -0.2741  0.1364
 4996TIP3    H114994   2.558   4.242   0.378  1.3369  0.5308  0.7052
 4996TIP3    H214995   2.570   4.168   0.246 -1.8538 -1.1500  1.2659
 4997TIP3   OH214996   5.204   1.719   4.528  0.2153 -0.0049 -0.3879
 4997TIP3    H114997   5.154   1.733   4.447  1.3397 -0.8929 -1.2579
 4997TIP3    H214998   5.148   1.661   4.580  0.2520 -0.8937 -1.2976
 4998TIP3   OH214999   3.203   0.164   2.698  0.1675 -0.6336  0.6779
 4998TIP3    H115000   3.212   0.259   2.687  1.8080 -0.8044  0.3217
 4998TIP3    H215001   3.209   0.150   2.792  0.3587 -0.4178  0.6995
 4999TIP3   OH215002   4.030   5.759   0.874 -0.3887  0.3945  0.8927
 4999TIP3    H115003   4.123   5.755   0.898  0.2121 -1.8308 -1.3793
 4999TIP3    H215004   3.985   5.712   0.945  0.4133  0.1560  1.2545
 5000TIP3   OH215005   3.313   4.858   1.823  0.2812 -0.3036  0.4936
 5000TIP3    H115006   3.387   4.914   1.846  1.6958 -1.1127 -1.7738
 5000TIP3    H215007   3.331   4.775   1.866 -0.0772 -0.0770  1.0989
 5001TIP3   OH215008   3.841   2.686   1.786 -0.3864 -0.7984 -0.3673
 5001TIP3    H115009   3.797   2.687   1.871 -2.2397  3.7213 -1.1130
 5001TIP3    H215010   3.774   2.657   1.724 -0.2173 -0.4292 -0.7283
 5002TIP3   OH215011   4.320   5.375   2.200 -0.3548 -0.1648  0.3730
 5002TIP3    H115012   4.335   5.412   2.287 -1.3017 -1.8613  1.3149
 5002TIP3    H215013   4.369   5.293   2.200  1.3870  0.7772 -1.5113
 5003TIP3   OH215014   5.395   3.965   0.667 -0.2309  0.1647  0.5482
 5003TIP3    H115015   5.320   3.959   0.727  0.6924 -0.0946  1.6980
 5003TIP3    H215016   5.422   4.056   0.671 -0.8855  0.4296 -0.4155
 5004TIP3   OH215017   5.844   0.622   3.889 -0.4885 -0.1806  0.2709
 5004TIP3    H115018   5.751   0.618   3.866 -1.1606  1.3617  2.3538
 5004TIP3    H215019   5.882   0.681   3.824 -1.0012 -0.6421 -0.4627
 5005TIP3   OH215020   0.812   1.200   4.198 -0.0190  0.2970  0.3874
 5005TIP3    H115021   0.758   1.142   4.145  0.1669  0.0492  0.4693
 5005TIP3    H215022   0.902   1.174   4.180  0.1122  1.1759 -0.2866
 5006TIP3   OH215023   4.625   2.294   0.668  0.0795 -0.0985  0.3130
 5006TIP3    H115024   4.630   2.389   0.678  3.7333 -0.2024  1.1009
 5006TIP3    H215025   4.618   2.261   0.757 -2.1039 -0.6199 -0.0079
 5007TIP3   OH215026   1.137   1.542   1.876 -1.1509 -0.0763  0.4290
 5007TIP3    H115027   1.113   1.449   1.879  1.0714 -0.7225  0.2926
 5007TIP3    H215028   1.054   1.588   1.874 -2.3373 -2.0321  1.4177
 5008TIP3   OH215029   5.649   1.444   0.725  0.1746 -0.0147  0.3828
 5008TIP3    H115030   5.666   1.368   0.781 -0.2358 -0.3147  0.1053
 5008TIP3    H215031   5.669   1.519   0.781 -0.1638 -0.3080  0.9108
 5009TIP3   OH215032   1.110   1.470   0.349  0.3206  0.0436  0.3571
 5009TIP3    H115033   1.061   1.457   0.268 -1.7152  3.1374  0.9110
 5009TIP3    H215034   1.170   1.542   0.330  2.0914 -1.2282  0.8078
 5010TIP3   OH215035   1.664   5.450   1.424  0.7567 -0.3112  0.2294
 5010TIP3    H115036   1.699   5.409   1.503  0.4390  1.0151  1.0913
 5010TIP3    H215037   1.722   5.524   1.407  0.1628  0.0900 -0.1046
 5011TIP3   OH215038   1.519   4.636   3.857  0.0788 -0.5820 -0.1439
 5011TIP3    H115039   1.448   4.667   3.913 -0.1404 -1.2651 -0.0307
 5011TIP3    H215040   1.475   4.583   3.790  0.5736 -2.0949  0.6876
 5012TIP3   OH215041   1.480   3.305   3.645 -0.4302 -0.0987 -0.1199
 5012TIP3    H115042   1.402   3.359   3.633 -0.1668  0.2580 -0.2456
 5012TIP3    H215043   1.552   3.359   3.612  0.0954  0.2565  1.4894
 5013TIP3   OH215044   6.103   4.708   0.476  0.8596  0.1766 -0.5123
 5013TIP3    H115045   6.170   4.741   0.417  3.1809 -1.8513  0.7931
 5013TIP3    H215046   6.139   4.625   0.509 -0.7209  0.6723  2.9280
 5014TIP3   OH215047   1.809   5.047   5.048  0.0576 -0.0294  0.6197
 5014TIP3    H115048   1.884   4.988   5.054  0.0038 -0.0236  1.4667
 5014TIP3    H215049   1.827   5.101   4.971  0.5035 -0.6035  0.3160
 5015TIP3   OH215050   4.337   0.641   4.355  0.3102 -0.1502 -0.2557
 5015TIP3    H115051   4.339   0.633   4.260  1.5845  0.4120 -0.2970
 5015TIP3    H215052   4.411   0.589   4.385  0.0382 -0.1594  0.4197
 5016TIP3   OH215053   4.249   3.478   1.131 -0.2391 -0.0287  0.0529
 5016TIP3    H115054   4.235   3.514   1.043 -1.5429 -0.1042  0.2231
 5016TIP3    H215055   4.344   3.469   1.137 -0.1643 -1.2045 -1.8349
 5017TIP3   OH215056   0.355   4.737   1.977 -0.3546  0.5662  0.4340
 5017TIP3    H115057   0.381   4.648   1.999  0.7723  1.2592  2.0571
 5017TIP3    H215058   0.273   4.726   1.928  0.3443 -1.3967 -0.3928
 5018TIP3   OH215059   6.075   2.613   0.303  0.0311 -0.5242  0.4896
 5018TIP3    H115060   6.016   2.597   0.230  0.3733 -0.0849  0.1124
 5018TIP3    H215061   6.161   2.585   0.270  0.3220  0.4034  0.4513
 5019TIP3   OH215062   3.975   4.370   3.606  0.3143 -0.0914 -0.0580
 5019TIP3    H115063   4.038   4.299   3.592  0.7898  0.6882 -2.3023
 5019TIP3    H215064   4.027   4.450   3.601 -0.7430  0.5529 -1.5698
 5020TIP3   OH215065   1.485   4.035   4.802 -0.2154  0.3165 -0.0938
 5020TIP3    H115066   1.521   4.100   4.741  2.3542  0.0278  0.9893
 5020TIP3    H215067   1.523   3.952   4.774 -0.0922 -0.0255  1.0347
 5021TIP3   OH215068   0.992   4.112   4.687 -0.2597 -0.3198  0.1477
 5021TIP3    H115069   1.047   4.045   4.726 -0.2629  0.1984  1.0557
 5021TIP3    H215070   0.905   4.096   4.722 -0.7554 -1.2281 -1.3977
 5022TIP3   OH215071   3.408   3.678   1.477  0.4026  0.0641 -0.2715
 5022TIP3    H115072   3.381   3.598   1.432 -1.1356  0.0940  0.5444
 5022TIP3    H215073   3.475   3.649   1.539  0.9603 -0.3185 -1.0287
 5023TIP3   OH215074   0.745   5.921   0.466 -0.3851 -0.0198 -0.2786
 5023TIP3    H115075   0.828   5.879   0.486 -0.6276 -0.3038  0.1341
 5023TIP3    H215076   0.762   5.970   0.385 -0.4485 -1.9049 -1.4874
 5024TIP3   OH215077   4.973   4.557   4.302  0.4977  0.2878  0.3323
 5024TIP3    H115078   5.014   4.621   4.360  1.3908 -1.0988  1.2988
 5024TIP3    H215079   5.029   4.479   4.309  0.2355 -0.1511 -1.8734
 5025TIP3   OH215080   4.462   0.515   3.522 -0.0932  0.3973 -0.0122
 5025TIP3    H115081   4.479   0.520   3.428  0.6682 -0.9117  0.0298
 5025TIP3    H215082   4.439   0.423   3.538 -1.8826  0.9378  0.8377
 5026TIP3   OH215083   1.456   0.981   3.031 -0.2465  0.2793 -0.0176
 5026TIP3    H115084   1.410   0.899   3.012  1.7327 -1.0523  0.5937
 5026TIP3    H215085   1.480   1.015   2.945  0.1017 -0.5007 -0.2346
 5027TIP3   OH215086   0.169   4.540   0.195  0.2294  0.3088 -0.9111
 5027TIP3    H115087   0.082   4.552   0.157 -0.8335 -0.2488  1.1561
 5027TIP3    H215088   0.209   4.470   0.144 -2.2758 -2.4952  0.6169
 5028TIP3   OH215089   1.430   4.288   3.129  0.1809 -0.0373 -0.1673
 5028TIP3    H115090   1.371   4.252   3.196  1.2728  0.3477  1.0418
 5028TIP3    H215091   1.416   4.382   3.132  2.0190  0.2612  1.3744
 5029TIP3   OH215092   4.549   5.888   0.682  0.3779  0.5335 -0.2955
 5029TIP3    H115093   4.480   5.849   0.627 -0.7250  1.1100  0.6307
 5029TIP3    H215094   4.519   5.875   0.772  1.8654  0.1442  0.1771
 5030TIP3   OH215095   6.167   4.988   3.739  0.2444  0.6533  0.7179
 5030TIP3    H115096   6.215   4.932   3.678  0.8578  0.9308  0.9349
 5030TIP3    H215097   6.201   5.076   3.723  2.6574  0.3708  3.4588
 5031TIP3   OH215098   4.522   1.421   5.191 -0.4339  0.7692  0.4337
 5031TIP3    H115099   4.521   1.341   5.139  0.9939  0.9747  0.0671
 5031TIP3    H215100   4.489   1.489   5.132  0.6876  0.9026 -0.0624
 5032TIP3   OH215101   0.141   5.334   3.002  0.3008 -0.3358  0.1024
 5032TIP3    H115102   0.228   5.369   2.983  0.2390 -1.1066 -1.8108
 5032TIP3    H215103   0.084   5.411   3.005  0.5346 -0.0384 -1.8971
 5033TIP3   OH215104   5.774   1.286   1.563  0.3655  0.3724 -0.1834
 5033TIP3    H115105   5.704   1.306   1.625  0.6694  1.2282 -0.1014
 5033TIP3    H215106   5.825   1.367   1.558  1.4736 -0.3024 -0.0789
 5034TIP3   OH215107   4.187   1.826   4.025 -0.3184 -0.5083  0.4815
 5034TIP3    H115108   4.221   1.853   3.940  0.2695 -0.9957  0.5540
 5034TIP3    H215109   4.127   1.754   4.005  1.3795 -2.0183  0.6220
 5035TIP3   OH215110   6.227   1.514   2.424  0.4998  0.3456 -0.3009
 5035TIP3    H115111   6.163   1.582   2.440  0.6446  0.1195  1.4460
 5035TIP3    H215112   6.305   1.560   2.394  0.3826  0.8898  0.2260
 5036TIP3   OH215113   0.763   0.661   2.037  0.7284 -0.3705  0.3685
 5036TIP3    H115114   0.684   0.607   2.043  0.3516  0.2358  0.9735
 5036TIP3    H215115   0.758   0.700   1.950 -1.4767  2.3813  1.5771
 5037TIP3   OH215116   5.108   4.463   0.663 -0.3070 -0.8015  0.0419
 5037TIP3    H115117   5.150   4.401   0.721 -0.7492  0.2305  1.5236
 5037TIP3    H215118   5.137   4.438   0.575  2.0409 -1.1382  0.8474
 5038TIP3   OH215119   5.996   3.849   3.374 -0.5028  0.2025  0.2381
 5038TIP3    H115120   6.057   3.867   3.302 -0.8983 -0.7848 -0.3503
 5038TIP3    H215121   6.050   3.859   3.453  0.6490 -1.4154 -0.2957
 5039TIP3   OH215122   0.745   2.045   0.356  0.0635 -0.0470 -0.0845
 5039TIP3    H115123   0.768   2.093   0.435 -2.0963  0.8585  0.0531
 5039TIP3    H215124   0.822   1.990   0.338  1.0969  0.6662  1.8847
 5040TIP3   OH215125   5.054   1.977   0.528  0.0197  0.2925  0.4841
 5040TIP3    H115126   5.113   1.916   0.484 -1.9309 -0.9906 -0.5304
 5040TIP3    H215127   5.024   1.930   0.606 -0.6880  0.3392  0.2535
 5041TIP3   OH215128   1.042   1.560   4.582  0.0157  0.0984  0.2796
 5041TIP3    H115129   0.954   1.523   4.579  0.1275 -0.1018 -0.7961
 5041TIP3    H215130   1.098   1.491   4.547  0.5689  0.3530  0.6410
 5042TIP3   OH215131   0.787   0.187   2.528  0.9045 -0.5699  0.0549
 5042TIP3    H115132   0.746   0.266   2.492  0.8934 -0.0686  1.1357
 5042TIP3    H215133   0.745   0.115   2.481  0.4749  0.0422 -0.5168
 5043TIP3   OH215134   3.779   0.977   3.578 -0.7845  0.1252  0.2893
 5043TIP3    H115135   3.836   1.027   3.520 -1.9949  1.1644 -0.0630
 5043TIP3    H215136   3.800   0.885   3.561  0.6944  0.4811  0.1239
 5044TIP3   OH215137   3.963   4.332   2.133 -0.1090  0.3014 -0.3818
 5044TIP3    H115138   3.914   4.401   2.087 -1.9719  0.1227  1.2114
 5044TIP3    H215139   4.055   4.359   2.125 -0.5248  1.3488 -2.3578
 5045TIP3   OH215140   4.155   3.304   4.399 -0.0024 -0.5051  0.5048
 5045TIP3    H115141   4.235   3.258   4.374  0.3836 -0.6345  1.8766
 5045TIP3    H215142   4.155   3.383   4.345  0.3518 -1.1536 -0.4599
 5046TIP3   OH215143   2.216   0.815   4.890  0.2085 -0.2830 -0.4192
 5046TIP3    H115144   2.208   0.826   4.985  3.1396  2.1370 -0.3333
 5046TIP3    H215145   2.143   0.865   4.854  0.0274  0.1522  0.5274
 5047TIP3   OH215146   3.683   2.931   0.503 -0.4055  0.2117  0.2691
 5047TIP3    H115147   3.687   2.977   0.420  0.3743  0.6617  0.5500
 5047TIP3    H215148   3.710   2.996   0.568  0.7383 -0.6350  0.6708
 5048TIP3   OH215149   3.814   1.362   1.063  0.3569  0.3895  0.4306
 5048TIP3    H115150   3.842   1.307   0.990 -2.3204  0.8278 -1.0799
 5048TIP3    H215151   3.878   1.433   1.066  1.6071 -0.6698 -0.1962
 5049TIP3   OH215152   0.620   4.999   0.139  0.3737 -0.5847  0.1036
 5049TIP3    H115153   0.682   5.050   0.087  0.6464 -0.1832  0.8154
 5049TIP3    H215154   0.536   5.012   0.095  0.7103 -0.8135 -0.6362
 5050TIP3   OH215155   5.348   5.404   0.181  0.8888 -0.0888 -0.3991
 5050TIP3    H115156   5.286   5.476   0.188  1.1296  0.4289 -2.8911
 5050TIP3    H215157   5.297   5.326   0.203  0.0796  0.6051  0.2421
 5051TIP3   OH215158   2.959   5.172   1.697 -0.1878  0.0417 -0.4389
 5051TIP3    H115159   3.021   5.183   1.770  0.1406 -0.9734 -0.5396
 5051TIP3    H215160   2.886   5.122   1.735  0.2637 -1.0293 -0.9189
 5052TIP3   OH215161   3.722   2.600   4.016 -0.3019 -0.4710 -0.3162
 5052TIP3    H115162   3.798   2.635   3.968  0.1652 -0.4553  0.4252
 5052TIP3    H215163   3.688   2.531   3.959 -0.1581 -0.0125 -0.9768
 5053TIP3   OH215164   1.119   3.891   5.044  0.0820 -0.3219 -0.6301
 5053TIP3    H115165   1.160   3.827   5.104 -0.1436 -0.2488 -0.3979
 5053TIP3    H215166   1.028   3.862   5.037 -0.3506  0.7093  0.4905
 5054TIP3   OH215167   0.373   4.521   2.763  0.4558 -0.6372 -0.1920
 5054TIP3    H115168   0.359   4.565   2.848 -0.1313 -0.2648 -0.4730
 5054TIP3    H215169   0.462   4.488   2.768  0.2419 -1.1034  0.7993
 5055TIP3   OH215170   2.739   3.687   1.747  0.3038 -0.7159  0.0645
 5055TIP3    H115171   2.688   3.672   1.667  0.1213 -0.2150  0.0826
 5055TIP3    H215172   2.724   3.609   1.800  2.9111 -2.5496 -1.6527
 5056TIP3   OH215173   6.269   5.857   3.446  0.0468 -0.0764  0.3841
 5056TIP3    H115174   6.334   5.790   3.424 -0.0924 -0.1728  0.2628
 5056TIP3    H215175   6.203   5.811   3.497 -1.1039 -0.5157 -1.3985
 5057TIP3   OH215176   0.198   4.437   3.140 -0.0155  0.0201 -0.1751
 5057TIP3    H115177   0.285   4.450   3.103 -0.7530  1.5776 -1.4899
 5057TIP3    H215178   0.151   4.518   3.119 -1.6459 -0.5925  0.9157
 5058TIP3   OH215179   3.303   0.809   0.536  1.2752 -0.4102 -0.2954
 5058TIP3    H115180   3.306   0.820   0.441  2.3827 -1.9272 -0.4673
 5058TIP3    H215181   3.392   0.784   0.560  1.3749  1.3199  1.3624
 5059TIP3   OH215182   0.905   0.520   0.776 -0.2485  0.1086 -0.0120
 5059TIP3    H115183   0.905   0.568   0.858 -1.8937 -0.1892  0.1853
 5059TIP3    H215184   0.927   0.586   0.709 -2.5691  1.2047  0.2372
 5060TIP3   OH215185   3.933   0.657   4.311 -0.2490 -0.7088 -0.3532
 5060TIP3    H115186   3.856   0.690   4.357  0.7535  1.0231  0.1874
 5060TIP3    H215187   3.988   0.618   4.380  1.2216  1.8252  0.0255
 5061TIP3   OH215188   4.128   0.262   3.571  0.0054  0.0328  0.1929
 5061TIP3    H115189   4.215   0.250   3.533 -1.3942 -1.0719 -3.1368
 5061TIP3    H215190   4.083   0.179   3.553 -2.0970  1.0054  0.6350
 5062TIP3   OH215191   1.637   2.871   3.248  0.0408  0.1079 -0.1683
 5062TIP3    H115192   1.637   2.825   3.332  1.0806  0.5320  0.0819
 5062TIP3    H215193   1.604   2.958   3.268 -1.7066 -0.4101 -0.6018
 5063TIP3   OH215194   1.427   3.426   1.125  0.2371 -0.6058 -0.0137
 5063TIP3    H115195   1.361   3.465   1.067  2.2090  0.2428 -1.8039
 5063TIP3    H215196   1.475   3.365   1.069 -0.7534 -3.3947  1.9707
 5064TIP3   OH215197   1.844   5.399   3.301  0.5924  0.1599  0.0400
 5064TIP3    H115198   1.930   5.437   3.282  0.9740  0.0465  1.4198
 5064TIP3    H215199   1.811   5.371   3.216  2.2101 -0.3893 -0.4474
 5065TIP3   OH215200   1.125   0.414   3.403  0.1632  1.0095  0.9087
 5065TIP3    H115201   1.182   0.383   3.474 -0.3516  1.7544  1.6740
 5065TIP3    H215202   1.042   0.370   3.418  0.3737  0.3309  0.1074
 5066TIP3   OH215203   5.775   0.233   4.606  0.6764 -0.8327  0.1411
 5066TIP3    H115204   5.749   0.325   4.600  1.0462 -0.7822 -0.6922
 5066TIP3    H215205   5.733   0.191   4.531  1.2596 -1.1640 -0.0022
 5067TIP3   OH215206   2.779   0.246   4.306 -0.0338  0.3805  0.2640
 5067TIP3    H115207   2.822   0.315   4.358 -0.7833 -0.2167  1.7218
 5067TIP3    H215208   2.768   0.173   4.367 -0.6602 -0.4738 -0.8362
 5068TIP3   OH215209   0.222   0.994   5.121 -0.0391 -0.2090  0.0921
 5068TIP3    H115210   0.276   0.996   5.200  0.3946 -0.0721 -0.2003
 5068TIP3    H215211   0.257   1.065   5.067  2.0648 -2.4674 -1.7688
 5069TIP3   OH215212   1.502   0.574   2.757 -0.0302 -0.1373  0.2177
 5069TIP3    H115213   1.572   0.569   2.822  0.4139 -3.2291 -0.3528
 5069TIP3    H215214   1.544   0.609   2.679  0.3597 -0.0294  0.4731
 5070TIP3   OH215215   3.892   5.540   2.963  0.0670  0.4233 -0.6442
 5070TIP3    H115216   3.836   5.530   3.040 -1.3453 -1.4618 -1.8188
 5070TIP3    H215217   3.969   5.488   2.983  0.2102  0.8216 -0.1071
 5071TIP3   OH215218   4.789   0.948   2.424 -0.0636 -0.2377  0.0032
 5071TIP3    H115219   4.828   1.024   2.466 -0.0819  1.7852 -3.3045
 5071TIP3    H215220   4.699   0.974   2.405 -1.0008 -2.2308  1.2812
 5072TIP3   OH215221   2.327   0.207   1.715 -0.0653  0.3166  0.3771
 5072TIP3    H115222   2.245   0.230   1.758 -0.9912 -0.1302 -1.0729
 5072TIP3    H215223   2.312   0.120   1.678  1.1735  0.0980  0.3261
 5073TIP3   OH215224   1.854   4.365   0.140  0.0250  0.1792  0.4617
 5073TIP3    H115225   1.791   4.418   0.189 -0.8085 -1.2038  0.9492
 5073TIP3    H215226   1.810   4.281   0.128  1.4747 -0.5643  0.1153
 5074TIP3   OH215227   1.047   2.395   3.239 -0.1555 -0.3581 -0.2713
 5074TIP3    H115228   1.112   2.341   3.285 -0.5665 -1.8868 -1.4324
 5074TIP3    H215229   1.100   2.458   3.190  0.3489 -0.0662  0.6154
 5075TIP3   OH215230   5.466   3.414   1.878  0.2002 -0.1072 -0.0266
 5075TIP3    H115231   5.493   3.466   1.953 -1.2651  2.8734 -1.3963
 5075TIP3    H215232   5.523   3.442   1.807 -1.1353  0.2516 -0.9935
 5076TIP3   OH215233   6.055   2.749   2.500 -0.6557  0.4339 -0.4060
 5076TIP3    H115234   6.097   2.683   2.555 -1.7958 -0.8784 -1.0449
 5076TIP3    H215235   6.048   2.827   2.555  0.4247 -0.0682  0.4704
 5077TIP3   OH215236   4.279   0.636   1.171  0.8666  0.0548 -0.2648
 5077TIP3    H115237   4.243   0.672   1.252  1.1361  1.3418 -0.6997
 5077TIP3    H215238   4.349   0.696   1.146  0.6125 -0.1675 -1.6097
 5078TIP3   OH215239   3.547   3.353   1.224  0.4763 -0.1977  0.1322
 5078TIP3    H115240   3.542   3.300   1.304 -0.1060 -1.5289 -0.7511
 5078TIP3    H215241   3.457   3.373   1.202  0.6838  1.0679  0.3578
 5079TIP3   OH215242   0.746   3.383   4.348 -0.1231  0.0585 -0.6458
 5079TIP3    H115243   0.821   3.406   4.402 -1.0499 -1.8648  1.6460
 5079TIP3    H215244   0.764   3.295   4.317 -1.9027 -0.9726  1.0278
 5080TIP3   OH215245   1.099   2.033   0.327  0.1319  0.2028 -0.7583
 5080TIP3    H115246   1.042   1.966   0.287  0.7344 -0.3251 -0.7523
 5080TIP3    H215247   1.063   2.116   0.298 -1.3365 -0.0763  0.1617
 5081TIP3   OH215248   1.940   4.934   3.472 -0.2616 -0.3771  0.0280
 5081TIP3    H115249   1.857   4.963   3.510 -1.0417 -0.5730 -1.4426
 5081TIP3    H215250   1.916   4.857   3.420  0.8894 -0.5778 -0.2231
 5082TIP3   OH215251   4.709   2.519   0.060 -0.1280 -0.5659  0.0347
 5082TIP3    H115252   4.628   2.486   0.021 -0.3610 -0.4043  0.3793
 5082TIP3    H215253   4.753   2.565  -0.012  0.2221 -1.6409 -0.4662
 5083TIP3   OH215254   2.764   5.331   2.740  0.1398 -0.0323 -0.2222
 5083TIP3    H115255   2.858   5.350   2.742  0.0878  0.3343 -0.8947
 5083TIP3    H215256   2.748   5.299   2.651 -0.8291  2.4406 -1.0314
 5084TIP3   OH215257   1.494   0.665   4.859  0.0082 -0.1711 -0.2687
 5084TIP3    H115258   1.531   0.590   4.906 -1.3930  0.4122  1.9127
 5084TIP3    H215259   1.570   0.710   4.821  1.3455 -0.3219  2.0550
 5085TIP3   OH215260   4.401   2.246   2.438  0.4348 -0.0261  0.4874
 5085TIP3    H115261   4.327   2.233   2.379 -0.8781  2.4036  1.4281
 5085TIP3    H215262   4.425   2.158   2.467 -0.1921 -1.1180 -2.0016
 5086TIP3   OH215263   2.775   5.674   3.158  0.1016  0.2539 -0.0527
 5086TIP3    H115264   2.784   5.579   3.149 -0.7079 -0.0123  1.6063
 5086TIP3    H215265   2.681   5.689   3.167  0.0909  1.3733 -1.5819
 5087TIP3   OH215266   3.805   3.671   1.859  0.3275 -0.1688 -0.4111
 5087TIP3    H115267   3.849   3.753   1.837  0.1634  0.2548  0.7846
 5087TIP3    H215268   3.845   3.643   1.941 -0.8304 -0.3797  0.0971
 5088TIP3   OH215269   0.162   4.394   4.541  0.6893  0.1721 -0.6511
 5088TIP3    H115270   0.139   4.487   4.538 -0.7210 -0.0972  0.8352
 5088TIP3    H215271   0.167   4.368   4.449 -2.0468  1.0065 -1.1194
 5089TIP3   OH215272   1.070   2.405   3.872  0.4917 -0.3298  0.3863
 5089TIP3    H115273   1.022   2.340   3.923  0.1922  1.0400  1.9335
 5089TIP3    H215274   1.066   2.485   3.925  0.6817  1.0112 -1.5217
 5090TIP3   OH215275   3.521   4.162   2.383  0.0902  0.1346 -0.0997
 5090TIP3    H115276   3.454   4.182   2.317 -0.8336  0.7964  0.9996
 5090TIP3    H215277   3.601   4.200   2.347 -0.8155  2.3537  0.0425
 5091TIP3   OH215278   2.703   1.373   5.068  0.2917 -0.5994 -0.3673
 5091TIP3    H115279   2.763   1.319   5.016  1.9928  1.6495 -0.9179
 5091TIP3    H215280   2.745   1.460   5.070 -3.3003  1.3401 -1.3681
 5092TIP3   OH215281   4.494   3.199   2.784  0.5645  0.4112  0.3658
 5092TIP3    H115282   4.557   3.176   2.716  0.4204  2.1087 -0.3892
 5092TIP3    H215283   4.506   3.292   2.798 -0.9561  0.5347  1.0698
 5093TIP3   OH215284   0.131   4.072   3.078  0.0356  0.0459  0.0043
 5093TIP3    H115285   0.220   4.102   3.094  0.2467 -0.7447  0.3454
 5093TIP3    H215286   0.082   4.100   3.156  0.3094 -0.7886  0.4832
 5094TIP3   OH215287   1.747   0.057   4.244  0.2488  0.2266  0.0433
 5094TIP3    H115288   1.724   0.005   4.320 -0.0600 -0.2479 -0.3712
 5094TIP3    H215289   1.677   0.122   4.237  0.4924  0.5342  0.3999
 5095TIP3   OH215290   4.712   2.031   0.639 -0.3951 -0.2756  0.4752
 5095TIP3    H115291   4.674   2.010   0.724 -0.7884  0.1776  0.4112
 5095TIP3    H215292   4.678   2.118   0.618  0.6277  0.1145  0.3900
 5096TIP3   OH215293   4.427   1.486   1.133  0.3884 -0.6989  0.9177
 5096TIP3    H115294   4.435   1.399   1.094 -0.8946 -0.6137  0.4235
 5096TIP3    H215295   4.505   1.532   1.104 -0.2417 -0.8200 -1.1404
 5097TIP3   OH215296   2.141   2.573   0.225  0.0548  0.3042 -0.2243
 5097TIP3    H115297   2.085   2.623   0.284 -0.6312 -0.0129 -0.6011
 5097TIP3    H215298   2.228   2.612   0.236  0.2447 -0.5810  1.9832
 5098TIP3   OH215299   0.089   3.479   5.169  0.1012  0.4467 -0.3422
 5098TIP3    H115300   0.092   3.487   5.074  1.8517 -3.9751 -0.8724
 5098TIP3    H215301   0.014   3.422   5.186  0.7562 -0.0956  0.7929
 5099TIP3   OH215302   3.151   0.890   2.822 -0.5103 -0.3545  0.2022
 5099TIP3    H115303   3.177   0.804   2.790  1.3374  0.9938 -2.2271
 5099TIP3    H215304   3.219   0.913   2.885 -2.7789 -1.9151  3.5320
 5100TIP3   OH215305   1.307   3.441   3.964 -0.2093  0.1865 -0.4713
 5100TIP3    H115306   1.251   3.366   3.943  0.1370 -0.2010 -0.0334
 5100TIP3    H215307   1.321   3.485   3.881  0.4468 -0.8395 -0.9240
 5101TIP3   OH215308   4.660   2.136   2.270  0.5850  0.4268 -0.1174
 5101TIP3    H115309   4.631   2.133   2.179  1.5805  0.2042 -0.4487
 5101TIP3    H215310   4.612   2.209   2.309 -0.9511 -0.3852 -0.4068
 5102TIP3   OH215311   5.826   3.378   1.731  0.5028  0.2057 -0.0855
 5102TIP3    H115312   5.864   3.292   1.717 -0.5077 -0.0825 -1.2493
 5102TIP3    H215313   5.814   3.384   1.826 -0.3156 -1.3649 -0.0525
 5103TIP3   OH215314   2.100   2.247   0.377 -0.2825  0.9561 -0.4925
 5103TIP3    H115315   2.075   2.221   0.288 -0.6766 -2.0744  0.4122
 5103TIP3    H215316   2.036   2.313   0.402 -0.8105  1.0756 -2.0596
 5104TIP3   OH215317   3.573   1.210   3.520  0.1117  0.5829  0.7304
 5104TIP3    H115318   3.594   1.218   3.613 -0.4475 -0.2314  0.9320
 5104TIP3    H215319   3.605   1.123   3.495  1.7136  1.4052 -0.2436
 5105TIP3   OH215320   3.976   0.163   1.147 -0.0151  0.2679 -0.1176
 5105TIP3    H115321   4.005   0.232   1.087  0.5782 -0.7509 -1.0340
 5105TIP3    H215322   3.915   0.110   1.096 -0.4690  0.1080  0.5755
 5106TIP3   OH215323   2.017   5.705   0.223  0.4346  0.3001 -0.7048
 5106TIP3    H115324   2.091   5.646   0.239  1.7689  1.9803 -0.4497
 5106TIP3    H215325   1.941   5.655   0.253  1.6649 -0.7893  0.8091
 5107TIP3   OH215326   4.527   5.610   3.107 -0.1112 -0.6069 -0.2174
 5107TIP3    H115327   4.467   5.535   3.109 -0.7046 -0.1486  1.7563
 5107TIP3    H215328   4.613   5.572   3.126 -0.1102 -1.0053 -0.9952
 5108TIP3   OH215329   2.683   3.344   5.077 -0.5682 -0.7254 -0.5416
 5108TIP3    H115330   2.694   3.347   4.982 -0.1998 -0.5715 -0.4964
 5108TIP3    H215331   2.768   3.371   5.112 -1.1301  0.6468 -0.1721
 5109TIP3   OH215332   2.830   1.045   3.450 -0.0525  0.0885 -0.1064
 5109TIP3    H115333   2.768   1.089   3.508 -1.8847 -1.1956 -1.0031
 5109TIP3    H215334   2.914   1.053   3.495 -1.3296 -0.6923  2.6283
 5110TIP3   OH215335   0.611   5.932   2.190  0.2378 -0.5025  0.0435
 5110TIP3    H115336   0.702   5.959   2.180  0.0353  0.1418 -0.1027
 5110TIP3    H215337   0.582   5.910   2.101 -0.5709  2.0213 -0.4112
 5111TIP3   OH215338   4.775   0.038   1.969  0.6480 -0.5118  0.1766
 5111TIP3    H115339   4.801  -0.022   2.039 -0.8993  0.6696  1.8858
 5111TIP3    H215340   4.684   0.014   1.950 -0.5634  2.1301  2.0177
 5112TIP3   OH215341   1.106   4.301   3.794 -0.3556 -0.4260  0.2111
 5112TIP3    H115342   1.108   4.209   3.821  1.0999 -0.1667  1.0896
 5112TIP3    H215343   1.092   4.349   3.876 -1.6781  0.1378 -0.3129
 5113TIP3   OH215344   0.514   0.746   3.333  0.1335 -0.1965 -0.2655
 5113TIP3    H115345   0.452   0.799   3.282  1.2871  0.0820 -1.4236
 5113TIP3    H215346   0.531   0.670   3.277 -1.2683 -1.7129  1.2380
 5114TIP3   OH215347   2.864   3.663   2.658 -0.4103  0.2636 -0.3364
 5114TIP3    H115348   2.782   3.711   2.670 -0.3981  0.1506  0.2223
 5114TIP3    H215349   2.839   3.571   2.659 -0.5067  0.2457 -1.9604
 5115TIP3   OH215350   6.014   2.532   4.863 -0.1703 -0.0142  0.1485
 5115TIP3    H115351   6.104   2.547   4.834  0.3152 -0.8500  1.1495
 5115TIP3    H215352   5.960   2.575   4.797  0.9719  0.8128 -0.2769
 5116TIP3   OH215353   0.128   0.033   3.681  0.1734 -0.1652 -0.2461
 5116TIP3    H115354   0.222   0.044   3.696  0.5468 -0.6860 -1.9460
 5116TIP3    H215355   0.104   0.106   3.624 -0.8221  0.8383  1.3694
 5117TIP3   OH215356   5.804   2.392   1.884 -0.0969 -0.5980 -0.5914
 5117TIP3    H115357   5.713   2.408   1.859 -0.6526  0.1659  1.6423
 5117TIP3    H215358   5.853   2.462   1.841 -0.7601 -0.2320 -0.7680
 5118TIP3   OH215359   2.972   2.892   1.821  0.4203  0.3128 -0.1339
 5118TIP3    H115360   3.006   2.831   1.756  0.6411 -0.4788  0.6949
 5118TIP3    H215361   3.001   2.855   1.905 -1.6831  0.1050  0.5619
 5119TIP3   OH215362   3.868   0.902   2.719 -0.7775  1.1121  0.5582
 5119TIP3    H115363   3.949   0.952   2.723 -0.2769  0.3954 -0.1984
 5119TIP3    H215364   3.867   0.864   2.631 -1.6382  0.6228  0.7591
 5120TIP3   OH215365   0.911   1.792   3.777 -0.5931  0.6787  0.1492
 5120TIP3    H115366   0.897   1.879   3.739  1.7226  0.9712 -0.1827
 5120TIP3    H215367   0.880   1.731   3.710  0.4218  1.2461 -0.8810
 5121TIP3   OH215368   2.628   4.214   4.504  0.2798 -0.2962  0.5950
 5121TIP3    H115369   2.604   4.134   4.550  1.2284 -0.8135  0.2343
 5121TIP3    H215370   2.547   4.246   4.466 -0.2012 -0.8080  1.1759
 5122TIP3   OH215371   1.492   4.622   0.493  0.0242 -0.3214 -0.0240
 5122TIP3    H115372   1.508   4.697   0.551  1.9800  0.6425 -1.6679
 5122TIP3    H215373   1.400   4.632   0.467 -0.2095  0.5735  1.0559
 5123TIP3   OH215374   5.407   0.127   1.846  0.1970 -0.0468  0.2323
 5123TIP3    H115375   5.413   0.043   1.891 -0.6193  0.4102  1.2533
 5123TIP3    H215376   5.401   0.105   1.754 -0.0474 -1.1195  0.4900
 5124TIP3   OH215377   5.327   5.685   1.930 -0.6552  0.1354  0.3920
 5124TIP3    H115378   5.353   5.674   1.838  1.0279  0.3255  0.8081
 5124TIP3    H215379   5.408   5.673   1.979 -1.8984 -2.1265  2.0651
 5125TIP3   OH215380   2.055   2.149   1.287  0.4058  0.5309 -0.6364
 5125TIP3    H115381   2.007   2.066   1.289  0.6740  0.3684  2.1173
 5125TIP3    H215382   2.108   2.144   1.207  0.7351 -2.1289 -0.3312
 5126TIP3   OH215383   0.314   1.806   2.739  0.4419  0.0651  0.0141
 5126TIP3    H115384   0.339   1.743   2.672 -0.8177  0.1130 -0.5372
 5126TIP3    H215385   0.396   1.849   2.764  1.6814 -2.9855  1.7333
 5127TIP3   OH215386   6.332   0.408   3.738  0.2009 -0.3546 -0.1209
 5127TIP3    H115387   6.242   0.425   3.767 -0.5708 -2.4389 -1.1110
 5127TIP3    H215388   6.378   0.382   3.818 -0.4654 -0.7017  0.1571
 5128TIP3   OH215389   3.006   4.688   2.842  0.2347 -0.0143  0.0276
 5128TIP3    H115390   2.932   4.745   2.823 -1.4577 -2.6864 -2.2095
 5128TIP3    H215391   2.970   4.620   2.899  1.8562  0.3069  1.5430
 5129TIP3   OH215392   5.963   1.092   3.302 -0.2134 -0.0573  0.1433
 5129TIP3    H115393   6.049   1.102   3.262 -0.2815  1.0168  0.2501
 5129TIP3    H215394   5.967   1.009   3.349 -0.0190 -1.2241 -1.8170
 5130TIP3   OH215395   2.029   4.019   0.141  0.7463  0.0885  0.4126
 5130TIP3    H115396   2.057   4.110   0.147 -1.4238  0.8020  0.6209
 5130TIP3    H215397   2.035   3.997   0.048  2.0360  0.1381  0.4603
 5131TIP3   OH215398   1.933   0.719   3.394  0.0882  0.3594  0.2917
 5131TIP3    H115399   1.917   0.634   3.434  0.7844  0.5621  1.0373
 5131TIP3    H215400   2.023   0.713   3.361 -0.1116  0.5620 -0.3012
 5132TIP3   OH215401   0.351   1.124   2.503 -0.2147  0.1729 -0.3600
 5132TIP3    H115402   0.344   1.066   2.578 -0.8766  1.4786  0.6302
 5132TIP3    H215403   0.410   1.079   2.443 -1.9082 -2.2180 -0.3522
 5133TIP3   OH215404   4.652   1.353   4.858  0.7384 -0.0144  0.2375
 5133TIP3    H115405   4.727   1.403   4.890  0.5568  0.8462 -0.6191
 5133TIP3    H215406   4.607   1.414   4.800 -0.6113 -0.5282  0.7131
 5134TIP3   OH215407   5.451   1.730   3.145  0.2499  0.2893  0.6582
 5134TIP3    H115408   5.399   1.796   3.190  0.7393  1.3163 -0.2154
 5134TIP3    H215409   5.393   1.654   3.138 -0.0513  0.3295  2.3857
 5135TIP3   OH215410   6.246   5.146   1.271 -0.0564  0.4903 -0.5743
 5135TIP3    H115411   6.327   5.197   1.262 -0.8242  1.4147 -2.9011
 5135TIP3    H215412   6.238   5.098   1.189 -0.8480 -1.2305  0.4415
 5136TIP3   OH215413   4.250   5.007   0.932  0.0870  0.2632  0.9164
 5136TIP3    H115414   4.175   5.059   0.962 -0.0073  0.1900  0.8073
 5136TIP3    H215415   4.304   4.997   1.010  0.8040  1.6945  0.6389
 5137TIP3   OH215416   3.819   0.025   2.388 -0.2868  0.1717  0.0937
 5137TIP3    H115417   3.738   0.020   2.438 -0.4092  2.4098  0.2290
 5137TIP3    H215418   3.790   0.041   2.298 -0.0273  1.5245  0.2302
 5138TIP3   OH215419   3.681   0.626   4.399 -0.1458 -0.1948 -0.1518
 5138TIP3    H115420   3.588   0.611   4.418 -0.1819 -1.4587 -1.2462
 5138TIP3    H215421   3.712   0.544   4.362  0.7584  1.0076 -2.2775
 5139TIP3   OH215422   3.991   5.092   2.344  0.3108  0.1382  0.1394
 5139TIP3    H115423   4.010   5.185   2.351  0.3827  0.1352 -0.0031
 5139TIP3    H215424   4.077   5.050   2.335  0.2174  0.2113 -1.4820
 5140TIP3   OH215425   6.095   3.062   2.227  0.2956  0.5792  0.2231
 5140TIP3    H115426   6.162   2.993   2.221 -0.1610  0.1184  0.2847
 5140TIP3    H215427   6.127   3.132   2.171  1.4832  0.9261  1.2930
 5141TIP3   OH215428   3.005   1.042   4.528 -1.0452 -0.4315  0.6219
 5141TIP3    H115429   2.990   1.037   4.623  1.0225  1.0984  1.0788
 5141TIP3    H215430   2.996   1.135   4.507  2.2257 -0.1438  0.0584
 5142TIP3   OH215431   2.660   2.697   5.193  0.0712 -0.9518 -0.2394
 5142TIP3    H115432   2.606   2.754   5.140 -0.2401 -0.8009  0.2384
 5142TIP3    H215433   2.723   2.659   5.131 -0.0622 -0.5090 -0.6477
 5143TIP3   OH215434   0.934   3.943   2.068 -0.1151  0.0834 -0.1475
 5143TIP3    H115435   0.923   4.031   2.104 -1.8438  0.0265 -0.4653
 5143TIP3    H215436   0.948   3.957   1.974  0.1859  0.0400 -0.1097
 5144TIP3   OH215437   2.701   0.772   3.546  0.0514  0.5862  0.5574
 5144TIP3    H115438   2.718   0.854   3.499  1.0603 -0.7947 -1.6492
 5144TIP3    H215439   2.788   0.734   3.559 -0.3068  0.3506  2.5821
 5145TIP3   OH215440   4.158   3.518   4.212 -0.0741 -0.2476 -0.7032
 5145TIP3    H115441   4.080   3.561   4.176  0.0703  0.5916 -0.0250
 5145TIP3    H215442   4.220   3.589   4.228  1.4051 -1.0304 -2.5490
 5146TIP3   OH215443   3.258   4.558   4.338  0.1356 -0.3907 -0.1533
 5146TIP3    H115444   3.284   4.588   4.425 -0.7714 -1.2269  0.4297
 5146TIP3    H215445   3.163   4.545   4.345  0.0905 -0.6782 -1.2037
 5147TIP3   OH215446   4.057   4.496   0.508  0.1333  0.1969  0.2815
 5147TIP3    H115447   4.106   4.556   0.451  0.3679  0.3052  0.5915
 5147TIP3    H215448   4.058   4.413   0.462 -0.0375  0.3856 -0.0682
 5148TIP3   OH215449   4.649   4.587   1.675  0.1957  0.2440 -0.1514
 5148TIP3    H115450   4.632   4.627   1.760  1.2375 -0.0643  0.2143
 5148TIP3    H215451   4.726   4.532   1.689 -0.1291 -0.4750 -1.0877
 5149TIP3   OH215452   5.123   5.879   1.570  0.3437  0.5201  0.4427
 5149TIP3    H115453   5.057   5.851   1.634 -0.6347 -1.9074 -1.4749
 5149TIP3    H215454   5.089   5.961   1.534 -0.5976  0.3490  0.9202
 5150TIP3   OH215455   3.324   2.198   4.390  0.1257 -0.1232 -0.1424
 5150TIP3    H115456   3.286   2.129   4.444  1.5044 -0.6294  0.2236
 5150TIP3    H215457   3.348   2.153   4.308  0.2242  0.1140 -0.2446
 5151TIP3   OH215458   4.950   1.641   0.501  0.5839 -0.1195  0.3289
 5151TIP3    H115459   4.915   1.572   0.444  0.6127  0.6580 -0.6604
 5151TIP3    H215460   4.995   1.700   0.441 -0.5101  1.4393  1.0032
 5152TIP3   OH215461   4.899   3.535   0.972 -0.5105  0.1288  0.1908
 5152TIP3    H115462   4.869   3.592   0.901 -0.2583  1.0457  0.8091
 5152TIP3    H215463   4.822   3.483   0.995 -0.2150 -1.3082 -1.7694
 5153TIP3   OH215464   1.480   1.682   2.200  0.4085  0.6524  0.2995
 5153TIP3    H115465   1.406   1.644   2.247  0.1688 -1.0741 -1.3176
 5153TIP3    H215466   1.557   1.661   2.254  0.0880 -0.8347  0.2406
 5154TIP3   OH215467   4.289   4.732   1.916 -0.2250  0.6848  0.1926
 5154TIP3    H115468   4.380   4.749   1.890 -0.0670 -0.0996  0.1903
 5154TIP3    H215469   4.242   4.812   1.893  0.4408  1.0494  0.0654
 5155TIP3   OH215470   4.589   3.789   3.445 -0.9790 -0.3643  0.2200
 5155TIP3    H115471   4.529   3.838   3.389 -1.6260 -1.4709 -0.0963
 5155TIP3    H215472   4.628   3.855   3.502 -1.2194  0.6140 -0.7148
 5156TIP3   OH215473   2.521   4.562   2.093  0.0080  0.0476 -0.1306
 5156TIP3    H115474   2.523   4.530   2.183 -1.0928  1.7020  0.5291
 5156TIP3    H215475   2.593   4.624   2.087 -0.8203  1.0596  0.0903
 5157TIP3   OH215476   4.036   2.523   5.027 -0.7256  0.2149 -0.0243
 5157TIP3    H115477   3.996   2.453   5.079  0.6971  0.2143  1.1224
 5157TIP3    H215478   3.968   2.548   4.965 -1.1515 -2.5122 -0.8047
 5158TIP3   OH215479   3.044   5.528   4.341  0.0192 -0.0492  0.2618
 5158TIP3    H115480   3.072   5.618   4.359  1.0214 -0.1361 -0.7047
 5158TIP3    H215481   3.125   5.483   4.316 -0.7250 -0.7637 -0.9761
 5159TIP3   OH215482   1.663   0.552   5.120 -0.2733  0.0925 -0.3930
 5159TIP3    H115483   1.724   0.605   5.068 -0.1106  0.3581  0.0646
 5159TIP3    H215484   1.709   0.470   5.135  0.8080  0.9747  1.5885
 5160TIP3   OH215485   0.809   2.314   0.084 -0.0468 -0.0619  0.1482
 5160TIP3    H115486   0.817   2.388   0.024 -1.5751  1.2760  1.4851
 5160TIP3    H215487   0.715   2.294   0.085  0.3931 -2.4283 -0.6012
 5161TIP3   OH215488   2.712   3.977   2.534 -0.1241 -0.1060 -0.3555
 5161TIP3    H115489   2.673   3.916   2.597 -1.1561  0.2018 -0.6801
 5161TIP3    H215490   2.802   3.946   2.523 -0.8709 -2.0999 -1.1757
 5162TIP3   OH215491   3.807   5.536   1.876  0.1159 -0.0840 -0.5328
 5162TIP3    H115492   3.895   5.545   1.912 -0.1357 -0.2237  0.1287
 5162TIP3    H215493   3.777   5.451   1.907 -1.8289  1.5844  2.8262
 5163TIP3   OH215494   2.906   3.460   3.286  0.3295 -0.2416 -0.2752
 5163TIP3    H115495   2.937   3.538   3.241  0.7638 -1.8069 -2.8917
 5163TIP3    H215496   2.949   3.463   3.372  1.5979  1.5391 -0.9190
 5164TIP3   OH215497   3.516   0.575   4.017 -0.0263 -0.0664 -0.3250
 5164TIP3    H115498   3.429   0.589   3.979  0.8836  3.3301 -1.5113
 5164TIP3    H215499   3.524   0.643   4.084  0.9623 -1.7233  1.3308
 5165TIP3   OH215500   5.035   1.626   1.247  0.4974 -0.3426 -0.0379
 5165TIP3    H115501   5.033   1.573   1.167  1.1225 -1.2817  0.5549
 5165TIP3    H215502   4.949   1.668   1.249  0.3976 -0.4555 -1.0951
 5166TIP3   OH215503   4.217   3.871   2.499  0.4600 -0.4284  0.2203
 5166TIP3    H115504   4.180   3.859   2.587 -0.9023 -0.5650 -0.3506
 5166TIP3    H215505   4.272   3.948   2.507  2.2781 -1.7673  1.7764
 5167TIP3   OH215506   3.428   5.704   4.933  0.1894 -0.0984 -0.3537
 5167TIP3    H115507   3.451   5.781   4.883  2.0858 -1.1012 -1.1276
 5167TIP3    H215508   3.361   5.660   4.881  0.0451  0.3381 -0.5414
 5168TIP3   OH215509   0.832   0.654   3.723 -0.1329 -0.3321  0.1901
 5168TIP3    H115510   0.830   0.558   3.727  1.1739 -0.5314 -2.1461
 5168TIP3    H215511   0.914   0.674   3.677  0.6789  2.0286  2.4252
 5169TIP3   OH215512   3.981   1.734   0.590 -0.0684  0.2346  0.0959
 5169TIP3    H115513   3.924   1.803   0.625  0.9595  0.4991  1.2922
 5169TIP3    H215514   4.021   1.694   0.666  0.5870 -0.6244 -0.6759
 5170TIP3   OH215515   4.702   1.001   1.325  0.3039 -0.0195  0.2499
 5170TIP3    H115516   4.778   0.960   1.284  0.0146  0.5774 -0.9490
 5170TIP3    H215517   4.738   1.063   1.388  0.8845  1.0377 -1.0671
 5171TIP3   OH215518   4.584   3.838   0.277 -0.3584  0.4589  0.7535
 5171TIP3    H115519   4.556   3.824   0.368  1.2662 -0.5408  1.1303
 5171TIP3    H215520   4.652   3.773   0.262  0.1297  1.2868 -0.8709
 5172TIP3   OH215521   4.912   2.602   2.551 -0.3993 -0.4364  0.0706
 5172TIP3    H115522   4.927   2.609   2.457  0.9508 -2.1503  0.1032
 5172TIP3    H215523   4.876   2.687   2.576  0.5430  0.5539 -1.7343
 5173TIP3   OH215524   4.924   5.615   2.335 -0.9346 -0.1682  0.4206
 5173TIP3    H115525   5.013   5.649   2.327 -0.6756 -0.6484  1.1395
 5173TIP3    H215526   4.887   5.621   2.247  0.6350 -2.1879 -0.4600
 5174TIP3   OH215527   5.777   1.418   1.849  0.4408 -0.1555 -0.5315
 5174TIP3    H115528   5.711   1.484   1.870  0.5891  0.1967 -1.1190
 5174TIP3    H215529   5.834   1.462   1.786  1.5008 -0.2995  0.3042
 5175TIP3   OH215530   5.574   2.112   2.966  0.2165 -0.3715 -0.0083
 5175TIP3    H115531   5.514   2.186   2.980  2.4224  1.4619  0.2796
 5175TIP3    H215532   5.585   2.074   3.053  0.0815 -0.2114  0.0804
 5176TIP3   OH215533   2.336   4.793   4.120 -0.3056 -0.6050 -0.3254
 5176TIP3    H115534   2.422   4.778   4.082  0.9412  2.2509  1.0988
 5176TIP3    H215535   2.278   4.805   4.045  0.9054 -0.6660 -1.2898
 5177TIP3   OH215536   4.308   0.763   0.816 -0.1318 -0.4826  0.3882
 5177TIP3    H115537   4.336   0.835   0.760 -0.9424 -0.8509 -0.5200
 5177TIP3    H215538   4.294   0.690   0.756 -1.2039 -0.8406  1.0463
 5178TIP3   OH215539   1.825   2.580   4.191  0.3382 -0.0116  0.0568
 5178TIP3    H115540   1.871   2.659   4.163 -2.1453  0.5584 -3.0354
 5178TIP3    H215541   1.765   2.610   4.259 -0.1269  0.6812 -0.6403
 5179TIP3   OH215542   1.802   5.577   3.009 -0.0157 -0.2438  0.7186
 5179TIP3    H115543   1.778   5.487   2.988 -1.3907  0.2003  0.2569
 5179TIP3    H215544   1.742   5.603   3.079  0.4538  0.2779  0.9434
 5180TIP3   OH215545   3.431   5.106   2.551  0.1815 -0.6136 -0.0323
 5180TIP3    H115546   3.473   5.188   2.525 -0.9512  0.0114  0.0666
 5180TIP3    H215547   3.504   5.051   2.580  1.0482  0.0436 -0.8992
 5181TIP3   OH215548   4.410   3.797   2.299  0.0209  0.6604 -0.6913
 5181TIP3    H115549   4.489   3.814   2.351 -0.2281 -1.2974  0.4030
 5181TIP3    H215550   4.339   3.801   2.363 -0.5821  0.6760 -1.3602
 5182TIP3   OH215551   4.638   2.691   3.719  0.0083 -0.6824 -0.4478
 5182TIP3    H115552   4.573   2.750   3.679 -2.3043 -1.0158  2.4401
 5182TIP3    H215553   4.588   2.643   3.785  3.3687 -0.2841  2.6853
 5183TIP3   OH215554   1.881   5.702   4.572 -0.3716  0.4809  0.1261
 5183TIP3    H115555   1.846   5.722   4.485 -1.4856  1.7561  0.8428
 5183TIP3    H215556   1.932   5.780   4.595  0.6494 -0.2135  0.2694
 5184TIP3   OH215557   4.729   4.617   3.749 -0.8630 -0.2130 -0.6473
 5184TIP3    H115558   4.804   4.660   3.791 -0.5805  0.5499 -1.8520
 5184TIP3    H215559   4.669   4.596   3.821  0.2434 -0.2992  0.2710
 5185TIP3   OH215560   3.973   1.868   2.495 -0.3456  0.0640 -0.2554
 5185TIP3    H115561   3.999   1.957   2.517 -0.0726 -0.2708  0.8423
 5185TIP3    H215562   4.043   1.837   2.437  0.9584 -0.3045  1.4522
 5186TIP3   OH215563   5.463   5.228   4.696  0.7089  0.1954  0.2103
 5186TIP3    H115564   5.445   5.320   4.713  0.0206 -0.1657  1.5346
 5186TIP3    H215565   5.509   5.228   4.612 -1.1111  1.5682 -0.8604
 5187TIP3   OH215566   3.472   0.573   1.410  0.7018 -0.3656 -0.5361
 5187TIP3    H115567   3.490   0.562   1.503  0.4174  0.1182 -0.4174
 5187TIP3    H215568   3.386   0.533   1.397 -0.1026  1.1734 -0.2050
 5188TIP3   OH215569   2.244   5.918   2.444  0.3405  0.0166 -0.2180
 5188TIP3    H115570   2.295   5.996   2.468 -2.3172  1.4397  1.2747
 5188TIP3    H215571   2.217   5.934   2.353  0.6356  0.3421 -0.2519
 5189TIP3   OH215572   4.552   1.846   1.161 -0.4187 -0.4452  0.0968
 5189TIP3    H115573   4.519   1.805   1.241  0.3139  0.6939  1.0224
 5189TIP3    H215574   4.494   1.921   1.145  0.3062  0.2047  0.4275
 5190TIP3   OH215575   4.285   5.909   4.461 -0.3090 -0.2945 -0.5869
 5190TIP3    H115576   4.377   5.897   4.437  0.1795  3.0080 -0.8124
 5190TIP3    H215577   4.285   5.916   4.556 -0.8093 -2.9020 -0.2987
 5191TIP3   OH215578   4.406   5.042   0.460  0.1889  0.2222  0.1761
 5191TIP3    H115579   4.415   5.082   0.546  0.6459 -1.7628  1.1138
 5191TIP3    H215580   4.458   4.962   0.465  0.0817 -0.0364 -1.8937
 5192TIP3   OH215581   0.654   3.134   3.090  0.4131 -0.0241  0.4021
 5192TIP3    H115582   0.655   3.227   3.112  2.6786  0.0234  0.3452
 5192TIP3    H215583   0.583   3.126   3.026  0.1172  1.6551  0.4582
 5193TIP3   OH215584   3.098   2.978   0.250  0.0384 -0.0972 -0.3688
 5193TIP3    H115585   3.147   2.930   0.317 -2.3628  0.0232  1.6546
 5193TIP3    H215586   3.164   3.017   0.194  2.1704 -1.0831  1.3233
 5194TIP3   OH215587   2.754   3.387   1.408 -0.2109  0.3908  0.1835
 5194TIP3    H115588   2.680   3.333   1.379  0.0887  0.0224  0.1010
 5194TIP3    H215589   2.816   3.324   1.445  0.9224  0.4653 -1.4955
 5195TIP3   OH215590   1.748   1.981   4.684 -0.2034 -0.3568 -0.2030
 5195TIP3    H115591   1.839   2.006   4.697 -1.1310  2.4863  1.9494
 5195TIP3    H215592   1.739   1.897   4.730  1.3069 -0.7031 -0.5054
 5196TIP3   OH215593   4.033   2.286   4.003 -0.1518 -0.1293  0.2634
 5196TIP3    H115594   3.940   2.272   3.986  0.2792 -2.5615 -0.4116
 5196TIP3    H215595   4.067   2.322   3.921 -0.3399  0.0005  0.2406
 5197TIP3   OH215596   1.148   3.117   0.474  0.5467 -0.1256 -0.1488
 5197TIP3    H115597   1.141   3.130   0.379  2.5057  0.9587 -0.1944
 5197TIP3    H215598   1.059   3.130   0.506  0.2185  1.8208 -1.6143
 5198TIP3   OH215599   3.502   5.887   0.454 -0.0039 -0.7871 -0.2650
 5198TIP3    H115600   3.570   5.954   0.466 -0.0657 -0.6334 -0.7499
 5198TIP3    H215601   3.520   5.822   0.522  1.2928 -1.2955 -1.0668
 5199TIP3   OH215602   6.326   1.847   1.972 -0.4548 -0.1606  0.0408
 5199TIP3    H115603   6.321   1.838   2.067 -0.5752 -0.0755  0.0442
 5199TIP3    H215604   6.325   1.757   1.939 -1.8476 -0.1819  0.0616
 5200TIP3   OH215605   1.405   3.558   4.837 -0.0445 -0.2142 -0.9801
 5200TIP3    H115606   1.401   3.465   4.814 -1.5542 -0.1530 -1.0801
 5200TIP3    H215607   1.498   3.579   4.835  0.8922 -2.7443  3.1956
 5201TIP3   OH215608   4.182   2.845   0.258  0.2494  0.1299 -0.1102
 5201TIP3    H115609   4.190   2.791   0.179  1.0032 -0.4688  0.3574
 5201TIP3    H215610   4.092   2.833   0.286 -0.0576  0.4448 -0.9467
 5202TIP3   OH215611   1.198   3.408   3.151  0.3624 -0.4894 -0.4415
 5202TIP3    H115612   1.180   3.362   3.232 -0.2634  2.4669  1.2406
 5202TIP3    H215613   1.167   3.348   3.082 -0.0379 -2.6529  1.4928
 5203TIP3   OH215614   1.162   2.455   3.595 -0.9762  0.0863  0.0669
 5203TIP3    H115615   1.128   2.425   3.680 -0.0353  0.4635  0.5944
 5203TIP3    H215616   1.225   2.523   3.618  0.7340 -1.1260 -0.8002
 5204TIP3   OH215617   1.181   3.064   2.420 -0.6861  0.2202  0.3725
 5204TIP3    H115618   1.223   3.149   2.404 -1.2102  0.5148  0.5656
 5204TIP3    H215619   1.210   3.010   2.346  0.7879  0.1276  0.9723
 5205TIP3   OH215620   3.228   0.580   3.366  0.4014 -0.7483  1.3291
 5205TIP3    H115621   3.246   0.632   3.288  0.1893  0.2790  1.9425
 5205TIP3    H215622   3.256   0.491   3.343  0.9152 -0.3373  0.3085
 5206TIP3   OH215623   1.910   3.212   1.302 -0.7584 -0.1768 -0.2105
 5206TIP3    H115624   1.896   3.158   1.224  0.7819 -0.9271 -0.0012
 5206TIP3    H215625   1.946   3.294   1.268  0.9827 -0.9145 -0.2626
 5207TIP3   OH215626   1.372   0.881   0.817  0.1895 -0.4992 -0.1772
 5207TIP3    H115627   1.291   0.841   0.784 -0.3240 -0.6375  1.2007
 5207TIP3    H215628   1.371   0.862   0.911  0.3080  2.0795  0.4113
 5208TIP3   OH215629   0.321   1.459   3.538 -0.0787  0.0471  0.9967
 5208TIP3    H115630   0.335   1.423   3.626  0.0101  0.1289  1.0166
 5208TIP3    H215631   0.390   1.420   3.484  1.9433  2.4131  1.6483
 5209TIP3   OH215632   6.251   3.620   3.919 -1.1288  0.2242  0.1704
 5209TIP3    H115633   6.163   3.614   3.884 -0.2483 -0.1704 -2.1481
 5209TIP3    H215634   6.260   3.712   3.946 -2.3403  0.1708  0.8380
 5210TIP3   OH215635   5.954   0.083   3.872  0.3488  1.0169 -0.3603
 5210TIP3    H115636   6.014   0.118   3.806  0.6523  0.6133 -0.3039
 5210TIP3    H215637   5.969   0.139   3.949  0.7624  0.8309 -0.3003
 5211TIP3   OH215638   3.079   4.383   4.533  0.2440  0.8122 -0.5908
 5211TIP3    H115639   3.057   4.403   4.624  2.9599 -0.2190  0.3836
 5211TIP3    H215640   3.012   4.428   4.482 -2.0681  0.4752  1.9184
 5212TIP3   OH215641   2.595   2.255   3.959  0.5424  0.2690  0.8722
 5212TIP3    H115642   2.549   2.201   3.895 -0.4589  1.8001  0.2232
 5212TIP3    H215643   2.652   2.194   4.006  2.0362 -0.8064 -2.0741
 5213TIP3   OH215644   5.209   2.489   5.147 -0.3705  0.4432 -0.6533
 5213TIP3    H115645   5.300   2.506   5.121 -0.5701  0.1331 -1.6200
 5213TIP3    H215646   5.174   2.437   5.075 -1.4150  0.8476 -0.4456
 5214TIP3   OH215647   1.480   2.482   4.836 -0.3526 -0.1838  0.3392
 5214TIP3    H115648   1.419   2.474   4.763 -0.9418 -2.7892  1.0043
 5214TIP3    H215649   1.526   2.565   4.820 -1.7432  0.2477 -1.9399
 5215TIP3   OH215650   2.653   3.380   1.768 -0.0769  0.2921  0.0905
 5215TIP3    H115651   2.607   3.365   1.685 -2.4285  0.5267  1.2695
 5215TIP3    H215652   2.707   3.301   1.779 -0.9500 -0.4853 -0.9031
 5216TIP3   OH215653   2.607   1.518   1.004  0.2823 -1.0493 -0.4548
 5216TIP3    H115654   2.680   1.478   1.051  0.2210  1.1415  1.7276
 5216TIP3    H215655   2.558   1.565   1.072 -0.5453  1.3109 -2.5371
 5217TIP3   OH215656   6.189   4.177   1.578 -0.0185 -0.1440  0.0408
 5217TIP3    H115657   6.243   4.160   1.656 -0.0888 -0.2164  0.0733
 5217TIP3    H215658   6.103   4.198   1.613  0.3063  1.2735  0.0511
 5218TIP3   OH215659   3.759   4.577   5.026 -0.1874  0.3815 -0.2105
 5218TIP3    H115660   3.724   4.615   5.106 -0.2030  0.1420 -0.1003
 5218TIP3    H215661   3.702   4.610   4.957 -1.5620 -1.1367  0.1262
 5219TIP3   OH215662   0.029   0.915   3.218 -0.2025 -0.1898  0.1787
 5219TIP3    H115663  -0.013   0.995   3.187 -0.8457 -0.6886 -0.2624
 5219TIP3    H215664  -0.011   0.898   3.303 -0.7953 -0.5861 -0.1769
 5220TIP3   OH215665  -0.016   4.599   3.799 -0.0390 -0.9369 -0.3925
 5220TIP3    H115666  -0.004   4.675   3.856 -1.5809 -0.5297 -0.5619
 5220TIP3    H215667   0.069   4.556   3.799  0.9137  0.8421 -0.3904
 5221TIP3   OH215668   0.274   0.838   3.723  0.2645  0.3697  0.5446
 5221TIP3    H115669   0.282   0.755   3.677  0.6436  1.1584 -0.8881
 5221TIP3    H215670   0.254   0.814   3.813  0.6238 -1.2680  0.2196
 5222TIP3   OH215671   4.169   0.096   4.349 -0.3652 -0.7020  0.0254
 5222TIP3    H115672   4.208   0.142   4.274 -0.1608  1.8290  1.5648
 5222TIP3    H215673   4.198   0.006   4.339  0.8663 -0.1495 -2.1347
 5223TIP3   OH215674   4.469   5.580   3.859  0.3303  0.2851 -0.5093
 5223TIP3    H115675   4.475   5.674   3.842 -0.8339  0.6741  0.9915
 5223TIP3    H215676   4.414   5.546   3.789 -1.1154  1.1332  0.1786
 5224TIP3   OH215677   2.793   0.925   0.537  0.0611 -0.2073 -0.0877
 5224TIP3    H115678   2.877   0.921   0.492 -0.7631 -1.5488 -1.6100
 5224TIP3    H215679   2.734   0.966   0.473 -0.5585  0.2621  0.7667
 5225TIP3   OH215680   6.216   0.835   4.053 -0.1311  0.4922  0.4611
 5225TIP3    H115681   6.126   0.820   4.080 -0.1196 -2.2915 -0.6640
 5225TIP3    H215682   6.269   0.806   4.127 -0.1143  1.5569  0.8868
 5226TIP3   OH215683   0.229   2.210   2.723 -0.1759  0.0850 -0.0852
 5226TIP3    H115684   0.194   2.225   2.810  0.0859 -0.5951  0.1435
 5226TIP3    H215685   0.243   2.115   2.718  0.0536  0.1452 -0.7683
 5227TIP3   OH215686   3.782   3.712   3.393  0.1968  0.1928  0.2387
 5227TIP3    H115687   3.822   3.759   3.321  0.0940  0.8372  0.5976
 5227TIP3    H215688   3.688   3.714   3.375  0.2594 -0.7366 -0.2537
 5228TIP3   OH215689   5.235   4.605   1.920 -0.0059 -0.0734 -0.0862
 5228TIP3    H115690   5.243   4.516   1.886  0.3672  0.2696 -0.9247
 5228TIP3    H215691   5.306   4.654   1.877  0.1042  0.5202  0.7352
 5229TIP3   OH215692   5.461   0.972   4.306 -0.5487  0.3225 -0.4141
 5229TIP3    H115693   5.473   1.064   4.282 -0.3467  0.5141  0.3909
 5229TIP3    H215694   5.482   0.969   4.399  2.4131 -1.0737 -1.0270
 5230TIP3   OH215695   1.766   2.420   4.481  0.1361 -0.4259 -0.1582
 5230TIP3    H115696   1.726   2.354   4.538 -0.6800  0.3892  0.2310
 5230TIP3    H215697   1.705   2.493   4.483  0.3571 -0.1803 -1.6880
 5231TIP3   OH215698   4.682   2.557   3.469  0.3959  0.0215 -0.2732
 5231TIP3    H115699   4.699   2.614   3.544 -1.5834 -4.0528  3.7572
 5231TIP3    H215700   4.768   2.540   3.431  1.6184  1.5779  1.6281
 5232TIP3   OH215701   0.556   4.132   5.106 -0.8836  0.4487  0.4991
 5232TIP3    H115702   0.569   4.103   5.016 -3.5231  0.1475  0.1518
 5232TIP3    H215703   0.594   4.220   5.108 -0.3233  0.2596 -0.7581
 5233TIP3   OH215704   6.331   3.871   1.842  0.1645 -0.2982 -0.1262
 5233TIP3    H115705   6.240   3.844   1.854  0.3323 -1.3142 -0.9214
 5233TIP3    H215706   6.349   3.853   1.749  1.7694 -2.0976  0.4609
 5234TIP3   OH215707   6.278   1.816   0.999  0.0842  0.2186  0.1436
 5234TIP3    H115708   6.340   1.885   0.973 -0.2721  0.1874 -0.8057
 5234TIP3    H215709   6.315   1.736   0.963  0.1424  0.0057  0.6676
 5235TIP3   OH215710   2.397   0.206   0.199  0.6803  0.3343 -0.1922
 5235TIP3    H115711   2.425   0.187   0.109  2.7000  0.5831  0.3276
 5235TIP3    H215712   2.467   0.262   0.234 -0.3306  0.6802  1.3803
 5236TIP3   OH215713   2.675   5.851   4.215  0.1530  1.0886  0.2934
 5236TIP3    H115714   2.770   5.839   4.209  0.1595  0.5467  1.2597
 5236TIP3    H215715   2.642   5.827   4.128  0.7887  0.0696  0.3097
 5237TIP3   OH215716   6.007   1.247   2.440 -0.0661 -0.4765 -0.2310
 5237TIP3    H115717   5.998   1.216   2.350 -2.2774 -1.7207  0.3489
 5237TIP3    H215718   5.948   1.322   2.446 -1.5846 -1.6612  0.6438
 5238TIP3   OH215719   3.702   0.197   0.116  0.0934  0.0634 -0.2989
 5238TIP3    H115720   3.646   0.245   0.055 -0.2595  0.8137  0.5880
 5238TIP3    H215721   3.709   0.255   0.192  0.2414 -1.0036  0.5115
 5239TIP3   OH215722   3.799   3.798   0.401 -0.1136  0.1993 -0.4396
 5239TIP3    H115723   3.773   3.719   0.449 -0.6366  1.7472  1.9893
 5239TIP3    H215724   3.894   3.802   0.412 -0.2343  0.5660  0.5657
 5240TIP3   OH215725   5.836   2.945   4.792  0.2947 -0.1786  0.4836
 5240TIP3    H115726   5.925   2.926   4.761 -0.0516 -0.5946 -0.2830
 5240TIP3    H215727   5.800   3.004   4.725  0.4247  1.0444  1.4513
 5241TIP3   OH215728   3.177   1.797   4.305 -0.0566  0.5244  0.2644
 5241TIP3    H115729   3.160   1.868   4.243 -0.4734 -1.2071 -1.7268
 5241TIP3    H215730   3.269   1.775   4.291 -0.1130  0.2320  0.3474
 5242TIP3   OH215731   1.925   2.678   3.287  0.2484  0.0970 -0.5075
 5242TIP3    H115732   1.841   2.660   3.244  0.6177 -0.5860 -0.9734
 5242TIP3    H215733   1.937   2.604   3.347  0.5053  0.1943 -0.4393
 5243TIP3   OH215734   5.887   1.097   4.685 -0.7364  0.3510  0.1726
 5243TIP3    H115735   5.820   1.048   4.639 -0.5277  0.7867 -0.6212
 5243TIP3    H215736   5.915   1.164   4.622  0.7445 -0.0964  0.3169
 5244TIP3   OH215737   6.266   2.905   0.826  0.8965  0.0191 -0.1146
 5244TIP3    H115738   6.220   2.822   0.837 -0.2456  0.3307 -2.1536
 5244TIP3    H215739   6.359   2.881   0.824  0.7878 -0.8413  2.0770
 5245TIP3   OH215740   1.643   3.295   1.593  0.4216 -0.1978 -0.1084
 5245TIP3    H115741   1.602   3.381   1.605  1.8939  0.4510  0.5380
 5245TIP3    H215742   1.635   3.278   1.499  1.9936  1.6865 -0.6500
 5246TIP3   OH215743   4.229   4.959   4.035 -0.8259  0.1633 -0.6086
 5246TIP3    H115744   4.285   4.882   4.028 -2.2032 -0.9048 -0.3088
 5246TIP3    H215745   4.200   4.959   4.126 -0.3476  1.4245 -0.4343
 5247TIP3   OH215746   5.180   4.606   5.155  0.2632 -0.3993 -0.7289
 5247TIP3    H115747   5.225   4.528   5.122  0.8330  0.4864 -2.1724
 5247TIP3    H215748   5.089   4.595   5.129  0.3338 -0.6249 -0.8819
 5248TIP3   OH215749   2.142   5.501   3.782 -0.2283 -0.4293 -0.6463
 5248TIP3    H115750   2.168   5.506   3.874  0.3713 -0.5874 -0.7997
 5248TIP3    H215751   2.129   5.408   3.766  1.3170 -0.5883 -1.1463
 5249TIP3   OH215752   1.968   0.008   4.973 -0.0906  0.1222  0.1357
 5249TIP3    H115753   1.988   0.100   4.954  0.8690  0.0698  0.7914
 5249TIP3    H215754   1.972   0.002   5.068 -0.3565 -0.5601  0.1089
 5250TIP3   OH215755   4.577   1.133   0.409 -0.1926  0.4875 -0.2171
 5250TIP3    H115756   4.595   1.213   0.459 -0.6618 -0.6676  1.9314
 5250TIP3    H215757   4.657   1.118   0.359  0.7318  1.1747  0.9879
 5251TIP3   OH215758   2.182   0.293   3.624  0.3296 -0.0218  0.3558
 5251TIP3    H115759   2.227   0.372   3.653 -1.4647  0.8509  0.9655
 5251TIP3    H215760   2.135   0.263   3.702  0.0696 -1.0365 -0.1715
 5252TIP3   OH215761   3.380   2.673   1.885  0.1839  0.4968  0.8501
 5252TIP3    H115762   3.299   2.652   1.932  0.8153  0.8230  2.1348
 5252TIP3    H215763   3.367   2.763   1.855  0.4977  0.9417  2.0211
 5253TIP3   OH215764   1.680   1.949   2.497  0.1459  0.0460 -0.1967
 5253TIP3    H115765   1.757   1.897   2.474  0.0063 -0.8872  1.3006
 5253TIP3    H215766   1.689   2.030   2.446  0.4805 -1.3201 -2.4463
 5254TIP3   OH215767   1.493   0.134   4.115 -0.1963 -0.1662  0.1333
 5254TIP3    H115768   1.397   0.135   4.116 -0.2169  1.6166  2.2374
 5254TIP3    H215769   1.516   0.046   4.144 -1.2357  0.0245  1.6214
 5255TIP3   OH215770   0.432   3.431   0.357  0.1117 -0.1774  0.1974
 5255TIP3    H115771   0.507   3.373   0.371 -0.4080 -1.0521 -0.5346
 5255TIP3    H215772   0.356   3.377   0.378 -0.3088  1.0738  2.1713
 5256TIP3   OH215773   2.539   1.480   2.379 -0.0261 -0.3253 -0.0599
 5256TIP3    H115774   2.446   1.485   2.401 -0.1946  1.0949 -0.9522
 5256TIP3    H215775   2.583   1.465   2.463 -1.1021 -1.9638  0.2440
 5257TIP3   OH215776   0.723   5.195   5.103  0.2244 -0.4322 -0.4077
 5257TIP3    H115777   0.681   5.152   5.177 -0.1233  1.0280  0.2894
 5257TIP3    H215778   0.662   5.265   5.078  0.4639 -0.7198 -1.9039
 5258TIP3   OH215779   0.999   0.044   1.932  0.1125 -0.0101  0.0881
 5258TIP3    H115780   1.047  -0.038   1.915  0.4462  0.2424 -0.2000
 5258TIP3    H215781   1.014   0.097   1.853  3.0198  1.8516  1.7140
 5259TIP3   OH215782   5.821   1.724   0.694 -0.1411 -0.2156 -0.1263
 5259TIP3    H115783   5.890   1.660   0.712 -0.7121 -0.9715 -0.5534
 5259TIP3    H215784   5.755   1.675   0.645  0.8427  1.4514 -3.3495
 5260TIP3   OH215785   5.107   2.101   3.160 -0.2512 -0.7335  0.2181
 5260TIP3    H115786   5.092   2.158   3.084 -1.1848  1.0201  1.6394
 5260TIP3    H215787   5.020   2.067   3.181 -0.6016  1.2289  2.2834
 5261TIP3   OH215788   5.659   2.109   0.171  0.4359 -0.3558 -0.3110
 5261TIP3    H115789   5.732   2.055   0.200  2.1492  2.1036  0.3161
 5261TIP3    H215790   5.701   2.179   0.120 -1.6988  0.1110 -1.5324
 5262TIP3   OH215791   6.157   0.675   0.141 -0.5718  0.5824 -0.0822
 5262TIP3    H115792   6.225   0.734   0.174  1.4427 -1.8423  0.3965
 5262TIP3    H215793   6.121   0.634   0.220  0.3342 -1.1306 -0.5111
 5263TIP3   OH215794   2.489   4.661   3.540 -0.0838  0.2665 -0.0108
 5263TIP3    H115795   2.437   4.739   3.520  0.6308  0.4635 -1.1599
 5263TIP3    H215796   2.480   4.605   3.463  0.9783  0.0799 -0.0168
 5264TIP3   OH215797   4.510   5.647   2.649  0.4318  0.2575 -0.4336
 5264TIP3    H115798   4.600   5.638   2.620  0.6389 -0.3739  0.3690
 5264TIP3    H215799   4.476   5.722   2.601  1.0170 -0.2167 -1.6306
 5265TIP3   OH215800   1.246   4.991   0.740 -0.4233 -0.2586  0.2961
 5265TIP3    H115801   1.294   5.061   0.783 -1.3331  0.9378 -0.5748
 5265TIP3    H215802   1.237   4.923   0.807 -0.4768  0.9073  1.5011
 5266TIP3   OH215803   4.503   3.418   1.252  0.9122 -0.1865 -0.3554
 5266TIP3    H115804   4.451   3.401   1.331 -0.2847 -1.1435 -1.3235
 5266TIP3    H215805   4.498   3.337   1.202  1.7524  0.3723 -1.3870
 5267TIP3   OH215806   2.961   2.473   2.925 -0.2007  0.1647  0.0165
 5267TIP3    H115807   2.947   2.416   2.849  0.6771 -1.8882  1.3343
 5267TIP3    H215808   2.951   2.416   3.001 -0.8793  2.1281  1.4905
 5268TIP3   OH215809   1.175   5.275   0.463  0.3169  0.7147 -0.0517
 5268TIP3    H115810   1.198   5.189   0.499  2.7471  1.7734  1.1647
 5268TIP3    H215811   1.116   5.313   0.528 -0.4099  0.1488 -0.3762
 5269TIP3   OH215812   3.223   0.204   5.076  0.0320  0.1323  0.2867
 5269TIP3    H115813   3.214   0.111   5.056  1.3063  0.3811 -1.7430
 5269TIP3    H215814   3.212   0.210   5.171 -2.8301 -1.7024  0.2074
 5270TIP3   OH215815   0.030   3.948   2.362  0.0199 -0.0900 -0.2411
 5270TIP3    H115816   0.072   4.033   2.374 -0.4706  0.1088  0.1056
 5270TIP3    H215817   0.068   3.892   2.429 -0.1990  0.0641  0.0127
 5271TIP3   OH215818   2.169   2.559   3.658 -0.2382 -0.0769  0.5929
 5271TIP3    H115819   2.137   2.582   3.746 -0.3594  0.9367  0.3007
 5271TIP3    H215820   2.262   2.540   3.671  0.3876  2.5511  0.5979
 5272TIP3   OH215821   4.156   4.570   3.483  0.4072  0.3135  0.0237
 5272TIP3    H115822   4.210   4.630   3.432  0.6353 -0.1976 -0.3351
 5272TIP3    H215823   4.076   4.620   3.500  0.1555  0.3510 -1.1838
 5273TIP3   OH215824   5.917   3.318   4.852 -0.0972 -0.0131  0.3646
 5273TIP3    H115825   5.857   3.277   4.913  0.9495 -0.9355  0.8003
 5273TIP3    H215826   5.994   3.340   4.904  0.1669  0.6611 -0.2893
 5274TIP3   OH215827   1.235   3.724   4.681  0.1274  0.4437 -0.3605
 5274TIP3    H115828   1.285   3.677   4.748 -1.1683  0.8843  0.9669
 5274TIP3    H215829   1.243   3.816   4.706  0.2877  0.6975 -1.3037
 5275TIP3   OH215830   5.478   4.188   4.041 -0.0637 -0.0986  0.1255
 5275TIP3    H115831   5.416   4.253   4.073  0.5758 -0.7255  2.8538
 5275TIP3    H215832   5.525   4.232   3.970  0.1960  2.3379  1.7096
 5276TIP3   OH215833   1.675   0.136   0.702  0.1000 -0.0821 -0.2102
 5276TIP3    H115834   1.714   0.133   0.790  0.2206 -1.2719 -0.2828
 5276TIP3    H215835   1.619   0.214   0.703  2.3048  1.5831 -0.0410
 5277TIP3   OH215836   4.929   0.939   3.781  0.2176  0.0305 -0.1176
 5277TIP3    H115837   5.006   0.919   3.834  0.7741 -0.6313 -1.1662
 5277TIP3    H215838   4.961   0.943   3.691 -0.9008  0.1517 -0.5296
 5278TIP3   OH215839   1.071   0.910   0.945 -0.9213 -0.2164 -0.4903
 5278TIP3    H115840   1.081   0.826   0.899 -1.0494 -0.5430  0.0740
 5278TIP3    H215841   1.078   0.976   0.875 -1.0269 -0.7013 -0.9706
 5279TIP3   OH215842   4.279   1.799   0.518 -0.2721 -0.0707 -0.0389
 5279TIP3    H115843   4.325   1.785   0.601  0.7933  1.3512 -0.3724
 5279TIP3    H215844   4.234   1.715   0.502  0.8864 -0.9486  1.0982
 5280TIP3   OH215845   3.207   5.732   1.630 -0.0022  0.4389  0.7359
 5280TIP3    H115846   3.224   5.739   1.724 -0.0085  0.3372  0.7448
 5280TIP3    H215847   3.112   5.740   1.622 -0.0820 -0.3048  0.8118
 5281TIP3   OH215848   3.308   2.463   4.120 -0.1190  0.4792 -0.1351
 5281TIP3    H115849   3.243   2.438   4.184 -0.0780 -0.1874 -0.3480
 5281TIP3    H215850   3.263   2.524   4.061 -1.2244 -1.5792 -1.5567
 5282TIP3   OH215851   1.030   3.172   1.785  0.5106 -0.7965 -0.0926
 5282TIP3    H115852   0.990   3.123   1.857 -0.3580 -0.3817 -0.2789
 5282TIP3    H215853   1.078   3.105   1.734  3.2957 -0.7667  2.2130
 5283TIP3   OH215854   3.696   4.611   3.843  0.3257  0.1219  0.4881
 5283TIP3    H115855   3.616   4.648   3.878  0.5696  2.4503 -1.2179
 5283TIP3    H215856   3.756   4.685   3.834  2.6746 -1.5056  1.5969
 5284TIP3   OH215857   0.102   1.082   2.114 -0.1443 -0.0488  0.6095
 5284TIP3    H115858   0.105   0.987   2.118  0.5390 -0.1108 -0.9031
 5284TIP3    H215859   0.112   1.110   2.205  0.6344 -1.3974  0.9594
 5285TIP3   OH215860   0.767   4.556   0.444  0.7352  0.0118  0.1019
 5285TIP3    H115861   0.836   4.533   0.382 -0.3939 -1.3277 -0.7289
 5285TIP3    H215862   0.708   4.612   0.395  1.6101  1.8533  1.0603
 5286TIP3   OH215863   2.996   0.361   1.844 -0.5648 -0.1548  0.1377
 5286TIP3    H115864   3.058   0.340   1.914  1.3962 -1.5352 -1.8413
 5286TIP3    H215865   3.039   0.430   1.793 -1.6099  0.3307 -0.1158
 5287TIP3   OH215866   0.166   2.341   2.982 -0.0764 -0.1360 -0.3847
 5287TIP3    H115867   0.076   2.373   2.978  0.0029  0.0249 -0.9582
 5287TIP3    H215868   0.192   2.354   3.073  0.1056  1.8580 -0.6895
 5288TIP3   OH215869   3.504   4.885   3.147  0.0374  0.1848 -0.1789
 5288TIP3    H115870   3.582   4.845   3.111  1.2519  2.8219 -0.6780
 5288TIP3    H215871   3.535   4.965   3.191 -2.4032  1.6979 -0.9822
 5289TIP3   OH215872   4.391   2.353   1.703 -0.4699 -0.2102 -0.7605
 5289TIP3    H115873   4.315   2.409   1.685 -0.1438  0.4272 -0.1825
 5289TIP3    H215874   4.428   2.388   1.784 -0.1404 -1.1448 -0.5004
 5290TIP3   OH215875   4.771   0.359   3.343 -0.0378 -0.3138  0.6581
 5290TIP3    H115876   4.730   0.277   3.369  4.2990 -2.9043  0.3112
 5290TIP3    H215877   4.792   0.402   3.426 -0.6102 -0.4637  0.8895
 5291TIP3   OH215878   3.357   5.530   1.868  0.0261  0.9139  0.2153
 5291TIP3    H115879   3.386   5.508   1.957 -0.5478  0.3942  0.2773
 5291TIP3    H215880   3.262   5.533   1.873 -0.0630  0.0951 -0.5454
 5292TIP3   OH215881   1.107   4.064   0.785  0.3193 -0.8517 -0.2855
 5292TIP3    H115882   1.022   4.101   0.765 -0.5484 -2.8487 -0.5907
 5292TIP3    H215883   1.126   4.092   0.875 -0.1346  0.4792 -0.5865
 5293TIP3   OH215884   2.858   5.835   2.676 -0.0284 -0.5883  0.0840
 5293TIP3    H115885   2.811   5.765   2.722  0.6282 -0.6927  0.6172
 5293TIP3    H215886   2.790   5.886   2.633 -0.5048 -1.6749 -0.4913
 5294TIP3   OH215887   5.002   4.994   2.402  0.2559  0.0375  0.4510
 5294TIP3    H115888   4.925   5.031   2.444 -0.5373  0.8592 -1.5868
 5294TIP3    H215889   5.048   5.069   2.366  0.6590 -0.6427 -0.5062
 5295TIP3   OH215890   4.952   4.331   2.235  0.1884  0.0566  0.3517
 5295TIP3    H115891   5.044   4.304   2.244  0.4697  1.0497  0.5165
 5295TIP3    H215892   4.904   4.266   2.287  0.8769  0.0217  0.9708
 5296TIP3   OH215893   5.006   4.834   1.704  0.4532  0.3142 -0.0285
 5296TIP3    H115894   4.949   4.795   1.770 -0.6307 -0.5038 -1.3936
 5296TIP3    H215895   5.089   4.787   1.714  0.8190  1.2561  1.7204
 5297TIP3   OH215896   2.500   2.836   4.994 -1.0283 -0.3909  0.2086
 5297TIP3    H115897   2.430   2.772   5.001 -1.5504  0.1946  0.4366
 5297TIP3    H215898   2.518   2.841   4.900 -0.7943 -1.0661  0.2144
 5298TIP3   OH215899   5.676   4.935   4.561  0.3034  0.1522 -0.1347
 5298TIP3    H115900   5.644   4.962   4.474 -0.0371 -2.3563 -0.8704
 5298TIP3    H215901   5.629   4.991   4.622 -0.2617  1.2569 -1.5168
 5299TIP3   OH215902   0.597   3.564   5.154 -0.4341  0.1234 -0.1504
 5299TIP3    H115903   0.665   3.611   5.107  0.0757  0.8644  1.2678
 5299TIP3    H215904   0.638   3.482   5.182 -1.0813 -0.8777 -1.9092
 5300TIP3   OH215905   4.192   2.982   2.237  0.2321  0.0052 -0.3245
 5300TIP3    H115906   4.120   2.919   2.233  0.1987  0.0329 -0.1412
 5300TIP3    H215907   4.241   2.957   2.315  1.3238 -1.0133 -1.2884
 5301TIP3   OH215908   2.428   3.059   2.492  0.5165 -0.3491 -0.0834
 5301TIP3    H115909   2.336   3.053   2.516  0.4472 -1.4665 -0.5310
 5301TIP3    H215910   2.435   3.004   2.413  1.8086 -1.4018  0.7249
 5302TIP3   OH215911   1.973   4.130   0.919  0.0994 -0.0690  0.1426
 5302TIP3    H115912   1.967   4.225   0.914  1.1200 -0.0058 -0.2394
 5302TIP3    H215913   1.908   4.105   0.984  0.6401  1.0085  1.1429
 5303TIP3   OH215914   5.191   4.446   0.157 -0.1623 -0.1217 -0.0342
 5303TIP3    H115915   5.133   4.451   0.234 -0.8833  0.2828 -0.5881
 5303TIP3    H215916   5.189   4.534   0.120  0.9462 -0.0625  0.0170
 5304TIP3   OH215917   5.392   2.058   0.280  0.0316  0.2128 -0.3382
 5304TIP3    H115918   5.319   2.087   0.225 -0.8855  0.9158  1.1928
 5304TIP3    H215919   5.471   2.079   0.228 -0.7430  2.0326 -0.8582
 5305TIP3   OH215920   3.740   3.764   4.005  0.7046  0.3963 -0.4728
 5305TIP3    H115921   3.692   3.843   3.979  1.2086  0.2968 -1.8028
 5305TIP3    H215922   3.673   3.696   4.006  0.5579  0.5300 -0.9106
 5306TIP3   OH215923   2.688   5.425   4.852 -0.3066  0.4118 -0.4790
 5306TIP3    H115924   2.627   5.374   4.904 -2.0624  0.5478 -2.3199
 5306TIP3    H215925   2.658   5.416   4.762  2.2692  0.6768 -1.4523
 5307TIP3   OH215926   2.171   3.955   3.428 -0.5280 -0.5601 -0.4508
 5307TIP3    H115927   2.082   3.929   3.407 -0.7809 -0.5576  0.6165
 5307TIP3    H215928   2.185   3.928   3.518  0.9802 -1.6928 -0.9697
 5308TIP3   OH215929   3.906   1.373   2.198  0.2089  0.1893 -0.3839
 5308TIP3    H115930   3.845   1.360   2.271 -1.0042  0.2172 -1.3647
 5308TIP3    H215931   3.904   1.467   2.183  1.6672  0.3977  0.5307
 5309TIP3   OH215932   0.192   3.374   3.651 -0.3888  0.0437 -0.6599
 5309TIP3    H115933   0.219   3.385   3.559 -2.2405  1.7471 -1.0710
 5309TIP3    H215934   0.113   3.319   3.646  1.6884 -3.3744  0.3670
 5310TIP3   OH215935   2.921   1.220   4.948  0.2183  0.4415  0.5137
 5310TIP3    H115936   2.968   1.218   5.032 -1.2893 -1.6989  1.4116
 5310TIP3    H215937   2.936   1.133   4.911 -2.0302  0.0949  0.2937
 5311TIP3   OH215938   5.131   1.875   0.098  0.0581  0.5599  0.2357
 5311TIP3    H115939   5.164   1.965   0.104  2.2652 -0.2590  1.6167
 5311TIP3    H215940   5.050   1.883   0.049  1.3860  3.0043 -1.8274
 5312TIP3   OH215941   2.330   2.423   1.571  0.0212 -0.1192 -0.1638
 5312TIP3    H115942   2.259   2.410   1.508  0.8006 -2.9467 -0.5643
 5312TIP3    H215943   2.399   2.466   1.521  0.3345 -1.6243 -1.0760
 5313TIP3   OH215944   0.814   0.926   0.626 -0.0783 -0.0771  0.7396
 5313TIP3    H115945   0.777   0.904   0.541 -0.1521  1.2795  0.3847
 5313TIP3    H215946   0.859   1.009   0.611 -0.8730  0.6711  2.2247
 5314TIP3   OH215947   0.027   1.341   3.806 -0.5184 -0.4365  0.1254
 5314TIP3    H115948   0.113   1.301   3.790 -1.0189 -2.1085  1.3304
 5314TIP3    H215949   0.044   1.435   3.806  1.3831 -0.7368  0.7377
 5315TIP3   OH215950   1.550   1.099   0.079 -0.1685  0.5503  0.0327
 5315TIP3    H115951   1.629   1.153   0.087  0.1910 -0.0861  0.9985
 5315TIP3    H215952   1.545   1.077  -0.014 -0.3969  2.3218 -0.4076
 5316TIP3   OH215953   1.943   5.312   2.770  0.9883  0.1110  0.2272
 5316TIP3    H115954   1.946   5.240   2.708 -0.9397 -0.5438  0.8283
 5316TIP3    H215955   1.927   5.390   2.716  0.8194 -0.2311 -0.2228
 5317TIP3   OH215956   0.981   1.278   2.003  0.0003 -0.3513  0.4844
 5317TIP3    H115957   0.966   1.231   1.921  3.0091  1.0710 -1.0371
 5317TIP3    H215958   0.908   1.339   2.010 -0.3767 -0.5828 -1.0595
 5318TIP3   OH215959   4.914   1.539   2.987 -0.0325 -0.0442  0.1629
 5318TIP3    H115960   4.960   1.615   2.952  2.8395 -1.0565  1.4036
 5318TIP3    H215961   4.838   1.575   3.032 -0.3218  1.7930 -1.6825
 5319TIP3   OH215962   3.857   0.791   2.965  0.3223 -0.7366  0.3103
 5319TIP3    H115963   3.872   0.824   2.877  0.9537  0.8492  0.9631
 5319TIP3    H215964   3.785   0.845   2.999  0.2368 -1.1704  0.8475
 5320TIP3   OH215965   2.448   1.786   0.644 -0.6484 -0.3280 -0.1337
 5320TIP3    H115966   2.492   1.749   0.721 -1.4974 -2.0855 -0.4588
 5320TIP3    H215967   2.392   1.855   0.680  0.2438  0.0443  0.5987
 5321TIP3   OH215968   1.673   2.423   0.846 -0.5194  0.1415 -0.2288
 5321TIP3    H115969   1.718   2.508   0.849  0.8830 -0.5182 -1.4600
 5321TIP3    H215970   1.664   2.399   0.938  0.1181  1.0979  0.1108
 5322TIP3   OH215971   0.726   5.467   0.113  0.2257 -0.1088  0.9786
 5322TIP3    H115972   0.813   5.465   0.074  0.7674  1.8175  1.9747
 5322TIP3    H215973   0.666   5.474   0.039  0.9080 -1.0315  0.3108
 5323TIP3   OH215974   4.065   0.481   1.932 -0.1802 -0.2386  0.2389
 5323TIP3    H115975   4.129   0.426   1.977 -0.2734  1.0648  2.0488
 5323TIP3    H215976   4.089   0.571   1.954 -1.3728  0.3853 -0.8023
 5324TIP3   OH215977   5.117   4.194   0.782  0.2174  0.1680  0.4914
 5324TIP3    H115978   5.169   4.113   0.787  0.5810  0.2814 -0.9927
 5324TIP3    H215979   5.033   4.166   0.747 -0.1369  0.2502  1.2531
 5325TIP3   OH215980   1.091   2.991   3.353 -0.4434  0.1285 -1.0445
 5325TIP3    H115981   1.098   2.925   3.283 -0.0945 -0.5209 -0.4117
 5325TIP3    H215982   1.081   2.940   3.433 -2.2367  0.8851 -0.7446
 5326TIP3   OH215983   3.396   5.258   1.764 -0.0494 -0.0193  0.1172
 5326TIP3    H115984   3.480   5.212   1.765 -0.5980 -1.0450  1.0728
 5326TIP3    H215985   3.418   5.349   1.785  0.7419 -0.4545  1.2679
 5327TIP3   OH215986   5.323   2.345   4.026 -0.1234 -0.3849 -0.6446
 5327TIP3    H115987   5.379   2.290   4.081 -1.1726 -0.1274  0.7529
 5327TIP3    H215988   5.273   2.398   4.089 -1.0289  0.2726 -1.8762
 5328TIP3   OH215989   0.016   3.742   5.098 -0.7554 -0.4917  0.4155
 5328TIP3    H115990   0.057   3.719   5.015  0.8400  0.1810  0.9775
 5328TIP3    H215991   0.027   3.664   5.152 -0.4811 -0.4076  0.4783
 5329TIP3   OH215992   0.368   1.772   4.669 -0.1717 -0.2144  0.3344
 5329TIP3    H115993   0.384   1.861   4.638 -1.8534 -0.4899 -1.5384
 5329TIP3    H215994   0.455   1.739   4.692  0.5474  1.7177  0.5800
 5330TIP3   OH215995   4.856   2.766   1.348 -0.4085  0.6621  0.2397
 5330TIP3    H115996   4.919   2.716   1.296 -0.0979  0.1210  1.1020
 5330TIP3    H215997   4.821   2.831   1.288  1.0625  1.0554 -0.2428
 5331TIP3   OH215998   1.296   1.213   1.886  0.4280  0.1220 -0.0228
 5331TIP3    H115999   1.276   1.276   1.955  2.0773  1.2825 -0.5386
 5331TIP3    H216000   1.307   1.267   1.807 -0.4588 -1.0753 -0.9920
 5332TIP3   OH216001   1.872   2.581   1.370 -0.6196  0.0544  0.0517
 5332TIP3    H116002   1.830   2.622   1.446 -0.3638 -0.0047  0.2241
 5332TIP3    H216003   1.957   2.552   1.402 -0.9994 -1.0747  0.0627
 5333TIP3   OH216004   4.901   1.516   3.552  0.2198  0.5597 -0.0934
 5333TIP3    H116005   4.911   1.509   3.647 -0.0787  0.5158 -0.0645
 5333TIP3    H216006   4.829   1.456   3.531  1.9485 -1.4185 -0.6828
 5334TIP3   OH216007   4.422   4.841   3.091 -0.0781  0.2010 -0.1018
 5334TIP3    H116008   4.502   4.816   3.044  0.0722  2.5280 -1.1868
 5334TIP3    H216009   4.453   4.879   3.173 -0.2169 -1.0349  0.5503
 5335TIP3   OH216010   5.609   1.072   3.220 -0.1712 -0.0394  0.1449
 5335TIP3    H116011   5.655   1.155   3.232  0.8815 -0.5318 -0.3481
 5335TIP3    H216012   5.601   1.036   3.308 -0.9220  0.7271  0.4000
 5336TIP3   OH216013   3.500   1.737   3.969  0.3995 -0.4229  0.0739
 5336TIP3    H116014   3.558   1.668   3.936 -1.2169 -1.9907  0.4142
 5336TIP3    H216015   3.500   1.803   3.899  1.1351 -1.2512 -0.7309
 5337TIP3   OH216016   3.335   5.410   1.066  0.4179 -0.0931  0.1623
 5337TIP3    H116017   3.317   5.332   1.120 -1.0514  0.3123  0.2926
 5337TIP3    H216018   3.427   5.402   1.044  0.7354 -0.9810  1.6282
 5338TIP3   OH216019   5.625   4.719   1.496 -0.6704  0.2190  0.0398
 5338TIP3    H116020   5.706   4.764   1.521 -0.8957 -0.1242  1.4645
 5338TIP3    H216021   5.571   4.787   1.456 -0.3405  0.8346  0.6305
 5339TIP3   OH216022   6.044   5.602   1.584 -0.5497  0.5358  0.0353
 5339TIP3    H116023   5.976   5.583   1.519 -0.7197 -1.1270  0.6338
 5339TIP3    H216024   5.995   5.628   1.662 -0.3762  1.8726 -0.2937
 5340TIP3   OH216025   0.075   1.700   5.083  0.1757  0.3071  0.1754
 5340TIP3    H116026   0.032   1.615   5.096 -2.9281  1.7278  0.2206
 5340TIP3    H216027   0.130   1.689   5.006 -0.3104 -1.6865  0.0772
 5341TIP3   OH216028   0.495   1.000   3.477 -0.4168 -0.1414 -0.5843
 5341TIP3    H116029   0.440   1.034   3.407 -0.2975  0.5115 -0.3660
 5341TIP3    H216030   0.468   0.908   3.486 -3.2072  0.7256  1.1417
 5342TIP3   OH216031   0.588   1.855   0.836  0.1337 -0.2355  0.0075
 5342TIP3    H116032   0.603   1.941   0.876 -0.5350  0.2034 -0.6660
 5342TIP3    H216033   0.574   1.796   0.910 -0.5576  0.4588  0.4394
 5343TIP3   OH216034   4.459   2.536   3.890  0.0028  0.1325  0.1075
 5343TIP3    H116035   4.452   2.515   3.983 -0.2758  1.1037  0.3155
 5343TIP3    H216036   4.370   2.561   3.865 -0.0168 -0.5499 -0.5385
 5344TIP3   OH216037   5.462   1.853   1.666  0.2103  0.7144  0.3792
 5344TIP3    H116038   5.408   1.888   1.737  1.3634  0.3248  1.4643
 5344TIP3    H216039   5.487   1.930   1.615 -2.7216  0.7929 -1.2178
 5345TIP3   OH216040   3.845   1.046   4.962  0.2629  0.4070 -0.0763
 5345TIP3    H116041   3.938   1.066   4.952  0.8885 -1.7753  0.7242
 5345TIP3    H216042   3.836   1.021   5.054 -1.2866  1.2684  0.0420
 5346TIP3   OH216043   4.020   3.157   2.868  0.0422 -0.8112  0.2156
 5346TIP3    H116044   4.087   3.183   2.805  0.2358 -0.9140  0.3770
 5346TIP3    H216045   3.949   3.121   2.815 -0.0116 -0.4225  0.0234
 5347TIP3   OH216046   6.304   4.657   1.612 -0.3578 -0.1499  0.2495
 5347TIP3    H116047   6.225   4.676   1.561  0.3400  1.1937 -0.3677
 5347TIP3    H216048   6.274   4.657   1.703 -1.1900 -0.3569 -0.0139
 5348TIP3   OH216049   1.480   5.700   0.550 -0.2297  0.1378  0.6119
 5348TIP3    H116050   1.431   5.638   0.495 -0.7271 -2.3197  3.5803
 5348TIP3    H216051   1.414   5.761   0.582 -0.1058  0.9601 -0.6233
 5349TIP3   OH216052   2.125   4.667   2.841  0.1795  0.1116  0.6802
 5349TIP3    H116053   2.194   4.611   2.876  0.6869 -0.1706 -0.6790
 5349TIP3    H216054   2.064   4.607   2.798 -0.0297  0.4875  0.4474
 5350TIP3   OH216055   4.274   1.831   1.320  0.0175  0.4898 -0.7624
 5350TIP3    H116056   4.295   1.919   1.352 -0.3122  0.6610 -1.0186
 5350TIP3    H216057   4.208   1.799   1.381  0.3467  0.3048 -0.4981
 5351TIP3   OH216058   3.377   3.663   0.105 -0.4430  0.0043  0.6674
 5351TIP3    H116059   3.318   3.737   0.092  0.3194  0.4533 -0.3213
 5351TIP3    H216060   3.388   3.625   0.018 -2.4893 -2.6249  1.3890
 5352TIP3   OH216061   1.798   3.632   4.539 -0.4270 -0.1517  0.2071
 5352TIP3    H116062   1.726   3.585   4.580  0.8434 -1.7069  0.7313
 5352TIP3    H216063   1.857   3.654   4.611  0.3370 -0.1906 -0.3920
 5353TIP3   OH216064   2.131   3.606   2.250  0.1929  0.0265 -0.0191
 5353TIP3    H116065   2.074   3.681   2.267 -0.0531 -0.2903  0.5649
 5353TIP3    H216066   2.157   3.617   2.159  0.5275  1.0687  0.1923
 5354TIP3   OH216067   5.298   5.468   3.270  0.3970 -0.5534 -0.3927
 5354TIP3    H116068   5.347   5.522   3.332 -0.1274  0.0714 -0.5158
 5354TIP3    H216069   5.333   5.492   3.185  0.2798 -0.5410 -0.4368
 5355TIP3   OH216070   5.528   2.558   0.432  0.3105 -0.1155  0.2808
 5355TIP3    H116071   5.536   2.603   0.348  1.4534  0.4449  0.6777
 5355TIP3    H216072   5.568   2.472   0.417 -1.9263 -1.1125 -0.4943
 5356TIP3   OH216073   5.842   4.990   1.100  0.0907  0.5148  0.2270
 5356TIP3    H116074   5.756   5.031   1.097 -0.6542 -0.9000  1.0188
 5356TIP3    H216075   5.872   4.988   1.009 -0.4951  1.4395  0.0064
 5357TIP3   OH216076   0.833   0.673   2.664 -0.1867 -0.3894  0.5695
 5357TIP3    H116077   0.909   0.665   2.606  0.8776 -2.7429  2.1399
 5357TIP3    H216078   0.826   0.767   2.682  1.5954  0.0200 -0.5678
 5358TIP3   OH216079   3.025   1.359   1.911 -0.0798  0.2257  0.2320
 5358TIP3    H116080   2.977   1.426   1.862 -0.5922 -1.7980 -2.2450
 5358TIP3    H216081   3.078   1.315   1.845 -1.3785 -3.1880  1.2374
 5359TIP3   OH216082   6.075   2.930   0.170 -0.1383 -0.2919 -0.5241
 5359TIP3    H116083   6.088   3.024   0.154 -0.6703 -0.3450 -1.3271
 5359TIP3    H216084   6.007   2.927   0.238  1.5805 -0.0799  1.3140
 5360TIP3   OH216085   4.134   0.304   0.075  0.3846 -0.1287  0.1582
 5360TIP3    H116086   4.171   0.222   0.041  2.6762  1.0059 -0.2761
 5360TIP3    H216087   4.136   0.293   0.170 -0.9391 -1.2152  0.0828
 5361TIP3   OH216088   0.528   5.157   2.752  0.0069 -0.1727  0.0852
 5361TIP3    H116089   0.488   5.195   2.674 -0.2305 -1.5365 -0.4884
 5361TIP3    H216090   0.621   5.175   2.743 -0.1568  0.7128  0.0949
 5362TIP3   OH216091   0.139   5.265   1.145 -0.2916  0.4881 -0.3409
 5362TIP3    H116092   0.228   5.296   1.160 -0.5698  0.6978  1.0277
 5362TIP3    H216093   0.141   5.224   1.059  0.5458  2.6368 -1.4151
 5363TIP3   OH216094   5.248   1.519   1.806  0.1517  0.8695 -0.1589
 5363TIP3    H116095   5.211   1.521   1.718 -0.1522  0.2004 -0.0520
 5363TIP3    H216096   5.285   1.606   1.819 -1.4449  1.5988 -0.2487
 5364TIP3   OH216097   5.218   0.204   2.360 -0.5077 -0.5638 -0.3188
 5364TIP3    H116098   5.310   0.191   2.339 -0.1227  0.6737  0.5093
 5364TIP3    H216099   5.171   0.156   2.292  0.7353 -0.4193 -1.3166
 5365TIP3   OH216100   6.038   0.983   3.855  0.6083  0.3912  0.6984
 5365TIP3    H116101   6.008   1.014   3.941  3.0043 -1.3878  2.3128
 5365TIP3    H216102   6.133   0.996   3.857  1.5164 -4.3158  0.5301
 5366TIP3   OH216103   1.126   1.469   5.029  0.1330  0.5314 -0.0467
 5366TIP3    H116104   1.196   1.528   5.000  0.3852  0.1160 -0.2820
 5366TIP3    H216105   1.127   1.478   5.125 -0.5992  1.7810 -0.1315
 5367TIP3   OH216106   4.075   0.646   2.863 -0.0069 -0.1431 -0.6848
 5367TIP3    H116107   4.009   0.702   2.904 -0.6078 -1.0518 -0.3967
 5367TIP3    H216108   4.159   0.685   2.889 -0.4092  0.2378  0.0495
 5368TIP3   OH216109   2.863   2.937   5.029  0.0743 -0.1304 -0.4118
 5368TIP3    H116110   2.914   3.001   5.078  4.0350  0.5258 -4.6778
 5368TIP3    H216111   2.899   2.852   5.056 -2.3280 -0.4274  2.2561
 5369TIP3   OH216112   4.291   0.851   2.878  0.0708  0.2275  0.2053
 5369TIP3    H116113   4.350   0.927   2.871  0.4886 -0.0321  0.8434
 5369TIP3    H216114   4.339   0.789   2.932 -1.0184  0.2209  1.1892
 5370TIP3   OH216115   3.351   5.117   0.104 -0.2521  0.5062 -0.2448
 5370TIP3    H116116   3.318   5.165   0.029  0.7826 -0.5958 -1.4458
 5370TIP3    H216117   3.278   5.064   0.133 -0.1845 -0.3329 -1.5519
 5371TIP3   OH216118   1.144   1.787   2.427 -0.4240  0.0707 -0.6394
 5371TIP3    H116119   1.152   1.777   2.522 -0.7369 -0.7383 -0.6846
 5371TIP3    H216120   1.191   1.867   2.407 -0.7698  0.5130  0.2618
 5372TIP3   OH216121   4.715   2.354   2.851  0.1120 -0.3404 -0.1065
 5372TIP3    H116122   4.714   2.449   2.843  1.6098 -0.1158  1.6055
 5372TIP3    H216123   4.786   2.326   2.792 -0.2693 -0.3962 -0.5420
 5373TIP3   OH216124   2.472   5.458   0.496 -0.2510 -0.3318 -0.4024
 5373TIP3    H116125   2.554   5.477   0.542 -0.2726  1.2869 -0.9807
 5373TIP3    H216126   2.426   5.396   0.553  1.7631 -2.0629 -0.5186
 5374TIP3   OH216127   5.760   0.393   4.026  0.3071  0.4072 -0.2533
 5374TIP3    H116128   5.788   0.469   3.975 -1.6412 -0.3180 -2.6301
 5374TIP3    H216129   5.668   0.381   4.002  0.2951 -2.1306  0.7433
 5375TIP3   OH216130   4.506   0.183   2.436 -0.3404  0.6325  0.3343
 5375TIP3    H116131   4.485   0.260   2.383 -0.3199  0.7494  0.4937
 5375TIP3    H216132   4.582   0.144   2.394 -0.6004  0.4662  0.0159
 5376TIP3   OH216133   4.997   4.774   1.167 -0.3757 -0.6227  0.6700
 5376TIP3    H116134   5.050   4.698   1.143 -1.4192 -1.6657  1.5132
 5376TIP3    H216135   4.950   4.746   1.246 -1.6384  0.4993  0.3524
 5377TIP3   OH216136   2.376   1.368   3.658 -0.4810  0.5109 -0.3618
 5377TIP3    H116137   2.387   1.432   3.729 -1.8167 -0.1800  0.5160
 5377TIP3    H216138   2.337   1.291   3.701  0.0214 -0.4722 -1.5979
 5378TIP3   OH216139   2.598   4.802   4.045 -0.1973  0.4943  0.1600
 5378TIP3    H116140   2.656   4.848   3.984  0.5702 -0.2161  0.3374
 5378TIP3    H216141   2.644   4.803   4.128 -1.3893  1.7426  0.8290
 5379TIP3   OH216142   0.478   1.004   2.278  0.0791  0.0433 -0.4380
 5379TIP3    H116143   0.544   0.962   2.334 -2.0204 -2.0322  0.6545
 5379TIP3    H216144   0.424   0.932   2.247 -0.0975  1.3630 -3.5993
 5380TIP3   OH216145   4.385   3.534   3.329  0.2754  0.3953  0.4601
 5380TIP3    H116146   4.468   3.536   3.375  0.0317  0.7152  0.8889
 5380TIP3    H216147   4.377   3.620   3.288 -0.7068  1.0599  1.9749
 5381TIP3   OH216148   1.424   1.518   4.433  0.0514  0.2595 -0.0779
 5381TIP3    H116149   1.427   1.491   4.342  0.6629  1.0945 -0.3221
 5381TIP3    H216150   1.365   1.456   4.475  2.2256 -2.1513 -0.3409
 5382TIP3   OH216151   5.169   5.688   2.226  0.2603  0.3435  0.1573
 5382TIP3    H116152   5.177   5.597   2.195  1.3702  1.2160 -2.3747
 5382TIP3    H216153   5.130   5.735   2.152 -0.7125  1.8836  1.5876
 5383TIP3   OH216154   0.612   2.366   1.778 -0.5230 -0.3349 -0.5914
 5383TIP3    H116155   0.667   2.424   1.725  0.1295 -0.2403  0.1666
 5383TIP3    H216156   0.526   2.371   1.737 -1.0322  2.7979  0.6129
 5384TIP3   OH216157   4.725   1.471   1.444  0.1876 -0.2561  0.3955
 5384TIP3    H116158   4.694   1.394   1.395  0.9156 -0.8462  0.8446
 5384TIP3    H216159   4.795   1.437   1.499  1.4918  0.9935 -0.4268
 5385TIP3   OH216160   2.365   0.297   2.317  0.2696  0.0454 -0.3300
 5385TIP3    H116161   2.289   0.292   2.258 -1.0883 -1.2794  1.4150
 5385TIP3    H216162   2.410   0.214   2.304 -0.6528 -0.7313  1.2231
 5386TIP3   OH216163   5.175   2.815   3.473 -0.5180  0.6465  0.1906
 5386TIP3    H116164   5.177   2.720   3.486  0.0426  0.7435  0.8718
 5386TIP3    H216165   5.254   2.847   3.516 -0.6446  1.4184 -0.1255
 5387TIP3   OH216166   0.199   4.163   3.442  0.8555 -0.0770 -0.4091
 5387TIP3    H116167   0.147   4.232   3.401 -0.7710 -0.7102  0.5090
 5387TIP3    H216168   0.270   4.147   3.379 -0.8504 -0.1870 -2.4310
 5388TIP3   OH216169   3.988   2.775   2.181 -0.2766 -0.0082 -0.8967
 5388TIP3    H116170   3.903   2.738   2.204 -0.6130  0.9814 -0.4857
 5388TIP3    H216171   3.972   2.826   2.102 -0.2647  0.9063 -0.3158
 5389TIP3   OH216172   1.908   3.491   3.268  0.1148 -0.0803  0.1989
 5389TIP3    H116173   1.879   3.582   3.278  1.3155  0.2793  0.5843
 5389TIP3    H216174   2.003   3.497   3.258  0.1988 -1.2906  0.1079
 5390TIP3   OH216175   0.998   1.522   3.564 -0.0942  0.1466 -0.3217
 5390TIP3    H116176   1.045   1.503   3.482  2.4750 -0.7442  1.2276
 5390TIP3    H216177   0.968   1.436   3.594  0.9393  0.1247  0.7180
 5391TIP3   OH216178   5.460   2.990   1.566  0.4318 -0.2791 -0.5613
 5391TIP3    H116179   5.522   2.923   1.595  1.0650  0.1205 -0.9714
 5391TIP3    H216180   5.475   2.997   1.472  0.2329  0.2962 -0.5535
 5392TIP3   OH216181   3.653   3.686   2.662 -0.4158 -0.1891 -0.0457
 5392TIP3    H116182   3.629   3.705   2.571 -0.3873  0.3460  0.0571
 5392TIP3    H216183   3.675   3.771   2.700 -0.9090 -0.3373  0.6059
 5393TIP3   OH216184   0.029   4.280   4.973 -0.3061  0.2986  0.1834
 5393TIP3    H116185   0.006   4.199   4.928  1.4159 -1.3596  2.0709
 5393TIP3    H216186   0.113   4.261   5.015  0.4603  3.2877  0.2261
 5394TIP3   OH216187   0.791   1.575   2.888  0.6964 -0.4675  0.0820
 5394TIP3    H116188   0.848   1.511   2.845  1.1119  0.5669 -0.9673
 5394TIP3    H216189   0.705   1.534   2.887  1.0526 -1.2344 -0.0905
 5395TIP3   OH216190   1.672   2.124   3.941  0.0576  0.5134 -0.3981
 5395TIP3    H116191   1.659   2.047   3.885  0.9513  0.0930 -0.0543
 5395TIP3    H216192   1.612   2.110   4.014 -0.5289  0.6617 -0.8422
 5396TIP3   OH216193   1.099   0.375   4.572 -0.0427  0.0679  0.5386
 5396TIP3    H116194   1.159   0.425   4.627 -0.8129  0.0399  1.4346
 5396TIP3    H216195   1.021   0.365   4.625 -0.6614 -0.3300 -0.4160
 5397TIP3   OH216196   4.893   0.809   1.187  0.3018 -0.3381 -0.5932
 5397TIP3    H116197   4.893   0.798   1.092  0.5360  0.2816 -0.6712
 5397TIP3    H216198   4.966   0.755   1.217 -0.0928 -0.9451 -0.7090
 5398TIP3   OH216199   1.193   5.699   0.190 -0.2555 -0.1994 -0.0214
 5398TIP3    H116200   1.270   5.735   0.235 -1.6012 -0.3641  2.6255
 5398TIP3    H216201   1.225   5.619   0.149  1.4504  0.8699 -0.9392
 5399TIP3   OH216202   1.444   1.291   1.102  0.2283 -0.1201  0.9206
 5399TIP3    H116203   1.403   1.219   1.053 -0.1324  0.3336  0.5498
 5399TIP3    H216204   1.508   1.248   1.159  0.6834 -0.6585  0.0211
 5400TIP3   OH216205   6.221   4.616   4.279  0.0257  0.3305  0.0892
 5400TIP3    H116206   6.206   4.659   4.363  0.5965 -0.2424  0.4969
 5400TIP3    H216207   6.186   4.677   4.214 -1.5505  0.2375  0.7999
 5401TIP3   OH216208   3.673   1.803   2.197 -0.2879 -0.9251 -0.1509
 5401TIP3    H116209   3.712   1.883   2.233  0.1566 -0.6613 -1.1658
 5401TIP3    H216210   3.740   1.769   2.137 -1.0138 -1.3125 -0.7592
 5402TIP3   OH216211   4.159   2.262   3.066 -0.0848 -0.1417  0.1551
 5402TIP3    H116212   4.107   2.240   2.989 -0.2615 -2.4041  0.8431
 5402TIP3    H216213   4.160   2.357   3.068 -0.6623 -0.0296 -2.2236
 5403TIP3   OH216214   3.685   2.099   0.166 -0.2204 -0.4253 -0.4049
 5403TIP3    H116215   3.754   2.166   0.161  0.0849 -0.7695 -0.9516
 5403TIP3    H216216   3.622   2.134   0.229 -0.1282  0.4349 -0.7796
 5404TIP3   OH216217   1.300   1.796   0.903 -0.5189 -0.2982 -0.1664
 5404TIP3    H116218   1.335   1.867   0.957 -1.9294  1.4402 -1.4376
 5404TIP3    H216219   1.242   1.748   0.962 -1.6806  1.2998  0.0802
 5405TIP3   OH216220   0.661   2.519   0.517  0.3539 -0.1131  0.0411
 5405TIP3    H116221   0.576   2.490   0.484  0.2486 -0.4015  0.5541
 5405TIP3    H216222   0.701   2.440   0.553  0.2306  0.2854  1.0912
 5406TIP3   OH216223   2.041   4.704   2.035 -0.0933  0.2687  0.6963
 5406TIP3    H116224   1.965   4.763   2.039  0.7282  1.4517 -0.2001
 5406TIP3    H216225   2.083   4.726   1.952  0.1909 -1.6956  0.2826
 5407TIP3   OH216226   5.225   0.608   3.703  0.0504  0.5352 -0.1408
 5407TIP3    H116227   5.237   0.631   3.795 -1.2993  1.6581 -0.2117
 5407TIP3    H216228   5.313   0.589   3.672  0.5908  0.6011  1.2582
 5408TIP3   OH216229   5.104   5.517   0.252  0.5021  0.3451 -0.4651
 5408TIP3    H116230   5.150   5.501   0.335 -0.7116 -0.0716  0.1523
 5408TIP3    H216231   5.079   5.610   0.256 -0.2059  0.1450 -0.0071
 5409TIP3   OH216232   2.272   3.332   1.053  0.2851  0.2336  0.1822
 5409TIP3    H116233   2.239   3.355   1.140 -0.1111  1.6394 -0.3019
 5409TIP3    H216234   2.365   3.314   1.066  0.1808  0.2155  0.9331
 5410TIP3   OH216235   6.198   3.012   4.203 -0.5407  0.3095 -0.1385
 5410TIP3    H116236   6.210   3.082   4.267 -1.0529  0.0396  0.2557
 5410TIP3    H216237   6.246   3.043   4.125  0.0988  0.6261  0.3712
 5411TIP3   OH216238   1.240   0.460   2.641 -0.4954  0.0921  0.2407
 5411TIP3    H116239   1.195   0.378   2.661  0.1818 -0.1747  0.6927
 5411TIP3    H216240   1.328   0.448   2.677 -0.2304  0.8114 -0.1665
 5412TIP3   OH216241   0.870   3.609   1.093 -0.4065  0.1988  1.0072
 5412TIP3    H116242   0.811   3.534   1.104 -0.6446  0.5588  2.4270
 5412TIP3    H216243   0.893   3.634   1.183  1.4850  0.4235  0.5046
 5413TIP3   OH216244   1.698   5.893   4.100  0.1094  0.0488  0.3066
 5413TIP3    H116245   1.725   5.805   4.127  2.0735  0.4330 -0.2337
 5413TIP3    H216246   1.754   5.913   4.025  0.0057  1.9285  0.6955
 5414TIP3   OH216247   2.626   0.065   3.549 -0.5417 -0.3108  0.5736
 5414TIP3    H116248   2.609   0.116   3.469 -0.6906  0.9117  1.3527
 5414TIP3    H216249   2.539   0.043   3.583 -0.4801 -1.3714  0.0931
 5415TIP3   OH216250   3.697   2.236   1.925 -0.2892 -0.6440  0.3077
 5415TIP3    H116251   3.715   2.285   2.005  1.9645 -2.2743  0.9032
 5415TIP3    H216252   3.784   2.217   1.889 -1.1803 -1.9334 -1.2773
 5416TIP3   OH216253   1.002   4.704   1.608  0.0131  0.2775  0.4405
 5416TIP3    H116254   1.090   4.669   1.626  0.1302  0.0712 -0.4512
 5416TIP3    H216255   0.977   4.749   1.688  0.2988 -0.9679  1.2481
 5417TIP3   OH216256   3.874   0.634   0.805 -0.3696 -0.0516  0.6564
 5417TIP3    H116257   3.938   0.653   0.873 -0.7905  0.3327  0.9558
 5417TIP3    H216258   3.849   0.720   0.771  0.4561 -0.2844 -0.5742
 5418TIP3   OH216259   2.350   4.668   1.906  0.2959  0.1462 -0.4264
 5418TIP3    H116260   2.409   4.642   1.977 -1.3872  0.1031  1.0077
 5418TIP3    H216261   2.301   4.589   1.885  0.2292  0.3618 -1.0991
 5419TIP3   OH216262   0.611   0.568   4.625  0.0968 -0.1124 -0.3987
 5419TIP3    H116263   0.591   0.485   4.670  0.1576 -0.7022 -1.4333
 5419TIP3    H216264   0.696   0.594   4.662  0.4209 -0.8850 -0.5691
 5420TIP3   OH216265   3.432   4.650   0.513  0.8010 -0.0268  0.2311
 5420TIP3    H116266   3.478   4.567   0.521 -0.8974 -0.8880  1.6482
 5420TIP3    H216267   3.384   4.659   0.596 -2.5799  0.1752 -1.5878
 5421TIP3   OH216268   3.026   1.155   0.235  0.3199  0.3870  0.1608
 5421TIP3    H116269   3.002   1.142   0.327 -1.2158 -1.6032 -0.4443
 5421TIP3    H216270   3.121   1.150   0.234  0.4821  2.1105  1.8402
 5422TIP3   OH216271   2.968   4.305   5.026  0.3125  0.4221 -0.6067
 5422TIP3    H116272   3.037   4.241   5.043 -1.0902 -0.6606  1.4491
 5422TIP3    H216273   2.994   4.348   4.945  2.0679 -1.7312 -1.2736
 5423TIP3   OH216274   6.014   0.986   0.028  0.0985 -0.5265 -0.4019
 5423TIP3    H116275   6.092   0.950   0.070  0.7684  1.2678 -0.0394
 5423TIP3    H216276   6.047   1.055  -0.029 -1.2202  0.1392 -0.3886
 5424TIP3   OH216277   4.334   2.205   3.658 -0.0831  0.3769 -0.0201
 5424TIP3    H116278   4.372   2.272   3.600  0.1274  0.5261  0.2885
 5424TIP3    H216279   4.381   2.125   3.635 -0.1468  0.3893 -0.2012
 5425TIP3   OH216280   4.207   0.990   3.575  0.3056  0.3541 -0.6341
 5425TIP3    H116281   4.300   0.998   3.594  0.5792  0.5269 -1.9558
 5425TIP3    H216282   4.190   1.057   3.509 -0.9038  0.7727  0.0783
 5426TIP3   OH216283   4.158   2.464   1.400 -0.1860  0.4934 -0.5813
 5426TIP3    H116284   4.201   2.496   1.479  1.8426 -3.8611  0.4156
 5426TIP3    H216285   4.229   2.431   1.345 -1.8600 -2.2926 -1.3016
 5427TIP3   OH216286   0.152   1.210   2.354  0.2937  0.5661 -0.1101
 5427TIP3    H116287   0.075   1.206   2.411  0.8013  2.9005  0.8392
 5427TIP3    H216288   0.220   1.162   2.401 -0.1782 -0.3188 -0.3113
 5428TIP3   OH216289   3.438   0.140   4.913  0.1282  0.6174 -0.1283
 5428TIP3    H116290   3.489   0.220   4.899  0.5928  0.5084  0.8250
 5428TIP3    H216291   3.367   0.167   4.972 -0.4271  0.5860 -0.7796
 5429TIP3   OH216292   5.142   2.002   1.022 -0.2271  0.1973 -0.4751
 5429TIP3    H116293   5.228   1.960   1.019 -0.8644 -1.3883  1.5621
 5429TIP3    H216294   5.160   2.093   1.046  0.8651 -0.2439  0.4394
 5430TIP3   OH216295   0.947   2.899   0.764  0.3534 -0.3016  0.1292
 5430TIP3    H116296   0.959   2.808   0.740  1.1529  0.0832 -1.0381
 5430TIP3    H216297   0.858   2.904   0.798  0.4354 -1.5799  0.5854
 5431TIP3   OH216298   2.998   2.153   4.454 -0.1926 -0.1029  0.0383
 5431TIP3    H116299   3.067   2.098   4.491  0.6278  0.7799 -0.1548
 5431TIP3    H216300   2.967   2.105   4.377 -2.0627 -2.0763  1.8735
 5432TIP3   OH216301   4.237   4.850   2.610 -0.7762 -0.1673 -0.1592
 5432TIP3    H116302   4.288   4.769   2.604  1.6762  1.3391 -0.7572
 5432TIP3    H216303   4.258   4.885   2.696 -0.8033  0.4746 -0.4120
 5433TIP3   OH216304   4.207   0.951   2.115  0.5035  0.2438 -0.4209
 5433TIP3    H116305   4.169   1.015   2.175 -0.7615 -2.1709  1.5308
 5433TIP3    H216306   4.298   0.945   2.141  0.3007  0.2651  0.3231
 5434TIP3   OH216307   0.114   5.721   0.653  0.0206 -0.3233  0.2500
 5434TIP3    H116308   0.145   5.633   0.631 -0.6726 -0.6054  0.3567
 5434TIP3    H216309   0.131   5.773   0.574  1.3402 -0.2938  0.5328
 5435TIP3   OH216310   3.510   2.092   2.394  0.1299  0.2743  0.0010
 5435TIP3    H116311   3.551   2.170   2.357  1.5972 -0.9743 -1.1580
 5435TIP3    H216312   3.582   2.029   2.403 -0.9899 -0.9196  0.9869
 5436TIP3   OH216313   2.580   1.375   2.130  0.3121 -0.1504  0.4360
 5436TIP3    H116314   2.586   1.405   2.221  0.7864  0.1747  0.3032
 5436TIP3    H216315   2.665   1.333   2.114  0.5900  0.6107 -0.1374
 5437TIP3   OH216316   1.686   5.849   1.763  0.0788  0.5272 -0.0441
 5437TIP3    H116317   1.619   5.785   1.738  0.9096 -0.4511  0.1678
 5437TIP3    H216318   1.651   5.933   1.733 -0.0608 -0.2795 -2.3261
 5438TIP3   OH216319   2.855   2.970   1.571  0.4141  0.1616 -0.1882
 5438TIP3    H116320   2.901   3.049   1.543 -1.6747  1.7518  0.6147
 5438TIP3    H216321   2.873   2.964   1.665 -1.5435  1.2601  0.3056
 5439TIP3   OH216322   1.974   5.256   3.767  1.0951 -0.7316  0.1869
 5439TIP3    H116323   1.959   5.257   3.672  1.7724 -2.1344  0.0386
 5439TIP3    H216324   1.893   5.221   3.804  0.1686  1.3960  0.3130
 5440TIP3   OH216325   1.755   2.944   0.047 -0.4034 -0.2196  0.3133
 5440TIP3    H116326   1.743   3.031   0.008 -1.7275 -0.4766  0.1101
 5440TIP3    H216327   1.711   2.884  -0.013  2.6840 -1.4389 -0.9598
 5441TIP3   OH216328   0.263   2.802   2.115  0.0531 -0.8520 -0.6440
 5441TIP3    H116329   0.276   2.740   2.043 -0.1014 -0.4409 -1.0340
 5441TIP3    H216330   0.343   2.854   2.118 -0.1041 -0.5964 -0.7929
 5442TIP3   OH216331   4.859   3.952   0.022 -0.1300 -0.0181 -0.4755
 5442TIP3    H116332   4.782   4.002  -0.006 -1.2274 -0.4575  1.5788
 5442TIP3    H216333   4.886   3.993   0.104  1.1199 -0.6215 -0.5629
 5443TIP3   OH216334   1.815   0.499   1.025  0.7284 -0.2358  0.5581
 5443TIP3    H116335   1.853   0.453   0.949 -0.9382 -1.5550  0.4733
 5443TIP3    H216336   1.826   0.592   1.004  0.8147 -0.5699 -1.0374
 5444TIP3   OH216337   5.962   4.153   3.137  0.1136 -0.2523  0.3593
 5444TIP3    H116338   6.009   4.166   3.219  1.8568 -2.7343 -0.1281
 5444TIP3    H216339   6.014   4.087   3.090 -1.4586  0.2180 -2.2265
 5445TIP3   OH216340   2.236   4.569   4.253  0.6202 -0.0688  0.0524
 5445TIP3    H116341   2.273   4.647   4.212 -1.8802  0.7304 -0.8064
 5445TIP3    H216342   2.276   4.496   4.205  0.2888  0.7766 -1.5685
 5446TIP3   OH216343   0.460   3.565   4.391  0.3477 -0.0931  0.4154
 5446TIP3    H116344   0.497   3.624   4.457 -1.7468  0.7621  0.8953
 5446TIP3    H216345   0.405   3.505   4.442 -0.2650 -0.2516 -0.4170
 5447TIP3   OH216346   0.087   3.576   3.317  0.0336 -0.1298 -0.0774
 5447TIP3    H116347   0.103   3.662   3.279 -1.4818  0.0968 -0.2597
 5447TIP3    H216348  -0.008   3.564   3.312  0.2591 -2.0953 -0.6477
 5448TIP3   OH216349   1.240   2.852   0.474 -0.2608  0.1561  0.2979
 5448TIP3    H116350   1.330   2.834   0.447 -0.6830 -1.4195 -0.1177
 5448TIP3    H216351   1.235   2.948   0.476  1.6594  0.2988  1.1515
 5449TIP3   OH216352   6.299   5.553   4.001  0.3802  0.1375  0.8025
 5449TIP3    H116353   6.276   5.600   4.082 -1.9005  1.6124 -0.6005
 5449TIP3    H216354   6.336   5.621   3.945  0.6876 -0.5994  0.0962
 5450TIP3   OH216355   1.655   3.791   3.804  0.0926 -0.6257 -0.5330
 5450TIP3    H116356   1.633   3.828   3.889  0.3147  1.7692 -1.4473
 5450TIP3    H216357   1.653   3.696   3.818 -0.3752 -0.3128  1.9827
 5451TIP3   OH216358   6.111   2.704   2.227  0.3806  0.2828 -0.1359
 5451TIP3    H116359   6.030   2.678   2.183  0.1224 -1.1292  1.0672
 5451TIP3    H216360   6.088   2.708   2.320  1.6349  0.0446  0.2080
 5452TIP3   OH216361   1.197   3.131   4.615  0.1879 -0.0691  0.4649
 5452TIP3    H116362   1.240   3.167   4.537 -2.4104  0.3732 -0.8808
 5452TIP3    H216363   1.169   3.043   4.588 -0.4789 -0.0242  0.9990
 5453TIP3   OH216364   2.639   3.925   1.850  0.0501  0.0195  0.1382
 5453TIP3    H116365   2.638   3.830   1.839 -0.6849  0.0679 -0.2536
 5453TIP3    H216366   2.705   3.955   1.788 -0.1456 -0.1873 -0.1735
 5454TIP3   OH216367   3.285   1.672   2.436  0.4204 -0.0206  0.5741
 5454TIP3    H116368   3.226   1.619   2.490 -2.2570  0.2316 -1.8243
 5454TIP3    H216369   3.284   1.628   2.350  2.7869  0.7536  0.0675
 5455TIP3   OH216370   4.863   1.353   4.407 -0.2307 -0.4484  0.1676
 5455TIP3    H116371   4.796   1.408   4.367 -0.1505  0.8890  1.7789
 5455TIP3    H216372   4.920   1.329   4.335 -0.2517  1.6389 -0.6204
 5456TIP3   OH216373   1.960   0.356   0.812 -0.4652  0.8815 -0.2491
 5456TIP3    H116374   2.009   0.438   0.814 -0.3961  0.8388 -0.1840
 5456TIP3    H216375   1.941   0.342   0.719 -0.0054  0.6950 -0.3198
 5457TIP3   OH216376   3.122   0.935   4.796  0.4112  0.2863  0.2549
 5457TIP3    H116377   3.131   0.842   4.776 -0.6463  0.4226 -0.9678
 5457TIP3    H216378   3.049   0.940   4.857  1.2334  0.2237  1.2703
 5458TIP3   OH216379   2.183   4.674   1.396 -0.3366 -0.3334 -0.1438
 5458TIP3    H116380   2.114   4.738   1.377  0.7014  1.1006  0.6671
 5458TIP3    H216381   2.255   4.698   1.337 -0.2653 -1.3712 -0.4966
 5459TIP3   OH216382   4.108   3.471   3.382  0.1904  0.3896  0.1680
 5459TIP3    H116383   4.087   3.558   3.348  0.6209 -0.1907 -1.6910
 5459TIP3    H216384   4.203   3.465   3.374 -0.0108 -1.1245 -2.1187
 5460TIP3   OH216385   6.135   0.261   4.038  0.2149  0.5771  0.3115
 5460TIP3    H116386   6.197   0.193   4.009  0.3075  0.4380  0.8205
 5460TIP3    H216387   6.129   0.248   4.133 -1.6311 -0.2775  0.1162
 5461TIP3   OH216388   6.183   1.550   1.486  0.1617  0.4950  0.2294
 5461TIP3    H116389   6.246   1.498   1.535 -0.8650 -3.0911 -1.9360
 5461TIP3    H216390   6.235   1.594   1.419  0.7327  0.0070  0.3491
 5462TIP3   OH216391   3.492   3.432   4.813  0.5077 -0.7891 -0.4854
 5462TIP3    H116392   3.420   3.478   4.771 -2.3948 -1.6016  3.1231
 5462TIP3    H216393   3.512   3.482   4.892  3.5338 -0.9923 -0.9680
 5463TIP3   OH216394   0.052   0.082   2.367 -0.4000 -0.2487 -0.4677
 5463TIP3    H116395   0.048   0.048   2.278 -0.8699  1.2875 -1.0699
 5463TIP3    H216396  -0.023   0.042   2.412 -0.9322 -0.0287 -1.1438
 5464TIP3   OH216397   5.369   0.488   2.440 -0.4158  0.1853  0.2833
 5464TIP3    H116398   5.442   0.426   2.445 -0.8228 -0.3824 -0.6687
 5464TIP3    H216399   5.299   0.440   2.396 -1.3070  0.7897  1.0049
 5465TIP3   OH216400   5.209   0.333   2.645 -0.1098 -0.4689 -0.1199
 5465TIP3    H116401   5.268   0.283   2.590  0.3468 -1.3893  1.1705
 5465TIP3    H216402   5.197   0.280   2.724 -1.2854  0.4879  0.3898
 5466TIP3   OH216403   3.570   5.919   4.143  0.6217 -0.2284  0.3329
 5466TIP3    H116404   3.544   5.834   4.109 -0.1862  0.2920 -0.3939
 5466TIP3    H216405   3.560   5.979   4.068  1.5510  0.4388  0.7171
 5467TIP3   OH216406   0.980   4.699   5.067 -0.3080 -0.0128  0.3174
 5467TIP3    H116407   0.936   4.730   4.987 -2.7106 -2.1947  0.6742
 5467TIP3    H216408   0.952   4.761   5.135 -0.3305  0.3643 -0.0273
 5468TIP3   OH216409   2.298   0.141   4.733 -0.0656 -0.6361 -0.1864
 5468TIP3    H116410   2.320   0.230   4.707  0.3386 -0.5084  0.5841
 5468TIP3    H216411   2.205   0.145   4.757 -0.4332 -0.7393 -1.4742
 5469TIP3   OH216412   1.854   0.647   1.282 -0.2988  0.4517 -0.1501
 5469TIP3    H116413   1.927   0.607   1.329 -0.8938 -0.0861  0.3205
 5469TIP3    H216414   1.892   0.726   1.242  0.1387  1.1487  1.5471
 5470TIP3   OH216415   4.206   1.212   1.845  0.3062 -0.0387  0.1569
 5470TIP3    H116416   4.281   1.250   1.800  1.2768 -0.1772  1.5896
 5470TIP3    H216417   4.238   1.193   1.933 -0.0500 -4.2318 -0.4097
 5471TIP3   OH216418   0.792   0.490   2.261  0.1349  0.1838 -0.2085
 5471TIP3    H116419   0.841   0.566   2.230  0.4225 -0.0023 -0.2097
 5471TIP3    H216420   0.792   0.430   2.186 -0.1589  0.2104 -0.2345
 5472TIP3   OH216421   2.100   4.866   0.462  0.1196  0.2130 -0.2225
 5472TIP3    H116422   2.104   4.836   0.553  0.9360 -0.2971 -0.4166
 5472TIP3    H216423   2.170   4.932   0.456  0.5309 -0.2511 -0.6479
 5473TIP3   OH216424   3.568   2.025   1.345 -0.2209  0.6113 -0.3117
 5473TIP3    H116425   3.568   1.982   1.430 -1.3919  1.2634  0.0403
 5473TIP3    H216426   3.658   2.055   1.333  0.3518 -0.9192 -0.0696
 5474TIP3   OH216427   0.297   3.119   1.995 -0.1100  0.2874 -0.1547
 5474TIP3    H116428   0.265   3.201   1.959  1.1074  0.2695 -1.3843
 5474TIP3    H216429   0.391   3.132   2.005 -0.1793 -0.2973  1.5132
 5475TIP3   OH216430   5.834   4.101   4.002  0.1799 -0.0931 -0.2801
 5475TIP3    H116431   5.773   4.048   4.053 -0.7222  0.2853 -0.9411
 5475TIP3    H216432   5.843   4.055   3.919 -0.3863  0.6173 -0.7513
 5476TIP3   OH216433   4.972   5.896   4.680  0.3314  0.3056 -0.0926
 5476TIP3    H116434   4.910   5.838   4.724  0.4034 -2.0540 -2.7988
 5476TIP3    H216435   4.919   5.966   4.644 -0.4898 -0.5228 -0.5378
 5477TIP3   OH216436   4.999   1.346   4.140 -0.3725  0.1413 -0.1937
 5477TIP3    H116437   4.918   1.384   4.106 -0.9058 -0.8500 -0.0459
 5477TIP3    H216438   5.017   1.271   4.084  0.5943  0.5001 -0.3864
 5478TIP3   OH216439   4.728   5.924   4.047  0.2579  0.0523  0.3723
 5478TIP3    H116440   4.816   5.927   4.008  0.5476 -0.8866  0.9209
 5478TIP3    H216441   4.695   6.014   4.039  1.6222  0.6380  0.9520
 5479TIP3   OH216442   4.989   3.233   0.781 -0.7397 -0.3264  0.4183
 5479TIP3    H116443   5.083   3.220   0.795 -0.8512 -2.9143 -0.6280
 5479TIP3    H216444   4.961   3.290   0.853  1.3041 -0.9638  1.7988
 5480TIP3   OH216445   2.518   5.649   3.199  0.0649 -0.1333 -0.2072
 5480TIP3    H116446   2.514   5.596   3.120 -0.2341 -1.7715  0.8566
 5480TIP3    H216447   2.430   5.688   3.207  0.0449 -0.1013 -0.5843
 5481TIP3   OH216448   3.373   0.940   3.829  0.4742  0.3409  0.2614
 5481TIP3    H116449   3.304   0.934   3.763  0.4633  0.5479  0.2517
 5481TIP3    H216450   3.449   0.899   3.789 -0.3081 -2.1882  1.1940
 5482TIP3   OH216451   5.305   5.141   2.762 -0.5968  0.5042 -0.5798
 5482TIP3    H116452   5.338   5.051   2.754 -0.7138  0.1416  2.0271
 5482TIP3    H216453   5.368   5.185   2.819 -0.0513  2.4012 -2.5511
 5483TIP3   OH216454   2.870   4.342   0.291 -0.2045  0.4510  0.0491
 5483TIP3    H116455   2.788   4.306   0.325 -0.5316  0.3453 -0.8227
 5483TIP3    H216456   2.846   4.428   0.257  0.4277  1.1980  1.4589
 5484TIP3   OH216457   4.532   0.453   4.448 -0.0188 -0.2374  0.2477
 5484TIP3    H116458   4.584   0.408   4.382 -0.0323  0.3392 -0.1679
 5484TIP3    H216459   4.592   0.467   4.521 -0.3649 -2.0746  0.9250
 5485TIP3   OH216460   4.810   1.869   1.508  0.6364 -0.2874  0.0665
 5485TIP3    H116461   4.875   1.856   1.577 -0.4208 -1.8559  0.8232
 5485TIP3    H216462   4.732   1.900   1.555  0.7823  1.5711 -0.8298
 5486TIP3   OH216463   4.712   3.376   3.845 -0.3439 -0.2875  0.2238
 5486TIP3    H116464   4.638   3.354   3.789 -1.3186 -0.6669  1.5918
 5486TIP3    H216465   4.745   3.291   3.875  2.0654 -0.2608 -2.0224
 5487TIP3   OH216466   5.501   2.996   0.861 -0.2363  0.0903  0.0963
 5487TIP3    H116467   5.439   3.068   0.874 -1.7573 -0.8256 -1.5756
 5487TIP3    H216468   5.520   2.964   0.949 -3.1504 -0.3521  0.6632
 5488TIP3   OH216469   1.080   5.067   0.145 -0.2620  0.4457  0.2493
 5488TIP3    H116470   1.161   5.034   0.184  0.0739 -0.3372 -1.0357
 5488TIP3    H216471   1.075   5.158   0.175  1.2190  0.5853  0.1889
 5489TIP3   OH216472   5.972   4.741   3.088 -0.1380  0.8324  0.0665
 5489TIP3    H116473   6.003   4.696   3.010  0.0499  0.9405  0.0799
 5489TIP3    H216474   5.896   4.690   3.116  1.3523 -0.8025  1.3525
 5490TIP3   OH216475   3.654   2.766   0.119 -0.3382 -0.0193 -0.0494
 5490TIP3    H116476   3.720   2.732   0.180 -1.6160 -1.9285  0.3583
 5490TIP3    H216477   3.705   2.817   0.056  1.5232 -1.2445  0.3517
 5491TIP3   OH216478   4.948   3.397   0.344  0.0232  0.1463  0.0550
 5491TIP3    H116479   4.992   3.462   0.400  0.3849 -0.5178  0.5473
 5491TIP3    H216480   4.906   3.337   0.405  1.1946 -1.1267 -0.3407
 5492TIP3   OH216481   5.021   1.421   3.216 -0.2458  0.0708 -0.8544
 5492TIP3    H116482   5.005   1.457   3.129 -1.4644 -0.1132 -0.7223
 5492TIP3    H216483   5.028   1.497   3.273 -3.2166  0.1993 -0.5053
 5493TIP3   OH216484   2.711   1.321   3.015  0.1346 -0.8631 -0.1615
 5493TIP3    H116485   2.792   1.339   3.062  0.9530  2.5917 -2.4682
 5493TIP3    H216486   2.644   1.370   3.062  0.4255  0.3546 -0.9673
 5494TIP3   OH216487   3.173   5.018   3.925  0.2832 -0.0002 -0.2573
 5494TIP3    H116488   3.144   5.073   3.853  1.1072  1.1056  0.2309
 5494TIP3    H216489   3.093   4.998   3.973 -0.0945  0.3461 -0.7268
 5495TIP3   OH216490   1.176   5.963   3.428 -0.1021 -0.8907  0.1361
 5495TIP3    H116491   1.236   5.924   3.492 -1.9337  0.0958  2.5919
 5495TIP3    H216492   1.090   5.954   3.467 -0.8175  4.8562  0.6914
 5496TIP3   OH216493   0.286   3.257   4.974  0.0793 -0.6397 -0.1765
 5496TIP3    H116494   0.260   3.274   4.883 -0.0672  2.7173  0.3375
 5496TIP3    H216495   0.205   3.228   5.016 -0.4003 -0.1445 -0.7179
 5497TIP3   OH216496   0.843   3.077   3.895  0.0765 -0.2661 -0.0171
 5497TIP3    H116497   0.852   3.074   3.800 -2.9326 -2.9502 -0.3844
 5497TIP3    H216498   0.780   3.147   3.911  1.3435  0.8819  0.1886
 5498TIP3   OH216499   4.302   2.607   1.603 -0.8592 -0.7386 -0.5581
 5498TIP3    H116500   4.240   2.660   1.654 -1.5852 -1.9785 -0.1078
 5498TIP3    H216501   4.383   2.658   1.604 -0.4165 -1.2327  2.9675
 5499TIP3   OH216502   3.677   5.581   4.821 -0.5393 -0.6726  0.7021
 5499TIP3    H116503   3.638   5.549   4.740 -0.5147  1.6458 -0.3157
 5499TIP3    H216504   3.605   5.584   4.883 -2.0616  2.8177 -0.9203
 5500TIP3   OH216505   4.580   4.354   1.529  0.4494 -0.2304 -0.8870
 5500TIP3    H116506   4.606   4.435   1.573  0.7645  0.7827 -2.8157
 5500TIP3    H216507   4.654   4.295   1.540  2.0928  1.2587 -2.9800
 5501TIP3   OH216508   0.680   5.937   2.597 -0.3016  0.1112 -0.5860
 5501TIP3    H116509   0.587   5.927   2.617 -0.9049  1.5231 -2.3821
 5501TIP3    H216510   0.697   6.031   2.607  1.5314 -0.3798  1.8328
 5502TIP3   OH216511   4.407   5.926   2.562 -0.2768 -0.2021 -0.5835
 5502TIP3    H116512   4.350   5.945   2.488  0.0132  0.1827 -0.7106
 5502TIP3    H216513   4.451   6.009   2.580 -0.3375 -0.2945  0.0117
 5503TIP3   OH216514   5.069   1.165   2.243  0.0375 -0.4695  0.4132
 5503TIP3    H116515   5.003   1.194   2.306 -0.8955 -1.1230 -0.2553
 5503TIP3    H216516   5.020   1.129   2.170  1.1280 -0.6054 -0.2798
 5504TIP3   OH216517   3.183   2.600   3.042 -0.0641  0.1850 -0.5500
 5504TIP3    H116518   3.141   2.685   3.033  0.6520  0.5906 -0.1316
 5504TIP3    H216519   3.121   2.538   3.004  0.6686  1.2103 -3.7093
 5505TIP3   OH216520   2.068   4.738   4.732  0.1639 -0.2619 -0.1839
 5505TIP3    H116521   2.114   4.821   4.745 -1.3982  0.7300 -0.7097
 5505TIP3    H216522   2.122   4.691   4.669  1.4368  0.0325  0.6463
 5506TIP3   OH216523   5.373   4.113   1.585  0.3030 -0.8703  0.5716
 5506TIP3    H116524   5.391   4.020   1.571  1.7086 -0.4116 -0.9260
 5506TIP3    H216525   5.409   4.131   1.672 -0.2249 -1.7637  0.9955
 5507TIP3   OH216526   4.372   3.205   4.292 -0.0535  0.0134  0.5056
 5507TIP3    H116527   4.397   3.137   4.355  0.7859  0.1898  0.3822
 5507TIP3    H216528   4.446   3.209   4.232 -1.9221 -2.0993 -2.1999
 5508TIP3   OH216529   2.332   4.169   0.481 -0.0688  0.0257  0.3008
 5508TIP3    H116530   2.264   4.194   0.544 -1.7261 -1.3451 -0.8543
 5508TIP3    H216531   2.366   4.085   0.514  1.2821  0.8015  0.9883
 5509TIP3   OH216532   4.884   2.635   4.266  0.0843  0.1703 -0.0136
 5509TIP3    H116533   4.819   2.573   4.232  0.5216 -1.2778  1.6430
 5509TIP3    H216534   4.843   2.672   4.345  0.0775  1.5830 -0.6468
 5510TIP3   OH216535   0.042   3.522   1.106  0.6511 -0.1257 -0.4458
 5510TIP3    H116536   0.060   3.614   1.129 -0.1212 -0.6225  2.4835
 5510TIP3    H216537   0.017   3.526   1.014 -1.7573  3.0013  0.1458
 5511TIP3   OH216538   1.934   5.898   4.984 -0.6879 -0.2175  0.0637
 5511TIP3    H116539   1.954   5.966   5.049  0.1255 -1.0620  0.7318
 5511TIP3    H216540   1.958   5.937   4.900  1.3427 -0.2164  0.5871
 5512TIP3   OH216541   3.039   4.870   4.877 -0.3356  0.2526  0.6543
 5512TIP3    H116542   2.979   4.870   4.951 -0.6573 -0.1205  0.3951
 5512TIP3    H216543   2.983   4.885   4.801 -0.1616 -0.5299  0.3645
 5513TIP3   OH216544   6.022   1.699   2.411 -0.1434 -0.3304 -0.1145
 5513TIP3    H116545   5.967   1.767   2.451  0.5917  0.4211 -0.3526
 5513TIP3    H216546   5.993   1.695   2.320  1.0911  1.0431 -0.5971
 5514TIP3   OH216547   1.646   3.489   3.810 -0.5718  0.0137  0.0540
 5514TIP3    H116548   1.734   3.452   3.799 -0.1257  0.5208  1.6683
 5514TIP3    H216549   1.588   3.414   3.816 -0.1970 -0.3327 -0.5356
 5515TIP3   OH216550   5.618   1.870   2.000  0.4293 -0.5690  0.0456
 5515TIP3    H116551   5.664   1.946   2.035  1.8605 -2.0960  1.7428
 5515TIP3    H216552   5.672   1.840   1.927  0.4683 -0.5777  0.0778
 5516TIP3   OH216553   4.319   4.249   3.186 -0.0895  0.3152 -0.3480
 5516TIP3    H116554   4.336   4.170   3.134 -2.1974 -0.7431  0.4279
 5516TIP3    H216555   4.261   4.301   3.130  1.4086  1.4445 -0.9151
 5517TIP3   OH216556   2.124   5.533   4.596 -0.1241 -0.6873 -0.0563
 5517TIP3    H116557   2.197   5.588   4.568  0.2302  0.3415  2.5967
 5517TIP3    H216558   2.060   5.595   4.631 -1.1489 -1.7593  0.0039
 5518TIP3   OH216559   1.029   4.183   4.206 -0.5281 -0.6488  0.1345
 5518TIP3    H116560   1.027   4.279   4.208  2.0710 -0.4688  3.9896
 5518TIP3    H216561   0.940   4.157   4.229 -1.5195  0.6856 -1.8440
 5519TIP3   OH216562   4.734   3.601   3.100  0.6125  0.2045 -0.3913
 5519TIP3    H116563   4.705   3.518   3.136 -0.1355  1.0372  1.0220
 5519TIP3    H216564   4.796   3.635   3.164 -1.3666  2.1092  0.6683
 5520TIP3   OH216565   6.008   5.521   0.515 -0.1803  0.1922 -0.0568
 5520TIP3    H116566   5.988   5.615   0.521  0.0629  0.1810  1.1143
 5520TIP3    H216567   5.996   5.488   0.604 -0.7456 -0.9986 -0.5537
 5521TIP3   OH216568   5.421   0.297   1.291 -0.1729 -0.0519 -0.2124
 5521TIP3    H116569   5.481   0.343   1.351 -0.7867  1.6804 -0.8524
 5521TIP3    H216570   5.470   0.220   1.262  0.3635 -0.6362  2.0316
 5522TIP3   OH216571   6.109   2.441   3.673  0.4446 -0.2227  0.3289
 5522TIP3    H116572   6.165   2.364   3.684 -1.1981 -1.7420 -1.2469
 5522TIP3    H216573   6.048   2.417   3.603 -0.7559  2.1754  0.4374
 5523TIP3   OH216574   1.425   0.395   3.144 -0.2355 -0.1145  0.2308
 5523TIP3    H116575   1.475   0.456   3.199  0.5329 -1.5819  1.2283
 5523TIP3    H216576   1.358   0.449   3.103  2.5391  2.1041 -1.7583
 5524TIP3   OH216577   4.373   4.479   3.605 -0.0395  0.3314  0.1103
 5524TIP3    H116578   4.320   4.470   3.684  0.8523  0.9065  0.7924
 5524TIP3    H216579   4.310   4.502   3.536 -0.9699 -1.2005  0.4096
 5525TIP3   OH216580   1.359   1.873   2.952  0.2660 -0.2051  0.5628
 5525TIP3    H116581   1.402   1.934   2.892 -1.4517 -0.4366 -1.0053
 5525TIP3    H216582   1.272   1.860   2.914 -0.5368 -1.1797  2.5816
 5526TIP3   OH216583   5.951   5.637   4.990  0.4847  0.0183 -0.3248
 5526TIP3    H116584   5.934   5.544   5.009  0.9488  0.0498  0.2549
 5526TIP3    H216585   5.864   5.674   4.975  0.2776 -0.4609 -0.3346
 5527TIP3   OH216586   1.204   1.175   4.281  0.2836 -0.6295  0.5526
 5527TIP3    H116587   1.218   1.261   4.242  1.8968 -1.6981 -1.4363
 5527TIP3    H216588   1.134   1.136   4.229  0.1796 -0.8594  0.8625
 5528TIP3   OH216589   1.786   5.762   3.388 -0.2474  0.6624  0.1180
 5528TIP3    H116590   1.816   5.720   3.468  0.6523 -0.0180 -0.5475
 5528TIP3    H216591   1.865   5.776   3.337 -0.8903  0.0956 -1.0944
 5529TIP3   OH216592   5.450   5.122   1.761 -0.9162  0.4242 -0.3426
 5529TIP3    H116593   5.436   5.061   1.833 -0.4164 -0.5772 -1.0838
 5529TIP3    H216594   5.542   5.147   1.768 -1.3202  1.8663  0.5172
 5530TIP3   OH216595   5.556   4.149   3.765  0.7720  0.1734 -0.0730
 5530TIP3    H116596   5.588   4.060   3.758  1.1372  0.3855 -1.2441
 5530TIP3    H216597   5.592   4.194   3.689  0.8323  1.3969  0.6560
 5531TIP3   OH216598   1.429   5.144   0.860  0.5698  0.5697  0.1214
 5531TIP3    H116599   1.402   5.220   0.808  1.1778 -0.0143 -1.0953
 5531TIP3    H216600   1.487   5.179   0.927  0.7802  1.1905 -0.3811
 5532TIP3   OH216601   3.152   3.876   1.034 -0.2195 -0.1179  0.1919
 5532TIP3    H116602   3.155   3.786   1.068  2.1581 -0.8858 -1.7709
 5532TIP3    H216603   3.107   3.926   1.102 -1.1500 -2.6803  1.5880
 5533TIP3   OH216604   3.302   4.997   3.448  0.4062 -0.1842 -0.3845
 5533TIP3    H116605   3.287   5.072   3.391  2.7113  0.5950 -0.0590
 5533TIP3    H216606   3.243   4.929   3.415 -1.4068  1.5921 -0.9629
 5534TIP3   OH216607   3.166   1.970   1.272  0.3018  0.7476 -0.8479
 5534TIP3    H116608   3.225   1.913   1.223  0.7111  0.8759 -0.5076
 5534TIP3    H216609   3.089   1.916   1.289  1.1020 -0.0687  0.3633
 5535TIP3   OH216610   0.470   2.453   3.366  0.2565 -0.0048 -0.1100
 5535TIP3    H116611   0.534   2.520   3.343  2.1135 -0.6302  2.7265
 5535TIP3    H216612   0.443   2.474   3.455  0.9926 -2.9927  0.9390
 5536TIP3   OH216613   6.324   2.221   3.489  0.0948  0.0777  0.3977
 5536TIP3    H116614   6.348   2.131   3.465 -1.1127  0.2279 -1.5724
 5536TIP3    H216615   6.271   2.211   3.568 -0.4902 -1.0342 -0.1057
 5537TIP3   OH216616   3.826   5.893   2.457 -0.1855 -0.4531  0.1472
 5537TIP3    H116617   3.754   5.931   2.508 -1.0641 -2.0759  0.1674
 5537TIP3    H216618   3.822   5.938   2.373  0.4059  1.2673  0.9800
 5538TIP3   OH216619   2.053   5.022   4.084 -0.9609 -0.2721 -0.1416
 5538TIP3    H116620   1.984   5.059   4.029 -0.5734  0.1970 -0.3258
 5538TIP3    H216621   2.098   4.960   4.028 -1.2309 -0.5763 -0.0223
 5539TIP3   OH216622   1.785   5.695   5.178 -0.1748 -0.8721  0.3631
 5539TIP3    H116623   1.833   5.748   5.242  0.7180 -1.2588  0.0345
 5539TIP3    H216624   1.815   5.727   5.093 -1.1431 -0.5555  0.1357
 5540TIP3   OH216625   4.650   4.398   0.329  0.2344  0.1860 -0.3905
 5540TIP3    H116626   4.608   4.480   0.301 -0.9947 -0.5434 -0.7535
 5540TIP3    H216627   4.588   4.360   0.391  0.4637 -0.8330 -0.7801
 5541TIP3   OH216628   0.830   4.063   4.001 -0.2260 -0.0686 -0.3313
 5541TIP3    H116629   0.790   4.087   3.917 -0.0693  1.2715 -0.0473
 5541TIP3    H216630   0.924   4.071   3.985 -0.0763 -1.9553 -0.6277
 5542TIP3   OH216631   5.421   1.563   4.411 -0.1723 -0.9491 -0.9146
 5542TIP3    H116632   5.349   1.614   4.448 -0.0268 -1.3005 -0.1153
 5542TIP3    H216633   5.379   1.487   4.371 -0.4528  0.1094 -2.7307
 5543TIP3   OH216634   1.294   5.862   4.793  0.3736  0.5210 -0.3208
 5543TIP3    H116635   1.316   5.951   4.820  0.3555 -0.3918  3.1428
 5543TIP3    H216636   1.226   5.834   4.855  0.5330 -1.9715 -1.1623
 5544TIP3   OH216637   2.979   3.321   2.079 -0.0746  0.1548 -0.0696
 5544TIP3    H116638   3.040   3.248   2.069  0.0655  0.3557 -0.7408
 5544TIP3    H216639   3.026   3.397   2.043 -0.4811  0.4339 -0.0265
 5545TIP3   OH216640   3.052   4.904   4.464  0.4561  0.3800 -0.0295
 5545TIP3    H116641   2.986   4.905   4.534 -0.1251 -0.9853 -0.5134
 5545TIP3    H216642   3.133   4.932   4.506 -0.7265  3.9544  0.1975
 5546TIP3   OH216643   2.237   1.282   3.886 -0.3323  0.5030  0.3129
 5546TIP3    H116644   2.155   1.243   3.916 -0.2064  1.2203  1.6646
 5546TIP3    H216645   2.304   1.243   3.942  0.1210  0.7199 -0.0674
 5547TIP3   OH216646   4.342   5.732   3.624  0.3963 -0.3360 -0.3832
 5547TIP3    H116647   4.266   5.678   3.604  0.7742 -1.8721  1.9021
 5547TIP3    H216648   4.308   5.821   3.627 -0.5869 -0.5713 -2.5765
 5548TIP3   OH216649   5.104   0.089   0.499 -0.6711 -0.2878 -0.2966
 5548TIP3    H116650   5.119   0.182   0.483 -0.4439 -0.3627 -0.5299
 5548TIP3    H216651   5.150   0.070   0.581 -0.7877 -0.1769 -0.2054
 5549TIP3   OH216652   2.945   1.794   1.209 -0.1693 -0.0511  0.1900
 5549TIP3    H116653   2.851   1.807   1.198 -0.4898 -2.0694  0.1181
 5549TIP3    H216654   2.958   1.700   1.197  2.0984  0.3711 -1.4857
 5550TIP3   OH216655   0.618   2.853   1.930  0.0883  0.2858 -0.2999
 5550TIP3    H116656   0.584   2.793   1.996 -1.6076  0.8137 -0.6572
 5550TIP3    H216657   0.589   2.940   1.959 -1.1167  0.4853 -1.9500
 5551TIP3   OH216658   2.762   4.207   2.942  0.1991 -0.0753 -0.3462
 5551TIP3    H116659   2.769   4.146   3.016  0.3774  2.5971  2.0532
 5551TIP3    H216660   2.819   4.170   2.875  1.2572 -1.9163  1.4351
 5552TIP3   OH216661   6.260   3.469  -0.033 -0.5092 -0.0623 -0.1940
 5552TIP3    H116662   6.311   3.422   0.033  1.9729  0.6609 -1.4817
 5552TIP3    H216663   6.185   3.504   0.016  0.6250 -0.4849  1.9928
 5553TIP3   OH216664   5.726   0.856   2.943 -0.1606  0.1945  0.3635
 5553TIP3    H116665   5.762   0.937   2.906  0.2014  0.1573  0.6337
 5553TIP3    H216666   5.752   0.859   3.035 -1.1669  0.3529  0.6542
 5554TIP3   OH216667   3.767   5.790   4.503 -0.0337  0.4351 -0.0240
 5554TIP3    H116668   3.766   5.749   4.416 -1.2231  0.4394 -0.0208
 5554TIP3    H216669   3.679   5.778   4.536  0.0643  1.5419  0.6740
 5555TIP3   OH216670   3.635   1.799   3.081 -1.0455  0.5805 -0.1877
 5555TIP3    H116671   3.567   1.849   3.125 -0.7287  1.6772 -0.9115
 5555TIP3    H216672   3.669   1.858   3.014  0.0067 -0.2690 -0.4287
 5556TIP3   OH216673   3.412   0.803   1.706  0.3391  0.2857 -0.3552
 5556TIP3    H116674   3.387   0.711   1.714  0.1758  0.1357 -2.2591
 5556TIP3    H216675   3.505   0.801   1.683  0.3285  0.6063 -0.4326
 5557TIP3   OH216676   5.412   0.333   4.925 -0.1138 -0.1433 -0.5331
 5557TIP3    H116677   5.391   0.379   5.006  1.4818  0.0424 -0.1754
 5557TIP3    H216678   5.483   0.384   4.886  0.2737 -1.1496 -1.1907
 5558TIP3   OH216679   6.199   3.236   4.423  0.0316 -0.1563  0.2550
 5558TIP3    H116680   6.123   3.221   4.480  0.0268 -0.9778  0.0472
 5558TIP3    H216681   6.270   3.257   4.483  0.3930 -2.4867  0.7115
 5559TIP3   OH216682   1.578   3.997   3.320  0.4656 -0.0561  0.0351
 5559TIP3    H116683   1.637   4.060   3.363 -1.6993  1.1211  1.4617
 5559TIP3    H216684   1.576   3.922   3.380  1.0227 -0.3975 -0.3642
 5560TIP3   OH216685   0.492   3.322   2.629 -0.0142  1.1602  0.1003
 5560TIP3    H116686   0.410   3.280   2.605 -0.2807  2.1373 -0.7341
 5560TIP3    H216687   0.484   3.412   2.598 -0.6959  2.8291  4.3992
 5561TIP3   OH216688   0.484   3.517   3.134  0.1836  0.4432  0.0105
 5561TIP3    H116689   0.480   3.475   3.220 -1.5440  1.1428  0.3081
 5561TIP3    H216690   0.556   3.471   3.089  0.0942 -1.0097  1.2460
 5562TIP3   OH216691   5.987   0.792   0.560 -0.2063 -0.6256 -0.1951
 5562TIP3    H116692   5.906   0.798   0.509 -0.3883  0.4439  0.2099
 5562TIP3    H216693   6.027   0.710   0.530  0.2855  0.5109 -2.9166
 5563TIP3   OH216694   3.077   5.715   0.944 -0.1092  0.0483  0.7411
 5563TIP3    H116695   3.155   5.684   0.991  0.1916  1.2346  1.0676
 5563TIP3    H216696   3.096   5.698   0.852  1.6942  2.5908  0.5408
 5564TIP3   OH216697   1.202   0.744   4.336  0.4410  0.3114  0.1750
 5564TIP3    H116698   1.248   0.662   4.316  0.0037  0.2382 -0.5599
 5564TIP3    H216699   1.168   0.731   4.425 -0.1026 -0.5221 -0.1434
 5565TIP3   OH216700   4.671   5.859   1.788 -0.3935 -0.6440  0.1494
 5565TIP3    H116701   4.593   5.847   1.843 -1.4164  0.6677 -0.9348
 5565TIP3    H216702   4.666   5.951   1.761  0.5223 -1.0435 -1.4605
 5566TIP3   OH216703   1.467   0.751   1.579 -0.6556  0.0238 -0.0689
 5566TIP3    H116704   1.539   0.710   1.532 -0.2240  2.3642 -1.6113
 5566TIP3    H216705   1.470   0.712   1.667  1.7970 -0.7264 -0.4218
 5567TIP3   OH216706   5.008   4.732   1.976  0.1035  0.5522  0.1016
 5567TIP3    H116707   5.098   4.702   1.967 -0.3892 -0.3865 -3.0894
 5567TIP3    H216708   4.958   4.652   1.996 -0.0752  1.0951  2.0468
 5568TIP3   OH216709   0.075   0.356   4.978  1.1473  0.5163  0.2409
 5568TIP3    H116710   0.094   0.448   4.963 -2.1191  1.3632  0.5509
 5568TIP3    H216711   0.087   0.343   5.072 -1.7760  1.6839  0.8883
 5569TIP3   OH216712   4.269   5.427   3.718 -0.1529  0.2432  0.1697
 5569TIP3    H116713   4.291   5.353   3.660 -2.4217 -1.8165  1.7372
 5569TIP3    H216714   4.283   5.393   3.806 -0.2570  2.0799  0.9290
 5570TIP3   OH216715   1.865   2.839   4.637  0.2888  0.3669  0.2341
 5570TIP3    H116716   1.846   2.897   4.711 -1.4529 -0.1139  0.2113
 5570TIP3    H216717   1.863   2.751   4.674 -0.4144  0.1329 -0.3336
 5571TIP3   OH216718   5.855   1.959   1.128 -0.0692  0.6006  0.1262
 5571TIP3    H116719   5.894   2.011   1.058  1.0097  0.4287  0.5879
 5571TIP3    H216720   5.845   1.872   1.091 -1.1797  0.9237 -0.3948
 5572TIP3   OH216721   2.182   1.064   2.876  0.5767  0.3736  0.0801
 5572TIP3    H116722   2.105   1.110   2.910  1.3727  2.5230 -0.7977
 5572TIP3    H216723   2.240   1.056   2.952  0.3718  0.7739  0.2853
 5573TIP3   OH216724   6.002   0.320   2.640 -0.0158  0.2800  0.1453
 5573TIP3    H116725   6.088   0.298   2.676  0.0271  0.1344 -0.0440
 5573TIP3    H216726   5.940   0.278   2.698  0.0716 -0.5128 -0.3246
 5574TIP3   OH216727   5.415   4.154   0.936 -0.0393  1.0479  0.0353
 5574TIP3    H116728   5.372   4.214   0.875  1.0279  1.5242 -0.2672
 5574TIP3    H216729   5.508   4.171   0.925  0.2544 -0.1987  0.4371
 5575TIP3   OH216730   4.603   3.222   3.309 -0.0383 -0.0261  0.2093
 5575TIP3    H116731   4.593   3.304   3.358  1.7302  1.3214 -1.5139
 5575TIP3    H216732   4.519   3.209   3.266  0.2112  1.9968 -1.0118
 5576TIP3   OH216733   2.595   2.807   3.256 -0.3982  0.0545  0.1206
 5576TIP3    H116734   2.526   2.740   3.258  1.1378 -1.6155  2.4339
 5576TIP3    H216735   2.671   2.762   3.221  0.2619  1.0498  0.2345
 5577TIP3   OH216736   2.872   3.050   4.591 -0.1106 -0.5117  0.1386
 5577TIP3    H116737   2.923   3.108   4.647  0.9908 -1.2866 -0.0481
 5577TIP3    H216738   2.865   3.097   4.507 -1.5668  0.5436  0.7988
 5578TIP3   OH216739   5.816   1.796   1.823 -0.3519 -0.2798 -0.6316
 5578TIP3    H116740   5.902   1.763   1.850 -0.5066 -0.4984 -0.4088
 5578TIP3    H216741   5.836   1.874   1.771 -0.0058 -0.4835 -0.8087
 5579TIP3   OH216742   5.479   2.579   3.947 -0.2643  0.3125 -0.7441
 5579TIP3    H116743   5.450   2.670   3.956 -2.0143 -0.0896 -1.8186
 5579TIP3    H216744   5.398   2.527   3.956  0.3002 -0.9713 -2.4481
 5580TIP3   OH216745   4.681   3.413   0.719  0.4017  0.0535 -0.5369
 5580TIP3    H116746   4.655   3.368   0.639  2.5501 -0.7591 -0.8239
 5580TIP3    H216747   4.748   3.475   0.691 -0.9699  1.9781  0.1980
 5581TIP3   OH216748   2.981   5.439   0.779  0.4507  0.1847 -0.1420
 5581TIP3    H116749   2.966   5.422   0.872  0.7264  0.9120  0.0442
 5581TIP3    H216750   3.076   5.442   0.770  0.5529 -2.6807 -0.9918
 5582TIP3   OH216751   2.624   2.001   4.380  0.1226 -0.2757  0.3242
 5582TIP3    H116752   2.608   1.955   4.298 -1.9246  0.9397 -0.0325
 5582TIP3    H216753   2.683   1.944   4.429  0.6854 -1.4388 -1.6174
 5583TIP3   OH216754   4.186   0.245   0.334  0.0585 -0.4405 -0.3613
 5583TIP3    H116755   4.114   0.273   0.391  0.2069 -1.4250  0.3333
 5583TIP3    H216756   4.259   0.301   0.359 -0.8922  1.8918 -2.3627
 5584TIP3   OH216757   5.627   3.884   1.926  0.1578  0.0320  0.5576
 5584TIP3    H116758   5.667   3.855   2.008  2.8166  1.8584  0.0433
 5584TIP3    H216759   5.533   3.876   1.940  0.5605 -0.4817  3.4670
 5585TIP3   OH216760   2.714   0.401   0.098 -0.6472  0.3975 -0.5153
 5585TIP3    H116761   2.686   0.403   0.190 -2.0426  0.7898 -0.9269
 5585TIP3    H216762   2.645   0.353   0.053  0.4211 -0.5019 -1.2633
 5586TIP3   OH216763   4.973   2.903   1.811 -0.0400 -0.4382 -0.6621
 5586TIP3    H116764   4.941   2.984   1.770  0.7562  0.2473  0.0540
 5586TIP3    H216765   5.020   2.932   1.889 -0.2286 -1.6346 -0.0841
 5587TIP3   OH216766   1.019   3.386   4.419 -0.2829  0.1721 -0.4612
 5587TIP3    H116767   1.016   3.470   4.465  1.2714 -0.0387  0.0870
 5587TIP3    H216768   1.109   3.356   4.430 -0.1153 -0.3736 -2.8194
 5588TIP3   OH216769   3.792   4.304   0.333  0.1273  0.0632 -0.0080
 5588TIP3    H116770   3.887   4.297   0.328  0.0783 -1.2631  0.4512
 5588TIP3    H216771   3.768   4.253   0.411 -1.0517 -0.7572 -0.8604
 5589TIP3   OH216772   3.376   0.119   1.934 -0.1640 -0.4288 -0.9853
 5589TIP3    H116773   3.463   0.157   1.923  0.4555 -1.1282  1.0069
 5589TIP3    H216774   3.315   0.189   1.910  0.9577  0.9159 -0.0271
 5590TIP3   OH216775   3.134   2.272   3.461 -0.2648  0.2116  0.0413
 5590TIP3    H116776   3.109   2.232   3.378  0.2664 -0.1328  0.0361
 5590TIP3    H216777   3.053   2.308   3.496 -0.3209  1.2502 -1.0974
 5591TIP3   OH216778   2.794   4.237   4.228  0.6964 -0.0717 -0.0437
 5591TIP3    H116779   2.790   4.318   4.178  1.7240 -0.7089 -1.2333
 5591TIP3    H216780   2.781   4.263   4.319  0.6438  1.3677 -0.4489
 5592TIP3   OH216781   2.261   0.957   2.178  0.0635  0.3230  0.2310
 5592TIP3    H116782   2.255   1.026   2.113  0.1009 -2.1741 -2.6591
 5592TIP3    H216783   2.355   0.940   2.187 -0.0137 -1.1395 -1.2549
 5593TIP3   OH216784   5.629   4.926   2.596  0.3786  0.0701  0.3921
 5593TIP3    H116785   5.553   4.925   2.538  0.3867 -1.7868  0.3425
 5593TIP3    H216786   5.650   4.834   2.608  0.3235  0.3725  3.4536
 5594TIP3   OH216787   2.083   1.539   3.882 -0.3274  0.0060 -0.0597
 5594TIP3    H116788   2.150   1.473   3.865  0.2697  0.2593  1.1567
 5594TIP3    H216789   2.054   1.567   3.796  1.4989  0.2513 -0.6254
 5595TIP3   OH216790   4.509   1.890   4.992 -0.0775 -0.4337 -0.1839
 5595TIP3    H116791   4.508   1.910   5.086 -0.0941 -1.7116  0.1149
 5595TIP3    H216792   4.546   1.802   4.987  0.3833 -0.1912 -1.4307
 5596TIP3   OH216793   2.912   0.987   2.987 -0.8402 -0.4048 -0.2335
 5596TIP3    H116794   2.962   1.065   3.015 -2.8284  1.3199 -1.2319
 5596TIP3    H216795   2.929   0.981   2.893 -1.9463 -0.1896 -0.4575
 5597TIP3   OH216796   1.021   5.707   3.998  0.9287 -0.5729  0.2665
 5597TIP3    H116797   0.998   5.792   3.963  0.0664 -0.2361  1.5952
 5597TIP3    H216798   1.093   5.677   3.943 -1.5782 -0.9808 -3.0694
 5598TIP3   OH216799   2.229   1.285   0.273  0.6788 -0.6483 -0.5454
 5598TIP3    H116800   2.309   1.309   0.318  1.2085 -1.6326 -0.9456
 5598TIP3    H216801   2.242   1.317   0.183  0.4191 -0.3793 -0.4889
 5599TIP3   OH216802   0.515   5.721   0.752  0.3165 -0.0604  0.3788
 5599TIP3    H116803   0.520   5.627   0.770  1.3553 -0.4681 -1.6859
 5599TIP3    H216804   0.488   5.726   0.660 -0.7814  1.6982  0.7597
 5600TIP3   OH216805   4.422   4.213   4.489  0.0778  0.0715  0.1027
 5600TIP3    H116806   4.478   4.284   4.521  1.4815  0.2872 -2.5846
 5600TIP3    H216807   4.359   4.257   4.432  1.2991 -0.8252 -2.0295
 5601TIP3   OH216808   4.442   5.918   1.939 -0.5158 -0.1347  0.2216
 5601TIP3    H116809   4.415   5.946   2.027 -0.8837  0.2285 -0.0068
 5601TIP3    H216810   4.368   5.939   1.883 -0.5001 -0.8798 -0.0873
 5602TIP3   OH216811   3.011   3.460   2.443  0.2062  0.0501  0.2957
 5602TIP3    H116812   3.079   3.397   2.423  0.0151  0.6262 -2.5440
 5602TIP3    H216813   3.049   3.515   2.512  1.1614 -1.7979  1.3298
 5603TIP3   OH216814   2.884   4.167   3.409 -0.5995 -0.3738 -0.1393
 5603TIP3    H116815   2.875   4.254   3.372 -0.1731  0.6461  1.9911
 5603TIP3    H216816   2.967   4.169   3.456 -1.2242 -1.4619  1.0711
 5604TIP3   OH216817   3.257   5.477   3.606 -0.4174 -0.2268 -0.4344
 5604TIP3    H116818   3.183   5.478   3.545 -0.9136 -1.4197  0.1081
 5604TIP3    H216819   3.276   5.384   3.618 -0.1585 -0.0056  1.0029
 5605TIP3   OH216820   2.407   4.320   2.000  0.0768  0.2830  0.1881
 5605TIP3    H116821   2.442   4.405   2.027  1.5731 -0.1127 -0.4036
 5605TIP3    H216822   2.475   4.283   1.943 -1.2497 -0.6075 -0.8864
 5606TIP3   OH216823   5.983   4.128   4.757 -0.1311  0.3217 -0.3312
 5606TIP3    H116824   6.013   4.200   4.814  0.2036 -0.2864  0.2872
 5606TIP3    H216825   6.007   4.049   4.805  0.9235 -0.2368 -1.6963
 5607TIP3   OH216826   2.561   4.851   0.043 -0.0215  0.1798 -0.5896
 5607TIP3    H116827   2.522   4.911   0.106 -1.8958 -1.6467  0.0778
 5607TIP3    H216828   2.558   4.899  -0.040 -1.0102  1.1856  0.0034
 5608TIP3   OH216829   1.726   5.680   2.731 -0.2537 -0.3344 -0.5891
 5608TIP3    H116830   1.635   5.701   2.756 -0.0420  1.4804 -1.1973
 5608TIP3    H216831   1.762   5.638   2.809 -1.4852 -0.6907 -0.1773
 5609TIP3   OH216832   1.037   1.062   4.091  0.1329  0.1477 -0.0749
 5609TIP3    H116833   1.059   1.095   4.003  1.6029 -0.1507  0.1499
 5609TIP3    H216834   1.006   0.973   4.076  0.3266  0.1168 -0.2999
 5610TIP3   OH216835   1.827   0.745   3.815  0.3658 -0.0991  0.4864
 5610TIP3    H116836   1.732   0.747   3.830 -0.0038  0.3807 -1.5421
 5610TIP3    H216837   1.865   0.784   3.893 -1.3833  3.5264 -0.2673
 5611TIP3   OH216838   4.951   5.979   0.866 -0.4608  0.6019 -1.2473
 5611TIP3    H116839   5.035   6.021   0.884 -0.4307 -0.2374  1.0276
 5611TIP3    H216840   4.970   5.915   0.797  0.7738  0.4684 -0.8074
 5612TIP3   OH216841   5.159   0.198   1.615  0.0477  0.0967  0.3748
 5612TIP3    H116842   5.245   0.159   1.602 -0.0902 -0.1477  0.1927
 5612TIP3    H216843   5.140   0.184   1.708  0.2303  0.2058  0.4288
 5613TIP3   OH216844   4.825   5.533   2.981 -0.3763  0.3316  0.1851
 5613TIP3    H116845   4.840   5.529   2.887 -2.2331 -1.6968 -0.0939
 5613TIP3    H216846   4.906   5.501   3.021  1.6244  3.9732 -0.4463
 5614TIP3   OH216847   4.649   0.279   0.915  0.3010  0.3041  0.4726
 5614TIP3    H116848   4.673   0.367   0.885 -1.7540  0.4932 -0.7460
 5614TIP3    H216849   4.579   0.251   0.856 -0.1153 -1.5610  1.7633
 5615TIP3   OH216850   3.195   4.883   1.486 -0.0188 -0.0567  0.1236
 5615TIP3    H116851   3.115   4.935   1.481  1.8057  2.9898 -0.0035
 5615TIP3    H216852   3.197   4.850   1.576 -1.1786  0.2209  0.2604
 5616TIP3   OH216853   2.932   5.510   3.927 -0.3840  0.1345 -0.3981
 5616TIP3    H116854   3.024   5.500   3.950 -0.0941  2.3682 -0.3307
 5616TIP3    H216855   2.931   5.571   3.853 -1.7100 -1.6791 -1.9640
 5617TIP3   OH216856   4.685   1.572   1.042 -0.0656 -0.3834 -0.1817
 5617TIP3    H116857   4.718   1.587   1.130  0.2279  0.5235 -0.4333
 5617TIP3    H216858   4.711   1.650   0.993  0.9033 -1.4224 -1.3998
 5618TIP3   OH216859   5.677   1.347   2.640 -0.1588  1.1007 -0.1443
 5618TIP3    H116860   5.648   1.428   2.682  2.7796  1.8372  0.6769
 5618TIP3    H216861   5.705   1.373   2.553  0.9137  1.0351  0.1658
 5619TIP3   OH216862   1.790   3.117   1.072  0.5774  0.2689 -0.4453
 5619TIP3    H116863   1.844   3.149   1.000  0.4527  0.2651 -0.5399
 5619TIP3    H216864   1.702   3.149   1.053 -0.1899 -2.4094 -2.0284
 5620TIP3   OH216865   4.609   3.461   2.815  0.2181 -0.4777  0.9269
 5620TIP3    H116866   4.665   3.538   2.827  0.2200 -0.4978  1.0509
 5620TIP3    H216867   4.665   3.387   2.837  0.2123 -0.5131  0.8219
 5621TIP3   OH216868   4.631   4.941   3.242  0.7994  0.4988  0.3747
 5621TIP3    H116869   4.632   4.846   3.229 -0.7263  0.5001  0.0519
 5621TIP3    H216870   4.721   4.963   3.263  1.3664 -0.9110 -0.4112
 5622TIP3   OH216871   5.195   5.818   4.209 -0.0208 -0.2443 -0.1662
 5622TIP3    H116872   5.253   5.888   4.179 -1.3537  0.7058 -0.6318
 5622TIP3    H216873   5.254   5.747   4.234  1.4537  1.4338  1.4067
 5623TIP3   OH216874   6.305   0.608   1.989 -0.2014 -0.0526 -0.2204
 5623TIP3    H116875   6.214   0.613   2.016 -0.0421 -0.6746  0.4389
 5623TIP3    H216876   6.345   0.688   2.024 -0.3331 -0.1191  0.0809
 5624TIP3   OH216877   0.519   1.613   1.362 -0.2310  0.4455 -0.2699
 5624TIP3    H116878   0.446   1.675   1.368 -1.0500 -0.5594  0.3365
 5624TIP3    H216879   0.479   1.527   1.369  1.0401 -0.1230  0.3169
 5625TIP3   OH216880   3.922   0.901   4.522 -0.4708  0.2218  0.2565
 5625TIP3    H116881   3.830   0.927   4.521 -0.4150  0.4525  1.0341
 5625TIP3    H216882   3.958   0.941   4.442 -1.4513 -1.4226 -1.0742
 5626TIP3   OH216883   1.040   0.851   1.866 -0.3984 -0.6517 -0.2891
 5626TIP3    H116884   1.063   0.910   1.794 -0.6969  1.2072  1.0496
 5626TIP3    H216885   0.954   0.817   1.843 -0.3869 -0.2825 -0.9103
 5627TIP3   OH216886   0.951   4.239   1.437 -0.1534 -0.7225  0.6897
 5627TIP3    H116887   1.000   4.319   1.452 -1.9808  0.7491 -0.7208
 5627TIP3    H216888   0.948   4.230   1.342 -2.1520 -0.9908  0.7320
 5628TIP3   OH216889   0.631   5.171   3.304 -0.7664 -0.1934 -0.3836
 5628TIP3    H116890   0.711   5.119   3.307  0.1697  1.1292 -1.2473
 5628TIP3    H216891   0.563   5.110   3.276 -0.0075 -1.2597  0.0353
 5629TIP3   OH216892   4.591   1.723   4.558  0.2900 -0.0640 -0.4460
 5629TIP3    H116893   4.656   1.791   4.575  0.0158  0.3279 -0.9352
 5629TIP3    H216894   4.507   1.768   4.561 -0.0649 -0.7903  1.3417
 5630TIP3   OH216895   2.410   4.307   3.594  0.5865  0.5968 -0.0036
 5630TIP3    H116896   2.406   4.231   3.536  1.5724 -0.5330  1.3275
 5630TIP3    H216897   2.476   4.283   3.660 -0.3839  1.8613  1.4906
 5631TIP3   OH216898   6.143   2.186   1.662  0.0655 -0.5774 -0.7225
 5631TIP3    H116899   6.063   2.134   1.671 -0.4863  0.2060 -0.9808
 5631TIP3    H216900   6.160   2.220   1.750  0.9815 -1.9466 -0.3285
 5632TIP3   OH216901   3.704   5.824   1.380  0.1230  0.1939  0.2187
 5632TIP3    H116902   3.652   5.851   1.456 -1.6946  0.6405 -1.1210
 5632TIP3    H216903   3.761   5.755   1.414 -1.2978 -0.2743  1.7938
 5633TIP3   OH216904   5.315   1.065   3.185 -0.5435 -0.2805  0.6960
 5633TIP3    H116905   5.411   1.058   3.184 -0.4841  0.1839  1.5610
 5633TIP3    H216906   5.285   1.000   3.122  0.3601 -0.1542  0.1243
 5634TIP3   OH216907   5.143   4.925   2.879  0.0802 -0.0866 -0.4045
 5634TIP3    H116908   5.084   4.970   2.818 -1.0338 -1.5289 -0.4455
 5634TIP3    H216909   5.189   4.861   2.825 -0.0785 -0.5912  0.0513
 5635TIP3   OH216910   3.531   4.942   1.547 -0.0311 -0.0917  0.1159
 5635TIP3    H116911   3.604   4.927   1.487  1.0896  1.0381  1.1273
 5635TIP3    H216912   3.494   4.854   1.561  0.8150 -0.6234 -0.7974
 5636TIP3   OH216913   4.879   5.623   1.384  0.8751 -0.1831  0.0577
 5636TIP3    H116914   4.827   5.696   1.418  1.2789  0.8611 -1.4214
 5636TIP3    H216915   4.820   5.548   1.387 -0.3202  0.7001 -0.3872
 5637TIP3   OH216916   4.739   0.132   4.456 -0.5522 -0.0153  0.6578
 5637TIP3    H116917   4.775   0.085   4.381  0.1844 -0.4954  1.2987
 5637TIP3    H216918   4.669   0.186   4.419  1.1445  1.3666 -0.7537
 5638TIP3   OH216919   3.576   2.481   4.238  0.3307  0.6028 -0.1000
 5638TIP3    H116920   3.487   2.469   4.205 -0.2564 -0.5122  1.7468
 5638TIP3    H216921   3.626   2.509   4.161 -1.5509  1.0692 -1.2346
 5639TIP3   OH216922   5.878   5.886   1.534  0.0161 -0.2578 -0.3068
 5639TIP3    H116923   5.813   5.955   1.520  0.6935  0.2588 -0.9355
 5639TIP3    H216924   5.910   5.865   1.446  3.1748  1.9050  0.1601
 5640TIP3   OH216925   3.294   1.340   2.963  0.2975 -0.1100  0.3215
 5640TIP3    H116926   3.357   1.306   2.898  1.5629  0.4824  1.2063
 5640TIP3    H216927   3.295   1.275   3.033  0.8118  0.4637  0.8607
 5641TIP3   OH216928   5.138   4.389   3.561  0.4863 -0.1038  0.0020
 5641TIP3    H116929   5.124   4.335   3.639  0.7817 -1.0239 -0.5561
 5641TIP3    H216930   5.057   4.438   3.551  0.1400 -0.5715  0.4422
 5642TIP3   OH216931   1.581   1.272   2.347 -0.1589  0.1501  0.0417
 5642TIP3    H116932   1.537   1.294   2.429 -0.9485  0.7647 -0.5335
 5642TIP3    H216933   1.590   1.355   2.301 -1.1930 -0.3791 -1.1954
 5643TIP3   OH216934   0.392   0.155   1.768  0.1316 -0.0061  0.0769
 5643TIP3    H116935   0.365   0.227   1.711  2.1018 -0.1569 -1.1043
 5643TIP3    H216936   0.343   0.170   1.849 -0.2986  2.0567 -0.5108
 5644TIP3   OH216937   2.432   4.066   3.451  0.1560 -0.0993 -0.2389
 5644TIP3    H116938   2.353   4.022   3.420 -1.0145  1.2751  0.6456
 5644TIP3    H216939   2.489   4.071   3.374 -0.2529 -1.8266 -0.6951
 5645TIP3   OH216940   1.784   5.672   1.936 -0.2775  0.5766  0.6057
 5645TIP3    H116941   1.694   5.645   1.952 -0.0299 -0.5715  0.1611
 5645TIP3    H216942   1.778   5.765   1.915 -0.9633  1.4326  4.0600
 5646TIP3   OH216943   1.205   0.530   5.059 -0.0990 -0.2791  0.3347
 5646TIP3    H116944   1.283   0.474   5.056  0.2371  0.1596  0.6752
 5646TIP3    H216945   1.132   0.469   5.062  0.3123 -0.7451  2.1177
 5647TIP3   OH216946   2.832   4.268   2.063  0.0001  0.2836  0.1772
 5647TIP3    H116947   2.898   4.250   1.996 -1.4781  0.9857 -1.5436
 5647TIP3    H216948   2.750   4.276   2.015 -0.8092  3.0334  1.7748
 5648TIP3   OH216949   4.344   2.211   0.090  0.2915 -0.5053  0.1105
 5648TIP3    H116950   4.391   2.129   0.073  1.5650 -0.1308  1.5075
 5648TIP3    H216951   4.339   2.215   0.186  0.5413  1.1793  0.0792
 5649TIP3   OH216952   6.204   3.923   4.692 -0.6133 -0.2439  0.4115
 5649TIP3    H116953   6.191   3.861   4.621 -1.8619  0.9684 -0.4704
 5649TIP3    H216954   6.227   4.005   4.648 -0.0558  0.2046  1.4889
 5650TIP3   OH216955   0.612   4.423   2.198 -0.1763  0.7385  0.5877
 5650TIP3    H116956   0.541   4.408   2.136 -0.6126  0.7569  1.0793
 5650TIP3    H216957   0.609   4.517   2.217 -0.1569  0.7035  0.7694
 5651TIP3   OH216958   5.959   1.996   4.912 -0.3173  0.4056  0.0924
 5651TIP3    H116959   5.916   1.931   4.856 -0.2148  0.0984  0.3690
 5651TIP3    H216960   5.986   2.065   4.851  1.9060 -1.0043 -0.6502
 5652TIP3   OH216961   0.374   5.793   5.086  0.7933  0.1678  0.0619
 5652TIP3    H116962   0.360   5.859   5.154  0.2275  1.0144 -0.8656
 5652TIP3    H216963   0.469   5.782   5.082  1.0122  2.1049 -0.8600
 5653TIP3   OH216964   0.603   4.677   1.599  0.3326 -0.4387 -0.6480
 5653TIP3    H116965   0.570   4.686   1.688  2.3463 -2.3324  0.3643
 5653TIP3    H216966   0.615   4.767   1.569  0.9051  0.2589  1.5006
 5654TIP3   OH216967   0.045   0.067   3.302  0.6688 -0.8791 -0.0723
 5654TIP3    H116968   0.040  -0.024   3.332  1.4448 -0.3250  1.9615
 5654TIP3    H216969   0.064   0.116   3.382 -1.9570  1.3636 -0.6796
 5655TIP3   OH216970   2.225   3.821   0.319 -0.7155  0.2440  0.6162
 5655TIP3    H116971   2.149   3.854   0.272 -1.8203  0.9365  2.7488
 5655TIP3    H216972   2.204   3.729   0.338 -0.3145 -0.0069 -0.1427
 5656TIP3   OH216973   5.208   3.817   4.168  0.5374 -0.4342  0.0790
 5656TIP3    H116974   5.205   3.721   4.169  1.6122 -0.4903  0.8680
 5656TIP3    H216975   5.164   3.843   4.249  3.2818 -0.4626  1.7068
 5657TIP3   OH216976   2.581   1.245   3.278  0.6210  0.4868  0.5174
 5657TIP3    H116977   2.626   1.237   3.362  1.5466  1.2752  0.1191
 5657TIP3    H216978   2.489   1.231   3.299  0.9527 -0.4495  1.4752
 5658TIP3   OH216979   4.512   3.735   5.003 -0.0566  0.4327  0.0285
 5658TIP3    H116980   4.554   3.803   4.949  0.1165  2.2930  2.2952
 5658TIP3    H216981   4.586   3.684   5.038 -0.1840 -0.9777 -1.6326
 5659TIP3   OH216982   4.389   0.111   0.731  0.0573 -0.2205  0.1394
 5659TIP3    H116983   4.296   0.107   0.713 -0.0261 -2.3885  0.7654
 5659TIP3    H216984   4.427   0.039   0.681  1.0878 -0.6159  1.4343
 5660TIP3   OH216985   5.913   0.698   2.816 -0.4095 -0.6216  0.0680
 5660TIP3    H116986   5.964   0.679   2.894  0.4872  1.5121  0.0691
 5660TIP3    H216987   5.844   0.757   2.845  0.3411  0.7647 -0.7776
 5661TIP3   OH216988   4.640   2.645   2.082  0.2413 -0.4890 -0.2692
 5661TIP3    H116989   4.608   2.700   2.153  0.4466 -0.7089 -0.0079
 5661TIP3    H216990   4.687   2.705   2.024 -0.3082 -0.2319 -0.4563
 5662TIP3   OH216991   5.081   3.505   3.076 -0.7001  0.7133 -0.0689
 5662TIP3    H116992   5.010   3.528   3.136  0.5360  1.3226  1.2089
 5662TIP3    H216993   5.086   3.410   3.080 -2.4263  0.5059 -1.3845
 5663TIP3   OH216994   4.372   2.099   1.039  0.2765 -0.2390 -0.4592
 5663TIP3    H116995   4.373   2.193   1.058 -1.5727 -0.2742  0.0308
 5663TIP3    H216996   4.282   2.072   1.057  0.7176 -2.0765 -0.7907
 5664TIP3   OH216997   5.674   5.424   1.848 -0.1084  0.4314  0.4266
 5664TIP3    H116998   5.683   5.330   1.863  0.7599  0.3971 -0.2267
 5664TIP3    H216999   5.584   5.444   1.873 -0.6430 -0.7777 -0.4664
 5665TIP3   OH217000   2.330   2.793   3.475 -0.1502  0.2393 -0.4049
 5665TIP3    H117001   2.239   2.807   3.449  0.2620  0.7942 -1.5768
 5665TIP3    H217002   2.357   2.713   3.430 -0.0581  0.0508 -0.0267
 5666TIP3   OH217003   5.249   5.479   2.490 -0.5487  0.1166  1.0860
 5666TIP3    H117004   5.178   5.457   2.430 -1.1547 -1.5641  2.3312
 5666TIP3    H217005   5.297   5.397   2.502  3.0405  1.6248 -1.3615
 5667TIP3   OH217006   3.822   5.803   4.947 -0.4805 -0.7113 -0.6769
 5667TIP3    H117007   3.790   5.716   4.921  0.2644 -0.5085 -2.4151
 5667TIP3    H217008   3.781   5.863   4.884 -1.8311  0.3768  1.1444
 5668TIP3   OH217009   5.687   0.270   4.871  0.1257 -0.0371  0.5938
 5668TIP3    H117010   5.693   0.185   4.826  1.0520 -0.0028  0.6327
 5668TIP3    H217011   5.754   0.324   4.830 -0.7919  0.8564  0.2309
 5669TIP3   OH217012   4.919   5.620   3.892  0.1745 -0.1274 -0.3502
 5669TIP3    H117013   5.002   5.593   3.854  0.7321 -0.5302  1.1038
 5669TIP3    H217014   4.855   5.559   3.855  0.6870 -0.4517 -0.7078
 5670TIP3   OH217015   1.670   0.851   4.736  0.1656 -0.2117 -0.1868
 5670TIP3    H117016   1.623   0.934   4.744  1.0270  0.4169 -1.3212
 5670TIP3    H217017   1.693   0.846   4.643  1.2570 -1.0881  0.1170
 5671TIP3   OH217018   3.304   4.706   0.279  0.0680  0.3132 -0.1540
 5671TIP3    H117019   3.337   4.694   0.369  0.8649  0.3415 -0.4290
 5671TIP3    H217020   3.376   4.676   0.224 -0.2894  0.6113 -0.7891
 5672TIP3   OH217021   1.434   0.705   0.621 -0.0583  0.0527 -0.2933
 5672TIP3    H117022   1.414   0.750   0.704 -0.0858 -0.3943 -0.0539
 5672TIP3    H217023   1.524   0.676   0.631  0.4386  1.2837 -1.0169
 5673TIP3   OH217024   2.657   2.949   3.641  0.2870 -0.6409  0.2933
 5673TIP3    H117025   2.586   2.964   3.703 -1.3556 -3.2040 -0.7903
 5673TIP3    H217026   2.616   2.958   3.555  1.7501 -0.2741 -0.3966
 5674TIP3   OH217027   3.343   3.896   1.928  0.8363 -0.0881 -0.0478
 5674TIP3    H117028   3.358   3.821   1.870  1.2949 -0.1022  0.0867
 5674TIP3    H217029   3.253   3.885   1.958  0.9137 -0.6061  0.0058
 5675TIP3   OH217030   4.635   4.672   3.268  0.4197 -0.0793 -0.0384
 5675TIP3    H117031   4.584   4.677   3.349  0.4476  0.5647 -0.0554
 5675TIP3    H217032   4.589   4.609   3.214  0.1552 -0.1868  0.3117
 5676TIP3   OH217033   4.641   4.595   4.887 -0.2241  0.6832 -0.1642
 5676TIP3    H117034   4.695   4.564   4.814  0.2797  0.6323  0.2281
 5676TIP3    H217035   4.701   4.646   4.942 -0.0741 -1.0677  1.3712
 5677TIP3   OH217036   1.529   3.804   0.830  0.1026 -0.2027 -0.0171
 5677TIP3    H117037   1.616   3.771   0.853 -0.3783 -0.7330  1.0914
 5677TIP3    H217038   1.480   3.726   0.804 -0.1283  0.0595 -0.3844
 5678TIP3   OH217039   3.473   1.212   1.403 -0.5190 -0.2412 -0.5637
 5678TIP3    H117040   3.381   1.217   1.428 -1.3529  0.4332 -3.4414
 5678TIP3    H217041   3.517   1.274   1.462 -1.7684 -0.9194  1.1756
 5679TIP3   OH217042   2.091   4.820   0.877  0.5340  0.1432  0.0905
 5679TIP3    H117043   2.016   4.781   0.921  1.3893 -1.4723  0.1892
 5679TIP3    H217044   2.155   4.749   0.871  2.1991  1.5517  0.3283
 5680TIP3   OH217045   4.536   0.336   2.683  0.2542  0.1429 -0.3880
 5680TIP3    H117046   4.547   0.271   2.614 -1.0090 -0.4263 -0.0870
 5680TIP3    H217047   4.442   0.337   2.700  0.5686  0.0260  1.5542
 5681TIP3   OH217048   3.065   4.098   4.577  0.6875  0.4520 -0.0167
 5681TIP3    H117049   3.062   4.172   4.517  1.2177  0.8637  0.4456
 5681TIP3    H217050   3.132   4.122   4.641 -0.2048  0.2548  1.0264
 5682TIP3   OH217051   0.955   4.047   1.811  0.2751  0.3764 -0.4530
 5682TIP3    H117052   1.013   4.041   1.735 -0.2440 -0.0952 -0.8184
 5682TIP3    H217053   0.937   4.141   1.819  0.9561  0.5118 -0.4317
 5683TIP3   OH217054   3.766   2.811   1.415 -0.0965  0.3007 -0.0289
 5683TIP3    H117055   3.856   2.787   1.395 -0.1196  0.4747 -0.3542
 5683TIP3    H217056   3.722   2.812   1.330 -0.3401  0.4825  0.0972
 5684TIP3   OH217057   1.348   5.466   0.395  0.3926  0.5473  0.0929
 5684TIP3    H117058   1.414   5.397   0.390  0.2811  0.4718 -0.3072
 5684TIP3    H217059   1.267   5.419   0.414 -0.1944  0.2599 -2.7050
 5685TIP3   OH217060   1.572   4.872   0.599  0.1688  0.1166 -0.1435
 5685TIP3    H117061   1.660   4.898   0.570  0.3365  0.1630  0.3979
 5685TIP3    H217062   1.519   4.951   0.587  0.5522  0.5686  0.9778
 5686TIP3   OH217063   3.822   3.062   4.884  0.0758  0.0322 -0.4379
 5686TIP3    H117064   3.916   3.053   4.866  0.2079 -1.0763  0.6879
 5686TIP3    H217065   3.814   3.045   4.978 -1.4042 -1.2708 -0.7586
 5687TIP3   OH217066   4.192   2.283   4.264  0.3716 -0.0178 -0.3343
 5687TIP3    H117067   4.210   2.199   4.223  0.9967  0.9387 -2.1318
 5687TIP3    H217068   4.140   2.331   4.200  0.9371  1.3587  0.1913
 5688TIP3   OH217069   0.683   1.337   3.860  0.0491 -0.0296 -0.3920
 5688TIP3    H117070   0.759   1.290   3.825  0.7150  0.3614  0.4706
 5688TIP3    H217071   0.692   1.426   3.825  0.5314  0.2720  0.4517
 5689TIP3   OH217072   4.132   5.395   2.959 -0.2137 -0.3843 -0.0325
 5689TIP3    H117073   4.195   5.416   2.890  0.1242  0.1052  0.4128
 5689TIP3    H217074   4.162   5.312   2.994 -0.8456 -1.0373 -0.9940
 5690TIP3   OH217075   4.902   4.345   0.207 -0.3820  0.5178  0.1145
 5690TIP3    H117076   4.806   4.340   0.212 -0.4531  0.5335 -0.9479
 5690TIP3    H217077   4.924   4.295   0.129  0.4636  0.6846  0.2395
 5691TIP3   OH217078   5.230   1.520   0.073 -0.6154  0.1002  0.0869
 5691TIP3    H117079   5.308   1.468   0.053 -1.7919 -1.6323 -0.2995
 5691TIP3    H217080   5.222   1.580  -0.001 -1.4487 -2.0216 -1.6773
 5692TIP3   OH217081   3.767   5.148   1.383 -0.4658 -0.6685  0.1911
 5692TIP3    H117082   3.810   5.229   1.353  0.9302 -1.1542  0.8007
 5692TIP3    H217083   3.724   5.114   1.304 -1.1076  0.6655 -0.0697
 5693TIP3   OH217084   4.503   0.871   1.169 -0.2043 -0.0203 -0.1444
 5693TIP3    H117085   4.583   0.886   1.219 -0.6374  0.1688  0.5031
 5693TIP3    H217086   4.533   0.846   1.082  0.5770 -1.0052  0.3906
 5694TIP3   OH217087   6.160   2.406   3.318 -0.0065  0.3547  0.5077
 5694TIP3    H117088   6.143   2.313   3.337  0.8617 -0.1867 -1.1650
 5694TIP3    H217089   6.240   2.405   3.266 -0.0991  2.0480  0.2923
 5695TIP3   OH217090   4.893   3.915   3.113 -0.4484 -0.0414 -0.3753
 5695TIP3    H117091   4.798   3.912   3.125 -0.4370  1.3834  0.2244
 5695TIP3    H217092   4.926   3.843   3.166 -1.2427 -1.2534 -1.4503
 5696TIP3   OH217093   3.612   3.285   1.913 -0.3318 -0.0082  0.5903
 5696TIP3    H117094   3.647   3.265   2.000 -1.7458  0.1192  1.2238
 5696TIP3    H217095   3.578   3.375   1.922 -0.3435  0.0646 -0.1448
 5697TIP3   OH217096   5.887   0.867   4.863  0.1480 -0.3743  0.8348
 5697TIP3    H117097   5.905   0.943   4.807 -0.6837  0.9773  2.3180
 5697TIP3    H217098   5.819   0.818   4.816  2.5348 -1.7563 -1.4400
 5698TIP3   OH217099   0.603   1.564   3.689 -0.6037  0.2264  0.0266
 5698TIP3    H117100   0.516   1.570   3.728 -1.1084  0.8720 -1.1567
 5698TIP3    H217101   0.593   1.600   3.601  0.4267 -1.4626 -0.8268
 5699TIP3   OH217102   5.663   5.564   2.114  0.1315 -0.3247  0.2466
 5699TIP3    H117103   5.726   5.616   2.164 -1.0787  1.1850  0.2818
 5699TIP3    H217104   5.632   5.498   2.175  0.7051 -0.2433  0.6334
 5700TIP3   OH217105   1.683   0.351   1.205 -0.1448  0.5191 -0.3088
 5700TIP3    H117106   1.734   0.303   1.270  1.6277  0.1980 -1.8434
 5700TIP3    H217107   1.746   0.411   1.164 -1.4447  1.4640 -1.0151
 5701TIP3   OH217108   1.130   5.004   4.284 -0.0605 -0.1467  0.4396
 5701TIP3    H117109   1.157   5.095   4.277  0.3122 -0.1352  1.8970
 5701TIP3    H217110   1.093   4.984   4.198  1.2998  0.8903 -0.4273
 5702TIP3   OH217111   6.003   0.053   2.176  0.2976 -0.1666 -0.2963
 5702TIP3    H117112   6.010  -0.040   2.155 -1.6391 -0.5555  0.5381
 5702TIP3    H217113   5.981   0.095   2.093  0.5006 -0.5495 -0.5451
 5703TIP3   OH217114   0.691   2.104   1.561 -0.0887 -0.0978  0.1419
 5703TIP3    H117115   0.705   2.174   1.498 -0.6896  0.1956  0.3268
 5703TIP3    H217116   0.608   2.125   1.603  1.5738  1.2713  3.0698
 5704TIP3   OH217117   1.749   3.433   2.859  0.2098  0.1690  0.2910
 5704TIP3    H117118   1.736   3.527   2.868  0.0030  0.5472 -2.7571
 5704TIP3    H217119   1.837   3.425   2.822 -0.0527 -0.7661 -0.1522
 5705TIP3   OH217120   3.819   4.212   3.020  0.1306 -0.8642  0.0182
 5705TIP3    H117121   3.777   4.176   3.099  0.5435  0.2751  0.7688
 5705TIP3    H217122   3.784   4.300   3.012  1.2401 -0.4283 -0.2100
 5706TIP3   OH217123   2.285   4.326   3.858 -0.4979 -0.1796  0.2497
 5706TIP3    H117124   2.292   4.341   3.764  0.7717 -2.8255 -0.1591
 5706TIP3    H217125   2.372   4.296   3.884 -0.7135  0.8558  2.3816
 5707TIP3   OH217126   3.853   3.170   1.818 -0.1147 -0.1908 -0.1216
 5707TIP3    H117127   3.808   3.086   1.814  1.6463 -1.1932  0.2885
 5707TIP3    H217128   3.786   3.232   1.847 -1.0978 -1.7026  0.9482
 5708TIP3   OH217129   5.779   3.764   0.912 -0.7403 -0.2228 -0.6947
 5708TIP3    H117130   5.799   3.747   0.820 -0.5094  1.6367 -1.0318
 5708TIP3    H217131   5.685   3.784   0.913 -0.8743 -0.8477 -0.4208
 5709TIP3   OH217132   3.629   5.729   1.848  0.2232  0.5817 -0.3020
 5709TIP3    H117133   3.583   5.749   1.929 -1.3006 -1.3282 -0.6329
 5709TIP3    H217134   3.691   5.660   1.872  0.2361  0.4768 -0.6286
 5710TIP3   OH217135   3.937   4.099   2.789  0.1480 -0.0053  0.3437
 5710TIP3    H117136   3.910   4.165   2.853  0.6857  1.2348 -0.6499
 5710TIP3    H217137   3.978   4.150   2.719 -1.1527 -1.2474 -1.3837
 5711TIP3   OH217138   3.864   3.567   4.822  0.3716  0.4839 -0.0773
 5711TIP3    H117139   3.926   3.503   4.856  0.6161  0.4425 -0.5762
 5711TIP3    H217140   3.920   3.634   4.781  0.1406  1.2691  0.8644
 5712TIP3   OH217141   4.026   5.366   1.368  0.5910 -0.0050 -0.3113
 5712TIP3    H117142   4.041   5.329   1.455  0.1488  0.3194 -0.0948
 5712TIP3    H217143   4.080   5.312   1.310 -1.5525 -2.3641 -0.3039
 5713TIP3   OH217144   6.008   3.574   1.625  0.3418  0.7646 -0.0375
 5713TIP3    H117145   6.084   3.551   1.678  0.3270  2.7904  0.9896
 5713TIP3    H217146   5.945   3.504   1.641  1.2633  0.0644  0.6596
 5714TIP3   OH217147   4.860   1.044   5.119  0.1647  0.0279  0.0899
 5714TIP3    H117148   4.785   1.081   5.073 -0.7082 -0.2624  1.2423
 5714TIP3    H217149   4.879   1.106   5.190  0.5533 -0.2672  0.2497
 5715TIP3   OH217150   0.078   1.829   0.630 -0.4900 -0.1259 -0.3675
 5715TIP3    H117151   0.099   1.736   0.631 -1.0258 -0.2924 -1.7590
 5715TIP3    H217152   0.122   1.865   0.707 -2.0861 -1.9064  1.4694
 5716TIP3   OH217153   4.992   1.965   4.190 -0.2373  0.4275 -0.6416
 5716TIP3    H117154   4.899   1.984   4.184 -0.1431  0.7846 -1.0810
 5716TIP3    H217155   5.033   2.031   4.133  0.3196  0.6167 -0.0376
 5717TIP3   OH217156   4.044   3.154   0.442  0.1552  0.0040 -0.0797
 5717TIP3    H117157   4.050   3.249   0.437 -0.0444 -0.0009 -0.4417
 5717TIP3    H217158   4.074   3.123   0.357  0.4532 -0.2702  0.1207
 5718TIP3   OH217159   3.103   0.661   4.630 -0.1571  0.0396 -0.5051
 5718TIP3    H117160   3.183   0.688   4.586  0.3465 -1.9714 -0.8993
 5718TIP3    H217161   3.132   0.614   4.708 -0.9691 -0.0281 -0.2307
 5719TIP3   OH217162   4.162   4.127   0.885  0.0775 -0.2532  0.1642
 5719TIP3    H117163   4.118   4.064   0.828  2.3505 -1.8499  0.0348
 5719TIP3    H217164   4.226   4.171   0.828  0.7454 -0.1681  0.9617
 5720TIP3   OH217165   4.645   1.065   3.550 -0.2433 -0.2496 -0.4344
 5720TIP3    H117166   4.682   1.113   3.476  0.1721 -1.3712 -0.9748
 5720TIP3    H217167   4.664   1.120   3.626  0.3521  0.3692 -1.0161
 5721TIP3   OH217168   6.123   2.274   0.561 -0.2036  0.0741  0.1292
 5721TIP3    H117169   6.061   2.201   0.556  0.3540 -0.6982  2.8770
 5721TIP3    H217170   6.069   2.352   0.556 -1.2075 -0.5674  0.6773
 5722TIP3   OH217171   4.952   3.552   1.344 -0.2158 -0.2154  0.0543
 5722TIP3    H117172   4.967   3.462   1.374 -0.7143 -0.5552 -0.6843
 5722TIP3    H217173   4.857   3.557   1.331  0.0363 -0.3679 -2.2888
 5723TIP3   OH217174   4.977   3.280   1.353  0.4068  0.0329  0.0972
 5723TIP3    H117175   5.001   3.265   1.262  1.1291 -0.3705  0.3454
 5723TIP3    H217176   4.884   3.257   1.357  0.3690  0.0595 -0.5355
 5724TIP3   OH217177   1.275   0.287   0.631 -0.0915 -0.0085  0.0235
 5724TIP3    H117178   1.197   0.250   0.590  1.0317 -1.0694 -1.2204
 5724TIP3    H217179   1.312   0.346   0.565 -0.1447  0.9724  0.8341
 5725TIP3   OH217180   5.493   0.449   1.614 -0.2983  0.0998 -0.0908
 5725TIP3    H117181   5.545   0.500   1.676  0.8286 -1.8455  0.6376
 5725TIP3    H217182   5.406   0.445   1.653 -0.6454  2.0526 -0.5460
 5726TIP3   OH217183   0.774   0.932   2.827  0.1529  0.4843  0.7171
 5726TIP3    H117184   0.787   0.852   2.878 -0.7801 -1.2849 -1.6158
 5726TIP3    H217185   0.686   0.961   2.851  0.5639  0.9700  1.7091
 5727TIP3   OH217186   2.373   0.687   4.322  0.8849  0.3731  0.5506
 5727TIP3    H117187   2.454   0.637   4.332  0.5483  0.0370  1.6557
 5727TIP3    H217188   2.361   0.732   4.406 -0.7248 -0.5674  0.8637
 5728TIP3   OH217189   3.741   5.402   3.942  0.1949  0.4081 -0.2272
 5728TIP3    H117190   3.709   5.320   3.979  0.3880  0.3405 -0.2090
 5728TIP3    H217191   3.836   5.395   3.947  0.2272  0.3311 -0.8822
 5729TIP3   OH217192   5.912   2.600   3.133  0.0595  0.3498  0.8656
 5729TIP3    H117193   5.826   2.631   3.163 -0.6845 -0.5968 -0.2262
 5729TIP3    H217194   5.913   2.507   3.155 -0.1572 -0.1743 -1.2041
 5730TIP3   OH217195   3.202   1.648   4.029 -0.6963 -0.2439  0.2946
 5730TIP3    H117196   3.284   1.697   4.038 -0.7831 -0.0683  0.1252
 5730TIP3    H217197   3.229   1.559   4.006 -0.6264  0.5092 -2.9658
 5731TIP3   OH217198   4.117   5.268   1.632 -0.1822 -0.3982 -0.1032
 5731TIP3    H117199   4.166   5.185   1.637 -0.5962 -0.6117  0.4440
 5731TIP3    H217200   4.061   5.268   1.709 -2.8798 -1.3012 -1.9355
 5732TIP3   OH217201   0.157   3.733   0.703  0.6316 -0.7852 -0.5631
 5732TIP3    H117202   0.219   3.672   0.743  0.5972  0.0836  0.8731
 5732TIP3    H217203   0.095   3.755   0.772  1.4449  1.9262 -0.5585
 5733TIP3   OH217204   6.161   4.744   3.294  0.5326 -0.0069  0.1647
 5733TIP3    H117205   6.097   4.776   3.229  2.0717  0.5619 -1.1584
 5733TIP3    H217206   6.216   4.820   3.313  0.9172 -0.5117  1.1579
 5734TIP3   OH217207   2.665   3.035   4.801 -0.4394 -0.1834 -0.0600
 5734TIP3    H117208   2.712   3.007   4.879  0.0986 -1.4922 -0.8140
 5734TIP3    H217209   2.733   3.046   4.734 -0.9330  0.4483 -0.4702
 5735TIP3   OH217210   4.199   0.548   3.661 -0.3180 -0.1315 -0.5766
 5735TIP3    H117211   4.196   0.454   3.647 -0.7885 -0.2976  0.4960
 5735TIP3    H217212   4.289   0.572   3.643 -0.0054 -0.9214 -0.1170
 5736TIP3   OH217213   5.886   4.758   1.243 -0.4680  0.0502 -0.4792
 5736TIP3    H117214   5.907   4.705   1.165 -1.0601  0.0389 -0.6313
 5736TIP3    H217215   5.878   4.847   1.210  0.6020  0.2613 -0.2095
 5737TIP3   OH217216   4.147   2.880   3.243 -0.3103  0.1427  0.2279
 5737TIP3    H117217   4.115   2.876   3.153 -0.3752 -1.0740  0.2936
 5737TIP3    H217218   4.200   2.960   3.246 -0.4222  0.2673 -0.8475
 5738TIP3   OH217219   3.119   3.872   2.225  0.1549  0.2923  0.7152
 5738TIP3    H117220   3.199   3.829   2.255 -0.0196 -0.4802  0.1065
 5738TIP3    H217221   3.071   3.891   2.305  0.8035  0.4875  1.0657
 5739TIP3   OH217222   5.220   1.072   1.670  0.5178 -0.3117 -0.0678
 5739TIP3    H117223   5.297   1.055   1.724  1.1595 -0.0892 -0.8951
 5739TIP3    H217224   5.245   1.042   1.583 -0.2807 -0.0884 -0.3833
 5740TIP3   OH217225   4.697   4.105   1.643  0.9030 -0.2872  0.6180
 5740TIP3    H117226   4.627   4.062   1.692  0.5321 -2.4702 -1.6070
 5740TIP3    H217227   4.778   4.081   1.689  0.4228 -0.4778  1.3727
 5741TIP3   OH217228   1.661   1.632   4.622 -0.3091 -0.4789 -0.6623
 5741TIP3    H117229   1.615   1.562   4.576 -0.6537 -1.0449  0.4906
 5741TIP3    H217230   1.681   1.697   4.555 -1.6453 -0.8219 -1.4137
 5742TIP3   OH217231   0.144   3.804   3.189  0.2480 -0.0463 -0.2623
 5742TIP3    H117232   0.129   3.890   3.150  1.8840  0.1596 -0.5239
 5742TIP3    H217233   0.213   3.765   3.135  1.1945 -0.5592  1.2525
 5743TIP3   OH217234   0.514   2.938   0.508  0.3098 -0.2438 -0.7831
 5743TIP3    H117235   0.482   3.029   0.504 -0.1064 -0.4233 -3.4575
 5743TIP3    H217236   0.609   2.947   0.513  0.1995  0.3012  1.0029
 5744TIP3   OH217237   3.302   2.323   2.794  0.4699  0.0749  0.6023
 5744TIP3    H117238   3.218   2.279   2.803  0.5722  0.0074  1.2605
 5744TIP3    H217239   3.281   2.407   2.753  0.1444 -0.1386  0.3323
 5745TIP3   OH217240   0.508   0.618   2.665  0.6369  0.0780 -0.3732
 5745TIP3    H117241   0.416   0.638   2.680  0.5347 -0.8183  0.2824
 5745TIP3    H217242   0.507   0.540   2.609  0.9287 -1.4792  1.6521
 5746TIP3   OH217243   3.320   4.448   3.015 -0.2242 -0.0680  0.0003
 5746TIP3    H117244   3.300   4.539   2.990 -1.0824 -0.5820 -1.3127
 5746TIP3    H217245   3.357   4.455   3.103  2.1584  1.7950 -1.0240
 5747TIP3   OH217246   5.066   3.905   4.379 -0.2829  0.2066  0.4517
 5747TIP3    H117247   4.993   3.899   4.440  0.6679 -1.9855  1.5239
 5747TIP3    H217248   5.125   3.970   4.417 -0.7904  0.5747  0.6061
 5748TIP3   OH217249   5.432   3.416   4.983 -0.2489 -0.4062 -0.0948
 5748TIP3    H117250   5.411   3.468   5.061  0.1258 -1.3320  0.6415
 5748TIP3    H217251   5.417   3.326   5.010 -0.5539 -0.7131 -1.2500
 5749TIP3   OH217252   0.453   2.860   2.757 -0.1364  0.1809 -0.3850
 5749TIP3    H117253   0.431   2.794   2.823 -0.1369  0.7652  0.2121
 5749TIP3    H217254   0.548   2.853   2.747  0.0639  1.0124  0.7057
 5750TIP3   OH217255   0.079   2.023   0.450  1.1925  0.1686 -0.3579
 5750TIP3    H117256   0.043   1.974   0.524 -0.6126  0.4210 -1.0149
 5750TIP3    H217257   0.073   1.963   0.376 -0.0255  0.9705 -0.9402
 5751TIP3   OH217258   2.040   5.071   2.670 -0.4054 -0.1244  0.1794
 5751TIP3    H117259   2.127   5.061   2.710 -0.2278 -1.2372 -0.4142
 5751TIP3    H217260   2.003   4.983   2.674 -2.0317  0.5733  1.5267
 5752TIP3   OH217261   0.621   0.721   4.151  0.3872  0.7260  0.4634
 5752TIP3    H117262   0.715   0.732   4.162  0.5180 -1.2676  1.8514
 5752TIP3    H217263   0.584   0.732   4.239 -0.1898 -2.0771  0.6698
 5753TIP3   OH217264   1.387   2.569   1.603  0.6182  0.1689  0.0652
 5753TIP3    H117265   1.410   2.477   1.589 -1.6117 -0.4763  0.3735
 5753TIP3    H217266   1.347   2.571   1.690 -0.8451  1.1389 -0.6016
 5754TIP3   OH217267   0.066   1.492   3.403  0.0194 -0.2561 -0.8287
 5754TIP3    H117268   0.152   1.526   3.428 -1.0437  2.1328 -0.0770
 5754TIP3    H217269   0.069   1.484   3.308  0.6031  1.3959 -0.9855
 5755TIP3   OH217270   1.697   4.821   3.796  0.0011 -0.3447  0.0846
 5755TIP3    H117271   1.759   4.754   3.765 -0.4040 -0.6170 -0.1572
 5755TIP3    H217272   1.621   4.771   3.827 -0.2528 -0.0020  0.0241
 5756TIP3   OH217273   1.599   2.187   0.414  0.1664 -0.2309 -0.1802
 5756TIP3    H117274   1.591   2.273   0.455 -1.4972 -0.3028 -0.2890
 5756TIP3    H217275   1.512   2.149   0.420  0.7776 -1.7852 -0.4497
 5757TIP3   OH217276   1.339   0.056   1.094  0.5294 -0.1569  0.4891
 5757TIP3    H117277   1.319  -0.037   1.087  1.1896 -0.1982 -1.4778
 5757TIP3    H217278   1.297   0.096   1.018  1.9282  0.8231  0.1881
 5758TIP3   OH217279   5.860   3.848   0.598  0.3166 -0.2658  0.3176
 5758TIP3    H117280   5.916   3.845   0.521  0.1391  0.4966  0.1501
 5758TIP3    H217281   5.771   3.851   0.562  0.1980 -0.6443  0.5699
 5759TIP3   OH217282   0.955   0.342   4.813  0.3088 -0.4017  0.0883
 5759TIP3    H117283   0.874   0.342   4.864  0.0692 -0.9291 -0.2771
 5759TIP3    H217284   1.021   0.306   4.872 -0.0069 -1.1916 -0.0310
 5760TIP3   OH217285   1.210   5.655   5.035 -0.6506 -0.2646  0.3627
 5760TIP3    H117286   1.285   5.599   5.014  0.0191  0.4016  0.9682
 5760TIP3    H217287   1.135   5.608   4.997 -0.1604 -1.7588  1.1568
 5761TIP3   OH217288   2.276   5.916   3.693  0.2513 -0.3881  0.3049
 5761TIP3    H117289   2.203   5.965   3.655 -0.5056 -1.2723  0.5570
 5761TIP3    H217290   2.268   5.929   3.787  0.8237  0.0530  0.2933
 5762TIP3   OH217291   0.375   2.736   3.715 -0.3732  0.2962 -0.6852
 5762TIP3    H117292   0.285   2.740   3.682 -0.2821  1.1491 -0.8517
 5762TIP3    H217293   0.393   2.825   3.745 -0.1718 -0.2704  0.9512
 5763TIP3   OH217294   1.618   5.258   2.582 -0.6251  0.5187 -0.3667
 5763TIP3    H117295   1.656   5.345   2.569 -1.5384  0.5999 -3.1079
 5763TIP3    H217296   1.555   5.248   2.512 -3.4158 -0.9074  2.1138
 5764TIP3   OH217297   2.642   4.947   2.304  0.2768 -0.3601 -0.0511
 5764TIP3    H117298   2.584   4.892   2.357  0.6731 -0.5053  0.2400
 5764TIP3    H217299   2.722   4.954   2.357 -0.2456  1.6251  0.5497
 5765TIP3   OH217300   5.264   3.881   4.797  0.4401  0.2164  0.5947
 5765TIP3    H117301   5.239   3.813   4.735 -0.9604  0.2139  1.1265
 5765TIP3    H217302   5.335   3.928   4.754 -1.3403  1.0452 -1.6332
 5766TIP3   OH217303   1.596  -0.003   1.132 -0.3598  0.2596  0.2213
 5766TIP3    H117304   1.651   0.069   1.102 -0.7600  1.3447  1.9939
 5766TIP3    H217305   1.507   0.032   1.129 -0.4385  0.3837  2.4481
 5767TIP3   OH217306   1.771   5.305   1.629 -0.6637  0.5211 -0.2319
 5767TIP3    H117307   1.714   5.238   1.666 -0.4096 -0.0736 -0.8756
 5767TIP3    H217308   1.825   5.334   1.702  1.5481 -2.3877 -0.5234
 5768TIP3   OH217309   5.868   2.991   0.858  0.8637  0.3415  0.1978
 5768TIP3    H117310   5.829   2.977   0.772  1.1088 -0.5218  0.2243
 5768TIP3    H217311   5.943   2.932   0.860  1.2754  0.8762  0.7340
 5769TIP3   OH217312   3.239   4.818   2.773 -0.2604 -0.1338 -0.0470
 5769TIP3    H117313   3.151   4.783   2.784 -0.8865  1.0287 -1.1912
 5769TIP3    H217314   3.232   4.910   2.795  0.8406 -0.1693  0.5278
 5770TIP3   OH217315   6.138   3.397   4.997  0.7024  0.4431 -0.5944
 5770TIP3    H117316   6.124   3.352   5.080  0.4785 -0.5560 -1.1574
 5770TIP3    H217317   6.152   3.489   5.021  0.1812  0.2474  0.5024
 5771TIP3   OH217318   1.071   0.685   3.603  0.0069  0.9681  0.7410
 5771TIP3    H117319   1.085   0.659   3.512 -3.2556 -1.8660  0.8477
 5771TIP3    H217320   1.128   0.626   3.653 -0.5123  0.3361  0.6054
 5772TIP3   OH217321   4.621   1.946   3.698  0.2248 -0.0784  0.4596
 5772TIP3    H117322   4.649   1.873   3.643 -0.6954  0.9014 -1.4196
 5772TIP3    H217323   4.652   2.024   3.652 -2.7977  0.9017 -0.1468
 5773TIP3   OH217324   1.499   3.369   2.791  0.5930 -0.2288  0.3854
 5773TIP3    H117325   1.508   3.294   2.732 -0.2812  0.8543 -1.2115
 5773TIP3    H217326   1.589   3.396   2.810  1.0882  1.5554 -3.4440
 5774TIP3   OH217327   5.186  -0.018   0.001  0.0860 -0.1635  0.2446
 5774TIP3    H117328   5.203   0.069   0.039 -1.3196 -0.8717  2.7256
 5774TIP3    H217329   5.091  -0.020  -0.010  0.2202 -1.0113 -0.8547
 5775TIP3   OH217330   3.091   4.086   1.493  0.4535  0.1880 -0.5856
 5775TIP3    H117331   3.149   4.155   1.462  0.2062 -0.5042 -2.7607
 5775TIP3    H217332   3.142   4.005   1.485 -0.0968 -0.1807 -0.4562
 5776TIP3   OH217333   2.162   0.657   0.154 -0.4686  0.2677 -0.4169
 5776TIP3    H117334   2.249   0.678   0.187  0.1918 -1.5213 -0.8616
 5776TIP3    H217335   2.169   0.667   0.059 -0.4360 -0.7502 -0.5422
 5777TIP3   OH217336   3.051   3.227   2.771  0.0919  0.4686 -0.3998
 5777TIP3    H117337   2.977   3.165   2.775 -0.2847  0.8968 -0.6566
 5777TIP3    H217338   3.125   3.174   2.741 -0.6922  0.5609 -2.6905
 5778TIP3   OH217339   2.087   2.727   2.421  0.3294 -0.3246  0.4183
 5778TIP3    H117340   2.042   2.699   2.341  1.2196 -0.2321 -0.1284
 5778TIP3    H217341   2.030   2.699   2.492 -0.1286 -1.0535 -0.2286
 5779TIP3   OH217342   3.287   1.052   3.340 -0.0726  0.5337 -0.3034
 5779TIP3    H117343   3.216   1.115   3.351 -1.1959 -0.3584 -1.9757
 5779TIP3    H217344   3.249   0.968   3.365  0.2324 -0.0215 -1.6173
 5780TIP3   OH217345   2.115   3.824   1.698  0.1281 -0.2842 -0.2119
 5780TIP3    H117346   2.147   3.737   1.678 -1.4119 -0.6562 -1.1914
 5780TIP3    H217347   2.190   3.882   1.683  0.5200 -1.1752 -1.8271
 5781TIP3   OH217348   0.242   5.802   0.402 -0.8090 -0.4347  0.5656
 5781TIP3    H117349   0.331   5.782   0.428  0.4559  3.0689 -0.5646
 5781TIP3    H217350   0.220   5.735   0.337  0.7153 -1.6967  1.2951
 5782TIP3   OH217351   4.592   5.627   3.510 -0.4202 -0.2820  0.2129
 5782TIP3    H117352   4.549   5.553   3.467 -0.8884 -1.0249  1.8770
 5782TIP3    H217353   4.520   5.679   3.546 -0.0251 -0.1665  0.8564
 5783TIP3   OH217354   1.040   2.197   0.085  0.3264 -0.0566 -0.1435
 5783TIP3    H117355   1.078   2.218   0.000  1.2820 -0.2954  0.2168
 5783TIP3    H217356   0.950   2.230   0.080  0.3702 -0.0895 -1.2470
 5784TIP3   OH217357   4.816   0.883   3.274 -0.1457  0.2792  0.7723
 5784TIP3    H117358   4.809   0.978   3.287 -0.8534  0.2920  0.3656
 5784TIP3    H217359   4.762   0.866   3.197  0.2549 -0.4102  0.6371
 5785TIP3   OH217360   2.550   2.553   1.470  0.0365  0.1135  0.0365
 5785TIP3    H117361   2.553   2.633   1.523 -0.8257  0.4407 -0.3942
 5785TIP3    H217362   2.582   2.580   1.384 -2.0434  0.4729 -0.6680
 5786TIP3   OH217363   6.024   3.985   4.240 -0.1457  0.2543  0.2691
 5786TIP3    H117364   5.967   4.019   4.308  2.4470  0.7974  2.3240
 5786TIP3    H217365   5.970   3.985   4.161 -2.4459  2.2275  1.7123
 5787TIP3   OH217366   3.011   2.257   0.985  0.1614  0.1144 -0.5090
 5787TIP3    H117367   2.921   2.275   0.957 -0.4245 -1.1747  0.4471
 5787TIP3    H217368   3.016   2.161   0.989  0.7242  0.1780  2.0223
 5788TIP3   OH217369   6.091   2.757   1.391 -0.1696 -0.0632 -0.1459
 5788TIP3    H117370   6.167   2.779   1.445 -0.8635  1.7728  0.1616
 5788TIP3    H217371   6.070   2.667   1.416  1.7501 -0.5357 -0.0842
 5789TIP3   OH217372   2.328   1.859   1.910 -0.5489 -0.3851 -0.0311
 5789TIP3    H117373   2.308   1.932   1.970  1.7394 -0.3948  0.8756
 5789TIP3    H217374   2.405   1.889   1.862 -0.6459 -1.5281 -0.9304
 5790TIP3   OH217375   5.499   3.001   1.282  0.5196  0.0533  0.0200
 5790TIP3    H117376   5.559   2.969   1.215  1.4359 -0.0299  0.8583
 5790TIP3    H217377   5.523   3.093   1.294 -0.9060  0.6189 -1.0928
 5791TIP3   OH217378   1.140   3.166   1.372  0.0070 -0.8145 -0.2649
 5791TIP3    H117379   1.163   3.177   1.464 -0.6026  1.8970 -0.3374
 5791TIP3    H217380   1.148   3.254   1.335 -1.0219 -1.5826 -2.5147
 5792TIP3   OH217381   2.267   1.564   2.490  0.0241 -0.1682 -0.2768
 5792TIP3    H117382   2.200   1.632   2.494 -0.9922 -0.9378 -2.5755
 5792TIP3    H217383   2.222   1.485   2.518  0.4475 -0.3756 -0.1794
 5793TIP3   OH217384   5.173   2.425   3.038 -0.0309 -0.0862  0.0510
 5793TIP3    H117385   5.147   2.352   2.981  1.2610  0.5884 -1.4770
 5793TIP3    H217386   5.137   2.503   2.996  0.8935  0.4268  0.1921
 5794TIP3   OH217387   3.253   3.882   1.432 -0.7761  0.3363  0.4994
 5794TIP3    H117388   3.182   3.840   1.383 -0.2682  0.4731 -0.3676
 5794TIP3    H217389   3.320   3.815   1.441 -0.7280  0.4130  0.7329
 5795TIP3   OH217390   3.842   2.967   0.876 -0.0677  0.2270  0.5365
 5795TIP3    H117391   3.764   3.020   0.859  0.6540  0.8288 -1.2608
 5795TIP3    H217392   3.895   2.978   0.796  0.7658 -2.0758  0.7037
 5796TIP3   OH217393   2.529   5.748   3.846 -0.0835 -0.0010  0.2055
 5796TIP3    H117394   2.470   5.744   3.921 -0.8237  1.5596 -0.2460
 5796TIP3    H217395   2.473   5.725   3.771 -0.1724  1.4956 -0.2258
 5797TIP3   OH217396   0.916   2.559   3.429  0.1285 -0.1107 -0.2538
 5797TIP3    H117397   0.964   2.504   3.367  1.2007 -0.5173  0.8683
 5797TIP3    H217398   0.975   2.565   3.505 -0.2877  1.9596 -0.0351
 5798TIP3   OH217399   0.148   0.655   4.532 -0.1119 -0.2595 -0.3465
 5798TIP3    H117400   0.071   0.605   4.559  0.1147 -2.4479 -3.3547
 5798TIP3    H217401   0.210   0.644   4.604 -1.8654  0.0440  1.3205
 5799TIP3   OH217402   4.324   4.809   1.604  0.2354  0.4714 -0.2109
 5799TIP3    H117403   4.269   4.795   1.681 -1.5897 -0.4717 -1.5995
 5799TIP3    H217404   4.394   4.745   1.613  0.4282  0.8240  0.9732
 5800TIP3   OH217405   6.070   5.484   4.735  0.1955  0.0158  0.0060
 5800TIP3    H117406   6.162   5.461   4.749  0.1238  0.2547  0.9310
 5800TIP3    H217407   6.040   5.422   4.669 -0.2656 -3.3337  3.0711
 5801TIP3   OH217408   5.220   4.323   1.506  0.5604 -0.2638  0.3378
 5801TIP3    H117409   5.248   4.238   1.539  0.3006 -1.3622 -2.0361
 5801TIP3    H217410   5.298   4.378   1.510  0.9254 -0.8280  1.1987
 5802TIP3   OH217411   3.889   1.966   4.787  0.8109 -0.9300 -0.8411
 5802TIP3    H117412   3.796   1.981   4.805  0.3668 -2.9196 -1.2097
 5802TIP3    H217413   3.918   2.045   4.741 -0.1615  0.5951  1.0274
 5803TIP3   OH217414   3.372   0.363   3.176 -0.3369 -0.0531  0.2924
 5803TIP3    H117415   3.293   0.309   3.178 -0.2771 -0.4481 -3.0154
 5803TIP3    H217416   3.441   0.306   3.208 -0.7490 -1.0619 -0.5660
 5804TIP3   OH217417   2.128   4.837   3.655 -0.2371  0.6782 -0.2109
 5804TIP3    H117418   2.137   4.776   3.582  0.2601 -0.1836  0.5619
 5804TIP3    H217419   2.068   4.904   3.622 -0.0239  0.3017 -1.4055
 5805TIP3   OH217420   2.212   1.841   1.292 -0.0078 -0.0899 -0.4024
 5805TIP3    H117421   2.251   1.778   1.352 -0.7316  0.4840  0.7096
 5805TIP3    H217422   2.225   1.926   1.334  1.7363  0.6680 -2.2809
 5806TIP3   OH217423   0.082   0.388   3.253 -0.5451 -0.4523  0.2396
 5806TIP3    H117424   0.083   0.337   3.172  0.4920  0.4539 -0.3522
 5806TIP3    H217425   0.169   0.428   3.256 -2.0155  3.0871 -0.4972
 5807TIP3   OH217426   2.358   3.416   0.216 -0.0394  0.4997  0.5177
 5807TIP3    H117427   2.281   3.451   0.260 -0.5200  0.1411 -0.0173
 5807TIP3    H217428   2.403   3.493   0.181 -0.2808  0.6952  0.6377
 5808TIP3   OH217429   2.647   4.226   2.657 -0.1519 -0.2415 -0.1225
 5808TIP3    H117430   2.563   4.181   2.652  0.3802 -1.1318 -1.6574
 5808TIP3    H217431   2.712   4.156   2.655  0.6438  0.4902 -0.2680
 5809TIP3   OH217432   1.258   4.408   5.166  0.4444 -0.0831  0.0383
 5809TIP3    H117433   1.241   4.353   5.089  0.7087 -0.0286 -0.0605
 5809TIP3    H217434   1.314   4.354   5.221 -0.3239 -0.4037  0.5304
 5810TIP3   OH217435   5.425   5.867   2.622 -0.5707 -0.3647 -0.2518
 5810TIP3    H117436   5.423   5.794   2.560 -0.0607 -0.3886 -0.2509
 5810TIP3    H217437   5.507   5.912   2.602  0.2220 -1.0828  1.2136
 5811TIP3   OH217438   4.703   1.442   2.048 -0.3484 -0.1813 -0.3694
 5811TIP3    H117439   4.797   1.460   2.048 -0.7285  2.2387 -1.8502
 5811TIP3    H217440   4.688   1.394   1.966 -0.4880 -0.0471 -0.4222
 5812TIP3   OH217441   0.820   4.983   3.319  0.2133 -0.2058  0.3735
 5812TIP3    H117442   0.903   5.012   3.280 -0.6193  0.3858 -1.0164
 5812TIP3    H217443   0.804   4.897   3.279  0.7959 -0.9452  1.6590
 5813TIP3   OH217444   1.480   1.624   3.932  0.3030 -0.2060  0.2216
 5813TIP3    H117445   1.489   1.570   3.853 -0.3230  0.1009 -0.0703
 5813TIP3    H217446   1.429   1.699   3.903 -0.4960 -0.4081  1.0680
 5814TIP3   OH217447   5.817   0.902   3.661 -0.3951  0.1533 -0.2435
 5814TIP3    H117448   5.902   0.906   3.705  0.0236  1.8189 -1.0965
 5814TIP3    H217449   5.773   0.983   3.688 -1.8960 -0.8892  0.5190
 5815TIP3   OH217450   3.227   4.184   4.795  0.3257  0.7902  0.2877
 5815TIP3    H117451   3.204   4.155   4.883 -0.0643 -0.7282 -0.2916
 5815TIP3    H217452   3.320   4.165   4.787  0.1535  0.0153  0.0454
 5816TIP3   OH217453   6.240   2.398   2.512 -0.1707  0.7934 -0.3237
 5816TIP3    H117454   6.149   2.412   2.485 -0.4877 -0.9147 -0.2812
 5816TIP3    H217455   6.260   2.309   2.481  0.8257  0.3870  1.3770
 5817TIP3   OH217456   1.588   0.618   3.275  0.0039 -0.1733 -0.1369
 5817TIP3    H117457   1.626   0.572   3.351 -2.5242  0.3150  1.5241
 5817TIP3    H217458   1.569   0.706   3.307 -2.5897 -0.4185 -0.7818
 5818TIP3   OH217459   3.684   4.477   3.546 -0.1074 -0.8885  0.3884
 5818TIP3    H117460   3.663   4.513   3.632 -0.8749 -0.2484 -0.0507
 5818TIP3    H217461   3.780   4.472   3.545 -0.0748 -0.5944  1.1553
 5819TIP3   OH217462   0.516   4.915   3.424 -0.5135 -0.5449  0.1575
 5819TIP3    H117463   0.491   4.992   3.475 -0.5175 -0.3201 -0.1810
 5819TIP3    H217464   0.609   4.926   3.406 -1.0031  0.6805 -2.0484
 5820TIP3   OH217465   0.688   2.632   0.816  0.1548 -0.0919  0.0150
 5820TIP3    H117466   0.708   2.678   0.735  0.8873 -0.1327  0.1627
 5820TIP3    H217467   0.601   2.594   0.802  1.0574 -1.7390 -1.5068
 5821TIP3   OH217468   4.423   3.661   1.581 -0.1464 -0.0431  0.1592
 5821TIP3    H117469   4.498   3.717   1.559 -0.4547  0.0947 -0.5553
 5821TIP3    H217470   4.459   3.596   1.641  0.5851 -0.0869 -0.3173
 5822TIP3   OH217471   2.535   5.462   3.963  0.5233  0.2160 -0.2312
 5822TIP3    H117472   2.572   5.453   4.051 -0.1347  1.0097  0.1408
 5822TIP3    H217473   2.610   5.477   3.906  0.8313  1.2822  0.4316
 5823TIP3   OH217474   5.894   2.017   4.513  0.2269  0.1646 -0.8264
 5823TIP3    H117475   5.812   2.064   4.527 -0.0792  0.0155 -1.9956
 5823TIP3    H217476   5.943   2.071   4.451  1.4191  0.6928  0.5228
 5824TIP3   OH217477   6.023   5.836   0.118 -0.0565  0.0841  0.3528
 5824TIP3    H117478   6.052   5.821   0.208 -1.2979 -1.5144  0.5290
 5824TIP3    H217479   5.981   5.754   0.093  0.7189  0.3091 -1.8848
 5825TIP3   OH217480   5.070   3.361   5.130 -0.0777  0.2475 -0.2334
 5825TIP3    H117481   5.012   3.390   5.200  0.2796  1.1002 -0.2651
 5825TIP3    H217482   5.158   3.373   5.167  0.1525 -3.0413  0.6293
 5826TIP3   OH217483   4.070   4.763   0.201  0.0183 -0.9049 -0.2326
 5826TIP3    H117484   4.107   4.847   0.174 -2.3849  0.0795 -0.6598
 5826TIP3    H217485   4.141   4.720   0.249  0.8426  2.0488  1.4138
 5827TIP3   OH217486   0.727   2.955   0.922 -0.1375 -0.1807  0.2954
 5827TIP3    H117487   0.730   3.050   0.911  0.5415  0.0511  2.1560
 5827TIP3    H217488   0.636   2.931   0.902 -0.9828  1.2275  2.2215
 5828TIP3   OH217489   1.933   3.186   2.015 -0.1523 -0.0911  0.3537
 5828TIP3    H117490   2.017   3.183   1.967 -0.5935 -2.6147 -0.4323
 5828TIP3    H217491   1.873   3.230   1.955 -0.0536 -0.8570 -0.3287
 5829TIP3   OH217492   0.755   3.877   4.192  0.8538  0.3496 -0.5565
 5829TIP3    H117493   0.797   3.822   4.126 -3.5639 -2.2082 -1.6325
 5829TIP3    H217494   0.741   3.961   4.149  1.2273 -0.1142 -1.5957
 5830TIP3   OH217495   1.694   0.429   0.001 -0.1957  0.8363 -0.2453
 5830TIP3    H117496   1.754   0.419   0.075 -2.0244  0.0693  1.1881
 5830TIP3    H217497   1.735   0.378  -0.069 -0.2030 -1.5694  1.3767
 5831TIP3   OH217498   4.924   3.103   3.643  0.3721  0.2863 -1.0791
 5831TIP3    H117499   4.873   3.089   3.562 -1.1724  1.7321 -0.4308
 5831TIP3    H217500   4.939   3.197   3.645 -1.8619  0.7240  1.5100
 5832TIP3   OH217501   2.088   5.014   2.345 -0.0123  0.2744 -0.4287
 5832TIP3    H117502   2.160   5.061   2.386  0.5958 -3.0132  2.7941
 5832TIP3    H217503   2.013   5.029   2.403  0.0294 -1.9790  0.3136
 5833TIP3   OH217504   0.538   3.718   2.330 -0.4215 -0.6641 -0.0956
 5833TIP3    H117505   0.563   3.762   2.249 -0.1167 -0.7245 -0.0345
 5833TIP3    H217506   0.487   3.784   2.378 -0.5542 -0.6098 -0.3081
 5834TIP3   OH217507   0.371   1.088   4.701 -0.4251  0.0639 -0.5320
 5834TIP3    H117508   0.353   1.149   4.631 -0.2323 -0.1839 -0.7990
 5834TIP3    H217509   0.392   1.005   4.657 -0.8296 -0.2335 -0.1753
 5835TIP3   OH217510   5.938   3.295   3.061 -0.6556  0.7111  0.6893
 5835TIP3    H117511   5.941   3.200   3.056  0.2767  0.7943 -0.8247
 5835TIP3    H217512   5.851   3.317   3.026  0.0042  0.5003 -1.1695
 5836TIP3   OH217513   5.461   0.934   4.592  0.6182  0.7387 -0.1783
 5836TIP3    H117514   5.390   0.876   4.617  1.5733 -0.4232 -0.0554
 5836TIP3    H217515   5.444   1.016   4.638  0.3670 -0.1370  1.3391
 5837TIP3   OH217516   4.367   3.876   1.303  0.3190  0.0047  0.4564
 5837TIP3    H117517   4.397   3.879   1.394 -2.6553 -0.7132  1.5779
 5837TIP3    H217518   4.280   3.837   1.308 -0.3982  0.9644 -2.6091
 5838TIP3   OH217519   5.117   2.270   4.367  0.1033 -0.3712  0.5012
 5838TIP3    H117520   5.169   2.205   4.318  0.3114  0.4189 -0.3466
 5838TIP3    H217521   5.073   2.218   4.435  0.4263 -1.3710 -0.0236
 5839TIP3   OH217522   3.155   0.338   4.766 -0.1938 -0.5064 -0.0339
 5839TIP3    H117523   3.099   0.400   4.813  0.6949 -0.3802  0.9064
 5839TIP3    H217524   3.237   0.385   4.751  0.3658 -1.3138  0.3697
 5840TIP3   OH217525   5.988   3.550   3.868 -0.2022  0.3345 -0.0048
 5840TIP3    H117526   5.918   3.606   3.835  0.8471  1.3092 -0.6146
 5840TIP3    H217527   5.952   3.461   3.862 -1.1863  0.7663 -0.8040
 5841TIP3   OH217528   5.157   2.859   4.503  0.3064 -0.2646  0.5872
 5841TIP3    H117529   5.200   2.934   4.543 -1.4939  0.3800  1.4065
 5841TIP3    H217530   5.127   2.806   4.577  1.6298 -1.9088  0.0382
 5842TIP3   OH217531   0.652   4.896   5.156 -0.5120  0.0537 -0.1602
 5842TIP3    H117532   0.619   4.923   5.070 -0.3932 -0.6821 -0.4450
 5842TIP3    H217533   0.583   4.924   5.217 -1.3836 -0.8746 -0.6802
 5843TIP3   OH217534   2.018   3.415   2.767 -0.2881  0.3251  0.1869
 5843TIP3    H117535   2.023   3.491   2.708  0.4653  2.2805  2.6229
 5843TIP3    H217536   2.064   3.346   2.720 -2.2821  0.7995 -2.7904
 5844TIP3   OH217537   1.762   0.623   1.957 -0.4651  0.4732  0.7330
 5844TIP3    H117538   1.759   0.704   1.905 -0.3399  0.2131  0.3157
 5844TIP3    H217539   1.731   0.649   2.043 -1.8405  0.6668  0.2019
 5845TIP3   OH217540   2.554   5.178   2.820 -0.6271  0.3715 -0.2553
 5845TIP3    H117541   2.542   5.110   2.754  0.5966 -0.5337  0.3897
 5845TIP3    H217542   2.623   5.234   2.785 -0.6344  0.4389 -0.1632
 5846TIP3   OH217543   2.991   5.938   4.291  0.1546 -0.0959  0.3022
 5846TIP3    H117544   3.038   5.866   4.249  0.3674  0.9273 -1.3072
 5846TIP3    H217545   2.940   5.978   4.221 -0.3080  1.0474  1.2522
 5847TIP3   OH217546   2.119   3.462   3.571 -0.2420  0.1680 -0.0832
 5847TIP3    H117547   2.212   3.459   3.595 -0.4245  0.6303  0.6825
 5847TIP3    H217548   2.120   3.457   3.475  0.6804  2.1308 -0.2173
 5848TIP3   OH217549   5.168   0.980   0.573  0.2885  0.0109  0.5209
 5848TIP3    H117550   5.157   1.069   0.607 -0.5269  0.4189 -0.7492
 5848TIP3    H217551   5.097   0.970   0.510  0.3848 -1.5505  0.6358
 5849TIP3   OH217552   2.908   1.112   1.083  0.7544 -0.1362 -0.1664
 5849TIP3    H117553   2.885   1.081   0.995 -0.7428 -0.6130  0.3633
 5849TIP3    H217554   2.837   1.171   1.107  1.1010 -0.0909  0.7798
 5850TIP3   OH217555   3.527   5.391   2.455 -0.5795  0.1361 -0.3659
 5850TIP3    H117556   3.431   5.392   2.451 -0.5721  0.1179 -0.5381
 5850TIP3    H217557   3.547   5.424   2.542 -0.7880 -1.1156  0.1771
 5851TIP3   OH217558   4.190   1.087   1.541  0.4744 -0.1400  0.5403
 5851TIP3    H117559   4.256   1.071   1.474  0.6429  0.4503  0.5670
 5851TIP3    H217560   4.222   1.162   1.590 -0.5081  0.5425  0.1730
 5852TIP3   OH217561   1.361   2.232   1.399 -0.2661 -0.3099 -0.3836
 5852TIP3    H117562   1.295   2.165   1.383 -0.4296 -0.7944  1.9646
 5852TIP3    H217563   1.406   2.203   1.479  0.5093  1.7153 -0.0286
 5853TIP3   OH217564   0.216   3.992   0.993  0.3824 -0.2541 -0.0539
 5853TIP3    H117565   0.256   3.999   0.906 -2.0593 -1.4442 -1.3510
 5853TIP3    H217566   0.188   4.081   1.014  1.8973  0.2329  0.0208
 5854TIP3   OH217567   1.291   1.156   3.283 -0.4574 -0.0535 -0.4974
 5854TIP3    H117568   1.215   1.098   3.281  0.4708 -1.3193 -1.1536
 5854TIP3    H217569   1.341   1.127   3.360  0.4247 -0.7179 -1.2965
 5855TIP3   OH217570   0.479   0.646   1.837 -0.3162 -0.2141  0.1021
 5855TIP3    H117571   0.487   0.571   1.895 -1.7837 -0.0547  0.5380
 5855TIP3    H217572   0.486   0.609   1.749 -0.0240 -0.7115  0.3298
 5856TIP3   OH217573   5.671   5.295   3.985  0.2825 -0.9026 -0.3017
 5856TIP3    H117574   5.597   5.241   4.014 -0.3044  0.6479  1.1839
 5856TIP3    H217575   5.654   5.382   4.021  2.3062 -0.2382 -0.8195
 5857TIP3   OH217576   2.873   2.155   5.060 -0.0899  0.9651 -0.5512
 5857TIP3    H117577   2.945   2.094   5.044 -0.9381  0.2268 -1.7090
 5857TIP3    H217578   2.916   2.238   5.082  1.1714  0.9704 -2.7324
 5858TIP3   OH217579   5.629   1.994   3.210  0.0426  0.1180  0.4874
 5858TIP3    H117580   5.686   1.918   3.199  1.4175  0.8723  1.9269
 5858TIP3    H217581   5.616   2.001   3.305 -0.5521  1.3132  0.3432
 5859TIP3   OH217582   4.748   2.428   3.867  0.3772  0.1391 -0.7797
 5859TIP3    H117583   4.654   2.422   3.853  0.4177  0.3893 -1.1810
 5859TIP3    H217584   4.768   2.521   3.863  0.3734  0.2584  1.1972
 5860TIP3   OH217585   0.500   5.308   0.133 -0.3733 -0.3962  0.2247
 5860TIP3    H117586   0.442   5.332   0.205 -1.1126 -0.2726 -0.4016
 5860TIP3    H217587   0.579   5.360   0.147 -0.2884 -0.7754  1.2458
 5861TIP3   OH217588   2.769   3.154   0.466 -0.2489 -0.2658 -0.0772
 5861TIP3    H117589   2.818   3.193   0.539  0.6740 -0.0927 -0.7745
 5861TIP3    H217590   2.695   3.214   0.452 -0.9003 -0.7121  1.2067
 5862TIP3   OH217591   2.399   0.831   0.242  0.2095  0.1434  0.6452
 5862TIP3    H117592   2.392   0.909   0.187 -1.3350 -0.8453 -0.6767
 5862TIP3    H217593   2.335   0.844   0.312 -0.0223  0.0934  0.4447
 5863TIP3   OH217594   0.860   3.885   2.611 -0.8017  0.1259  0.2249
 5863TIP3    H117595   0.846   3.967   2.564 -1.1326 -0.5703 -0.9228
 5863TIP3    H217596   0.926   3.839   2.560 -0.1240 -0.0557  1.2326
 5864TIP3   OH217597   1.746   1.713   1.015 -0.0163  0.1753 -0.5848
 5864TIP3    H117598   1.809   1.643   1.031  0.3107  0.5845 -0.0256
 5864TIP3    H217599   1.705   1.690   0.932 -1.2494 -1.6781  0.4410
 5865TIP3   OH217600   5.075   2.176   2.901  0.2392  0.6253 -0.0355
 5865TIP3    H117601   5.155   2.130   2.874  0.2229 -0.1750  1.1661
 5865TIP3    H217602   5.017   2.170   2.825  0.8979  0.2068 -0.5203
 5866TIP3   OH217603   4.812   2.779   1.632  0.5716 -0.6295  0.0417
 5866TIP3    H117604   4.892   2.808   1.676 -0.9911  4.6446  0.0761
 5866TIP3    H217605   4.824   2.804   1.540 -0.3292 -1.6539 -0.3882
 5867TIP3   OH217606   4.558   4.660   5.207 -0.3976 -0.8340  0.0125
 5867TIP3    H117607   4.496   4.633   5.139 -0.5312 -0.5423  0.0155
 5867TIP3    H217608   4.624   4.710   5.160 -1.0666  0.2933  0.2417
 5868TIP3   OH217609   6.164   1.970   4.195 -0.9893  0.1224 -0.6016
 5868TIP3    H117610   6.181   2.021   4.274 -0.1462 -1.1792  0.0881
 5868TIP3    H217611   6.198   2.025   4.124  0.4979  0.2889  0.1865
 5869TIP3   OH217612   2.340   2.170   1.714 -0.3086  0.0022  0.3909
 5869TIP3    H117613   2.420   2.161   1.765 -0.2222  1.1322  0.4871
 5869TIP3    H217614   2.343   2.260   1.680 -2.2886  0.6464  1.7398
 5870TIP3   OH217615   0.802   2.710   2.312  0.0785  0.5588  0.0247
 5870TIP3    H117616   0.787   2.800   2.340  0.8437  0.9608 -0.7781
 5870TIP3    H217617   0.895   2.695   2.329  0.0850  0.1226 -0.3779
 5871TIP3   OH217618   0.027   1.302   0.995 -0.0111 -0.0702  0.2481
 5871TIP3    H117619   0.099   1.257   0.950  0.4540  0.3116  0.6023
 5871TIP3    H217620  -0.051   1.252   0.971  0.1639  0.3537 -1.3081
 5872TIP3   OH217621   0.465   3.040   1.607  1.2225  0.0455  0.7558
 5872TIP3    H117622   0.535   3.101   1.627  1.4751  0.1290 -0.3308
 5872TIP3    H217623   0.385   3.092   1.614  1.3774  0.2998  0.6421
 5873TIP3   OH217624   6.337   0.003   2.118  0.6936  0.2979  0.6146
 5873TIP3    H117625   6.263  -0.053   2.098  0.1130  0.5478  1.9049
 5873TIP3    H217626   6.312   0.090   2.086  1.0483  0.0937 -0.2332
 5874TIP3   OH217627   5.220   4.990   5.008 -0.5368 -0.8242  0.5595
 5874TIP3    H117628   5.311   5.013   4.989 -0.8014 -0.7536 -0.7495
 5874TIP3    H217629   5.183   5.068   5.048 -0.5688 -0.0818 -0.8636
 5875TIP3   OH217630   2.333   1.638   2.751  0.7154 -0.0213  0.2964
 5875TIP3    H117631   2.348   1.596   2.666 -1.0079 -0.1139 -0.0151
 5875TIP3    H217632   2.381   1.583   2.813  0.5712 -1.0049 -0.4216
 5876TIP3   OH217633   1.258   4.684   5.144 -0.1427 -0.3950 -0.1363
 5876TIP3    H117634   1.288   4.593   5.147 -0.5165 -0.5057  0.4350
 5876TIP3    H217635   1.168   4.678   5.111 -0.5343 -0.3422  0.8679
 5877TIP3   OH217636   6.302   5.708   0.010 -0.5976 -0.4337 -0.1466
 5877TIP3    H117637   6.265   5.645  -0.052 -1.0604 -2.0994  1.7235
 5877TIP3    H217638   6.244   5.704   0.086  0.3012  1.0819  0.6711
 5878TIP3   OH217639   0.373   4.907   1.514  0.0219  0.5426 -0.0265
 5878TIP3    H117640   0.456   4.938   1.479  1.1380  0.4456  2.3199
 5878TIP3    H217641   0.307   4.944   1.456  1.6398  1.3797 -1.4342
 5879TIP3   OH217642   3.473   2.197   0.946  0.0552 -0.8232 -0.0179
 5879TIP3    H117643   3.398   2.162   0.994 -0.4507 -0.7032 -0.7067
 5879TIP3    H217644   3.436   2.267   0.893  0.8071 -0.1967  0.2669
 5880TIP3   OH217645   0.646   3.225   3.597 -0.2791 -0.5897 -0.4585
 5880TIP3    H117646   0.736   3.198   3.615 -0.5705  0.0310  2.5939
 5880TIP3    H217647   0.614   3.160   3.534  1.2723 -2.9479  0.9843
 5881TIP3   OH217648   1.308   4.633   0.249  0.2021  0.1601  0.8073
 5881TIP3    H117649   1.226   4.641   0.201 -0.1070 -0.2914  1.2446
 5881TIP3    H217650   1.304   4.545   0.289  1.4308 -0.3594 -0.1499
 5882TIP3   OH217651   0.800   2.511   1.651  0.2090 -0.2286  0.0169
 5882TIP3    H117652   0.805   2.597   1.694  0.4393 -0.0347 -0.3804
 5882TIP3    H217653   0.846   2.524   1.568 -3.1692  0.4026 -1.9499
 5883TIP3   OH217654   1.355   4.309   1.185 -0.8846 -0.7160 -0.1797
 5883TIP3    H117655   1.366   4.260   1.104 -1.7089  3.3320 -3.0487
 5883TIP3    H217656   1.269   4.351   1.176  0.3305  2.3741  1.2375
 5884TIP3   OH217657   2.501   2.252   1.933  0.6057 -0.0530 -0.5262
 5884TIP3    H117658   2.594   2.271   1.923  0.9562 -1.7767 -0.8317
 5884TIP3    H217659   2.458   2.337   1.920  2.1065  0.7507 -0.5135
 5885TIP3   OH217660   1.657   0.328   4.851 -0.4192 -0.0260  0.0668
 5885TIP3    H117661   1.714   0.389   4.898 -0.1156  0.9694 -1.5245
 5885TIP3    H217662   1.706   0.246   4.848  0.5123  0.5384 -0.4115
 5886TIP3   OH217663   5.009   0.701   3.328 -0.1285  0.2004  0.1631
 5886TIP3    H117664   5.024   0.663   3.242  0.6698 -0.4817  0.5900
 5886TIP3    H217665   4.933   0.759   3.316 -1.7426 -1.9151 -0.4043
 5887TIP3   OH217666   1.954   1.688   1.348 -0.7489 -0.1905  0.5986
 5887TIP3    H117667   1.967   1.690   1.442  0.0951 -0.3654  0.4873
 5887TIP3    H217668   2.039   1.708   1.310 -0.2872 -3.0661 -0.1614
 5888TIP3   OH217669   2.894   1.491   2.383 -0.1628 -0.3486  0.3924
 5888TIP3    H117670   2.881   1.418   2.443 -1.9141 -0.6104 -0.2669
 5888TIP3    H217671   2.913   1.451   2.298 -0.1982 -0.0287  0.2283
 5889TIP3   OH217672   5.018   5.263   3.643 -0.8988  0.5180  0.1609
 5889TIP3    H117673   4.976   5.182   3.618  0.6829 -0.0063 -0.9510
 5889TIP3    H217674   5.023   5.314   3.562 -0.3364  0.9791  0.4755
 5890TIP3   OH217675   4.075   1.036   2.828  0.3084 -0.3635  0.4816
 5890TIP3    H117676   4.110   1.125   2.832 -1.4905  0.3979  0.3977
 5890TIP3    H217677   4.140   0.982   2.873  0.9668  1.1427  1.3966
 5891TIP3   OH217678   0.902   4.114   0.617 -0.1374 -0.0028 -0.1181
 5891TIP3    H117679   0.840   4.184   0.641  2.9202  2.5332  1.1475
 5891TIP3    H217680   0.953   4.151   0.545  0.9903 -1.3144 -0.0289
 5892TIP3   OH217681   2.064   4.966   1.793 -0.6246 -0.3043  0.0365
 5892TIP3    H117682   1.973   4.937   1.793 -0.3630 -1.1875 -0.6403
 5892TIP3    H217683   2.073   5.017   1.713 -0.1373 -1.6061 -0.7811
 5893TIP3   OH217684   0.478   2.393   1.025  0.3587  0.2663 -0.2763
 5893TIP3    H117685   0.453   2.455   0.956 -0.0227  0.4820  0.0578
 5893TIP3    H217686   0.451   2.435   1.106 -1.0066 -0.8792 -0.1165
 5894TIP3   OH217687   3.751   5.108   2.479 -0.1927  0.0220  0.2770
 5894TIP3    H117688   3.842   5.104   2.450 -0.5269 -1.1035 -0.6847
 5894TIP3    H217689   3.725   5.200   2.465  0.6519  0.2410  0.1379
 5895TIP3   OH217690   4.983   4.733   3.382  0.3045 -0.0158 -0.2542
 5895TIP3    H117691   5.059   4.682   3.354 -0.2035 -0.7443 -0.3426
 5895TIP3    H217692   4.910   4.670   3.382  0.0625  0.1967  1.6547
 5896TIP3   OH217693   3.036   0.693   5.064  0.0064  0.5077 -0.2641
 5896TIP3    H117694   3.131   0.710   5.064  0.4307 -1.5234 -0.7719
 5896TIP3    H217695   2.999   0.767   5.016  1.5062  0.6864 -1.2380
 5897TIP3   OH217696   3.624   4.255   1.791  0.0713  0.8337 -0.1640
 5897TIP3    H117697   3.536   4.246   1.826 -0.1242  1.4677 -0.4886
 5897TIP3    H217698   3.641   4.172   1.745 -0.8310  1.1831 -1.1629
 5898TIP3   OH217699   0.325   4.311   3.639 -0.6548  0.0464  0.4363
 5898TIP3    H117700   0.288   4.243   3.582  0.1614 -0.1987  0.1910
 5898TIP3    H217701   0.415   4.321   3.609  1.0878 -2.7333  3.9583
 5899TIP3   OH217702   5.277   0.694   2.589  0.2567 -0.1455  0.1525
 5899TIP3    H117703   5.317   0.637   2.523 -1.2443 -1.9433  0.6852
 5899TIP3    H217704   5.196   0.725   2.547  0.9942  1.5932 -0.0859
 5900TIP3   OH217705   2.523   3.622   0.115 -0.1026 -0.3305 -0.1745
 5900TIP3    H117706   2.583   3.658   0.181 -0.3171  0.8564 -0.6089
 5900TIP3    H217707   2.519   3.688   0.047  0.5491 -1.7876 -1.6836
 5901TIP3   OH217708   4.068   4.302   3.117  0.1361 -0.0666 -0.1059
 5901TIP3    H117709   4.067   4.249   3.197  1.8390  1.2588  0.8500
 5901TIP3    H217710   3.988   4.277   3.071 -0.5797 -1.3116  1.7127
 5902TIP3   OH217711   4.634   4.694   1.429 -0.3158 -0.0407 -0.5883
 5902TIP3    H117712   4.700   4.762   1.418 -1.0671  0.4895 -2.1589
 5902TIP3    H217713   4.640   4.669   1.521  0.2591  1.8625 -0.0712
 5903TIP3   OH217714   2.767   1.488   4.146  0.7759  0.0909  0.2066
 5903TIP3    H117715   2.709   1.421   4.181  0.0366  0.7235  0.2260
 5903TIP3    H217716   2.797   1.537   4.222  0.4975  0.4192  0.1090
 5904TIP3   OH217717   2.545   2.776   3.950 -0.0678  0.5000  0.1058
 5904TIP3    H117718   2.475   2.771   3.884 -1.7382  1.4388  1.7008
 5904TIP3    H217719   2.572   2.686   3.963 -0.3072  0.2106 -1.2471
 5905TIP3   OH217720   1.424   2.050   4.074 -0.3495  0.2846 -0.0304
 5905TIP3    H117721   1.431   1.956   4.063  2.3863  0.2764  0.9908
 5905TIP3    H217722   1.353   2.076   4.015  0.7675 -2.0032 -2.5992
 5906TIP3   OH217723   0.613   5.784   4.746 -0.5147 -0.6568 -0.0582
 5906TIP3    H117724   0.690   5.837   4.768 -1.0985  0.5405 -0.7816
 5906TIP3    H217725   0.538   5.838   4.771 -1.1369 -0.9758 -1.1266
 5907TIP3   OH217726   3.052   5.772   2.501  0.4260 -0.1181  0.5238
 5907TIP3    H117727   3.130   5.794   2.551  0.2945 -0.5401  0.9258
 5907TIP3    H217728   2.979   5.794   2.559  0.2882 -1.3201  0.8289
 5908TIP3   OH217729   1.691   2.570   3.160 -0.1482 -0.4253  0.3940
 5908TIP3    H117730   1.719   2.496   3.214 -0.9121 -1.0997 -0.1090
 5908TIP3    H217731   1.614   2.605   3.205 -0.0353 -0.1972  0.4095
 5909TIP3   OH217732   6.078   1.310   2.041  0.4824 -0.2468 -0.3029
 5909TIP3    H117733   6.107   1.349   1.958  4.4162 -0.1333  0.8966
 5909TIP3    H217734   6.102   1.217   2.033  1.1690 -0.1779  0.7589
 5910TIP3   OH217735   0.789   3.171   2.209  0.2073  0.0949  0.3526
 5910TIP3    H117736   0.773   3.111   2.282 -0.4787 -0.4351 -0.2066
 5910TIP3    H217737   0.813   3.254   2.250 -1.5240  0.2125  1.2288
 5911TIP3   OH217738   4.124   3.809   2.779 -0.0678  0.2094  0.3553
 5911TIP3    H117739   4.154   3.722   2.804 -0.3089  0.0335  0.0253
 5911TIP3    H217740   4.101   3.851   2.862  0.8761  0.2712  0.6038
 5912TIP3   OH217741   3.201   2.481   2.024 -0.1907 -0.0482 -0.3422
 5912TIP3    H117742   3.162   2.412   1.971 -1.1862  1.1502 -1.2500
 5912TIP3    H217743   3.159   2.474   2.109  0.2188 -0.9759 -0.2127
 5913TIP3   OH217744   0.419   4.488   0.934 -0.2071 -0.2065  0.2054
 5913TIP3    H117745   0.477   4.481   1.009  0.4351 -1.1580 -0.3541
 5913TIP3    H217746   0.346   4.431   0.954 -0.7864  0.7133  0.7540
 5914TIP3   OH217747   4.906   3.527   3.667  0.0209 -0.7953  1.0441
 5914TIP3    H117748   4.843   3.597   3.684  0.9322 -0.0333  1.3960
 5914TIP3    H217749   4.887   3.461   3.734 -0.9240 -0.9583  0.6360
 5915TIP3   OH217750   4.529   1.058   2.903  0.9995 -0.1003  0.4529
 5915TIP3    H117751   4.610   1.066   2.955  0.6803  1.5905  0.7505
 5915TIP3    H217752   4.560   1.041   2.814  1.7349  1.0833  0.4584
 5916TIP3   OH217753   0.461   2.149   4.615 -0.8767  0.0361  0.4467
 5916TIP3    H117754   0.392   2.196   4.663 -0.8837  1.2909 -0.7283
 5916TIP3    H217755   0.534   2.144   4.676 -1.7161 -0.6185  1.4369
 5917TIP3   OH217756   5.682   4.896   0.353  0.1989 -0.0829 -0.3114
 5917TIP3    H117757   5.625   4.973   0.352 -0.2155 -0.3217  1.4368
 5917TIP3    H217758   5.689   4.871   0.261 -0.6997  1.2767 -0.7914
 5918TIP3   OH217759   0.184   2.794   0.849 -0.5544 -0.0173 -0.5183
 5918TIP3    H117760   0.220   2.772   0.763  0.7576  1.7732 -0.4869
 5918TIP3    H217761   0.198   2.715   0.902  1.1391 -0.2114 -1.2031
 5919TIP3   OH217762   0.789   1.559   1.190 -0.0957 -0.6357 -0.1891
 5919TIP3    H117763   0.849   1.495   1.227  0.0461 -1.2589 -1.4833
 5919TIP3    H217764   0.736   1.587   1.265  0.2290 -1.8177  0.5071
 5920TIP3   OH217765   4.746   1.261   3.760  0.0445  0.0793  0.3148
 5920TIP3    H117766   4.745   1.332   3.824 -2.0072 -0.2163  0.6905
 5920TIP3    H217767   4.769   1.183   3.810 -2.1583 -0.2636  0.9254
 5921TIP3   OH217768   4.261   1.505   0.597 -0.6424  0.5204  0.0088
 5921TIP3    H117769   4.281   1.437   0.662  0.5834  3.0251  2.4515
 5921TIP3    H217770   4.320   1.487   0.524  0.4230 -0.4143  1.0634
 5922TIP3   OH217771   5.479   4.695   1.773  0.0413  0.2326 -0.4735
 5922TIP3    H117772   5.550   4.697   1.708  0.5475  0.5398  0.0877
 5922TIP3    H217773   5.522   4.673   1.855 -0.7210 -1.0130 -0.3846
 5923TIP3   OH217774   3.082   0.112   1.242  0.1223  0.7017 -0.1728
 5923TIP3    H117775   3.046   0.183   1.296 -0.1341  0.3713  0.0915
 5923TIP3    H217776   3.017   0.043   1.246  0.0469  0.7109 -1.0082
 5924TIP3   OH217777   1.641   4.130   0.346 -0.2153 -0.2204  0.1560
 5924TIP3    H117778   1.714   4.087   0.301  0.1476  1.7266 -1.2239
 5924TIP3    H217779   1.682   4.173   0.421  0.0830  0.8294 -0.5890
 5925TIP3   OH217780   0.241   5.269   2.097  0.1521  0.3816 -0.2513
 5925TIP3    H117781   0.263   5.191   2.045  1.5288 -0.2858  1.2292
 5925TIP3    H217782   0.146   5.277   2.090  0.3701  1.3832 -4.2621
 5926TIP3   OH217783   5.437   0.526   3.552  0.7466 -0.0306 -0.3956
 5926TIP3    H117784   5.432   0.431   3.548  1.9330 -0.0548 -2.3428
 5926TIP3    H217785   5.528   0.545   3.573  1.1063  0.6541 -2.3600
 5927TIP3   OH217786   1.337   5.379   4.485  0.4379  0.0776  0.5315
 5927TIP3    H117787   1.423   5.416   4.461  0.2017 -0.8123 -2.0256
 5927TIP3    H217788   1.356   5.324   4.561  2.1928 -0.2253 -0.0610
 5928TIP3   OH217789   5.996   0.822   2.264 -0.8575 -0.5079 -0.4683
 5928TIP3    H117790   6.078   0.873   2.264 -1.3792  0.3548 -0.6032
 5928TIP3    H217791   5.979   0.805   2.357 -1.3364  0.6877 -0.3101
 5929TIP3   OH217792   2.130   4.170   2.456 -0.1421 -0.3796 -0.3505
 5929TIP3    H117793   2.100   4.140   2.370 -0.5550  0.3363 -0.4672
 5929TIP3    H217794   2.201   4.231   2.436 -0.3866 -0.0417 -0.1983
 5930TIP3   OH217795   2.205   1.870   4.328 -0.1475  0.4377 -0.4194
 5930TIP3    H117796   2.235   1.805   4.266 -0.0416  0.4000 -0.3287
 5930TIP3    H217797   2.145   1.926   4.278 -1.2279 -0.4831 -0.1900
 5931TIP3   OH217798   5.310   0.751   1.563 -0.4384 -0.2364  0.2764
 5931TIP3    H117799   5.249   0.688   1.602  0.6693 -1.8003 -0.4349
 5931TIP3    H217800   5.363   0.782   1.636 -0.1709 -1.0877  0.4492
 5932TIP3   OH217801   0.771   3.321   4.916  0.2240 -0.1839  0.1259
 5932TIP3    H117802   0.801   3.299   5.005 -0.9502  2.5038  1.3016
 5932TIP3    H217803   0.841   3.290   4.859  1.7153 -0.6996  2.1103
 5933TIP3   OH217804   6.208   3.854   3.207  0.4466  0.2331  0.0543
 5933TIP3    H117805   6.280   3.793   3.192  0.4691  0.0808  0.7638
 5933TIP3    H217806   6.180   3.879   3.119  1.8553  0.8860 -0.2293
 5934TIP3   OH217807   1.482   4.081   0.789 -0.1889  0.0493 -0.8094
 5934TIP3    H117808   1.561   4.128   0.762  1.2921 -2.8443 -2.0189
 5934TIP3    H217809   1.513   3.993   0.810 -2.7448 -0.4351  1.4479
 5935TIP3   OH217810   2.430   3.984   2.343  0.4801  0.5216  0.3227
 5935TIP3    H117811   2.519   4.016   2.361  0.8968  0.3535 -1.2717
 5935TIP3    H217812   2.422   3.987   2.247 -0.9699 -0.1757  0.3893
 5936TIP3   OH217813   0.239   0.586   4.854 -0.2456 -0.2458  0.4070
 5936TIP3    H117814   0.156   0.634   4.860  0.1996  0.4913  0.8085
 5936TIP3    H217815   0.291   0.617   4.928  0.8562  0.2008 -0.5197
 5937TIP3   OH217816   5.018   3.349   3.965 -0.2855 -0.0615 -0.5151
 5937TIP3    H117817   5.087   3.403   3.928 -0.6175 -0.1591 -1.2865
 5937TIP3    H217818   5.034   3.261   3.930  0.2831 -0.4957  0.7725
 5938TIP3   OH217819   4.278   3.026   0.071  0.0598  0.0913  0.2273
 5938TIP3    H117820   4.295   2.933   0.083 -0.4643  0.2041  2.2072
 5938TIP3    H217821   4.348   3.056   0.013  2.2469 -0.8974  2.1924
 5939TIP3   OH217822   1.269   5.266   1.354  0.7977 -0.5918  0.3308
 5939TIP3    H117823   1.227   5.205   1.293  2.8675  0.0764 -1.9140
 5939TIP3    H217824   1.246   5.353   1.320  1.1034 -0.1640  1.1865
 5940TIP3   OH217825   1.472   2.770   0.374  0.5367  0.1162  0.0617
 5940TIP3    H117826   1.493   2.678   0.354  0.0229  0.0447 -0.1576
 5940TIP3    H217827   1.451   2.808   0.289 -0.5272  0.1072  0.3078
 5941TIP3   OH217828   3.925   1.866   1.806  0.5915  0.3244 -1.0975
 5941TIP3    H117829   4.010   1.905   1.828 -0.4325  1.4599  1.1857
 5941TIP3    H217830   3.876   1.938   1.764 -0.3522  0.7299  0.6297
 5942TIP3   OH217831   4.947   1.927   2.031 -0.2735 -0.0926 -0.7789
 5942TIP3    H117832   4.957   1.912   2.125 -1.3853 -1.2304 -0.8142
 5942TIP3    H217833   4.980   2.015   2.017 -0.4370  0.2384  0.7488
 5943TIP3   OH217834   3.687   2.572   1.568 -0.2031  0.2317  0.1176
 5943TIP3    H117835   3.761   2.512   1.556  1.1922  1.4888  1.8317
 5943TIP3    H217836   3.686   2.625   1.488 -0.4607 -0.9814 -0.7221
 5944TIP3   OH217837   4.755   1.731   5.105 -0.0624  0.8591  0.1294
 5944TIP3    H117838   4.806   1.649   5.106 -1.8928 -0.3336  0.9406
 5944TIP3    H217839   4.739   1.750   5.197 -1.2067  1.1238 -0.1131
 5945TIP3   OH217840   1.368   0.875   2.326  0.7534 -0.3274 -0.6524
 5945TIP3    H117841   1.390   0.906   2.239  0.0582 -1.3663 -1.2170
 5945TIP3    H217842   1.372   0.779   2.320 -2.6151 -0.6056 -0.5320
 5946TIP3   OH217843   3.181   4.335   3.929  0.6101  0.4324 -0.1191
 5946TIP3    H117844   3.191   4.250   3.886 -0.8620  0.1474  0.0349
 5946TIP3    H217845   3.239   4.330   4.006  0.3748 -0.5285  0.0094
 5947TIP3   OH217846   4.445   0.774   4.604 -0.1243 -0.5752 -0.1514
 5947TIP3    H117847   4.405   0.788   4.518  1.5296 -1.6716 -1.1638
 5947TIP3    H217848   4.489   0.857   4.623 -1.0977 -0.0777  0.0073
 5948TIP3   OH217849   0.193   0.808   0.196  0.1387  0.2078 -0.7540
 5948TIP3    H117850   0.280   0.804   0.156 -0.2169 -0.6351 -1.4707
 5948TIP3    H217851   0.206   0.776   0.286  0.4237 -0.7299 -1.1202
 5949TIP3   OH217852   3.679   2.260   3.543  0.1472 -0.0298  0.4037
 5949TIP3    H117853   3.698   2.227   3.455 -3.4534 -0.9541 -0.1783
 5949TIP3    H217854   3.671   2.181   3.597  1.7092  0.5004  1.4680
 5950TIP3   OH217855   0.053   5.292   0.075  0.0144  0.1304  0.4052
 5950TIP3    H117856   0.115   5.351   0.033  1.2088 -0.9505  0.5776
 5950TIP3    H217857  -0.015   5.349   0.110  1.0258  1.3793  0.3915
 5951TIP3   OH217858   4.445   0.950   4.942  0.4133  0.2423 -0.2514
 5951TIP3    H117859   4.381   0.962   4.872  0.4200 -0.8638 -0.4653
 5951TIP3    H217860   4.398   0.901   5.009  0.5224  0.9640  0.3579
 5952TIP3   OH217861   5.060   4.356   1.880  0.1316 -0.2999  0.4716
 5952TIP3    H117862   5.026   4.414   1.949  0.2907 -0.0021  0.2981
 5952TIP3    H217863   5.129   4.305   1.924  0.7040  0.3700  0.3621
 5953TIP3   OH217864   4.359   5.367   0.450 -1.3036  0.1506 -0.4766
 5953TIP3    H117865   4.418   5.323   0.388 -0.4446  0.7596 -0.1213
 5953TIP3    H217866   4.294   5.410   0.396 -0.5966  0.6303 -0.9707
 5954TIP3   OH217867   6.293   2.746   2.928 -0.1285  0.3881 -0.5644
 5954TIP3    H117868   6.248   2.720   3.008  1.0996  0.6482  0.2310
 5954TIP3    H217869   6.256   2.689   2.860 -0.4637 -0.5216  0.3627
 5955TIP3   OH217870   2.388   3.487   3.551  0.3528 -0.5678  0.4018
 5955TIP3    H117871   2.432   3.538   3.483 -0.7135 -0.2813 -0.0954
 5955TIP3    H217872   2.414   3.397   3.534 -0.4425 -0.5814 -0.8214
 5956TIP3   OH217873   5.497   1.701   1.211  0.2054 -0.5323 -0.5879
 5956TIP3    H117874   5.588   1.680   1.230 -0.0454 -0.3091  0.9645
 5956TIP3    H217875   5.474   1.769   1.274 -0.0552  1.9581 -3.1353
 5957TIP3   OH217876   4.116   1.139   4.977 -0.2776 -0.2819 -0.2686
 5957TIP3    H117877   4.094   1.232   4.975  3.0458  0.6313 -0.9720
 5957TIP3    H217878   4.170   1.129   5.056 -0.6002 -1.6564 -0.1885
 5958TIP3   OH217879   3.629   5.771   0.878  0.6715 -0.9170  0.0728
 5958TIP3    H117880   3.636   5.855   0.833 -0.9106  0.5836  2.3843
 5958TIP3    H217881   3.648   5.792   0.970 -0.0188 -3.0439  0.7529
 5959TIP3   OH217882   0.370   2.535   1.257  0.1776 -0.0395 -0.2651
 5959TIP3    H117883   0.433   2.537   1.329 -0.8829 -0.0784  0.6821
 5959TIP3    H217884   0.319   2.616   1.268 -3.6293 -2.4593  2.4221
 5960TIP3   OH217885   0.932   0.838   2.227  0.1272 -0.2201 -0.0269
 5960TIP3    H117886   0.856   0.805   2.180  0.7403 -2.1076  0.1820
 5960TIP3    H217887   1.002   0.776   2.205  1.5552  1.3396 -0.0543
 5961TIP3   OH217888   4.403   3.222   1.074 -0.5033  0.0321  0.6283
 5961TIP3    H117889   4.436   3.248   0.988 -1.4761  1.2522  0.6018
 5961TIP3    H217890   4.315   3.260   1.079  1.0471  3.8762  3.8608
 5962TIP3   OH217891   3.178   0.158   3.642 -0.2113 -0.2013  0.8327
 5962TIP3    H117892   3.217   0.227   3.695  1.1705 -0.4673  0.2033
 5962TIP3    H217893   3.114   0.203   3.587  2.2257  1.0740 -1.1992
 5963TIP3   OH217894   2.081   1.570   4.569  0.1133 -0.2003  0.2627
 5963TIP3    H117895   2.034   1.554   4.650  1.9222 -0.1431  1.3673
 5963TIP3    H217896   2.070   1.489   4.518 -1.2365 -0.1415  0.4157
 5964TIP3   OH217897   6.139   1.343   3.647  0.1220 -0.2000 -0.0960
 5964TIP3    H117898   6.209   1.302   3.698 -0.4170  0.8662  1.5731
 5964TIP3    H217899   6.152   1.437   3.660 -1.1554  0.0362 -0.4261
 5965TIP3   OH217900   6.288   4.743   4.711  0.3004  0.7121  0.4740
 5965TIP3    H117901   6.353   4.702   4.654 -0.0347  0.9521 -0.0905
 5965TIP3    H217902   6.258   4.672   4.767 -0.7422 -0.0007 -0.9281
 5966TIP3   OH217903   2.187   4.238   0.728 -0.2188 -0.0299  0.1176
 5966TIP3    H117904   2.127   4.192   0.786  0.4812 -0.2057  0.7164
 5966TIP3    H217905   2.145   4.323   0.714 -0.8247 -0.3182  0.1633
 5967TIP3   OH217906   1.825   5.258   1.929  0.4529 -0.0585  0.2139
 5967TIP3    H117907   1.796   5.167   1.923  1.0582 -0.1460 -3.3432
 5967TIP3    H217908   1.772   5.296   2.000 -0.3312 -2.9353  1.2936
 5968TIP3   OH217909   3.591   2.054   3.739 -0.4261  0.0712 -0.5362
 5968TIP3    H117910   3.505   2.091   3.754 -0.3391  0.0433  0.0430
 5968TIP3    H217911   3.574   1.964   3.711 -0.5619 -0.1751  0.3312
 5969TIP3   OH217912   4.008   4.081   1.999 -0.2124  0.1984 -0.6150
 5969TIP3    H117913   3.975   4.164   2.033 -1.1164 -0.1466 -0.6353
 5969TIP3    H217914   4.098   4.077   2.032 -0.7745  0.2797  1.0720
 5970TIP3   OH217915   1.115   4.734   3.522 -0.2171  0.6187  0.2990
 5970TIP3    H117916   1.035   4.733   3.469 -1.2559 -1.8524  1.7542
 5970TIP3    H217917   1.134   4.642   3.539  2.9650  1.1242  0.0586
 5971TIP3   OH217918   1.349   2.589   0.648  0.0986 -0.2510 -0.2161
 5971TIP3    H117919   1.337   2.551   0.735 -0.3239 -1.1257 -0.6475
 5971TIP3    H217920   1.260   2.593   0.611  0.2290  0.4533 -0.4750
 5972TIP3   OH217921   0.838   1.210   0.628  0.3654  0.1331 -0.7897
 5972TIP3    H117922   0.748   1.237   0.609 -0.4259  1.3101  3.6248
 5972TIP3    H217923   0.889   1.291   0.627  0.8745 -0.1802 -0.8361
 5973TIP3   OH217924   4.045   3.649   2.093 -0.3225  0.6939  0.0489
 5973TIP3    H117925   4.077   3.594   2.021 -0.2084  2.3840 -1.2484
 5973TIP3    H217926   3.994   3.589   2.148 -0.2782 -0.6962 -1.3505
 5974TIP3   OH217927   0.973   4.513   4.734 -0.2483  0.0955  0.6048
 5974TIP3    H117928   0.954   4.510   4.828 -0.9872 -0.5401  0.4321
 5974TIP3    H217929   0.891   4.492   4.691  0.5547 -1.7139 -0.1617
 5975TIP3   OH217930   2.918   0.103   3.216  0.0303 -0.2270  0.3089
 5975TIP3    H117931   2.936   0.042   3.288  2.6757  0.5181  0.3645
 5975TIP3    H217932   2.852   0.058   3.163 -0.5649 -1.6341  2.1369
 5976TIP3   OH217933   1.956   1.150   4.008  0.1614 -0.1106  0.7824
 5976TIP3    H117934   1.956   1.055   4.014 -0.5404 -0.2116 -0.4337
 5976TIP3    H217935   1.908   1.179   4.085  0.9205 -0.7018  1.4936
 5977TIP3   OH217936   1.249   5.263   3.870  0.1049  0.0606  0.7200
 5977TIP3    H117937   1.333   5.220   3.858 -0.4317 -1.0759  0.9227
 5977TIP3    H217938   1.266   5.355   3.849  1.1916 -0.3064 -0.1174
 5978TIP3   OH217939   1.161   5.115   2.466  0.2621  0.8365  0.2438
 5978TIP3    H117940   1.119   5.056   2.529  2.0531 -1.0161 -0.2169
 5978TIP3    H217941   1.221   5.167   2.519  0.0054  0.9969  0.3849
 5979TIP3   OH217942   4.853   4.121   4.265 -0.5163  0.2267  0.0705
 5979TIP3    H117943   4.791   4.133   4.337  0.4761  0.2465  0.9644
 5979TIP3    H217944   4.926   4.180   4.287  0.5395 -0.9783 -0.0615
 5980TIP3   OH217945   5.319   4.156   2.947  0.2403  0.5746  0.2866
 5980TIP3    H117946   5.317   4.178   2.854 -1.3692 -1.6297 -0.2849
 5980TIP3    H217947   5.227   4.146   2.971  0.6940 -0.5207  1.6852
 5981TIP3   OH217948   3.678   1.534   0.600 -0.4454  0.4841 -0.7266
 5981TIP3    H117949   3.715   1.581   0.675 -1.0727 -2.0808  1.3418
 5981TIP3    H217950   3.740   1.463   0.583 -0.7033  0.5733 -2.1747
 5982TIP3   OH217951   4.299   5.326   3.966 -0.0056  0.3034  0.1346
 5982TIP3    H117952   4.282   5.304   4.057 -1.5073 -0.8929 -0.4038
 5982TIP3    H217953   4.394   5.316   3.956  0.1076 -0.0325  1.4292
 5983TIP3   OH217954   3.770   5.441   1.220  0.2615 -0.1351 -0.2269
 5983TIP3    H117955   3.733   5.427   1.307  0.8355 -1.0125 -0.1002
 5983TIP3    H217956   3.863   5.422   1.231  0.1875 -1.2143 -1.2286
 5984TIP3   OH217957   6.013   5.342   0.016  0.2485  0.2509 -0.3411
 5984TIP3    H117958   5.955   5.384   0.080  0.5138 -0.2915  0.2683
 5984TIP3    H217959   5.957   5.279  -0.030  0.2375  0.0618 -0.0745
 5985TIP3   OH217960   2.108   1.842   0.621  0.2104 -0.1177 -0.4708
 5985TIP3    H117961   2.022   1.809   0.648 -0.2513  1.0329 -0.4868
 5985TIP3    H217962   2.114   1.929   0.660  1.7195 -0.4814  0.1877
 5986TIP3   OH217963   1.070   5.411   1.786  0.0524  0.2748  0.3524
 5986TIP3    H117964   0.991   5.389   1.835  0.5394  0.0474  1.0569
 5986TIP3    H217965   1.048   5.392   1.695 -0.9284  0.8827  0.4550
 5987TIP3   OH217966   6.214   0.152   4.932 -0.4067 -0.1116 -0.1786
 5987TIP3    H117967   6.260   0.227   4.969  0.1770 -0.8711  0.6588
 5987TIP3    H217968   6.152   0.191   4.870 -1.0576  1.1597  1.2087
 5988TIP3   OH217969   4.034   5.838   2.827 -0.0946  0.4188  0.3006
 5988TIP3    H117970   3.944   5.807   2.813  0.7820 -1.5172 -1.6203
 5988TIP3    H217971   4.060   5.797   2.909 -0.0976 -1.3603 -0.5290
 5989TIP3   OH217972   1.964   2.082   2.276 -0.9319 -0.2237  0.3552
 5989TIP3    H117973   1.961   1.999   2.324 -0.9807 -1.1549 -1.1900
 5989TIP3    H217974   1.895   2.135   2.316  0.5511 -0.0238  2.8757
 5990TIP3   OH217975   3.870   4.904   4.553 -0.0440 -0.6327 -0.1780
 5990TIP3    H117976   3.927   4.953   4.612 -0.1645 -1.1476  0.3830
 5990TIP3    H217977   3.927   4.836   4.517 -0.0282 -0.4592 -0.4805
 5991TIP3   OH217978   3.893   1.024   3.820  0.2726 -0.3237 -0.1191
 5991TIP3    H117979   3.833   0.984   3.883  0.1987  1.6488  1.1565
 5991TIP3    H217980   3.851   1.011   3.735 -1.3412 -0.1097  0.6071
 5992TIP3   OH217981   0.119   0.006   5.019 -0.4816 -0.7520  0.6048
 5992TIP3    H117982   0.142   0.045   5.104  0.0154 -0.3542  0.2927
 5992TIP3    H217983   0.037   0.049   4.994  0.9944  1.5308 -0.6147
 5993TIP3   OH217984   1.315   5.634   3.927 -0.0312 -0.5033  0.0370
 5993TIP3    H117985   1.397   5.682   3.938 -0.2253 -0.4446  1.3640
 5993TIP3    H217986   1.309   5.579   4.005 -1.3068 -0.4273  0.0052
 5994TIP3   OH217987   4.312   1.813   4.513  0.0899 -0.3661  0.0407
 5994TIP3    H117988   4.279   1.879   4.452  0.8659  0.0781  0.0881
 5994TIP3    H217989   4.256   1.821   4.590  0.6660  0.7988  0.3613
 5995TIP3   OH217990   2.429   3.580   4.466  0.2158 -0.5151  0.1133
 5995TIP3    H117991   2.466   3.624   4.542  0.7910  1.3013 -1.1384
 5995TIP3    H217992   2.433   3.646   4.396 -1.9648 -1.4799 -1.0352
 5996TIP3   OH217993   6.278   4.505   4.841 -0.0935 -0.5666  0.0068
 5996TIP3    H117994   6.310   4.424   4.881 -0.6772 -1.3565 -1.0806
 5996TIP3    H217995   6.241   4.478   4.757 -0.9197  0.7412 -0.0810
 5997TIP3   OH217996   4.124   3.819   3.572 -0.3786  0.1119  0.2229
 5997TIP3    H117997   4.032   3.795   3.584 -0.4658 -0.3206 -1.1578
 5997TIP3    H217998   4.135   3.829   3.477  0.9735  0.2591  0.3667
 5998TIP3   OH217999   0.817   2.787   3.975 -0.0143 -0.6000  0.2011
 5998TIP3    H118000   0.799   2.877   3.948 -1.7240 -1.2529 -0.9771
 5998TIP3    H218001   0.734   2.741   3.963  0.7743 -2.3091  0.9471
 5999TIP3   OH218002   2.353   5.137   2.385  0.5247  0.3598  0.7832
 5999TIP3    H118003   2.287   5.195   2.423  1.2309  1.2071  0.7673
 5999TIP3    H218004   2.379   5.181   2.304 -0.4005 -1.0300 -0.3190
 6000TIP3   OH218005   3.047   2.771   2.087  0.2197  0.1077  0.3111
 6000TIP3    H118006   3.069   2.710   2.158 -1.9417  0.4320  1.3640
 6000TIP3    H218007   3.066   2.858   2.123  1.1699  0.1872 -0.3486
 6001TIP3   OH218008   1.149   1.329   1.580 -0.0922  0.3590  0.1512
 6001TIP3    H118009   1.179   1.308   1.491 -1.6074  0.8084 -0.5103
 6001TIP3    H218010   1.152   1.425   1.584  0.7385  0.3166  0.8966
 6002TIP3   OH218011   4.888   3.921   0.794 -0.1911 -0.1252 -0.5250
 6002TIP3    H118012   4.853   3.954   0.711 -1.4146 -0.1927 -0.0559
 6002TIP3    H218013   4.826   3.952   0.860 -0.3135 -1.7329  0.1513
 6003TIP3   OH218014   5.429   4.672   0.223  0.4881 -0.1920 -0.3640
 6003TIP3    H118015   5.434   4.682   0.318 -0.8120  0.8649 -0.3828
 6003TIP3    H218016   5.487   4.740   0.189  0.4721 -0.1691 -0.3448
 6004TIP3   OH218017   0.153   3.339   4.446  0.6747  0.0565 -0.1100
 6004TIP3    H118018   0.175   3.307   4.358 -0.1496  3.9012 -1.9640
 6004TIP3    H218019   0.107   3.422   4.430  0.5876  1.0285  4.0113
 6005TIP3   OH218020   0.405   5.525   3.179  0.5242 -0.3404  0.1590
 6005TIP3    H118021   0.387   5.582   3.105 -1.1603  1.3667  1.7631
 6005TIP3    H218022   0.501   5.514   3.179  0.8591  2.0743 -0.5489
 6006TIP3   OH218023   3.359   0.696   4.526 -0.0707 -0.5494  0.1203
 6006TIP3    H118024   3.336   0.770   4.471 -1.5410 -0.8574  0.2797
 6006TIP3    H218025   3.432   0.727   4.580 -1.5807  1.2847  1.2163
 6007TIP3   OH218026   5.303   0.844   5.120  0.0157 -0.0306 -0.6687
 6007TIP3    H118027   5.375   0.838   5.058  0.2946  0.0117 -0.3498
 6007TIP3    H218028   5.324   0.780   5.188  0.0297  0.3618 -0.2988
 6008TIP3   OH218029   2.873   1.851   0.457  0.5109 -0.1662  0.5711
 6008TIP3    H118030   2.788   1.895   0.450 -0.1064 -1.4863 -0.6564
 6008TIP3    H218031   2.936   1.914   0.422 -0.6794 -1.1218 -3.8002
 6009TIP3   OH218032   6.266   2.677   3.427 -0.0946 -0.0280  0.0363
 6009TIP3    H118033   6.266   2.582   3.436 -0.6977  0.0297  0.6593
 6009TIP3    H218034   6.235   2.710   3.511 -1.7673  0.6549 -0.7899
 6010TIP3   OH218035   2.924   0.951   1.331 -0.4832  0.3159 -0.0890
 6010TIP3    H118036   2.884   0.883   1.277 -0.7261  0.9355 -0.7071
 6010TIP3    H218037   2.944   1.021   1.270 -0.7877  1.0450  0.6260
 6011TIP3   OH218038   5.197   0.851   1.892  0.1533 -0.0847 -0.1267
 6011TIP3    H118039   5.276   0.857   1.837  0.0592  0.1250 -0.2425
 6011TIP3    H218040   5.141   0.788   1.847 -0.7788  1.5362 -1.3806
 6012TIP3   OH218041   3.644   5.086   1.144  0.0369 -0.2056 -0.0524
 6012TIP3    H118042   3.619   5.026   1.074  0.2363  0.3498 -0.6164
 6012TIP3    H218043   3.626   5.173   1.108  0.5207  0.1022  0.4379
 6013TIP3   OH218044   4.090   4.783   1.406  0.0726  0.0045 -0.2569
 6013TIP3    H118045   4.064   4.698   1.371  0.9395  0.5429 -2.3597
 6013TIP3    H218046   4.174   4.766   1.450  0.4927 -0.1646 -1.1038
 6014TIP3   OH218047   2.847   0.630   1.979  0.0305 -0.2997  1.1319
 6014TIP3    H118048   2.756   0.614   2.001 -0.3178 -0.4100 -0.3514
 6014TIP3    H218049   2.860   0.724   1.996 -0.9937  0.2269 -0.7687
 6015TIP3   OH218050   5.011   4.207   2.666 -0.6068  0.4073 -0.2529
 6015TIP3    H118051   4.997   4.170   2.753 -2.3207  0.8452 -0.2926
 6015TIP3    H218052   5.096   4.250   2.672  0.5817 -1.8673  0.3435
 6016TIP3   OH218053   1.344   1.532   1.709  0.6712  0.4739  0.2850
 6016TIP3    H118054   1.425   1.507   1.754  0.6498  1.3347  0.8184
 6016TIP3    H218055   1.282   1.551   1.780  0.3103  0.8057 -0.1171
 6017TIP3   OH218056   0.418   2.340   1.542 -0.3893 -0.0185  0.0580
 6017TIP3    H118057   0.338   2.379   1.577 -0.5532 -1.2222  1.1066
 6017TIP3    H218058   0.474   2.415   1.521 -1.3200  0.8066  0.4498
 6018TIP3   OH218059   5.174   0.348   0.506  0.0070 -0.2748 -0.0723
 6018TIP3    H118060   5.252   0.361   0.560  1.5341 -4.0423 -1.0267
 6018TIP3    H218061   5.200   0.379   0.419 -0.1026 -0.0796 -0.0336
 6019TIP3   OH218062   1.649   3.949   1.261 -0.3466 -0.0232 -0.3001
 6019TIP3    H118063   1.588   3.994   1.320 -1.0451 -0.8831 -0.3516
 6019TIP3    H218064   1.705   4.019   1.227 -1.1343  0.7435 -0.0529
 6020TIP3   OH218065   5.587   0.680   4.410  0.1954 -0.4716 -0.3842
 6020TIP3    H118066   5.658   0.698   4.348 -0.8242 -1.1989 -1.8219
 6020TIP3    H218067   5.553   0.766   4.434  1.1710 -0.1459 -0.1412
 6021TIP3   OH218068   3.491   2.454   2.040 -0.5269 -0.0437  0.4950
 6021TIP3    H118069   3.531   2.528   1.995  0.0785  0.7372  2.2282
 6021TIP3    H218070   3.397   2.475   2.043 -0.4289  0.3895  0.5104
 6022TIP3   OH218071   4.107   0.149   5.184 -0.1010  0.0003 -0.4142
 6022TIP3    H118072   4.136   0.180   5.098  0.7731 -0.5620 -0.3364
 6022TIP3    H218073   4.188   0.126   5.230 -0.4485  1.5740  1.0927
 6023TIP3   OH218074   0.262   3.228   1.333  0.4840  0.6268 -0.3791
 6023TIP3    H118075   0.283   3.162   1.267  0.6251  1.1321 -0.8545
 6023TIP3    H218076   0.279   3.186   1.417 -1.4638 -0.6799 -0.5730
 6024TIP3   OH218077   3.699   4.769   1.402 -0.1689 -0.0046 -0.3500
 6024TIP3    H118078   3.628   4.706   1.392 -0.9981  1.0968 -1.9077
 6024TIP3    H218079   3.735   4.779   1.313 -0.4625  2.1143 -0.2816
 6025TIP3   OH218080   2.854   4.075   3.157  0.1494 -0.0266  0.0230
 6025TIP3    H118081   2.941   4.111   3.138 -0.2281  1.5684  1.0421
 6025TIP3    H218082   2.834   4.108   3.245 -0.4153 -2.5243  0.8928
 6026TIP3   OH218083   3.948   2.943   1.970 -0.4864 -0.4844 -0.3376
 6026TIP3    H118084   4.027   2.993   1.953 -0.2722 -1.2165 -1.6453
 6026TIP3    H218085   3.877   3.003   1.948 -0.2604 -0.3811 -0.7936
 6027TIP3   OH218086   2.411   2.405   3.426 -0.4510  0.6467 -0.1214
 6027TIP3    H118087   2.409   2.428   3.519  0.5312 -1.7154  0.5650
 6027TIP3    H218088   2.342   2.339   3.416  0.9245 -0.8132 -0.4909
 6028TIP3   OH218089   5.480   3.729   3.356 -0.0475  0.0538 -0.2291
 6028TIP3    H118090   5.498   3.822   3.366 -1.1979  0.0848  2.3717
 6028TIP3    H218091   5.553   3.685   3.401 -0.3182 -0.2309 -0.0581
 6029TIP3   OH218092   4.323   3.934   5.064  0.4018 -0.0171 -0.2520
 6029TIP3    H118093   4.370   3.962   4.985  1.2268 -0.6479 -0.0026
 6029TIP3    H218094   4.383   3.871   5.106  0.0188  0.3812  0.9207
 6030TIP3   OH218095   6.274   1.570   4.753 -0.2133  0.4189 -0.1366
 6030TIP3    H118096   6.233   1.609   4.831 -1.5826 -1.2969  0.0692
 6030TIP3    H218097   6.269   1.476   4.769 -0.3821  0.0328 -2.2462
 6031TIP3   OH218098   5.927   5.274   1.729  0.4774 -0.0975 -0.4485
 6031TIP3    H118099   6.001   5.265   1.668 -1.1412  0.8585 -2.6872
 6031TIP3    H218100   5.957   5.337   1.794  2.0441 -0.6280 -0.6104
 6032TIP3   OH218101   3.757   2.075   2.632 -0.6991  0.2965  0.1374
 6032TIP3    H118102   3.838   2.113   2.598  0.6142 -0.0686  2.6098
 6032TIP3    H218103   3.755   1.987   2.595 -0.6169  0.7096 -0.8912
 6033TIP3   OH218104   1.748   1.228   1.378  0.2746 -0.2815 -0.4351
 6033TIP3    H118105   1.709   1.198   1.296  0.4958  0.3919 -0.7908
 6033TIP3    H218106   1.832   1.267   1.353  0.0752  0.4715  0.0365
 6034TIP3   OH218107   5.991   1.778   2.724  0.1150  0.3347  0.1051
 6034TIP3    H118108   5.923   1.740   2.780 -2.9776  1.1189 -2.8153
 6034TIP3    H218109   6.002   1.715   2.653  1.9890  0.5898  0.1085
 6035TIP3   OH218110   5.191   4.714   0.062 -0.3593 -0.1398 -0.4030
 6035TIP3    H118111   5.258   4.725   0.129  0.0199 -0.8799 -0.6446
 6035TIP3    H218112   5.239   4.680  -0.014 -1.0158 -0.7487 -0.5554
 6036TIP3   OH218113   3.185   2.695   0.947 -0.2519 -0.2409  0.4020
 6036TIP3    H118114   3.250   2.765   0.942 -1.6556  1.1344  0.8334
 6036TIP3    H218115   3.224   2.631   1.007  0.8244  0.4210  0.4392
 6037TIP3   OH218116   5.307   5.242   3.680  0.2338 -0.1049 -1.0167
 6037TIP3    H118117   5.351   5.262   3.598 -0.5347 -1.6465 -1.8638
 6037TIP3    H218118   5.219   5.215   3.654 -0.6039  1.0387  0.4724
 6038TIP3   OH218119   5.396   5.707   2.392 -0.0871  0.2169  0.3289
 6038TIP3    H118120   5.308   5.714   2.354 -1.0428  1.0397  2.4765
 6038TIP3    H218121   5.405   5.615   2.414  0.1699 -0.1241 -1.1309
 6039TIP3   OH218122   4.962   0.129   4.116  0.1711  0.0758  0.0519
 6039TIP3    H118123   4.947   0.212   4.070  0.5094 -0.1779 -0.5249
 6039TIP3    H218124   4.951   0.062   4.048 -0.6305 -0.3872  0.6275
 6040TIP3   OH218125   0.533   2.458   2.480 -0.1753 -0.4520  0.0311
 6040TIP3    H118126   0.503   2.547   2.463 -0.9628 -0.8999 -1.0588
 6040TIP3    H218127   0.592   2.466   2.554  0.6763  1.1550 -0.7719
 6041TIP3   OH218128   4.297   1.164   3.800  0.0271 -0.0658 -0.3858
 6041TIP3    H118129   4.377   1.161   3.853 -0.0030  1.1425 -0.2392
 6041TIP3    H218130   4.259   1.076   3.809  1.5912 -0.8309 -0.8884
 6042TIP3   OH218131   1.031   2.586   1.083  0.3204 -0.0550 -0.0867
 6042TIP3    H118132   1.041   2.544   0.998  0.9606  1.1839 -0.6394
 6042TIP3    H218133   0.944   2.626   1.080  0.5036  0.3343 -0.3295
 6043TIP3   OH218134   3.272   2.600   3.876 -0.1778  0.2883 -0.1657
 6043TIP3    H118135   3.248   2.650   3.798  0.9267 -0.6452 -1.1514
 6043TIP3    H218136   3.341   2.651   3.917 -2.3532  2.0219  1.6349
 6044TIP3   OH218137   3.822   0.742   2.226 -0.0912 -0.7611 -0.4766
 6044TIP3    H118138   3.751   0.686   2.258 -0.4881 -0.0384 -0.0457
 6044TIP3    H218139   3.865   0.773   2.306  0.5615 -1.0018 -0.7314
 6045TIP3   OH218140   1.836   2.590   4.795 -0.2863 -0.5307 -0.0468
 6045TIP3    H118141   1.920   2.613   4.834  0.2458 -0.4734 -1.1747
 6045TIP3    H218142   1.817   2.502   4.827  0.6334 -0.8913 -0.4697
 6046TIP3   OH218143   1.019   1.047   3.156  0.0437 -0.0124 -0.1961
 6046TIP3    H118144   0.950   1.105   3.125 -0.3305 -0.2258  0.2207
 6046TIP3    H218145   1.033   0.985   3.084 -0.3832 -0.1295 -0.1758
 6047TIP3   OH218146   3.889   3.968   3.823 -0.8339 -0.4244 -0.0663
 6047TIP3    H118147   3.841   3.959   3.906  0.1590 -1.3764  0.4181
 6047TIP3    H218148   3.877   3.884   3.779  0.9200 -0.9277  0.3649
 6048TIP3   OH218149   2.516   2.416   2.440  0.5633 -0.0536  0.1055
 6048TIP3    H118150   2.439   2.473   2.434  0.2025 -0.3285  1.5439
 6048TIP3    H218151   2.547   2.407   2.350 -1.4150 -0.3617 -0.6136
 6049TIP3   OH218152   2.709   0.573   4.221  0.1032  0.2022  0.1367
 6049TIP3    H118153   2.686   0.653   4.269  0.7167 -0.4680  1.5941
 6049TIP3    H218154   2.688   0.502   4.281 -0.9800 -0.7969 -1.3587
 6050TIP3   OH218155   1.223   1.038   5.034  0.3241 -0.3011  0.0658
 6050TIP3    H118156   1.200   1.098   5.105  0.1364  0.3399 -0.5214
 6050TIP3    H218157   1.285   0.977   5.072 -0.1810 -0.2880  0.9231
 6051TIP3   OH218158   2.257   3.930   1.390  0.4140  0.0247 -0.8853
 6051TIP3    H118159   2.322   3.949   1.458 -0.4273  1.0634 -0.3381
 6051TIP3    H218160   2.300   3.867   1.333  1.0539 -1.0658  0.7365
 6052TIP3   OH218161   2.800   2.724   1.186 -0.0443 -0.4996  0.2534
 6052TIP3    H118162   2.708   2.749   1.180  0.1016  0.0590  0.3171
 6052TIP3    H218163   2.802   2.635   1.152 -0.9527 -1.3109  2.1098
 6053TIP3   OH218164   2.452   0.572   2.101  0.2045 -0.0675  0.3444
 6053TIP3    H118165   2.406   0.503   2.053 -1.2540  0.9733  0.1839
 6053TIP3    H218166   2.479   0.634   2.034  0.0329  0.3447  0.6531
 6054TIP3   OH218167   3.037   1.527   3.517  1.3718  0.2112  0.0529
 6054TIP3    H118168   3.009   1.616   3.497 -0.3803 -0.6310 -1.4877
 6054TIP3    H218169   3.121   1.517   3.472  1.2712  0.8722 -0.2891
 6055TIP3   OH218170   5.927   2.103   0.140  0.4843  0.5235  0.7918
 6055TIP3    H118171   5.989   2.037   0.173  0.4333 -0.1762 -0.4703
 6055TIP3    H218172   5.942   2.106   0.046 -1.4565  0.2898  0.4314
 6056TIP3   OH218173   2.125   1.126   0.481  0.2421  0.5281  0.0499
 6056TIP3    H118174   2.041   1.173   0.481  0.6778  1.3442  0.7792
 6056TIP3    H218175   2.182   1.180   0.426 -0.1218 -0.8508 -1.7485
 6057TIP3   OH218176   4.190   0.738   1.401  0.6134  0.1373 -0.6931
 6057TIP3    H118177   4.123   0.681   1.439  0.4203 -0.1085 -1.3793
 6057TIP3    H218178   4.154   0.827   1.409  1.1719  0.2563  0.9148
 6058TIP3   OH218179   4.432   3.644   1.866 -0.3046  0.5109 -0.2019
 6058TIP3    H118180   4.466   3.694   1.941 -0.3230  0.4629 -0.1616
 6058TIP3    H218181   4.498   3.577   1.850 -0.2534  0.5818 -0.2904
 6059TIP3   OH218182   0.612   4.804   3.160  0.2434  0.0674 -0.1756
 6059TIP3    H118183   0.606   4.793   3.065  0.8103 -1.5982 -0.0651
 6059TIP3    H218184   0.545   4.869   3.181 -0.0290  0.3176 -1.6916
 6060TIP3   OH218185   3.734   5.680   4.249  0.1139  0.0074 -0.0312
 6060TIP3    H118186   3.815   5.679   4.199  0.7101  1.8126  0.8177
 6060TIP3    H218187   3.669   5.642   4.191  1.1221  0.5622 -1.5685
 6061TIP3   OH218188   3.445   5.076   0.372 -0.2645  0.5212 -0.3399
 6061TIP3    H118189   3.401   5.097   0.289  1.2781  4.2964 -0.4193
 6061TIP3    H218190   3.374   5.073   0.437 -1.2768 -0.5687 -1.4396
 6062TIP3   OH218191   4.744   3.316   1.603 -0.2801 -0.0815 -0.3790
 6062TIP3    H118192   4.778   3.405   1.601  1.7749 -0.8128 -1.9744
 6062TIP3    H218193   4.725   3.296   1.511 -0.1135 -1.4640 -0.1339
 6063TIP3   OH218194   1.943   3.874   4.203  0.0275 -0.6009 -0.1675
 6063TIP3    H118195   1.935   3.849   4.111  1.0214 -0.2921 -0.3588
 6063TIP3    H218196   1.981   3.962   4.200 -0.3916 -0.3889  0.5372
 6064TIP3   OH218197   4.114   3.735   3.286  0.2064 -0.4362 -0.0579
 6064TIP3    H118198   4.157   3.687   3.215  0.2467  1.0362 -1.0843
 6064TIP3    H218199   4.065   3.804   3.241  0.0200  0.3673  1.3478
 6065TIP3   OH218200   4.105   5.781   1.631 -0.2089  0.4179 -0.2706
 6065TIP3    H118201   4.169   5.713   1.653 -1.4209 -0.9066 -0.6521
 6065TIP3    H218202   4.058   5.745   1.555  0.9971  2.9404 -2.3815
 6066TIP3   OH218203   0.169   2.704   4.819 -0.8312  0.0903  0.6177
 6066TIP3    H118204   0.203   2.653   4.745 -1.7588 -0.8799  0.8169
 6066TIP3    H218205   0.231   2.776   4.830  0.1096 -0.5669 -0.1776
 6067TIP3   OH218206   3.400   5.454   3.868 -0.1545 -0.2962 -0.1855
 6067TIP3    H118207   3.388   5.513   3.794  0.4666 -0.1441 -0.1684
 6067TIP3    H218208   3.399   5.366   3.829 -0.6253 -0.2545 -0.2676
 6068TIP3   OH218209   0.711   1.062   1.796  0.6886  0.1263 -0.0517
 6068TIP3    H118210   0.739   1.153   1.785 -1.4360  0.5960 -2.5623
 6068TIP3    H218211   0.633   1.067   1.851  1.1459 -0.3355  0.6647
 6069TIP3   OH218212   3.647   1.822   2.496 -0.0361  0.0315 -0.3539
 6069TIP3    H118213   3.614   1.742   2.537  3.1529 -1.4842 -0.4425
 6069TIP3    H218214   3.638   1.807   2.402  0.3645 -0.1484 -0.3654
 6070TIP3   OH218215   0.741   1.031   4.851 -0.3600 -0.7155 -0.0327
 6070TIP3    H118216   0.689   0.981   4.914 -0.8518 -1.7325 -1.2145
 6070TIP3    H218217   0.712   1.001   4.765 -0.4654  1.4120 -0.8106
 6071TIP3   OH218218   2.879   3.031   2.732  0.0719  0.1828  0.1297
 6071TIP3    H118219   2.907   2.939   2.735 -0.0331  0.1682  1.9181
 6071TIP3    H218220   2.835   3.045   2.816  0.8976  2.1227  0.2907
 6072TIP3   OH218221   3.522   4.445   4.380  0.3312  0.4086  0.7832
 6072TIP3    H118222   3.437   4.489   4.377  0.2130  0.3497  2.2740
 6072TIP3    H218223   3.580   4.499   4.327 -1.2403 -1.0835 -2.7704
 6073TIP3   OH218224   3.057   4.657   0.076  0.5008  0.1100 -0.0537
 6073TIP3    H118225   2.995   4.587   0.058  1.2963 -1.5988  3.1007
 6073TIP3    H218226   3.006   4.724   0.121  0.2835  0.3317 -0.6194
 6074TIP3   OH218227   0.169   3.137   2.237 -0.4834 -0.0177  0.4203
 6074TIP3    H118228   0.126   3.053   2.223 -0.8651  0.2054  0.2105
 6074TIP3    H218229   0.223   3.150   2.159 -0.6155  0.0412  0.3373
 6075TIP3   OH218230   0.762   2.118   3.111 -0.2461  0.2791 -0.4820
 6075TIP3    H118231   0.857   2.112   3.111 -0.2272  0.2216  0.8548
 6075TIP3    H218232   0.733   2.045   3.166 -0.9940  0.9938  0.0942
 6076TIP3   OH218233   4.150   0.971   3.250  0.0255  0.3748 -0.3176
 6076TIP3    H118234   4.166   0.883   3.284 -1.5626 -0.5557 -1.8189
 6076TIP3    H218235   4.232   0.995   3.206 -0.3192 -1.4843 -2.1118
 6077TIP3   OH218236   3.432   5.918   4.394  0.3490 -0.0516 -0.2333
 6077TIP3    H118237   3.349   5.965   4.392 -0.7035 -1.8137 -0.8788
 6077TIP3    H218238   3.472   5.936   4.310  2.2197  3.3123  1.1793
 6078TIP3   OH218239   3.825   0.023   3.806  0.8437  0.1509  0.2415
 6078TIP3    H118240   3.752   0.079   3.780  0.5257 -1.1001 -1.7031
 6078TIP3    H218241   3.904   0.074   3.786  0.6634  2.1372  3.7290
 6079TIP3   OH218242   5.343   2.223   0.590  0.0056 -0.1694  0.0862
 6079TIP3    H118243   5.373   2.133   0.582 -1.1814 -0.5977  0.2043
 6079TIP3    H218244   5.398   2.272   0.529  0.6837 -0.9635  0.0420
 6080TIP3   OH218245   1.275   2.687   2.857  0.0682 -0.2821  0.2631
 6080TIP3    H118246   1.364   2.719   2.843  1.1507 -3.4222 -1.0617
 6080TIP3    H218247   1.223   2.731   2.791  0.9365  0.5325  0.0977
 6081TIP3   OH218248   1.626   5.006   2.713  0.1329 -0.0485  0.2646
 6081TIP3    H118249   1.624   4.920   2.670 -0.5625  0.0399  0.1015
 6081TIP3    H218250   1.635   5.069   2.642 -0.7440  0.0830  0.2572
 6082TIP3   OH218251   1.151   0.163   2.688 -0.7753 -0.1335 -0.3934
 6082TIP3    H118252   1.057   0.157   2.669 -0.6507 -0.2324 -0.9931
 6082TIP3    H218253   1.183   0.074   2.676 -0.9217 -0.5087  1.6265
 6083TIP3   OH218254   0.717   4.379   5.090  0.1973 -0.0920 -0.1321
 6083TIP3    H118255   0.652   4.429   5.041  1.2180 -0.6188 -2.1331
 6083TIP3    H218256   0.712   4.414   5.178 -2.4925  0.1759 -0.2845
 6084TIP3   OH218257   4.052   2.463   4.498  0.0745 -0.2883  0.5954
 6084TIP3    H118258   4.015   2.423   4.420  1.9886 -1.5668  0.2579
 6084TIP3    H218259   4.034   2.401   4.569 -0.5056  0.2292  0.9045
 6085TIP3   OH218260   2.492   5.410   4.608  0.4624  0.2409  0.8527
 6085TIP3    H118261   2.564   5.347   4.613 -0.3862 -0.6307  3.5349
 6085TIP3    H218262   2.479   5.438   4.698 -1.0404  2.1642  0.0814
 6086TIP3   OH218263   0.086   3.494   0.520 -0.0876 -0.5660  0.2617
 6086TIP3    H118264   0.007   3.496   0.466 -0.5562 -1.3106  0.8842
 6086TIP3    H218265   0.096   3.583   0.552 -0.9084 -0.5478  0.4885
 6087TIP3   OH218266   4.077   4.352   5.079  0.0760  0.1211 -0.0083
 6087TIP3    H118267   4.053   4.265   5.047 -2.1583  0.4269  0.6415
 6087TIP3    H218268   4.064   4.410   5.004  2.6655 -0.1825 -0.7812
 6088TIP3   OH218269   3.121   2.038   5.029  0.0860 -0.0404  0.0112
 6088TIP3    H118270   3.179   1.992   5.090 -1.3646 -2.9711 -0.6633
 6088TIP3    H218271   3.180   2.094   4.979  1.5986  0.8810  2.6154
 6089TIP3   OH218272   2.773   4.835   2.840  0.4367 -0.1229 -0.5253
 6089TIP3    H118273   2.715   4.808   2.911  1.3412  0.1095  0.3287
 6089TIP3    H218274   2.715   4.869   2.772 -0.3184  3.0629  1.5310
 6090TIP3   OH218275   2.960   3.849   5.131 -0.1599  0.5610 -0.0200
 6090TIP3    H118276   2.988   3.925   5.184 -0.7159  1.3888 -0.8825
 6090TIP3    H218277   2.870   3.869   5.107 -0.5076 -0.6695  0.2251
 6091TIP3   OH218278   5.268   2.544   0.505 -0.3172 -0.3502 -0.4793
 6091TIP3    H118279   5.363   2.548   0.505 -0.2135 -2.0406 -0.8760
 6091TIP3    H218280   5.244   2.547   0.598  0.0869  0.4227 -0.3915
 6092TIP3   OH218281   4.093   0.214   4.666  0.9125  0.1966 -0.3320
 6092TIP3    H118282   4.016   0.209   4.608  0.2365  0.5934  0.5184
 6092TIP3    H218283   4.160   0.257   4.613 -0.1606  1.9319 -0.3548
 6093TIP3   OH218284   1.657   5.197   0.161  0.5438 -0.5847  0.0905
 6093TIP3    H118285   1.688   5.258   0.094 -1.4339  1.3213  0.7982
 6093TIP3    H218286   1.640   5.115   0.113 -0.7737  0.6983 -1.7827
 6094TIP3   OH218287   3.882   4.046   3.534 -0.6462  0.0240 -0.5647
 6094TIP3    H118288   3.940   4.078   3.602 -2.5099  2.4211  0.0615
 6094TIP3    H218289   3.843   3.967   3.570  0.5508 -0.3653 -0.0963
 6095TIP3   OH218290   5.756   5.233   3.139 -0.3347 -1.0000 -0.4475
 6095TIP3    H118291   5.786   5.152   3.096 -0.3492 -0.9615 -0.5288
 6095TIP3    H218292   5.675   5.208   3.183  0.3495 -1.3766  0.6391
 6096TIP3   OH218293   5.134   2.492   4.191  0.7565  0.0427  0.6037
 6096TIP3    H118294   5.045   2.523   4.205  1.0609  1.2346  0.0114
 6096TIP3    H218295   5.159   2.452   4.274  0.2198  1.0936  1.2853
 6097TIP3   OH218296   1.768   2.038   3.589  0.0997  0.7074 -0.2908
 6097TIP3    H118297   1.703   2.000   3.648  0.4844  0.3212 -0.1123
 6097TIP3    H218298   1.734   2.020   3.501 -0.3916  1.1417 -0.1928
 6098TIP3   OH218299   3.697   4.806   3.402  0.0975  0.1091  0.0568
 6098TIP3    H118300   3.697   4.889   3.353  1.0549  0.3267  0.4063
 6098TIP3    H218301   3.622   4.814   3.461 -0.1280  0.5076 -0.2733
 6099TIP3   OH218302   4.283   5.428   4.400 -0.3086  0.0968  0.2634
 6099TIP3    H118303   4.245   5.384   4.323  0.8727  1.1360 -0.9793
 6099TIP3    H218304   4.242   5.514   4.402  0.6447  0.5841 -0.0610
 6100TIP3   OH218305   5.594   4.402   1.082 -0.3362  0.8184 -0.2278
 6100TIP3    H118306   5.584   4.484   1.131 -0.2306 -0.0752  1.3697
 6100TIP3    H218307   5.515   4.352   1.103 -0.1624  0.3042 -0.7775
 6101TIP3   OH218308   2.370   5.694   2.606  0.1392  0.3895 -0.0754
 6101TIP3    H118309   2.330   5.761   2.551 -1.2418  1.5012  2.1390
 6101TIP3    H218310   2.463   5.698   2.584  0.3385  3.9546  0.7364
 6102TIP3   OH218311   0.339   4.447   1.718 -0.2449  0.6366 -0.2850
 6102TIP3    H118312   0.257   4.427   1.763 -0.3723  1.0380 -0.3338
 6102TIP3    H218313   0.328   4.537   1.687 -0.1921  0.3304 -1.2054
 6103TIP3   OH218314   5.212   4.112   3.648  0.3579 -0.2978 -0.0898
 6103TIP3    H118315   5.299   4.124   3.687  0.0529 -0.2162  0.5689
 6103TIP3    H218316   5.230   4.097   3.555  1.0187  0.9989 -0.1952
 6104TIP3   OH218317   3.817   1.303   0.535  0.6439  0.4514 -0.3157
 6104TIP3    H118318   3.893   1.354   0.505 -0.1390  0.9699 -1.4807
 6104TIP3    H218319   3.827   1.218   0.492  0.7886  0.3640 -0.1133
 6105TIP3   OH218320   2.769   5.128   4.345 -0.0888 -0.1484  0.1153
 6105TIP3    H118321   2.828   5.193   4.383 -0.5043 -0.0877  0.6833
 6105TIP3    H218322   2.681   5.164   4.358 -0.2238  0.1976 -1.5595
 6106TIP3   OH218323   2.938   2.071   2.557 -0.3451 -0.2061 -0.4667
 6106TIP3    H118324   3.003   2.001   2.565  0.0271  0.1263 -0.5659
 6106TIP3    H218325   2.883   2.043   2.485  0.1129 -0.1555 -0.8427
 6107TIP3   OH218326   4.455   0.143   4.796  0.8184  0.2620  0.4862
 6107TIP3    H118327   4.432   0.228   4.759  0.8785 -0.3701 -1.0669
 6107TIP3    H218328   4.551   0.143   4.800  0.7767  1.0937  2.5850
 6108TIP3   OH218329   2.703   0.721   0.691  0.4017  0.0885 -0.0921
 6108TIP3    H118330   2.690   0.801   0.640 -0.2716 -0.1513 -0.3074
 6108TIP3    H218331   2.758   0.666   0.635 -0.5114 -0.2592 -0.6672
 6109TIP3   OH218332   0.071   4.160   4.657  0.0998  0.2915 -0.3959
 6109TIP3    H118333   0.098   4.245   4.622 -1.7235  0.3668 -1.7907
 6109TIP3    H218334   0.019   4.121   4.587 -2.3535 -0.2935  1.5943
 6110TIP3   OH218335   0.819   4.770   0.191  0.3687 -0.5481  0.0122
 6110TIP3    H118336   0.764   4.697   0.222  1.9871 -1.7028  0.3197
 6110TIP3    H218337   0.757   4.835   0.159 -1.2102 -1.3721  1.2363
 6111TIP3   OH218338   0.898   5.373   0.977 -0.2331 -0.3004  0.6035
 6111TIP3    H118339   0.985   5.342   0.951 -0.4016  0.5566 -1.0913
 6111TIP3    H218340   0.915   5.443   1.040  0.3389  0.0998  0.0177
 6112TIP3   OH218341   6.072   5.427   1.905 -0.1045 -0.5839 -0.9484
 6112TIP3    H118342   6.159   5.390   1.894  0.5630  1.4121 -3.4917
 6112TIP3    H218343   6.084   5.501   1.965 -0.2093 -0.7586 -0.7095
 6113TIP3   OH218344   1.427   2.027   1.015  0.0085  0.1950  0.4696
 6113TIP3    H118345   1.495   2.029   0.947 -0.2639  1.3355  0.2091
 6113TIP3    H218346   1.425   2.116   1.049 -0.8745 -0.0074  0.9708
 6114TIP3   OH218347   3.622   3.108   3.074  0.4391 -0.0212 -0.1597
 6114TIP3    H118348   3.552   3.170   3.054 -0.1285 -1.0335 -1.3795
 6114TIP3    H218349   3.648   3.072   2.989  1.4203 -0.7572  0.4284
 6115TIP3   OH218350   6.199   0.266   2.214  0.4274 -0.0724  0.0513
 6115TIP3    H118351   6.130   0.201   2.224  0.0458  0.3669  0.3019
 6115TIP3    H218352   6.214   0.272   2.119  2.5045 -2.6367  0.1109
 6116TIP3   OH218353   3.839   1.174   2.925 -0.4450 -0.2274 -0.0068
 6116TIP3    H118354   3.870   1.090   2.890  1.3277  0.4719 -0.2370
 6116TIP3    H218355   3.834   1.160   3.019  3.3602  0.3176  0.4421
 6117TIP3   OH218356   6.183   1.621   3.706  0.0929  0.6123 -0.2888
 6117TIP3    H118357   6.277   1.616   3.724 -0.2921 -2.8337  1.6507
 6117TIP3    H218358   6.146   1.659   3.786 -0.4532 -2.4286  1.0363
 6118TIP3   OH218359   2.802   5.840   0.936 -0.6591 -0.6163 -0.0023
 6118TIP3    H118360   2.770   5.869   1.021 -0.6131  1.1827 -0.5452
 6118TIP3    H218361   2.858   5.765   0.955 -0.6867 -0.2789  1.5302
 6119TIP3   OH218362   4.975   3.346   4.247 -0.1373  1.0069 -0.0780
 6119TIP3    H118363   4.911   3.395   4.195 -0.5120 -1.0950 -1.7486
 6119TIP3    H218364   5.014   3.284   4.185 -0.9005 -1.9482  2.1796
 6120TIP3   OH218365   0.360   3.549   2.523 -0.7144  0.4889 -0.2494
 6120TIP3    H118366   0.285   3.549   2.583 -2.0761  1.9496 -1.8460
 6120TIP3    H218367   0.390   3.640   2.523  1.1756 -0.0868  0.4335
 6121TIP3   OH218368   0.881   5.121   4.398 -0.2345 -0.4277  0.6795
 6121TIP3    H118369   0.901   5.197   4.452  1.2964  0.9075 -1.6198
 6121TIP3    H218370   0.961   5.103   4.350 -0.9249 -2.7972  0.2647
 6122TIP3   OH218371   5.757   2.624   0.859 -0.7917 -0.0382  0.1619
 6122TIP3    H118372   5.709   2.579   0.928  1.6249 -1.8489  0.8070
 6122TIP3    H218373   5.735   2.577   0.779 -2.0420  0.8002 -0.0158
 6123TIP3   OH218374   6.135   2.573   2.715  0.6549 -0.1821  0.1983
 6123TIP3    H118375   6.065   2.612   2.767  1.2373 -0.4695  1.2421
 6123TIP3    H218376   6.132   2.479   2.736 -0.9456 -0.8329 -2.5420
 6124TIP3   OH218377   5.170   3.463   2.657  0.1826 -0.0400  0.1126
 6124TIP3    H118378   5.186   3.424   2.571 -2.6659  0.2709 -0.6903
 6124TIP3    H218379   5.190   3.556   2.645 -2.6458  0.5151 -1.1234
 6125TIP3   OH218380   4.290   4.114   2.042 -0.7089  0.2984  0.0468
 6125TIP3    H118381   4.265   4.074   1.959 -1.2957  1.2113 -0.2280
 6125TIP3    H218382   4.349   4.050   2.082 -0.1623 -0.0165 -1.2077
 6126TIP3   OH218383   0.093   2.852   0.027 -0.2843 -0.0126  0.3385
 6126TIP3    H118384   0.149   2.925   0.055 -0.3628  0.1246  0.1453
 6126TIP3    H218385   0.127   2.828  -0.059 -0.1860 -0.2814  0.4516
 6127TIP3   OH218386   5.980   4.019   2.095 -0.4573  0.0612  0.6632
 6127TIP3    H118387   5.950   4.080   2.163 -0.5797 -0.6181  1.2326
 6127TIP3    H218388   6.028   3.952   2.143 -0.1240 -0.1709  0.0171
 6128TIP3   OH218389   3.206   1.028   4.108  0.6647 -0.2118 -0.0612
 6128TIP3    H118390   3.200   1.119   4.138  0.9369 -0.4987  0.8843
 6128TIP3    H218391   3.253   1.034   4.024 -0.8367  0.6763 -0.8779
 6129TIP3   OH218392   4.589   3.506   4.334  0.2031 -0.4267 -0.4081
 6129TIP3    H118393   4.626   3.483   4.249  0.1311  0.5087 -0.7012
 6129TIP3    H218394   4.652   3.567   4.372 -0.2817 -0.0276 -0.2391
 6130TIP3   OH218395   3.808   0.828   4.781 -0.0769 -0.3653 -0.3973
 6130TIP3    H118396   3.796   0.902   4.841 -0.2408  0.0237 -0.9075
 6130TIP3    H218397   3.832   0.869   4.698 -1.2824 -0.8234 -0.9859
 6131TIP3   OH218398   6.177   4.019   2.648  0.2362  0.1378  0.3568
 6131TIP3    H118399   6.245   3.963   2.611  0.2460 -0.7329  1.6250
 6131TIP3    H218400   6.216   4.107   2.648  1.3969 -0.3502  1.1174
 6132TIP3   OH218401   2.789   5.351   4.085 -0.7653  0.6343 -0.1162
 6132TIP3    H118402   2.862   5.382   4.032  0.4966  0.2968  1.3300
 6132TIP3    H218403   2.757   5.273   4.039  2.2537 -1.4873  1.0049
 6133TIP3   OH218404   5.951   1.696   0.033 -0.1376  0.5643  0.0458
 6133TIP3    H118405   5.964   1.720  -0.059 -1.7062 -2.8222 -1.2263
 6133TIP3    H218406   6.015   1.628   0.050 -0.1092  0.8950  1.3852
 6134TIP3   OH218407   5.230   4.865   4.128 -0.4397 -0.4330 -0.0335
 6134TIP3    H118408   5.263   4.809   4.058 -1.0617 -2.1574  0.9876
 6134TIP3    H218409   5.221   4.951   4.087  1.1002 -0.9150 -1.5044
 6135TIP3   OH218410   6.284   2.997   1.640  0.4668 -0.2459  0.4056
 6135TIP3    H118411   6.336   2.940   1.583 -1.3986 -1.4169 -0.2208
 6135TIP3    H218412   6.306   2.968   1.729 -0.4687 -2.0227  0.0970
 6136TIP3   OH218413   0.187   5.595   1.908  0.1207  0.5630  0.2318
 6136TIP3    H118414   0.173   5.501   1.893 -0.5877  0.2799  2.2886
 6136TIP3    H218415   0.148   5.637   1.832 -0.9310 -0.7703 -0.0262
 6137TIP3   OH218416   3.151   0.613   4.252 -0.2503 -0.6132  0.9258
 6137TIP3    H118417   3.160   0.548   4.322  0.9985 -0.1908  1.1712
 6137TIP3    H218418   3.063   0.649   4.265 -0.0639 -0.5900  2.2427
 6138TIP3   OH218419   0.124   0.526   1.304 -0.1280  0.2059 -0.3034
 6138TIP3    H118420   0.088   0.613   1.288  0.5034  0.6550  0.6388
 6138TIP3    H218421   0.203   0.541   1.356 -0.3642 -0.9589  0.4477
 6139TIP3   OH218422   3.336   4.326   3.509 -0.2485 -0.1646  0.5498
 6139TIP3    H118423   3.270   4.261   3.532  0.1371 -0.4439  0.8903
 6139TIP3    H218424   3.337   4.386   3.583 -0.0596 -0.2126  0.5867
 6140TIP3   OH218425   3.327   5.183   4.410 -0.4259 -0.2104  0.2712
 6140TIP3    H118426   3.416   5.219   4.419 -0.7311  0.4311  0.8174
 6140TIP3    H218427   3.339   5.102   4.361  0.4469 -0.0476  0.1961
 6141TIP3   OH218428   2.597   3.792   0.851 -0.1300  0.5426 -0.5198
 6141TIP3    H118429   2.571   3.718   0.797  0.5683 -1.5725  1.8587
 6141TIP3    H218430   2.528   3.857   0.839 -2.7975 -1.9910  0.1488
 6142TIP3   OH218431   1.278   2.651   1.851  0.5035 -0.1500  0.2969
 6142TIP3    H118432   1.191   2.632   1.888  0.4651 -1.4867 -0.4317
 6142TIP3    H218433   1.293   2.743   1.874 -1.2220  0.2022  0.2215
 6143TIP3   OH218434   5.971   0.752   2.519 -0.0157 -0.1666  0.1810
 6143TIP3    H118435   6.029   0.679   2.536  0.3121  0.1890  0.6039
 6143TIP3    H218436   5.929   0.770   2.603  0.4803  0.6228  0.2732
 6144TIP3   OH218437   3.801   4.413   1.923 -0.0334  0.5509  0.4314
 6144TIP3    H118438   3.729   4.357   1.892 -0.9551  1.3211  1.1327
 6144TIP3    H218439   3.865   4.410   1.852 -0.2243 -1.0814  0.2880
 6145TIP3   OH218440   0.232   0.374   4.689 -0.1664  0.2086  0.7980
 6145TIP3    H118441   0.242   0.464   4.719 -0.9911  0.7606 -0.4882
 6145TIP3    H218442   0.137   0.360   4.685 -0.0526 -0.5338  0.4760
 6146TIP3   OH218443   3.023   1.752   3.770  0.4181 -0.2766  0.3508
 6146TIP3    H118444   2.986   1.726   3.854 -0.2984 -2.9186 -0.6859
 6146TIP3    H218445   3.097   1.693   3.756  1.3598  0.9935 -0.3301
 6147TIP3   OH218446   2.248   3.999   1.045  0.1298  0.5296 -0.0238
 6147TIP3    H118447   2.294   4.051   1.112 -0.4351  1.2764 -0.2120
 6147TIP3    H218448   2.156   4.006   1.069 -0.2647  2.2164 -1.8304
 6148TIP3   OH218449   5.926   1.715   1.026 -0.1056 -0.1743  0.8303
 6148TIP3    H118450   5.951   1.739   0.937  1.7137  0.9002  1.5728
 6148TIP3    H218451   5.980   1.639   1.046  0.3676  0.3114  1.4159
 6149TIP3   OH218452   4.750   5.895   2.450  0.0131 -0.4193 -0.1845
 6149TIP3    H118453   4.810   5.944   2.393  2.0488 -0.5835  1.6843
 6149TIP3    H218454   4.784   5.806   2.450 -1.1419 -0.8702 -0.2389
 6150TIP3   OH218455   0.342   0.771   5.024 -0.2554 -0.3401 -0.0337
 6150TIP3    H118456   0.428   0.812   5.022 -0.1231 -0.6144 -2.5622
 6150TIP3    H218457   0.283   0.840   5.054  0.7474 -0.0212  1.2762
 6151TIP3   OH218458   2.710   0.236   4.631 -1.0390  0.2211  0.3257
 6151TIP3    H118459   2.752   0.288   4.563  0.5494  1.4428  2.1264
 6151TIP3    H218460   2.633   0.286   4.657 -0.3889  0.9391  0.9476
 6152TIP3   OH218461   2.154   1.625   1.938  0.4806 -0.1327 -0.0498
 6152TIP3    H118462   2.173   1.717   1.923  1.4034 -0.2349  0.4274
 6152TIP3    H218463   2.225   1.578   1.896  1.7485 -0.4943  2.2954
 6153TIP3   OH218464   5.879   5.694   2.204  0.1652 -0.4526 -0.4437
 6153TIP3    H118465   5.944   5.712   2.136 -1.0625 -0.9907 -1.8118
 6153TIP3    H218466   5.860   5.779   2.242  0.5234 -0.0603 -1.1156
 6154TIP3   OH218467   3.461   0.361   0.324 -0.4048 -0.1272 -0.0095
 6154TIP3    H118468   3.384   0.389   0.372  0.3827  0.1484  1.1169
 6154TIP3    H218469   3.440   0.380   0.232 -1.6798 -0.1046  0.2665
 6155TIP3   OH218470   2.065   0.584   1.457 -0.0983  0.0263  0.2124
 6155TIP3    H118471   2.058   0.629   1.542  1.2099  1.4605 -0.4022
 6155TIP3    H218472   2.135   0.520   1.469 -2.0914 -2.1288  1.1478
 6156TIP3   OH218473   2.019   5.153   1.608  0.5095  0.2630  0.0819
 6156TIP3    H118474   2.100   5.199   1.632  0.1848  0.7898  0.1868
 6156TIP3    H218475   1.952   5.221   1.609 -0.2194 -0.4479  1.4219
 6157TIP3   OH218476   5.365   4.247   1.179 -0.5511  0.1471 -0.4026
 6157TIP3    H118477   5.399   4.235   1.268 -1.5875  1.6720  0.2278
 6157TIP3    H218478   5.378   4.161   1.137  1.4731 -0.1193  0.6634
 6158TIP3   OH218479   5.846   4.048   3.740 -0.3569  0.0100  0.0783
 6158TIP3    H118480   5.809   4.071   3.655  0.1364 -0.4582 -0.2724
 6158TIP3    H218481   5.936   4.080   3.735  0.0155 -1.0333 -0.0149
 6159TIP3   OH218482   1.575   4.174   4.563  0.1185 -0.2628 -0.1901
 6159TIP3    H118483   1.548   4.150   4.474  0.3201 -2.0542  0.1945
 6159TIP3    H218484   1.497   4.213   4.602  0.2351  1.2060 -1.3616
 6160TIP3   OH218485   1.397   3.000   0.163 -0.1344 -0.0523 -1.0578
 6160TIP3    H118486   1.310   2.998   0.123  0.8421 -0.6348 -3.3038
 6160TIP3    H218487   1.457   3.007   0.089  1.7202  1.4415  0.4818
 6161TIP3   OH218488   1.387   2.405   0.242  0.2782  0.1298  0.0900
 6161TIP3    H118489   1.465   2.452   0.273  0.5373  1.3047 -2.1010
 6161TIP3    H218490   1.418   2.359   0.163 -1.5736  2.1220 -1.9382
 6162TIP3   OH218491   4.092   0.415   1.434 -0.7400  0.2193 -0.5248
 6162TIP3    H118492   4.030   0.488   1.440  0.2054  1.1325 -1.3726
 6162TIP3    H218493   4.101   0.384   1.524 -2.3753  0.0763 -0.3676
 6163TIP3   OH218494   3.786   1.915   3.959  0.2888 -0.4441  0.3500
 6163TIP3    H118495   3.707   1.912   3.905  0.6201 -0.5389 -0.1346
 6163TIP3    H218496   3.855   1.942   3.898  0.7923 -1.1930  0.5774
 6164TIP3   OH218497   2.445   2.827   1.563  0.1451  0.5433  0.6751
 6164TIP3    H118498   2.374   2.854   1.505  0.6002 -1.6359 -1.0208
 6164TIP3    H218499   2.401   2.804   1.645 -1.3518 -1.5344 -0.5789
 6165TIP3   OH218500   0.652   4.307   1.052 -0.4770 -0.0059 -0.1891
 6165TIP3    H118501   0.658   4.401   1.065 -0.0056  0.1325 -1.2483
 6165TIP3    H218502   0.594   4.276   1.121 -0.1538  0.9722  0.5360
 6166TIP3   OH218503   1.052   1.669   4.228  0.8317  0.1549 -0.0871
 6166TIP3    H118504   0.973   1.637   4.271  0.6152  0.2176 -0.4375
 6166TIP3    H218505   1.103   1.590   4.210  0.1352 -0.0445 -1.2774
 6167TIP3   OH218506   5.448   0.800   1.793 -0.2307 -0.3033 -0.1552
 6167TIP3    H118507   5.522   0.852   1.824 -0.6685 -0.0393  0.4614
 6167TIP3    H218508   5.461   0.713   1.832  0.3734 -0.6071 -0.9949
 6168TIP3   OH218509   3.969   5.038   4.235 -0.2497 -0.2120 -0.4658
 6168TIP3    H118510   3.999   4.959   4.279  0.6262  1.2703  1.7607
 6168TIP3    H218511   3.876   5.046   4.259 -0.1057 -0.1004  0.0620
 6169TIP3   OH218512   3.963   3.503   4.494  0.4861  0.5095  0.0265
 6169TIP3    H118513   3.901   3.533   4.562 -3.0152 -2.7530 -1.3777
 6169TIP3    H218514   3.937   3.552   4.416 -0.0884 -0.5902 -0.4819
 6170TIP3   OH218515   6.160   4.145   2.295  0.1310 -0.0829  0.2535
 6170TIP3    H118516   6.123   4.057   2.303  0.6817 -0.3774 -0.4101
 6170TIP3    H218517   6.253   4.134   2.316  0.2723  0.2839 -0.1723
 6171TIP3   OH218518   2.374   1.246   2.511  0.2455 -0.1664  0.0519
 6171TIP3    H118519   2.314   1.248   2.437 -1.8921 -0.1793  1.7148
 6171TIP3    H218520   2.321   1.270   2.586  2.1705 -0.8686  1.7224
 6172TIP3   OH218521   6.002   4.549   1.019 -0.7116 -0.4350 -0.0027
 6172TIP3    H118522   5.981   4.537   0.926 -0.9264  1.1489 -0.1801
 6172TIP3    H218523   5.930   4.507   1.065  0.0586 -2.4372 -0.4886
 6173TIP3   OH218524   3.185   0.157   3.234 -0.1246 -0.2610  0.0411
 6173TIP3    H118525   3.092   0.164   3.257  0.0514  1.4198  0.3249
 6173TIP3    H218526   3.219   0.091   3.295 -1.7368 -3.4908 -2.1978
 6174TIP3   OH218527   3.956   4.712   2.247  0.1607 -0.5965  0.4650
 6174TIP3    H118528   3.979   4.656   2.173 -0.7476 -2.8860  1.8389
 6174TIP3    H218529   3.930   4.795   2.206 -3.4613 -2.6975 -2.1570
 6175TIP3   OH218530   0.011   3.354   2.315 -0.1381 -0.4328 -0.1176
 6175TIP3    H118531   0.031   3.411   2.389 -2.3311 -0.3286  0.4879
 6175TIP3    H218532   0.064   3.276   2.330 -0.1911 -0.2204  1.3305
 6176TIP3   OH218533   4.374   2.082   1.387  0.1177 -0.3197  0.0666
 6176TIP3    H118534   4.403   2.113   1.473  0.0502  4.0327 -1.2515
 6176TIP3    H218535   4.448   2.101   1.329 -0.7606 -0.8249 -1.2642
 6177TIP3   OH218536   5.303   2.309   3.706 -0.2999  0.2476 -0.7292
 6177TIP3    H118537   5.280   2.282   3.795 -0.4096  0.2299 -0.7632
 6177TIP3    H218538   5.260   2.245   3.650  0.9713 -0.6392 -0.7591
 6178TIP3   OH218539   0.467   2.785   4.237 -0.0171  0.2461  0.5411
 6178TIP3    H118540   0.546   2.784   4.291  0.8054 -1.2761 -0.6019
 6178TIP3    H218541   0.478   2.861   4.179  1.8096 -1.2018 -1.1807
 6179TIP3   OH218542   2.861   3.300   0.739  0.4496  0.5335 -0.0921
 6179TIP3    H118543   2.895   3.326   0.825  1.5528  0.3846 -0.4595
 6179TIP3    H218544   2.773   3.268   0.757  1.1648 -0.8379  1.2069
 6180TIP3   OH218545   1.281   5.592   0.724 -0.3059  0.3148  1.1805
 6180TIP3    H118546   1.274   5.684   0.696 -1.1273  0.5894  2.2312
 6180TIP3    H218547   1.190   5.561   0.725  0.0895 -1.5819 -2.4396
 6181TIP3   OH218548   4.326   2.490   0.356  0.2884  0.1925 -0.1801
 6181TIP3    H118549   4.345   2.495   0.450 -1.6029  1.3896  0.1872
 6181TIP3    H218550   4.412   2.490   0.315  1.1519  0.5071  1.5141
 6182TIP3   OH218551   6.110   1.968   0.279  0.0562  0.2715 -0.0475
 6182TIP3    H118552   6.174   1.897   0.278  0.6794  0.8295 -0.3813
 6182TIP3    H218553   6.092   1.983   0.371  0.3106  0.0226  0.0434
 6183TIP3   OH218554   3.110   0.116   0.188 -0.4692 -0.2323 -0.4886
 6183TIP3    H118555   3.112   0.134   0.282 -0.6380  1.2599 -0.7443
 6183TIP3    H218556   3.200   0.129   0.158 -0.6250  0.4111 -0.7046
 6184TIP3   OH218557   0.978   1.202   3.418  0.1660  0.9956 -0.2824
 6184TIP3    H118558   0.892   1.169   3.444  0.3024 -0.0816 -1.1110
 6184TIP3    H218559   1.018   1.129   3.370  1.4426  1.5645 -0.1278
 6185TIP3   OH218560   5.255   3.457   3.865 -0.2666  0.5179  0.1086
 6185TIP3    H118561   5.250   3.551   3.853  0.5152  0.7612  1.4901
 6185TIP3    H218562   5.322   3.429   3.803 -0.9035  0.7731 -0.7101
 6186TIP3   OH218563   3.181   4.720   3.363  0.1241 -0.4957 -0.0572
 6186TIP3    H118564   3.217   4.643   3.319  0.2420  0.5220 -1.8780
 6186TIP3    H218565   3.103   4.689   3.407 -0.3993 -1.4903 -1.5991
 6187TIP3   OH218566   5.494   2.123   2.148  0.0230  0.2297 -0.6998
 6187TIP3    H118567   5.581   2.160   2.157  0.9729 -2.1236  0.5180
 6187TIP3    H218568   5.482   2.113   2.053  1.0767  0.5274 -0.8762
 6188TIP3   OH218569   0.678   2.192   2.047  0.2284  0.4895  0.1719
 6188TIP3    H118570   0.702   2.285   2.045 -0.2236  0.6067  0.2030
 6188TIP3    H218571   0.707   2.158   1.963 -1.5179  1.1408 -0.7448
 6189TIP3   OH218572   1.236   3.006   2.984 -0.1450  0.7288 -0.2791
 6189TIP3    H118573   1.190   2.954   2.918  1.6199  1.2387 -2.0171
 6189TIP3    H218574   1.217   2.962   3.066 -0.1665 -1.6452 -1.4581
 6190TIP3   OH218575   3.607   0.166   1.118  0.4230 -0.5634  0.4462
 6190TIP3    H118576   3.655   0.249   1.117  0.5255 -0.5931 -1.7811
 6190TIP3    H218577   3.518   0.190   1.091 -0.2244 -0.8521  2.2428
 6191TIP3   OH218578   3.954   1.507   3.728 -0.3331 -0.3324  0.3157
 6191TIP3    H118579   3.992   1.428   3.767 -1.1112 -0.6525  0.4388
 6191TIP3    H218580   3.901   1.475   3.656 -0.6762  0.0784  0.3847
 6192TIP3   OH218581   4.073   3.101   1.258 -0.3952  0.1722  0.2388
 6192TIP3    H118582   4.067   3.011   1.226 -0.2985  0.5099 -0.7515
 6192TIP3    H218583   4.104   3.152   1.183  0.4355  0.8887  1.0414
 6193TIP3   OH218584   4.917   3.190   0.065 -0.2404 -0.6565 -0.4884
 6193TIP3    H118585   4.959   3.154   0.142 -1.2911 -0.3944  0.2352
 6193TIP3    H218586   4.951   3.279   0.058 -0.9470 -0.3034  0.3363
 6194TIP3   OH218587   2.763   2.367   1.953  0.5123 -0.6327 -0.2753
 6194TIP3    H118588   2.781   2.460   1.967 -1.9584  0.1217 -1.5048
 6194TIP3    H218589   2.737   2.361   1.861 -1.1603 -2.2045  0.2330
 6195TIP3   OH218590   3.356   1.483   1.197  0.1511 -0.5261 -0.9962
 6195TIP3    H118591   3.269   1.495   1.159 -0.3487 -1.1914 -0.1005
 6195TIP3    H218592   3.347   1.406   1.252  1.2119 -0.3611 -0.5766
 6196TIP3   OH218593   1.366   5.838   1.873 -0.0696  0.2121  0.7145
 6196TIP3    H118594   1.381   5.799   1.787 -0.6238 -1.0575  1.1690
 6196TIP3    H218595   1.385   5.931   1.861  2.1996 -0.3004 -0.1896
 6197TIP3   OH218596   1.984   0.040   1.105 -0.2406 -0.5360 -0.1413
 6197TIP3    H118597   2.039  -0.038   1.095  0.7040  0.1830 -0.6301
 6197TIP3    H218598   2.037   0.101   1.156  0.0665  0.7438 -1.8951
 6198TIP3   OH218599   0.413   3.900   1.271 -0.2982  0.5091 -0.5625
 6198TIP3    H118600   0.340   3.849   1.237  1.1089 -0.4469 -2.2929
 6198TIP3    H218601   0.381   3.991   1.270 -1.7483  0.0297 -0.4019
 6199TIP3   OH218602   3.053   3.011   2.227  0.5062  0.2653 -0.0867
 6199TIP3    H118603   2.975   3.044   2.271 -0.4090 -0.7064 -0.9369
 6199TIP3    H218604   3.097   2.957   2.292  0.7029  1.1335  0.5205
 6200TIP3   OH218605   2.275   1.673   3.468  0.3970  0.4694  0.1136
 6200TIP3    H118606   2.289   1.721   3.386 -0.8180 -1.6150 -1.4041
 6200TIP3    H218607   2.350   1.614   3.475 -0.2675 -0.4638 -0.3742
 6201TIP3   OH218608   5.081   2.659   1.551  0.6507 -0.0423  0.2764
 6201TIP3    H118609   5.028   2.697   1.481  1.3683 -0.1682 -0.3538
 6201TIP3    H218610   5.128   2.733   1.589  1.6552 -0.1946 -0.6095
 6202TIP3   OH218611   2.418   4.003   3.730 -0.7256 -0.2852 -0.6597
 6202TIP3    H118612   2.486   4.043   3.785 -1.0332 -0.7778  0.1055
 6202TIP3    H218613   2.438   4.032   3.641  0.3629 -0.2541 -0.4172
 6203TIP3   OH218614   5.977   5.158   1.285 -0.3264  0.1019  0.1709
 6203TIP3    H118615   6.064   5.120   1.273 -0.7694 -1.5039  1.6228
 6203TIP3    H218616   5.919   5.104   1.231 -0.5948  0.3827  0.1713
 6204TIP3   OH218617   4.847   4.452   3.559 -0.5537  0.1827 -0.3554
 6204TIP3    H118618   4.830   4.514   3.630  0.4964 -1.1107  1.0827
 6204TIP3    H218619   4.781   4.384   3.570  0.3819 -0.6640  0.2019
 6205TIP3   OH218620   0.055   5.942   2.097 -0.0723 -0.4240 -0.3900
 6205TIP3    H118621   0.054   5.905   2.009  0.3157 -1.3997  0.0145
 6205TIP3    H218622   0.141   5.920   2.133 -0.8032 -1.4538  0.8217
 6206TIP3   OH218623   3.589   4.435   0.479 -0.1357  0.2463  0.8833
 6206TIP3    H118624   3.647   4.382   0.424  0.8060 -0.3394  2.3827
 6206TIP3    H218625   3.569   4.379   0.554 -0.3691  1.4628  1.7616
 6207TIP3   OH218626   2.715   5.446   2.194 -0.0546  0.1618  0.3259
 6207TIP3    H118627   2.766   5.491   2.262  0.0051  0.3129  0.1810
 6207TIP3    H218628   2.769   5.371   2.170  0.1700  0.4024  0.0685
 6208TIP3   OH218629   4.138   1.317   3.223 -0.4664 -0.4539 -0.2123
 6208TIP3    H118630   4.182   1.400   3.207  0.1442 -0.7511 -0.0875
 6208TIP3    H218631   4.177   1.256   3.160 -3.7215  0.2468 -3.2056
 6209TIP3   OH218632   3.592   4.263   1.360  0.1510 -0.0809 -0.5654
 6209TIP3    H118633   3.615   4.170   1.360  1.0231  0.0982 -1.7083
 6209TIP3    H218634   3.546   4.276   1.277 -0.2829  0.4450 -0.2485
 6210TIP3   OH218635   3.336   4.511   3.308 -0.3403  0.0348  0.0888
 6210TIP3    H118636   3.342   4.462   3.390 -2.8254 -0.6310 -0.0489
 6210TIP3    H218637   3.421   4.554   3.299  0.7362 -1.5829  1.9152
 6211TIP3   OH218638   2.182   2.338   0.776 -0.1362  0.0538 -0.3763
 6211TIP3    H118639   2.213   2.310   0.690  1.8498 -0.6310  0.5091
 6211TIP3    H218640   2.163   2.431   0.765 -0.9113 -0.2360 -1.7963
 6212TIP3   OH218641   6.070   4.784   4.447  0.2542 -0.1821 -0.1989
 6212TIP3    H118642   6.084   4.824   4.532 -2.0294 -0.0216  0.1602
 6212TIP3    H218643   6.000   4.720   4.461  0.8550 -1.2343 -1.6514
 6213TIP3   OH218644   6.327   2.891   0.273 -0.3415 -0.5700 -0.7907
 6213TIP3    H118645   6.366   2.865   0.190 -0.9605 -1.5656 -0.7986
 6213TIP3    H218646   6.233   2.879   0.260 -0.4236 -1.1260  0.1561
 6214TIP3   OH218647   0.453   5.054   2.301  0.3690 -0.0840  0.4632
 6214TIP3    H118648   0.476   5.147   2.294 -0.2497  0.0512  0.1310
 6214TIP3    H218649   0.411   5.033   2.218  0.6677 -0.7162  0.4653
 6215TIP3   OH218650   2.376   2.954   0.668  0.6683 -0.1042 -0.0954
 6215TIP3    H118651   2.327   3.014   0.612 -0.2939 -0.1977  0.6356
 6215TIP3    H218652   2.462   2.994   0.676 -0.0917  1.4210  0.7625
 6216TIP3   OH218653   3.857   1.455   1.940 -0.0646  0.3260 -0.0350
 6216TIP3    H118654   3.846   1.373   1.988 -0.1889  0.0507 -0.5237
 6216TIP3    H218655   3.886   1.427   1.853 -0.5099  0.7819 -0.3300
 6217TIP3   OH218656   2.166   0.012   1.550  0.2232 -0.1722  0.7605
 6217TIP3    H118657   2.096  -0.052   1.542  0.7899 -0.8084  0.7587
 6217TIP3    H218658   2.138   0.085   1.495 -0.1809 -0.6570  0.3050
 6218TIP3   OH218659   2.412   2.573   0.022 -0.1030  0.4215  0.2824
 6218TIP3    H118660   2.388   2.654   0.068 -2.1399 -0.1344  0.2910
 6218TIP3    H218661   2.396   2.504   0.086 -1.6740 -0.2490 -0.7719
 6219TIP3   OH218662   0.228   1.955   4.930  0.2022 -0.1802 -0.5788
 6219TIP3    H118663   0.206   1.938   5.022 -0.3636  2.4143 -0.1706
 6219TIP3    H218664   0.144   1.958   4.885  0.4326 -0.6053 -1.0525
 6220TIP3   OH218665   1.067   1.942   3.380 -0.0490  0.4088 -0.0555
 6220TIP3    H118666   1.024   2.019   3.418  0.5116  0.5279  0.3416
 6220TIP3    H218667   1.137   1.921   3.440 -1.4824 -1.7483  0.9887
 6221TIP3   OH218668   6.006   4.816   0.908 -0.3025 -0.2686  0.8528
 6221TIP3    H118669   6.010   4.733   0.861 -1.1499  0.4824 -0.6291
 6221TIP3    H218670   6.072   4.871   0.866  0.3838 -0.2287  1.9495
 6222TIP3   OH218671   2.382   3.707   1.821 -0.1085 -0.1641  0.3387
 6222TIP3    H118672   2.422   3.620   1.817 -1.3467 -0.6898 -2.1650
 6222TIP3    H218673   2.320   3.702   1.894 -1.8459 -2.2051 -1.1718
 6223TIP3   OH218674   3.754   0.176   5.001  0.0523  0.4295  0.0599
 6223TIP3    H118675   3.794   0.194   5.087  0.3456 -0.5997  0.1531
 6223TIP3    H218676   3.770   0.256   4.951 -0.8819  1.3919  1.2252
 6224TIP3   OH218677   2.089   0.718   2.101  0.2191 -0.0477 -0.0540
 6224TIP3    H118678   2.111   0.701   2.010 -0.1965 -0.7663 -0.0197
 6224TIP3    H218679   2.100   0.813   2.111  0.3413  0.0200 -0.8249
 6225TIP3   OH218680   5.694   2.399   0.052  0.1004  0.7189  0.3117
 6225TIP3    H118681   5.787   2.406   0.030  0.4128 -0.2671  1.2194
 6225TIP3    H218682   5.674   2.481   0.098  0.5213  0.9306  0.1240
 6226TIP3   OH218683   0.747   3.919   1.643 -0.0283  0.3079 -0.2250
 6226TIP3    H118684   0.731   3.967   1.562 -0.1779  0.4637 -0.1029
 6226TIP3    H218685   0.820   3.965   1.684 -0.0326  0.3024 -0.2111
 6227TIP3   OH218686   1.637   2.225   4.666 -0.1155 -0.2889  0.6953
 6227TIP3    H118687   1.542   2.221   4.676 -0.6479 -0.5811 -3.0350
 6227TIP3    H218688   1.667   2.135   4.676 -0.5586 -0.5510 -0.2524
 6228TIP3   OH218689   3.907   3.324   1.341 -0.7924 -0.0350  1.0817
 6228TIP3    H118690   3.956   3.242   1.342  0.6259  0.7205 -0.3424
 6228TIP3    H218691   3.871   3.329   1.252 -2.1677  0.1766  1.6293
 6229TIP3   OH218692   3.151   3.302   4.918  0.3789  0.3673 -0.4730
 6229TIP3    H118693   3.084   3.363   4.950  0.5574  0.2999  0.0393
 6229TIP3    H218694   3.206   3.284   4.994  0.0722 -0.7869 -0.5093
 6230TIP3   OH218695   3.003   1.337   0.917 -0.4488 -0.5490  0.3813
 6230TIP3    H118696   2.970   1.256   0.954  0.4135 -0.3841  1.5766
 6230TIP3    H218697   3.099   1.329   0.921 -0.3126 -0.3334 -1.4375
 6231TIP3   OH218698   6.260   2.670   4.918  0.0300  0.0635  0.1819
 6231TIP3    H118699   6.344   2.695   4.880  0.6227 -1.1498  0.6642
 6231TIP3    H218700   6.244   2.735   4.986  0.5606  0.3093  0.0782
 6232TIP3   OH218701   3.685   0.908   1.718  0.0032  0.2788  0.7323
 6232TIP3    H118702   3.663   1.000   1.709  1.5044  0.4513 -2.7957
 6232TIP3    H218703   3.689   0.893   1.813 -1.6384  3.4308  1.4144
 6233TIP3   OH218704   5.336   3.054   2.955  0.5589 -0.2639  0.2026
 6233TIP3    H118705   5.287   3.131   2.926 -3.0460 -2.4472 -0.1257
 6233TIP3    H218706   5.357   3.072   3.046 -2.1648  0.3411  0.8005
 6234TIP3   OH218707   2.403   4.229   5.063 -0.0503  0.2032  0.1686
 6234TIP3    H118708   2.373   4.308   5.019 -2.8094 -1.5603 -1.3967
 6234TIP3    H218709   2.495   4.221   5.038 -0.4404  1.4936 -1.8851
 6235TIP3   OH218710   0.491   0.298   1.281  0.1045 -0.3147 -0.1358
 6235TIP3    H118711   0.517   0.207   1.300  0.1883  0.1548  2.3225
 6235TIP3    H218712   0.566   0.334   1.233  0.0635 -1.5260 -1.1644
 6236TIP3   OH218713   0.341   2.404   2.237 -0.4025 -0.2674 -0.7312
 6236TIP3    H118714   0.391   2.374   2.161  0.1808 -0.8122 -0.1499
 6236TIP3    H218715   0.336   2.327   2.294  0.5196  0.5289  0.4805
 6237TIP3   OH218716   1.138   0.226   3.142 -0.4545  0.2513 -0.0283
 6237TIP3    H118717   1.078   0.300   3.131 -1.0763 -0.5384 -2.5387
 6237TIP3    H218718   1.201   0.236   3.071  0.3272 -0.8526  0.4940
 6238TIP3   OH218719   0.624   0.860   1.234  0.2014  0.4476 -0.1587
 6238TIP3    H118720   0.603   0.841   1.142 -1.4006  1.5474 -0.0499
 6238TIP3    H218721   0.628   0.773   1.275 -1.0457  0.0072 -0.8810
 6239TIP3   OH218722   1.151   3.930   1.266 -0.0746  0.5395  0.0056
 6239TIP3    H118723   1.090   3.974   1.207 -0.1420  0.1246 -0.2392
 6239TIP3    H218724   1.207   3.878   1.208  1.0229  1.5137  0.1561
 6240TIP3   OH218725   0.059   3.503   4.885 -0.2545  0.1339  0.0214
 6240TIP3    H118726   0.002   3.427   4.871  1.3027 -0.9849 -0.4740
 6240TIP3    H218727   0.079   3.534   4.797  1.8793 -1.0522  0.0144
 6241TIP3   OH218728   5.028   0.487   4.252 -0.5808  0.5342 -0.5693
 6241TIP3    H118729   5.012   0.422   4.183 -0.6563 -1.1786  1.0016
 6241TIP3    H218730   4.955   0.478   4.312  0.1093  1.1229  0.3934
 6242TIP3   OH218731   5.185   3.268   2.860 -0.1986 -0.2985  0.2864
 6242TIP3    H118732   5.178   3.321   2.780 -1.5837 -2.3704 -1.0728
 6242TIP3    H218733   5.161   3.328   2.931 -1.7813  0.8902 -1.1648
 6243TIP3   OH218734   6.280   5.719   1.188  0.2100 -0.2568  0.2541
 6243TIP3    H118735   6.189   5.745   1.205  0.2006 -0.4757  0.5639
 6243TIP3    H218736   6.321   5.720   1.275 -0.1897 -2.7792  0.5627
 6244TIP3   OH218737   0.853   2.613   3.719  0.4005  0.5446 -0.4520
 6244TIP3    H118738   0.815   2.635   3.804  0.8672 -0.4994  0.0457
 6244TIP3    H218739   0.860   2.517   3.720  0.6990  0.5428 -1.5426
 6245TIP3   OH218740   1.594   5.185   3.345 -0.0475 -0.2376 -0.2195
 6245TIP3    H118741   1.628   5.269   3.375 -0.6207 -0.1968  0.3621
 6245TIP3    H218742   1.670   5.138   3.312  0.2966  0.4615 -0.4311
 6246TIP3   OH218743   5.404   1.157   4.756 -0.1075  0.1180  0.3973
 6246TIP3    H118744   5.432   1.107   4.833  1.3727  0.0765 -0.1259
 6246TIP3    H218745   5.462   1.233   4.756 -1.0750  0.8664  0.1193
 6247TIP3   OH218746   3.565   0.404   2.844  0.6291  0.2010  0.3361
 6247TIP3    H118747   3.635   0.463   2.815  0.6843 -0.4248 -0.8703
 6247TIP3    H218748   3.490   0.461   2.860  1.0570  0.7429  0.4314
 6248TIP3   OH218749   4.576   0.726   0.936 -0.5494 -0.2334  0.1057
 6248TIP3    H118750   4.496   0.706   0.887  0.1228  1.8244 -2.0308
 6248TIP3    H218751   4.636   0.654   0.915 -1.1410 -0.7240  0.0697
 6249TIP3   OH218752   4.348   4.341   5.189  0.2050 -0.2319 -0.4253
 6249TIP3    H118753   4.394   4.416   5.152  0.1215 -0.1225 -0.3098
 6249TIP3    H218754   4.262   4.342   5.146  0.3728 -0.5411 -0.7733
 6250TIP3   OH218755   5.411   0.179   2.807 -0.5674  0.4853  0.0065
 6250TIP3    H118756   5.503   0.205   2.814 -0.7591  1.8042 -1.7991
 6250TIP3    H218757   5.405   0.100   2.861  1.0021  1.8314  2.3470
 6251TIP3   OH218758   6.279   4.279   2.603 -0.2098  0.5805  0.0623
 6251TIP3    H118759   6.274   4.369   2.570 -2.0581  0.3375 -0.4576
 6251TIP3    H218760   6.307   4.287   2.694  1.7245  1.5049 -0.5647
 6252TIP3   OH218761   6.138   4.831   4.115  0.0127 -0.2893 -0.2754
 6252TIP3    H118762   6.215   4.870   4.075  1.7164 -0.9431  2.1463
 6252TIP3    H218763   6.086   4.905   4.147  1.6191  0.1603  1.4606
 6253TIP3   OH218764   0.377   4.837   2.524 -0.2880 -0.3013  0.0771
 6253TIP3    H118765   0.453   4.881   2.486 -2.1586  1.5055 -1.8757
 6253TIP3    H218766   0.341   4.900   2.586 -1.2725 -0.3108 -0.4623
 6254TIP3   OH218767   6.095   2.293   2.783 -0.0052  0.7786  0.2322
 6254TIP3    H118768   6.145   2.212   2.772 -0.7079  0.3276  0.2864
 6254TIP3    H218769   6.027   2.288   2.716  0.8264  2.0260 -0.7364
 6255TIP3   OH218770   2.149   0.253   2.144 -0.7426  0.1509  0.5592
 6255TIP3    H118771   2.163   0.158   2.138 -3.7255 -0.6891  3.5129
 6255TIP3    H218772   2.096   0.274   2.067 -0.8936 -0.7872  0.3942
 6256TIP3   OH218773   6.324   5.748   2.459  0.0168  0.6283 -0.5865
 6256TIP3    H118774   6.268   5.816   2.420  1.0119  2.1937  0.5654
 6256TIP3    H218775   6.306   5.670   2.407 -1.7792  1.5577 -1.4779
 6257TIP3   OH218776   3.913   0.174   4.244 -0.3593 -0.1962 -0.4443
 6257TIP3    H118777   3.936   0.178   4.151 -1.5326 -1.7061 -0.8283
 6257TIP3    H218778   3.995   0.153   4.289 -0.1685 -1.4084 -1.3451
 6258TIP3   OH218779   6.307   4.973   3.334 -0.0709  0.1659  0.2260
 6258TIP3    H118780   6.332   4.960   3.425 -0.4407  0.8750  0.4310
 6258TIP3    H218781   6.355   5.050   3.306  1.6849 -1.2370 -0.8275
 6259TIP3   OH218782   4.869   5.866   1.107 -0.0936  0.2508  0.3920
 6259TIP3    H118783   4.897   5.889   1.019 -0.4457  1.7540  0.6555
 6259TIP3    H218784   4.788   5.816   1.094  0.6603 -0.8624 -0.1876
 6260TIP3   OH218785   4.525   1.183   3.991 -0.1464  0.2500  0.1474
 6260TIP3    H118786   4.619   1.168   3.999 -0.0527  0.8991  0.2990
 6260TIP3    H218787   4.490   1.166   4.079  0.3866  3.8373  1.1804
 6261TIP3   OH218788   2.196   4.028   5.047  0.5218  1.0384 -0.1868
 6261TIP3    H118789   2.256   4.103   5.051  2.0237 -0.1315  0.1120
 6261TIP3    H218790   2.252   3.954   5.021 -1.0919  0.1868 -1.4595
 6262TIP3   OH218791   2.385   5.884   0.581  0.0406 -0.2139  0.1994
 6262TIP3    H118792   2.469   5.853   0.615  1.7151  2.7398 -0.9181
 6262TIP3    H218793   2.401   5.900   0.488 -2.0095 -0.3059 -0.2179
 6263TIP3   OH218794   3.143   4.304   0.339  0.6821  0.4632  0.0819
 6263TIP3    H118795   3.145   4.274   0.430 -1.3857  1.2731  0.4607
 6263TIP3    H218796   3.050   4.323   0.323  1.1782  1.4702 -1.8241
 6264TIP3   OH218797   5.543   4.733   4.938 -0.8473  0.1780  0.6078
 6264TIP3    H118798   5.530   4.754   5.031 -3.4896 -0.2362  0.4090
 6264TIP3    H218799   5.520   4.814   4.893  0.7573  0.4812  0.2831
 6265TIP3   OH218800   5.504   1.465   1.980  0.6275 -0.0343 -0.2768
 6265TIP3    H118801   5.483   1.547   1.936  1.4910 -0.0408 -0.7166
 6265TIP3    H218802   5.426   1.410   1.967 -0.2552  0.9546  0.6524
 6266TIP3   OH218803   5.222   0.487   1.696 -0.1008 -0.8700  0.7262
 6266TIP3    H118804   5.162   0.460   1.626 -0.4857 -0.2381  0.8022
 6266TIP3    H218805   5.211   0.421   1.763  0.1021 -1.3602  0.2846
 6267TIP3   OH218806   2.411   0.081   2.908 -0.2095  0.3587 -0.1231
 6267TIP3    H118807   2.489   0.090   2.964 -1.2386 -1.5194  1.7595
 6267TIP3    H218808   2.444   0.036   2.831  0.7419  0.4152  0.2240
 6268TIP3   OH218809   6.263   1.511   2.907 -0.3612  0.6625  0.2373
 6268TIP3    H118810   6.324   1.491   2.837  0.5601  0.2453  1.1261
 6268TIP3    H218811   6.219   1.428   2.925 -1.0696  0.9181 -0.2728
 6269TIP3   OH218812   1.246   3.735   0.208 -0.1357 -0.0044  1.0238
 6269TIP3    H118813   1.315   3.793   0.240  0.6328 -1.2224  1.6247
 6269TIP3    H218814   1.214   3.690   0.286  2.5800 -3.9118  0.1652
 6270TIP3   OH218815   0.181   3.094   2.540 -0.3193 -0.6138  0.2073
 6270TIP3    H118816   0.186   3.105   2.445 -0.7368 -0.1631  0.2318
 6270TIP3    H218817   0.108   3.033   2.553  1.0659 -2.3560  0.1456
 6271TIP3   OH218818   1.436   2.612   4.259  0.4484  0.1047 -0.1601
 6271TIP3    H118819   1.386   2.693   4.250 -0.2257 -0.3145 -0.2239
 6271TIP3    H218820   1.395   2.565   4.331  0.2801 -0.5745 -0.6780
 6272TIP3   OH218821   6.206   4.671   2.615 -0.1621 -0.2908  0.2825
 6272TIP3    H118822   6.128   4.724   2.624  1.6884  3.1532 -1.8355
 6272TIP3    H218823   6.250   4.676   2.700 -1.7816 -1.6536  1.2505
 6273TIP3   OH218824   1.707   5.653   1.035  0.3656 -0.8009  0.4244
 6273TIP3    H118825   1.801   5.673   1.026  0.0962 -0.0064 -0.7994
 6273TIP3    H218826   1.663   5.733   1.007 -0.7106 -1.6886 -0.5054
 6274TIP3   OH218827   1.360   0.066   0.230  0.1865  0.2401  0.5500
 6274TIP3    H118828   1.278   0.080   0.279 -0.5247  1.2225 -0.8252
 6274TIP3    H218829   1.406   0.150   0.238 -0.3334  0.7384 -1.0649
 6275TIP3   OH218830   4.936   0.383   0.974 -0.1735  0.2557 -0.2371
 6275TIP3    H118831   4.930   0.349   0.885 -0.5024 -2.5932  0.7601
 6275TIP3    H218832   4.970   0.310   1.026 -0.8510  1.5044  2.1464
 6276TIP3   OH218833   0.152   2.704   0.402  0.0613  0.0154 -0.2049
 6276TIP3    H118834   0.101   2.680   0.479 -0.6598 -2.1093 -1.2645
 6276TIP3    H218835   0.091   2.752   0.346 -0.1174 -0.5433 -0.4904
 6277TIP3   OH218836   6.274   4.551   2.177  0.5314 -0.0832  0.8447
 6277TIP3    H118837   6.318   4.545   2.262  0.7681 -1.2005  0.6686
 6277TIP3    H218838   6.277   4.461   2.143 -0.7108  0.0922  0.2291
 6278TIP3   OH218839   1.096   4.580   2.700 -0.4535  0.0665  0.0697
 6278TIP3    H118840   1.151   4.517   2.655  0.2709 -0.3401  1.4482
 6278TIP3    H218841   1.089   4.546   2.789 -1.4434  1.0632  0.3976
 6279TIP3   OH218842   3.579   0.782   3.728 -0.5463 -0.6441  0.0067
 6279TIP3    H118843   3.512   0.715   3.713 -0.4280 -0.3280 -2.3286
 6279TIP3    H218844   3.637   0.774   3.652  0.6018  0.7961  0.6973
 6280TIP3   OH218845   5.531   0.589   1.931 -0.1265 -0.2348  0.4567
 6280TIP3    H118846   5.547   0.495   1.924  1.0778 -0.1936  2.0610
 6280TIP3    H218847   5.492   0.600   2.017  1.4012  0.8902  1.0552
 6281TIP3   OH218848   4.213   1.922   5.001 -0.4593 -0.0505 -0.4475
 6281TIP3    H118849   4.300   1.883   5.002 -0.0981  0.6524 -1.6673
 6281TIP3    H218850   4.224   2.003   4.951 -1.2441  1.4837  1.7351
 6282TIP3   OH218851   2.645   2.047   1.605  0.4875  0.3145  0.1643
 6282TIP3    H118852   2.596   2.126   1.580  1.5498  0.6485 -0.9429
 6282TIP3    H218853   2.730   2.057   1.562  0.4444 -1.6930 -0.4809
 6283TIP3   OH218854   5.186   4.544   3.309 -0.2211  0.4819 -0.5051
 6283TIP3    H118855   5.161   4.477   3.372 -1.2429  1.4462  0.1684
 6283TIP3    H218856   5.258   4.591   3.351  0.6409 -0.3023 -1.0699
 6284TIP3   OH218857   2.074   4.229   4.720  0.5721  0.9712  0.1167
 6284TIP3    H118858   2.074   4.308   4.774  1.2885  0.2619  1.2036
 6284TIP3    H218859   1.981   4.209   4.707  0.3571  0.8744  1.5778
 6285TIP3   OH218860   2.650   2.286   4.243 -0.0590 -0.2386 -0.4913
 6285TIP3    H118861   2.555   2.276   4.238  0.0812 -2.7016  0.3857
 6285TIP3    H218862   2.676   2.233   4.318  2.1029 -0.3724 -1.2558
 6286TIP3   OH218863   4.630   4.022   3.140  0.4102  0.1857 -0.0263
 6286TIP3    H118864   4.547   3.988   3.106  0.5177 -0.1096 -0.0003
 6286TIP3    H218865   4.613   4.040   3.232 -0.0633  1.5894 -0.3704
 6287TIP3   OH218866   5.910   5.731   1.082  0.5506 -0.3713  0.3515
 6287TIP3    H118867   5.864   5.815   1.092  1.3323  0.0824  0.2091
 6287TIP3    H218868   5.853   5.668   1.126 -0.7769 -0.0302 -0.8095
 6288TIP3   OH218869   4.163   5.860   1.183 -0.1058  0.0216  0.0676
 6288TIP3    H118870   4.145   5.799   1.255  0.4832  0.7465  0.8363
 6288TIP3    H218871   4.237   5.821   1.137  1.2592  0.8939  1.4612
 6289TIP3   OH218872   5.176   3.929   0.833 -0.7431  0.2658 -0.3014
 6289TIP3    H118873   5.193   3.885   0.917  0.9634 -0.3513 -0.9341
 6289TIP3    H218874   5.085   3.908   0.814 -0.8279 -0.5478  0.8505
 6290TIP3   OH218875   4.566   3.060   2.165 -0.2739  0.5996  0.3241
 6290TIP3    H118876   4.510   3.137   2.177 -0.4187  0.5645 -0.1387
 6290TIP3    H218877   4.521   2.990   2.212 -0.3525  0.6986  0.3965
 6291TIP3   OH218878   2.985   4.987   2.138 -0.2507  0.0087  0.0192
 6291TIP3    H118879   2.955   4.926   2.070  0.8634  0.0321 -0.5171
 6291TIP3    H218880   3.072   4.956   2.161 -0.7039 -0.1380  1.6334
 6292TIP3   OH218881   0.360   5.919   4.766 -0.1808 -0.5507 -0.4698
 6292TIP3    H118882   0.309   5.837   4.769 -0.2345 -0.5473 -1.1243
 6292TIP3    H218883   0.293   5.988   4.765 -0.1614 -0.5342 -0.9267
 6293TIP3   OH218884   1.825   3.254   3.057  0.0373  0.6210 -0.5190
 6293TIP3    H118885   1.808   3.308   2.980 -0.2195  0.1585 -0.7838
 6293TIP3    H218886   1.780   3.300   3.128 -0.2053  0.7440 -0.7489
 6294TIP3   OH218887   6.284   0.668   1.090 -0.5571  0.0398 -0.3576
 6294TIP3    H118888   6.212   0.620   1.133  0.7607  0.6213  2.7425
 6294TIP3    H218889   6.340   0.600   1.055  0.0420 -0.7181  1.8898
 6295TIP3   OH218890   0.096   2.817   4.556 -0.0957  0.2188 -0.2203
 6295TIP3    H118891   0.145   2.819   4.638 -1.9973 -1.2542  1.0427
 6295TIP3    H218892   0.008   2.847   4.580 -0.8384 -0.7898 -1.5841
 6296TIP3   OH218893   3.406   4.228   2.636 -0.1238 -0.3248  0.3595
 6296TIP3    H118894   3.432   4.308   2.682 -0.5966 -0.0430  0.1422
 6296TIP3    H218895   3.467   4.220   2.563 -1.2168  0.8651 -0.7306
 6297TIP3   OH218896   1.785   5.102   1.342 -0.1105 -0.3757  0.5637
 6297TIP3    H118897   1.705   5.155   1.344 -0.2641 -0.6136  0.6191
 6297TIP3    H218898   1.849   5.156   1.389  0.6966  1.3423 -2.2727
 6298TIP3   OH218899   0.507   0.370   4.795  0.4097  0.4515 -0.2615
 6298TIP3    H118900   0.414   0.391   4.788  0.3361 -0.0023 -0.7101
 6298TIP3    H218901   0.521   0.347   4.887 -0.4808 -2.0402 -0.6794
 6299TIP3   OH218902   0.752   5.523   4.631  0.1197  1.3519 -0.1654
 6299TIP3    H118903   0.726   5.539   4.541  2.6687  2.6986 -0.7584
 6299TIP3    H218904   0.702   5.587   4.682 -1.0322  0.8536 -0.6503
 6300TIP3   OH218905   4.624   0.767   4.220  0.2618  0.6766 -0.5857
 6300TIP3    H118906   4.646   0.854   4.254  1.6533  0.2261 -0.2848
 6300TIP3    H218907   4.537   0.778   4.183  0.5077  2.2739 -0.7826
 6301TIP3   OH218908   6.275   4.789   2.878 -0.0278 -1.0525 -0.1520
 6301TIP3    H118909   6.236   4.876   2.876  0.3700 -0.8044  1.5417
 6301TIP3    H218910   6.369   4.805   2.884  0.0591 -1.5980  0.0102
 6302TIP3   OH218911   2.594   5.159   3.355 -0.2143 -0.7773 -0.0981
 6302TIP3    H118912   2.686   5.136   3.360 -0.1579 -0.9889 -1.5431
 6302TIP3    H218913   2.577   5.169   3.261 -1.0108  1.9072  0.2382
 6303TIP3   OH218914   4.288   5.874   0.481 -0.4826  0.2187 -0.7433
 6303TIP3    H118915   4.308   5.782   0.466  0.4998  0.1649  0.7784
 6303TIP3    H218916   4.276   5.881   0.576 -0.5864  1.6560 -0.8477
 6304TIP3   OH218917   2.899   4.946   2.441 -0.2406 -0.3994 -0.2830
 6304TIP3    H118918   2.922   4.877   2.503  0.2762 -0.0613 -0.0957
 6304TIP3    H218919   2.982   4.987   2.417 -0.5982  0.6723  0.2259
 6305TIP3   OH218920   4.002   2.693   1.317 -0.1889 -0.2515  0.0817
 6305TIP3    H118921   3.957   2.686   1.233 -0.6339  0.0406  0.2905
 6305TIP3    H218922   4.029   2.603   1.337  0.1349 -0.2831 -0.4832
 6306TIP3   OH218923   4.398   4.529   4.980 -0.1377  0.3563  0.0602
 6306TIP3    H118924   4.340   4.524   4.904  1.2941  1.3677 -1.1627
 6306TIP3    H218925   4.475   4.577   4.948  0.7191  0.3773  2.0256
 6307TIP3   OH218926   1.526   0.269   0.345 -0.1104 -0.1502  0.4833
 6307TIP3    H118927   1.597   0.218   0.384  0.3495  0.5054  0.5127
 6307TIP3    H218928   1.512   0.342   0.405 -0.2544  0.1756  0.0629
 6308TIP3   OH218929   2.687   5.111   3.969  0.0655 -0.3556  0.3152
 6308TIP3    H118930   2.594   5.125   3.982  0.0922 -0.1809  0.3297
 6308TIP3    H218931   2.702   5.131   3.876  0.3007  0.8631  0.5955
 6309TIP3   OH218932   5.137   4.886   0.947 -0.0221  0.2130 -0.5118
 6309TIP3    H118933   5.065   4.856   0.891  0.4436 -1.5582 -0.2258
 6309TIP3    H218934   5.096   4.900   1.033 -0.7319  2.9127 -1.1838
 6310TIP3   OH218935   4.158   4.899   5.014  0.2763 -0.2026  0.2023
 6310TIP3    H118936   4.171   4.880   4.921  1.9561 -0.0295  0.3736
 6310TIP3    H218937   4.093   4.969   5.016  1.6035  1.1021 -0.9415
 6311TIP3   OH218938   5.089   3.324   3.532  1.0068 -0.0817  0.5484
 6311TIP3    H118939   5.112   3.413   3.560  2.0747 -0.2312  0.1875
 6311TIP3    H218940   5.167   3.273   3.549  0.2907 -1.0409  1.0585
 6312TIP3   OH218941   6.055   4.246   1.110  0.6775 -0.4814  0.0456
 6312TIP3    H118942   5.990   4.314   1.130  0.2109 -0.9335  0.0916
 6312TIP3    H218943   6.042   4.226   1.018  1.8352  0.5496 -0.3715
 6313TIP3   OH218944   2.999   2.231   4.074  0.0684 -0.8006 -0.0950
 6313TIP3    H118945   3.058   2.275   4.013  1.6396 -1.3911  0.9291
 6313TIP3    H218946   2.918   2.220   4.025  0.7547  0.1586 -1.5188
 6314TIP3   OH218947   5.864   2.493   1.127  0.1773  0.3364  0.3039
 6314TIP3    H118948   5.790   2.484   1.187 -0.4699 -1.3868 -0.6652
 6314TIP3    H218949   5.827   2.474   1.041  1.3511  1.4629 -0.4806
 6315TIP3   OH218950   4.119   0.949   1.786 -0.2248  0.2594  0.8357
 6315TIP3    H118951   4.166   0.956   1.703  2.2275 -0.5765  2.0328
 6315TIP3    H218952   4.125   1.037   1.825 -2.3826  0.9730 -0.2757
 6316TIP3   OH218953   1.146   4.499   4.017  0.2342 -0.2780 -0.4120
 6316TIP3    H118954   1.079   4.541   3.964  0.6474 -0.2202 -0.8961
 6316TIP3    H218955   1.122   4.521   4.107  0.8161  1.6435 -0.6656
 6317TIP3   OH218956   6.086   0.284   0.731 -0.2490  0.0702 -0.1113
 6317TIP3    H118957   6.083   0.190   0.748  0.0366 -0.1269 -1.0909
 6317TIP3    H218958   6.147   0.318   0.797 -0.6813 -0.3618  0.5230
 6318TIP3   OH218959   4.081   0.360   1.701  0.0716 -0.6586 -0.4056
 6318TIP3    H118960   4.161   0.320   1.734  1.4427  1.2507 -1.2161
 6318TIP3    H218961   4.051   0.417   1.772  0.7427  0.3415 -0.8933
 6319TIP3   OH218962   0.205   0.647   2.686  0.5900  0.2024 -0.0368
 6319TIP3    H118963   0.171   0.565   2.650  1.2306 -1.4915  2.9412
 6319TIP3    H218964   0.144   0.669   2.757  0.0242  2.7879 -1.1966
 6320TIP3   OH218965   4.199   4.727   3.185  0.2091 -0.2822  0.1870
 6320TIP3    H118966   4.275   4.776   3.153 -0.2512 -0.6850 -1.6591
 6320TIP3    H218967   4.145   4.792   3.229  0.5987  0.4516 -0.4015
 6321TIP3   OH218968   0.376   2.144   0.946 -0.7377  0.0301 -0.4046
 6321TIP3    H118969   0.388   2.090   1.024  0.6380 -1.0551 -1.3236
 6321TIP3    H218970   0.424   2.225   0.965  0.7236 -0.7553 -0.5872
 6322TIP3   OH218971   4.276   2.565   4.896  0.3358  0.2739 -0.4019
 6322TIP3    H118972   4.258   2.582   4.803  1.0096  3.3724 -0.0769
 6322TIP3    H218973   4.190   2.551   4.935 -0.0970  0.6054 -1.2094
 6323TIP3   OH218974   6.227   1.932   3.246 -0.1429 -0.3367 -0.1570
 6323TIP3    H118975   6.183   1.871   3.186  1.7479 -0.2779 -1.6854
 6323TIP3    H218976   6.269   1.876   3.311 -0.4427 -0.5103 -0.1089
 6324TIP3   OH218977   5.023   5.151   1.145 -0.4958 -0.4074  0.1348
 6324TIP3    H118978   5.055   5.239   1.167 -0.9726  0.2303 -1.5234
 6324TIP3    H218979   5.084   5.092   1.188 -0.3681  0.7297  1.5784
 6325TIP3   OH218980   5.994   5.359   3.179 -0.1682  0.2344  0.6361
 6325TIP3    H118981   5.964   5.450   3.180 -0.2943  0.2409 -1.1290
 6325TIP3    H218982   5.915   5.307   3.194 -0.9186  0.3134 -2.3664
 6326TIP3   OH218983   1.846   5.452   2.563 -0.3503  0.2126 -0.0752
 6326TIP3    H118984   1.845   5.548   2.558  1.4015  0.3369  1.0728
 6326TIP3    H218985   1.867   5.423   2.474  0.2303  0.9491 -0.1844
 6327TIP3   OH218986   4.089   4.511   1.322 -0.7884 -0.8305  0.2548
 6327TIP3    H118987   4.179   4.484   1.342  0.3917  0.4332 -2.7415
 6327TIP3    H218988   4.047   4.432   1.288 -0.6247 -1.2525  1.0016
 6328TIP3   OH218989   5.734   2.479   0.623  0.5616  0.4679  0.2464
 6328TIP3    H118990   5.768   2.390   0.629  0.7159  0.5439  0.5733
 6328TIP3    H218991   5.757   2.509   0.535 -0.2120 -0.1005 -0.1560
 6329TIP3   OH218992   2.512   3.175   4.538  0.5570 -0.3276 -0.0978
 6329TIP3    H118993   2.509   3.080   4.549 -1.6784 -0.1383  1.5445
 6329TIP3    H218994   2.488   3.189   4.446 -0.5902 -1.3071  0.0280
 6330TIP3   OH218995   4.869   1.092   0.602  0.3246 -0.0945 -0.3573
 6330TIP3    H118996   4.899   1.037   0.529  3.3261 -0.0779  0.7042
 6330TIP3    H218997   4.844   1.029   0.670 -0.2164 -0.1220 -0.5810
 6331TIP3   OH218998   4.201   3.872   1.615  0.0575  0.5058  0.0671
 6331TIP3    H118999   4.137   3.816   1.571  2.0065 -0.2022 -2.0371
 6331TIP3    H219000   4.282   3.820   1.617  0.7966  1.5878  2.1054
 6332TIP3   OH219001   4.338   1.288   4.486 -0.5756  0.3776 -0.3146
 6332TIP3    H119002   4.302   1.374   4.463  0.8285  1.3894  1.0453
 6332TIP3    H219003   4.263   1.239   4.518 -1.2147  1.5324  0.0208
 6333TIP3   OH219004   2.259   5.157   0.399  0.0342 -0.0912 -0.1182
 6333TIP3    H119005   2.354   5.154   0.407  0.0341 -1.2232 -0.4600
 6333TIP3    H219006   2.232   5.223   0.464  0.8977 -1.1341  1.3495
 6334TIP3   OH219007   3.841   4.969   0.672  0.5737  0.2654 -0.1834
 6334TIP3    H119008   3.852   4.936   0.761 -1.0467  0.2604  0.0389
 6334TIP3    H219009   3.846   5.064   0.680  0.7237  0.2544 -0.1407
 6335TIP3   OH219010   2.176   1.311   4.753  0.4845  0.0842 -0.0579
 6335TIP3    H119011   2.120   1.335   4.826  1.3280 -0.8824  0.9436
 6335TIP3    H219012   2.224   1.391   4.731  1.4834 -0.0263  1.6011
 6336TIP3   OH219013   5.067   0.867   2.481 -0.2017 -0.7339  0.2266
 6336TIP3    H119014   4.982   0.891   2.445  0.0333  0.8546  0.6182
 6336TIP3    H219015   5.129   0.923   2.433  0.5132 -1.2576  0.5342
 6337TIP3   OH219016   3.909   1.786   3.398 -0.1005  0.3812 -0.1918
 6337TIP3    H119017   3.850   1.837   3.343 -0.6803 -0.5808 -0.4768
 6337TIP3    H219018   3.897   1.696   3.369  2.6214  0.2925 -1.3278
 6338TIP3   OH219019   2.621   0.826   3.882 -0.0344 -0.2069 -0.0738
 6338TIP3    H119020   2.588   0.743   3.917 -2.0718  0.5303 -0.0965
 6338TIP3    H219021   2.650   0.875   3.959  0.3995 -0.6022  0.0188
 6339TIP3   OH219022   3.230   3.332   2.363 -0.4090  0.2698 -0.2188
 6339TIP3    H119023   3.297   3.278   2.407 -0.3206  0.9672  0.5367
 6339TIP3    H219024   3.264   3.344   2.274 -0.1361 -0.4147 -0.2153
 6340TIP3   OH219025   2.133   5.501   1.515  0.5128  0.2885  0.9468
 6340TIP3    H119026   2.168   5.590   1.514  1.8661 -0.2162  1.1991
 6340TIP3    H219027   2.048   5.509   1.557  0.6020  1.4661  0.9393
 6341TIP3   OH219028   2.046   4.117   0.519 -0.1694  0.0573 -0.2364
 6341TIP3    H119029   2.037   4.145   0.611  0.7213 -1.7126  0.4258
 6341TIP3    H219030   2.083   4.194   0.475 -3.4525  2.0648  0.1513
 6342TIP3   OH219031   5.721   5.314   1.337 -0.4674 -0.0078  0.2982
 6342TIP3    H119032   5.795   5.270   1.296  0.3116  0.6583  0.9668
 6342TIP3    H219033   5.661   5.331   1.265  0.9840  1.3547 -0.6467
 6343TIP3   OH219034   4.088   1.250   1.147 -0.0041  0.0421  0.5458
 6343TIP3    H119035   4.075   1.343   1.126 -0.1210  0.2366  1.4399
 6343TIP3    H219036   4.169   1.227   1.101 -0.0957  0.5249  0.1270
 6344TIP3   OH219037   1.121   3.801   4.156  0.1723 -0.1089  0.0419
 6344TIP3    H119038   1.097   3.823   4.246  0.0898 -0.3915  0.0871
 6344TIP3    H219039   1.038   3.780   4.113  0.3357 -1.1830  0.2261
 6345TIP3   OH219040   5.387   2.740   0.954 -0.3385 -0.3005  0.0684
 6345TIP3    H119041   5.371   2.667   0.893 -1.2878  1.2183 -1.5952
 6345TIP3    H219042   5.475   2.769   0.933 -0.2197 -0.5203  0.2555
 6346TIP3   OH219043   0.040   2.810   1.462 -0.0796  0.6526 -0.2995
 6346TIP3    H119044   0.101   2.779   1.529  0.5713 -0.5032 -1.3973
 6346TIP3    H219045   0.088   2.801   1.379 -0.7620  2.3236 -0.9180
 6347TIP3   OH219046   5.212   3.958   2.467  0.3992 -0.5007  0.0590
 6347TIP3    H119047   5.299   3.980   2.432  0.1512 -0.0401 -0.2836
 6347TIP3    H219048   5.209   3.863   2.466  0.6530 -0.5063 -0.5446
 6348TIP3   OH219049   1.865   5.367   4.584  0.1240 -0.6267 -0.1859
 6348TIP3    H119050   1.864   5.323   4.499  0.0922 -1.4857  0.2502
 6348TIP3    H219051   1.940   5.426   4.580  0.1649 -0.7166 -0.7808
 6349TIP3   OH219052   5.117   2.428   0.248  0.7281 -0.6383  0.5963
 6349TIP3    H119053   5.190   2.440   0.188 -0.0688  0.8548 -0.1223
 6349TIP3    H219054   5.157   2.431   0.335  1.4079  1.3235  0.2522
 6350TIP3   OH219055   1.838   4.940   4.714 -0.1864 -0.2690  0.0784
 6350TIP3    H119056   1.868   4.957   4.624 -0.3052 -0.3931  0.0145
 6350TIP3    H219057   1.913   4.962   4.769 -0.1715 -0.0180 -0.0379
 6351TIP3   OH219058   0.613   3.204   3.988 -0.8708  0.5047  0.1954
 6351TIP3    H119059   0.587   3.265   4.057  0.6677  1.7874 -0.2840
 6351TIP3    H219060   0.552   3.221   3.916 -1.5455  0.2175  0.6912
 6352TIP3   OH219061   0.061   1.809   2.236 -0.5523 -0.3437  0.2045
 6352TIP3    H119062   0.082   1.902   2.243  0.5545 -0.2790 -2.6857
 6352TIP3    H219063   0.104   1.770   2.312 -0.3939  1.3746  1.0654
 6353TIP3   OH219064   3.334   0.764   4.118 -0.0874 -0.9205 -0.0970
 6353TIP3    H119065   3.286   0.846   4.104  0.7770 -0.5890 -1.2124
 6353TIP3    H219066   3.284   0.719   4.187 -1.7446 -0.4020 -0.9012
 6354TIP3   OH219067   2.688   3.399   0.094 -0.2990  0.0237  0.2593
 6354TIP3    H119068   2.664   3.327   0.037 -0.1404 -0.2534  0.5383
 6354TIP3    H219069   2.606   3.445   0.111 -0.3263  0.1749 -0.2821
 6355TIP3   OH219070   6.174   0.064   3.080  0.3342  0.1194  0.4268
 6355TIP3    H119071   6.198  -0.028   3.070  0.9483  0.5346 -3.1573
 6355TIP3    H219072   6.214   0.090   3.163 -0.2456 -2.8961  1.7946
 6356TIP3   OH219073   0.657   3.571   3.565  0.1371 -0.5923  0.2532
 6356TIP3    H119074   0.616   3.555   3.650  0.6629 -1.7265  0.3187
 6356TIP3    H219075   0.677   3.483   3.532  0.9918 -0.1223 -0.5174
 6357TIP3   OH219076   3.443   4.685   3.879 -0.5830  0.3478  0.2809
 6357TIP3    H119077   3.445   4.778   3.858 -1.0094 -0.0387 -1.7256
 6357TIP3    H219078   3.366   4.674   3.934  0.0238  1.3059  1.3536
 6358TIP3   OH219079   1.092   1.887   2.848  0.1803 -0.5161  0.3627
 6358TIP3    H119080   1.061   1.971   2.815 -1.6477 -1.5203 -0.6139
 6358TIP3    H219081   1.041   1.872   2.928  1.2912 -0.2253  1.1544
 6359TIP3   OH219082   5.684   4.640   1.973 -0.0343  0.4243 -0.1072
 6359TIP3    H119083   5.692   4.553   2.012  2.0779  0.0192 -1.2575
 6359TIP3    H219084   5.730   4.697   2.035  1.4351  0.1276 -0.8565
 6360TIP3   OH219085   1.523   1.576   1.107  0.8081  0.6059 -0.5424
 6360TIP3    H119086   1.478   1.638   1.165  1.2856  0.6893 -0.2520
 6360TIP3    H219087   1.613   1.608   1.103  1.4551 -0.8779  0.8250
 6361TIP3   OH219088   0.946   5.819   0.231  0.3400  0.4211 -0.2664
 6361TIP3    H119089   0.956   5.901   0.184  1.9006 -0.1102 -0.9124
 6361TIP3    H219090   1.017   5.763   0.199 -1.4251 -1.6433 -0.7951
 6362TIP3   OH219091   0.037   0.825   4.260  0.1148 -0.1638  0.0668
 6362TIP3    H119092   0.024   0.831   4.355 -0.3685 -2.1357  0.1802
 6362TIP3    H219093   0.112   0.766   4.250  0.3613  0.2777 -0.7785
 6363TIP3   OH219094   2.869   0.949   2.714  0.0363  0.1272 -0.0436
 6363TIP3    H119095   2.860   1.041   2.740 -0.3798 -0.3927  1.8694
 6363TIP3    H219096   2.782   0.924   2.683  0.9263  1.2005 -3.8306
 6364TIP3   OH219097   5.399   5.883   3.617 -0.3412  0.6088  0.2512
 6364TIP3    H119098   5.417   5.942   3.543  3.0359 -1.0506 -0.4349
 6364TIP3    H219099   5.434   5.929   3.693  0.7739  0.2406 -0.0218
 6365TIP3   OH219100   1.971   3.459   1.190 -0.0334 -0.0548  0.1738
 6365TIP3    H119101   1.978   3.554   1.177  0.4874  0.0243  0.9135
 6365TIP3    H219102   1.884   3.437   1.159  0.3156  0.4497 -1.2159
 6366TIP3   OH219103   0.404   3.756   4.221  0.4306  0.3252 -0.4894
 6366TIP3    H119104   0.441   3.686   4.275  2.2102  2.7030  1.6075
 6366TIP3    H219105   0.345   3.803   4.280  0.4735  1.4940 -1.3481
 6367TIP3   OH219106   1.965   5.565   0.680 -0.2116  0.0863  0.2702
 6367TIP3    H119107   1.875   5.597   0.674  0.1396  1.1644  0.3687
 6367TIP3    H219108   2.011   5.612   0.611  0.1743 -0.8580 -0.1244
 6368TIP3   OH219109   5.695   0.494   4.571 -0.1175 -0.4099  0.4257
 6368TIP3    H119110   5.666   0.552   4.641 -1.2108  0.1277 -0.4475
 6368TIP3    H219111   5.663   0.535   4.491 -0.0338 -1.6970 -0.2921
 6369TIP3   OH219112   4.681   1.337   0.915 -0.6590 -0.3770 -0.1069
 6369TIP3    H119113   4.771   1.310   0.899 -0.3416  0.3653  0.3827
 6369TIP3    H219114   4.688   1.422   0.957 -1.6212  0.4253 -1.4862
 6370TIP3   OH219115   4.472   5.211   3.587 -0.1431 -0.0574 -0.1489
 6370TIP3    H119116   4.433   5.141   3.641  0.2041  1.5721  2.3708
 6370TIP3    H219117   4.560   5.222   3.622  0.4383  0.4830 -1.7080
 6371TIP3   OH219118   4.870   4.141   2.429 -0.1560 -0.3327 -0.3141
 6371TIP3    H119119   4.948   4.138   2.486 -0.3861  1.3987  0.1702
 6371TIP3    H219120   4.799   4.108   2.483 -0.0319 -0.4453 -0.2205
 6372TIP3   OH219121   5.566   3.887   5.063  0.3609 -0.5150 -0.5051
 6372TIP3    H119122   5.607   3.819   5.116  0.5093 -0.6869 -0.8391
 6372TIP3    H219123   5.635   3.917   5.004  0.5243  0.4946  0.1810
 6373TIP3   OH219124   3.480   0.180   0.651 -0.3452  0.1252 -0.0846
 6373TIP3    H119125   3.555   0.173   0.710 -0.8236  0.2618  0.5445
 6373TIP3    H219126   3.438   0.263   0.673 -0.4678  0.2343 -0.6960
 6374TIP3   OH219127   0.160   3.888   3.802 -0.2377 -0.0460  0.4560
 6374TIP3    H119128   0.131   3.924   3.718  0.7772  0.3705  0.2661
 6374TIP3    H219129   0.159   3.793   3.790  0.6565  0.0248 -0.3146
 6375TIP3   OH219130   5.989   5.893   4.461  0.3595 -0.0267 -0.2712
 6375TIP3    H119131   5.991   5.800   4.485  0.3704 -0.1641 -0.7807
 6375TIP3    H219132   5.973   5.939   4.543  0.4529 -0.4741  0.0018
 6376TIP3   OH219133   2.331   2.481   1.917 -0.2504  0.3014  0.0266
 6376TIP3    H119134   2.324   2.474   2.012  0.1732 -0.3046  0.0198
 6376TIP3    H219135   2.254   2.435   1.884  0.4436 -0.9069  0.0555
 6377TIP3   OH219136   0.294   0.752   0.446 -0.0216  0.0452  0.7986
 6377TIP3    H119137   0.353   0.676   0.450 -0.2131 -0.0787  1.3636
 6377TIP3    H219138   0.353   0.827   0.448  0.2366 -0.0748 -0.9280
 6378TIP3   OH219139   1.897   2.043   0.467 -0.5076 -0.4539  0.0229
 6378TIP3    H119140   1.812   2.085   0.457 -0.7144 -0.5246  1.3195
 6378TIP3    H219141   1.961   2.112   0.448 -0.7969 -0.8506 -2.7698
 6379TIP3   OH219142   1.442   3.988   2.954  0.3649  0.4990 -0.1545
 6379TIP3    H119143   1.499   4.028   3.019  0.3541 -0.1028  0.2384
 6379TIP3    H219144   1.380   3.937   3.006 -0.8699  1.5559 -0.5441
 6380TIP3   OH219145   2.849   1.230   2.452  0.0865 -0.2996 -0.2750
 6380TIP3    H119146   2.891   1.165   2.396  2.3862  0.1008  0.8444
 6380TIP3    H219147   2.829   1.182   2.533 -2.8718 -0.7842 -1.1735
 6381TIP3   OH219148   5.720   2.816   3.757 -0.2780  0.2090 -0.3526
 6381TIP3    H119149   5.696   2.896   3.711  0.8072  0.0473 -1.2512
 6381TIP3    H219150   5.765   2.846   3.836  0.0033  0.4953 -0.6181
 6382TIP3   OH219151   0.785   2.436   2.334  0.2190  0.4971 -0.1187
 6382TIP3    H119152   0.759   2.381   2.408  2.4566  0.1706  0.5064
 6382TIP3    H219153   0.768   2.525   2.363 -1.5168  0.2709 -0.3391
 6383TIP3   OH219154   0.931   3.277   0.575 -0.2129  0.2130 -0.3017
 6383TIP3    H119155   0.874   3.292   0.651 -0.5172 -0.8856 -0.3072
 6383TIP3    H219156   0.932   3.362   0.530 -2.2367  0.1458 -0.5707
 6384TIP3   OH219157   0.707   4.253   4.159 -0.2138  0.2355 -0.1587
 6384TIP3    H119158   0.707   4.179   4.098 -1.0722  0.5729 -0.5887
 6384TIP3    H219159   0.704   4.331   4.102 -1.4990  0.5475  0.2883
 6385TIP3   OH219160   1.547   1.245   2.668  0.1028  0.1281  0.8924
 6385TIP3    H119161   1.614   1.176   2.666  0.5716  0.5692 -1.1253
 6385TIP3    H219162   1.464   1.198   2.661  0.3868 -0.2905  0.1737
 6386TIP3   OH219163   5.498   1.231   4.265 -0.0825 -0.2516  0.0187
 6386TIP3    H119164   5.422   1.278   4.300  1.1648  1.4452  0.6102
 6386TIP3    H219165   5.503   1.258   4.173  0.0589 -0.0086  0.0973
 6387TIP3   OH219166   0.484   1.263   2.206 -0.1956 -0.0161 -0.2115
 6387TIP3    H119167   0.394   1.294   2.211  0.0517  0.9018 -1.0324
 6387TIP3    H219168   0.478   1.168   2.216 -0.9489  0.2401  2.7785
 6388TIP3   OH219169   2.887   3.972   1.736 -1.0201  0.1792 -0.1773
 6388TIP3    H119170   2.864   3.966   1.829  0.8110 -1.3114  0.2368
 6388TIP3    H219171   2.911   3.883   1.712  1.7513  1.1058 -1.1730
 6389TIP3   OH219172   4.395   4.635   1.300  0.1762 -0.2108 -0.3227
 6389TIP3    H119173   4.460   4.659   1.365 -2.1993  3.6812  0.9437
 6389TIP3    H219174   4.344   4.566   1.342 -0.1254  0.8968  1.2057
 6390TIP3   OH219175   5.428   1.218   2.588  0.3946 -0.0619 -0.1952
 6390TIP3    H119176   5.516   1.245   2.616  1.4409 -0.6866 -2.6272
 6390TIP3    H219177   5.414   1.135   2.634  1.6550 -0.5948 -0.6960
 6391TIP3   OH219178   5.409   4.933   2.438 -0.1434  0.1171  0.4308
 6391TIP3    H119179   5.425   4.872   2.366  0.6760  1.6233 -0.7240
 6391TIP3    H219180   5.327   4.904   2.476 -0.1102 -1.2973 -0.5016
 6392TIP3   OH219181   6.155   5.615   4.331 -0.6580 -0.3052  0.0996
 6392TIP3    H119182   6.150   5.710   4.340  0.6488 -0.0189 -1.6990
 6392TIP3    H219183   6.232   5.590   4.382 -1.0911 -0.4182  0.6981
 6393TIP3   OH219184   4.108   0.960   0.852  0.0807 -0.6171  0.2079
 6393TIP3    H119185   4.148   0.877   0.826 -0.6915 -0.7878 -0.4588
 6393TIP3    H219186   4.172   0.999   0.912  1.9767 -0.1671 -1.9791
 6394TIP3   OH219187   2.755   0.129   4.015  0.4099 -0.0298  0.5079
 6394TIP3    H119188   2.705   0.190   4.069 -0.9805  1.0578 -1.8428
 6394TIP3    H219189   2.822   0.094   4.074 -0.3456  1.8338  2.6190
 6395TIP3   OH219190   3.367   2.152   0.603 -0.1158  0.1053  0.1221
 6395TIP3    H119191   3.357   2.093   0.528 -1.1370  2.2394 -1.5484
 6395TIP3    H219192   3.281   2.152   0.644  0.6329 -1.6209  1.8494
 6396TIP3   OH219193   6.210   0.421   0.029  0.1615  0.0189 -0.0898
 6396TIP3    H119194   6.146   0.489   0.047 -0.1818 -0.2519 -0.2782
 6396TIP3    H219195   6.242   0.395   0.116 -0.6434 -0.4737  0.0704
 6397TIP3   OH219196   4.925   0.318   1.918 -0.0317  0.5764 -0.5464
 6397TIP3    H119197   5.020   0.310   1.928  0.2445  1.0833 -2.2979
 6397TIP3    H219198   4.891   0.232   1.939  1.0306 -0.1452 -1.6391
 6398TIP3   OH219199   0.780   3.228   0.914  0.2704 -0.4989  0.2064
 6398TIP3    H119200   0.858   3.275   0.943  0.9058 -0.2551 -1.7362
 6398TIP3    H219201   0.721   3.230   0.989  0.4948  2.8772  0.4419
 6399TIP3   OH219202   6.255   2.232   4.320 -0.1143  0.3218  0.6206
 6399TIP3    H119203   6.299   2.304   4.274  1.9147 -1.2128  0.0178
 6399TIP3    H219204   6.166   2.232   4.284  0.8440  0.3904 -1.9588
 6400TIP3   OH219205   0.414   3.278   0.973 -0.0761 -0.8357  0.2051
 6400TIP3    H119206   0.475   3.206   0.993  2.2128  0.9265  0.0775
 6400TIP3    H219207   0.374   3.253   0.890  0.9189 -1.8395 -0.0064
 6401TIP3   OH219208   6.152   0.345   3.080 -0.0996  0.3213  0.2365
 6401TIP3    H119209   6.067   0.384   3.099  0.5446  2.3505 -0.7207
 6401TIP3    H219210   6.134   0.252   3.069 -1.9693  0.5147  1.2709
 6402TIP3   OH219211   3.919   5.326   4.548  0.0531 -0.4402  0.1470
 6402TIP3    H119212   3.848   5.266   4.527 -0.4367  0.1235  0.1690
 6402TIP3    H219213   3.947   5.359   4.463 -0.8288  0.5912  0.2360
 6403TIP3   OH219214   2.753   4.906   0.352  0.5444 -0.4534  0.1055
 6403TIP3    H119215   2.697   4.983   0.366 -0.5207 -0.5717 -2.8984
 6403TIP3    H219216   2.699   4.832   0.378  0.4819 -0.3824  0.1802
 6404TIP3   OH219217   3.614   3.536   0.989 -0.2900 -0.1692  0.0966
 6404TIP3    H119218   3.578   3.473   1.051 -1.0752  0.4296  0.2642
 6404TIP3    H219219   3.560   3.615   1.000  1.2021  0.8350  0.4893
 6405TIP3   OH219220   3.153   3.841   0.040 -0.5791  0.4939  0.2568
 6405TIP3    H119221   3.122   3.927   0.013 -1.6849 -0.1958 -0.7527
 6405TIP3    H219222   3.074   3.790   0.055  0.0490 -0.6224 -0.0876
 6406TIP3   OH219223   2.029   2.447   3.423  0.2505  0.0432  0.0748
 6406TIP3    H119224   1.957   2.424   3.481 -0.8233  0.6213 -0.9879
 6406TIP3    H219225   2.095   2.487   3.481  0.0135 -1.0804  1.1491
 6407TIP3   OH219226   1.229   0.794   0.473  0.3026  0.3273 -0.0597
 6407TIP3    H119227   1.320   0.782   0.502  0.3516  0.8856  0.0292
 6407TIP3    H219228   1.189   0.707   0.483  1.0052 -0.0953 -0.7464
 6408TIP3   OH219229   5.683   2.941   0.654 -0.3961  0.1332 -0.0122
 6408TIP3    H119230   5.616   2.911   0.593 -0.1582  0.5710 -0.4965
 6408TIP3    H219231   5.635   2.980   0.727 -0.6648  2.0695 -1.1751
 6409TIP3   OH219232   4.153   1.612   2.809 -0.3684  0.1460 -0.7364
 6409TIP3    H119233   4.121   1.678   2.871 -0.1872 -0.6472  0.2033
 6409TIP3    H219234   4.083   1.547   2.805 -0.5501  0.3861 -1.6705
 6410TIP3   OH219235   1.418   4.084   1.349  0.1388  0.7131  0.3464
 6410TIP3    H119236   1.331   4.046   1.360  0.6875 -0.7208 -0.1036
 6410TIP3    H219237   1.407   4.149   1.279 -0.5162  0.3737  0.1215
 6411TIP3   OH219238   4.117   5.716   0.125  0.0652  0.1669 -0.3596
 6411TIP3    H119239   4.090   5.806   0.105  0.9570  0.2939 -1.0223
 6411TIP3    H219240   4.100   5.668   0.044  2.2437  0.3591 -0.9965
 6412TIP3   OH219241   2.037   0.989   3.472 -0.2176  0.0477  0.2161
 6412TIP3    H119242   2.003   0.900   3.461  1.3159 -0.5727  0.3188
 6412TIP3    H219243   2.062   0.994   3.565  1.2931 -0.0244 -0.1588
 6413TIP3   OH219244   3.862   3.733   3.653  0.0661  0.4774 -0.0464
 6413TIP3    H119245   3.831   3.723   3.563  0.7697 -1.4256 -0.1269
 6413TIP3    H219246   3.809   3.670   3.703  1.1183 -0.0168  0.4732
 6414TIP3   OH219247   1.555   4.137   1.956 -0.1623  0.2117  0.2041
 6414TIP3    H119248   1.620   4.207   1.955 -1.5277  1.5321  0.3287
 6414TIP3    H219249   1.491   4.162   1.890 -0.8310 -0.7848  0.4427
 6415TIP3   OH219250   2.521   5.009   1.051 -0.2249 -0.4531  1.0314
 6415TIP3    H119251   2.571   5.073   1.102 -3.0445  2.8311  0.0449
 6415TIP3    H219252   2.449   4.983   1.109 -1.1321  0.1283  0.1918
 6416TIP3   OH219253   3.539   0.794   4.697 -1.0485 -0.4149  0.4926
 6416TIP3    H119254   3.558   0.726   4.762  0.3472  0.3502  0.9220
 6416TIP3    H219255   3.616   0.850   4.698 -1.2981  0.0098 -1.3441
 6417TIP3   OH219256   0.589   0.122   3.788  0.1657  0.6092  0.0979
 6417TIP3    H119257   0.660   0.099   3.849  0.9926  0.5946 -0.8480
 6417TIP3    H219258   0.581   0.046   3.731 -0.8661  0.4679  0.4145
 6418TIP3   OH219259   5.219   0.206   3.082  0.1633 -0.3722 -0.3322
 6418TIP3    H119260   5.284   0.275   3.094 -0.0307 -0.0843 -0.8971
 6418TIP3    H219261   5.158   0.217   3.154 -0.7117  1.0029 -1.2425
 6419TIP3   OH219262   0.130   4.401   1.868 -0.4757 -0.0776  0.2277
 6419TIP3    H119263   0.071   4.396   1.792 -2.8080  0.8353  1.8658
 6419TIP3    H219264   0.092   4.341   1.932  2.7665 -2.6667 -0.0252
 6420TIP3   OH219265   4.057   3.773   4.404 -0.1720 -0.2857 -0.6592
 6420TIP3    H119266   4.072   3.802   4.494  0.4473 -1.0809 -0.4913
 6420TIP3    H219267   4.106   3.691   4.397 -3.1466 -2.2277 -0.6070
 6421TIP3   OH219268   5.782   4.794   4.215 -0.7421 -0.0795  0.1713
 6421TIP3    H119269   5.833   4.761   4.141  1.0873  0.5057  1.1275
 6421TIP3    H219270   5.721   4.723   4.235  0.1395 -1.0916 -0.5845
 6422TIP3   OH219271   1.250   5.065   1.056  0.2814  0.2310 -0.1661
 6422TIP3    H119272   1.323   5.048   0.996 -1.1140 -1.1197 -1.6041
 6422TIP3    H219273   1.208   5.143   1.021  0.0349  0.0040 -0.3819
 6423TIP3   OH219274   0.128   3.773   0.193 -0.0015  0.3104  0.0823
 6423TIP3    H119275   0.085   3.761   0.109 -0.3264  0.5796  0.2102
 6423TIP3    H219276   0.222   3.767   0.173 -0.0826  0.1718 -0.2634
 6424TIP3   OH219277   6.071   1.741   4.370 -0.0736  0.8853  0.0235
 6424TIP3    H119278   6.149   1.686   4.378  0.3325  1.4823  0.2827
 6424TIP3    H219279   6.100   1.816   4.318 -0.3758  1.2777  0.4100
 6425TIP3   OH219280   4.541   1.209   1.117 -0.5237 -0.0141  0.0772
 6425TIP3    H119281   4.604   1.170   1.178 -0.5632  0.4490  0.4142
 6425TIP3    H219282   4.595   1.254   1.052 -0.4969 -0.1049  0.0356
 6426TIP3   OH219283   3.486   3.990   4.271  0.0122 -0.4849  0.2959
 6426TIP3    H119284   3.393   3.974   4.290  0.1802 -0.4155  1.1863
 6426TIP3    H219285   3.509   4.065   4.325  0.3643  0.0649 -0.5920
 6427TIP3   OH219286   1.422   1.884   2.395 -0.1742 -0.1264 -0.3778
 6427TIP3    H119287   1.450   1.860   2.306 -1.0480  0.1341 -0.7335
 6427TIP3    H219288   1.503   1.895   2.443  0.3022 -1.3358 -0.8624
 6428TIP3   OH219289   3.527   5.799   4.607  0.0949  0.4829 -0.4268
 6428TIP3    H119290   3.474   5.860   4.557 -2.0112 -0.0526  0.9912
 6428TIP3    H219291   3.467   5.729   4.632  1.5426 -0.3453  1.0144
 6429TIP3   OH219292   0.387   1.620   2.974  0.1732  0.2531 -0.2744
 6429TIP3    H119293   0.315   1.632   2.912  0.9785 -0.4312 -1.3824
 6429TIP3    H219294   0.434   1.544   2.941  0.3614 -0.4164  1.4628
 6430TIP3   OH219295   4.810   0.479   1.300 -0.4494 -0.0531 -0.0317
 6430TIP3    H119296   4.775   0.517   1.380 -2.0022 -0.5862 -0.4229
 6430TIP3    H219297   4.733   0.465   1.244  0.4450 -0.8584 -1.1129
 6431TIP3   OH219298   0.432   4.220   2.846  0.4443 -0.2099  0.3197
 6431TIP3    H119299   0.403   4.139   2.887  0.3346 -1.4922 -2.1024
 6431TIP3    H219300   0.527   4.220   2.855  0.3708 -0.1020  1.1576
 6432TIP3   OH219301   2.376   2.559   4.963  0.2198  0.1125  0.4497
 6432TIP3    H119302   2.416   2.477   4.991  1.3319  0.8348  1.0764
 6432TIP3    H219303   2.337   2.539   4.878  1.4374 -0.7954  0.0759
 6433TIP3   OH219304   5.915   3.871   2.855  0.5376 -0.0319  0.4966
 6433TIP3    H119305   5.862   3.797   2.885 -0.5474  1.3168  2.0535
 6433TIP3    H219306   5.951   3.842   2.771  0.7431 -2.5864  1.3982
 6434TIP3   OH219307   3.025   2.220   2.764 -0.0206  0.1018 -0.0124
 6434TIP3    H119308   3.016   2.143   2.819  1.0902  0.1165  0.1998
 6434TIP3    H219309   3.001   2.190   2.676  3.0572 -1.2384 -0.4911
 6435TIP3   OH219310   3.743   1.537   1.418 -0.2635  0.0095  0.0154
 6435TIP3    H119311   3.829   1.580   1.413  0.1356 -0.8793 -1.4755
 6435TIP3    H219312   3.688   1.586   1.356  0.3423 -1.8302 -2.1069
 6436TIP3   OH219313   0.364   5.871   2.692 -0.5107 -0.2817  0.3091
 6436TIP3    H119314   0.300   5.804   2.716 -0.7596 -0.2627 -0.3019
 6436TIP3    H219315   0.324   5.918   2.619  0.2856 -0.4056 -0.2221
 6437TIP3   OH219316   3.914   4.484   3.347 -0.0221 -0.1387  0.6900
 6437TIP3    H119317   3.868   4.400   3.350 -0.2809  0.0020  0.6766
 6437TIP3    H219318   3.998   4.467   3.389  0.2112 -0.5869  0.0602
 6438TIP3   OH219319   0.195   0.981   2.987 -0.5898 -0.1756  0.2123
 6438TIP3    H119320   0.196   0.975   2.892  1.6538 -2.7638  0.2611
 6438TIP3    H219321   0.144   0.905   3.015  0.1917 -0.4151  1.0493
 6439TIP3   OH219322   4.549   4.799   0.304  1.3544  0.3663  0.6834
 6439TIP3    H119323   4.552   4.709   0.271  1.7237  1.0224 -1.2044
 6439TIP3    H219324   4.519   4.791   0.394 -1.0597 -1.4429 -0.1992
 6440TIP3   OH219325   0.081   3.996   0.340 -0.3164 -0.2128 -0.0877
 6440TIP3    H119326   0.172   3.996   0.371 -0.6537  0.8131  0.9548
 6440TIP3    H219327   0.077   3.922   0.279  1.4203  0.2122 -0.7782
 6441TIP3   OH219328   1.969   1.384   5.134 -0.0824  0.0800 -0.7720
 6441TIP3    H119329   1.880   1.388   5.168  0.2525 -2.9013  0.8287
 6441TIP3    H219330   1.960   1.392   5.040 -2.0296 -0.0631 -0.6284
 6442TIP3   OH219331   1.682   1.154   1.123  0.4728 -0.1355 -0.2854
 6442TIP3    H119332   1.648   1.068   1.146 -1.1055  1.0656  2.2812
 6442TIP3    H219333   1.678   1.157   1.027 -1.1487 -2.2263 -0.3410
 6443TIP3   OH219334   4.902   0.035   1.712  0.7058 -0.1925  0.0182
 6443TIP3    H119335   4.872  -0.055   1.708 -0.5270  0.2238 -0.5535
 6443TIP3    H219336   4.876   0.073   1.628 -0.1597  1.1075  0.8449
 6444TIP3   OH219337   3.736   2.006   2.908 -0.0823 -0.3198 -0.2829
 6444TIP3    H119338   3.763   1.982   2.819  0.4215  0.3527 -0.3224
 6444TIP3    H219339   3.649   2.045   2.897 -0.9681 -2.1374 -0.2029
 6445TIP3   OH219340   4.542   0.865   3.217 -0.0644 -0.0780 -0.1077
 6445TIP3    H119341   4.487   0.800   3.173  1.6846 -1.3407 -0.5668
 6445TIP3    H219342   4.541   0.838   3.309 -0.2325 -0.0850 -0.1111
 6446TIP3   OH219343   2.653   4.337   3.209  0.1884 -0.2248  0.1678
 6446TIP3    H119344   2.641   4.398   3.136 -0.1929 -0.7563 -0.2211
 6446TIP3    H219345   2.747   4.342   3.229  0.1147  0.6974  0.3372
 6447TIP3   OH219346   3.501   1.962   0.792  0.0284  0.3428  0.3753
 6447TIP3    H119347   3.483   1.965   0.886 -1.7653  0.5156  0.0582
 6447TIP3    H219348   3.496   2.053   0.763  0.0486  0.2325  0.0113
 6448TIP3   OH219349   3.218   5.559   4.761 -0.4412 -0.4276 -0.6825
 6448TIP3    H119350   3.135   5.513   4.773  0.2049 -1.6178 -0.5870
 6448TIP3    H219351   3.225   5.573   4.667 -1.0340  0.2611 -0.6342
 6449TIP3   OH219352   6.216   5.876   0.719  0.1428  0.4120  0.2721
 6449TIP3    H119353   6.286   5.812   0.713 -0.1794  0.1504 -1.2075
 6449TIP3    H219354   6.259   5.958   0.744  0.8942  0.1178 -0.0525
 6450TIP3   OH219355   2.483   2.341   1.176 -0.0794 -0.4969 -0.0675
 6450TIP3    H119356   2.420   2.365   1.107  0.7210  0.5391 -0.4662
 6450TIP3    H219357   2.450   2.258   1.211 -0.3703 -1.1797 -1.8702
 6451TIP3   OH219358   2.979   0.068   0.878 -0.1423 -0.1764  0.2840
 6451TIP3    H119359   2.889   0.089   0.906 -0.2429 -0.1960 -0.0171
 6451TIP3    H219360   3.033   0.135   0.920 -0.4906  0.8606 -0.8602
 6452TIP3   OH219361   4.193   0.184   3.279 -0.0818  0.1476 -0.3872
 6452TIP3    H119362   4.224   0.139   3.201  1.6567 -0.6270  0.6971
 6452TIP3    H219363   4.226   0.273   3.270  0.3434 -0.0125 -0.4217
 6453TIP3   OH219364   5.945   2.207   3.802 -0.1454 -0.0172  0.6009
 6453TIP3    H119365   5.938   2.178   3.893 -2.0622 -0.7679  0.2428
 6453TIP3    H219366   5.906   2.294   3.802 -3.5235 -1.3903 -0.0735
 6454TIP3   OH219367   2.378   3.583   2.692  0.7051  1.5747 -0.6846
 6454TIP3    H119368   2.315   3.616   2.628 -0.4329  0.8057 -0.0070
 6454TIP3    H219369   2.398   3.494   2.663  0.4752  1.3558 -0.1935
 6455TIP3   OH219370   5.281   2.473   1.590 -0.3046  0.0276 -0.4246
 6455TIP3    H119371   5.216   2.540   1.567  0.4943  0.6198 -1.0231
 6455TIP3    H219372   5.365   2.516   1.574  0.2793 -1.9725 -3.6040
 6456TIP3   OH219373   2.371   5.315   0.957  0.3613  0.7954 -0.0971
 6456TIP3    H119374   2.412   5.337   1.041  1.2954 -0.9323 -0.0548
 6456TIP3    H219375   2.307   5.384   0.942  1.9640  2.5551  0.7846
 6457TIP3   OH219376   5.160   4.680   0.390 -0.4913 -0.0748  0.3751
 6457TIP3    H119377   5.200   4.599   0.423 -1.1157 -0.4924  0.1239
 6457TIP3    H219378   5.084   4.651   0.341 -0.8564  0.6843  0.4759
 6458TIP3   OH219379   0.744   5.417   3.711  0.5271  0.5049 -0.2950
 6458TIP3    H119380   0.758   5.503   3.672  0.1446  1.2426  1.1336
 6458TIP3    H219381   0.830   5.375   3.707  0.6121  0.7382 -1.4303
 6459TIP3   OH219382   3.312   0.950   3.053  0.1808  0.3070 -0.4352
 6459TIP3    H119383   3.359   1.018   3.004  0.1453  1.8705  1.5749
 6459TIP3    H219384   3.285   0.993   3.134 -0.8150 -1.8312  0.4467
 6460TIP3   OH219385   2.061   5.773   1.508  0.3231  0.1266 -0.3343
 6460TIP3    H119386   2.074   5.836   1.437  0.2272  0.9659  0.3890
 6460TIP3    H219387   1.996   5.813   1.565 -0.6405 -1.1592 -0.4888
 6461TIP3   OH219388   4.936   3.916   2.302  0.2531 -0.1003 -0.2718
 6461TIP3    H119389   4.922   4.010   2.316  0.1340 -0.0497 -0.7051
 6461TIP3    H219390   4.940   3.879   2.390  1.7994  0.5180 -0.0533
 6462TIP3   OH219391   2.001   4.060   1.375 -0.2820 -0.1365  0.0556
 6462TIP3    H119392   2.092   4.040   1.396  0.1026  0.7059 -0.7426
 6462TIP3    H219393   1.951   3.987   1.412  0.7126 -0.6064  0.5008
 6463TIP3   OH219394   6.171   1.589   4.017  0.5767  0.1301  0.2917
 6463TIP3    H119395   6.083   1.552   4.011  0.4625  0.5434 -1.0383
 6463TIP3    H219396   6.160   1.681   3.992  0.9073  1.0574  3.1997
 6464TIP3   OH219397   4.593   3.002   0.121 -0.3460  0.1193 -0.3631
 6464TIP3    H119398   4.532   3.065   0.158 -0.0921 -0.0994  0.4757
 6464TIP3    H219399   4.676   3.049   0.115  0.2536 -0.5117  1.7454
 6465TIP3   OH219400   6.087   2.840   4.019  0.0003  0.0440  0.2904
 6465TIP3    H119401   6.163   2.833   3.960  0.0355  1.9496  0.0521
 6465TIP3    H219402   6.118   2.896   4.091 -0.8875  0.0402  0.6842
 6466TIP3   OH219403   0.683   0.132   1.593 -0.0025  0.6750  0.0343
 6466TIP3    H119404   0.661   0.102   1.681  2.8406 -1.2190  0.2230
 6466TIP3    H219405   0.639   0.071   1.535  1.5165 -0.7357  0.3053
 6467TIP3   OH219406   5.558   2.259   0.440  0.3352 -0.0515 -0.0957
 6467TIP3    H119407   5.644   2.290   0.410 -0.1148  0.6415 -0.7092
 6467TIP3    H219408   5.550   2.171   0.404  1.6240 -0.9479  1.6498
 6468TIP3   OH219409   2.728   0.645   4.997 -0.6630  0.0486  0.8013
 6468TIP3    H119410   2.718   0.551   5.013 -1.2549 -0.1913 -0.8085
 6468TIP3    H219411   2.802   0.670   5.051  2.1954 -2.1990 -1.7117
 6469TIP3   OH219412   2.924   4.974   3.449  0.7239  0.0965 -0.1232
 6469TIP3    H119413   2.913   4.882   3.473 -0.1920  0.1251 -0.3867
 6469TIP3    H219414   2.904   4.977   3.355  0.2246  0.6385 -0.0079
 6470TIP3   OH219415   5.325   1.254   1.404 -0.5233 -0.3569 -0.5336
 6470TIP3    H119416   5.364   1.292   1.483 -0.3721 -1.1973 -0.1905
 6470TIP3    H219417   5.334   1.160   1.416  1.4818 -0.4897 -2.5731
 6471TIP3   OH219418   3.553   1.080   0.446 -0.9479  0.2756  0.4890
 6471TIP3    H119419   3.647   1.071   0.434 -1.1091  1.7325 -3.0225
 6471TIP3    H219420   3.519   0.991   0.445  0.2528 -0.1919  0.1733
 6472TIP3   OH219421   3.851   1.730   2.013  0.0875  0.6171  0.5091
 6472TIP3    H119422   3.859   1.645   1.968 -2.4496  0.9492 -0.7799
 6472TIP3    H219423   3.879   1.794   1.948 -1.7604  0.9664 -0.0209
 6473TIP3   OH219424   2.557   5.373   2.472  0.3973 -0.0357 -0.5504
 6473TIP3    H119425   2.587   5.285   2.492 -0.9377 -0.2595  0.5829
 6473TIP3    H219426   2.526   5.368   2.381  1.2110 -0.4676 -0.8108
 6474TIP3   OH219427   5.339   1.284   2.892 -0.5454  0.1871 -0.6058
 6474TIP3    H119428   5.402   1.345   2.854  0.2209  0.4693  1.0453
 6474TIP3    H219429   5.390   1.233   2.955 -2.0601  0.8652  1.2683
 6475TIP3   OH219430   0.453   1.011   4.335  0.3990 -0.0782 -0.3647
 6475TIP3    H119431   0.362   1.042   4.329  1.4168  3.9821  1.6300
 6475TIP3    H219432   0.453   0.951   4.410 -0.3054  1.7562  1.1791
 6476TIP3   OH219433   5.006   3.627   2.082  0.1910  0.4224 -0.0669
 6476TIP3    H119434   4.911   3.617   2.072  0.0125  1.8943 -0.1212
 6476TIP3    H219435   5.043   3.550   2.040 -0.9350  0.6374 -1.5350
 6477TIP3   OH219436   5.681   4.271   3.567  0.0959 -0.5384  0.0450
 6477TIP3    H119437   5.656   4.252   3.476  0.6716 -2.2587  0.2030
 6477TIP3    H219438   5.739   4.346   3.561 -0.6968  0.0202 -0.8946
 6478TIP3   OH219439   5.247   0.557   4.900 -0.1323 -0.0624 -0.0590
 6478TIP3    H119440   5.286   0.566   4.987 -1.1079 -0.4773  0.4286
 6478TIP3    H219441   5.156   0.585   4.911  0.0340  1.0318 -1.2131
 6479TIP3   OH219442   5.494   4.987   2.007 -0.3302 -1.0295 -0.5584
 6479TIP3    H119443   5.490   4.901   2.047 -0.9524 -1.4112 -1.4087
 6479TIP3    H219444   5.576   5.025   2.038 -0.1398 -1.8583 -0.0452
 6480TIP3   OH219445   0.860   3.454   3.729  0.2115  0.3977 -0.3116
 6480TIP3    H119446   0.887   3.437   3.820 -0.2775 -0.9867 -0.3998
 6480TIP3    H219447   0.772   3.490   3.737 -1.2837 -2.8554 -0.2660
 6481TIP3   OH219448   3.107   2.723   4.412  0.0350 -0.1893  0.0488
 6481TIP3    H119449   3.116   2.816   4.435 -1.4975 -0.0081  0.0547
 6481TIP3    H219450   3.094   2.724   4.317 -1.4995 -0.2296  0.2251
 6482TIP3   OH219451   4.096   1.813   1.559  0.3260  0.0712 -0.5598
 6482TIP3    H119452   4.129   1.895   1.595 -0.6721  0.6171 -0.8630
 6482TIP3    H219453   4.084   1.756   1.635 -0.3044  0.6891 -0.1876
 6483TIP3   OH219454   1.385   5.104   2.919 -0.3211  0.1549  0.4472
 6483TIP3    H119455   1.412   5.183   2.965 -1.9061  1.5540 -0.9120
 6483TIP3    H219456   1.465   5.073   2.877  0.1416  1.5829  0.2157
 6484TIP3   OH219457   3.264   4.466   0.153  0.5536 -0.4944 -0.2536
 6484TIP3    H119458   3.240   4.425   0.236  0.8589  1.0110  0.6092
 6484TIP3    H219459   3.232   4.555   0.160  1.6692  0.0130 -1.2569
 6485TIP3   OH219460   1.537   4.484   4.983 -0.1911 -0.1183  0.4349
 6485TIP3    H119461   1.532   4.579   4.974  0.4143 -0.1078  0.1524
 6485TIP3    H219462   1.458   4.451   4.941  0.1733  0.2075 -0.5363
 6486TIP3   OH219463   4.715   4.077   0.245 -0.3444 -0.2836 -0.0739
 6486TIP3    H119464   4.650   4.007   0.253 -0.9567  0.1161 -1.2241
 6486TIP3    H219465   4.663   4.158   0.247  0.1879  0.0713 -0.3334
 6487TIP3   OH219466   3.988   0.031   3.103  0.2763  0.5653 -0.1483
 6487TIP3    H119467   4.052  -0.037   3.082  0.4747  0.9479 -0.8433
 6487TIP3    H219468   4.013   0.063   3.189  1.0306  0.7070 -0.4151
 6488TIP3   OH219469   3.970   3.608   4.017 -0.1363  0.2060 -0.1159
 6488TIP3    H119470   3.934   3.530   3.974  0.1478  0.2347 -0.4112
 6488TIP3    H219471   3.910   3.678   3.993  0.8886  0.5476 -1.8216
 6489TIP3   OH219472   2.647   1.448   2.626 -0.0725 -0.2126  0.1949
 6489TIP3    H119473   2.734   1.461   2.663 -0.8993 -0.1699  2.2258
 6489TIP3    H219474   2.638   1.353   2.617  0.7854 -0.1570 -1.6332
 6490TIP3   OH219475   1.386   4.244   0.314 -0.4297  0.6242 -0.2758
 6490TIP3    H119476   1.481   4.240   0.324 -0.3482  1.0463 -0.8040
 6490TIP3    H219477   1.351   4.197   0.390  0.2202 -1.2470 -1.0767
 6491TIP3   OH219478   1.648   3.361   5.012  0.4538 -0.0809 -0.0031
 6491TIP3    H119479   1.639   3.396   4.923 -1.7698 -1.7492 -0.5181
 6491TIP3    H219480   1.660   3.438   5.067  1.8846  0.9925 -1.7121
 6492TIP3   OH219481   0.201   3.622   1.978  0.4974 -0.0866  0.1077
 6492TIP3    H119482   0.172   3.690   2.040  0.3733  0.3179 -0.3869
 6492TIP3    H219483   0.170   3.653   1.893  1.9347  0.1169 -0.3805
 6493TIP3   OH219484   0.619   3.464   1.102  0.1987  0.2394  0.8131
 6493TIP3    H119485   0.602   3.383   1.150 -0.8615  0.2946  0.5460
 6493TIP3    H219486   0.555   3.464   1.031  1.9413 -0.0140 -0.8478
 6494TIP3   OH219487   1.943   3.379   2.223 -0.1998  0.4264 -0.2732
 6494TIP3    H119488   1.945   3.344   2.133 -1.6923  0.9159 -0.5206
 6494TIP3    H219489   2.024   3.430   2.230  0.3121 -0.2325 -1.0748
 6495TIP3   OH219490   1.359   2.249   4.272 -0.3581 -0.1445  0.3682
 6495TIP3    H119491   1.444   2.292   4.279 -0.1935 -0.3789 -0.2179
 6495TIP3    H219492   1.374   2.173   4.216 -0.4383 -1.5533  2.1777
 6496TIP3   OH219493   3.119   2.753   4.129  0.1438  0.3975  0.3325
 6496TIP3    H119494   3.179   2.826   4.142 -0.0189  0.8509 -1.1728
 6496TIP3    H219495   3.032   2.791   4.140 -0.0069  0.8289 -1.8118
 6497TIP3   OH219496   6.033   0.203   4.703 -0.3252 -0.0336  0.1161
 6497TIP3    H119497   6.075   0.132   4.655  3.3593  2.6548 -1.1117
 6497TIP3    H219498   5.945   0.210   4.665 -0.0496 -2.5112 -1.1592
 6498TIP3   OH219499   5.537   3.251   1.550  0.2446 -0.0004  0.4183
 6498TIP3    H119500   5.508   3.167   1.586 -0.0176 -0.2239 -0.2834
 6498TIP3    H219501   5.456   3.303   1.544  0.1584 -0.2269 -0.5070
 6499TIP3   OH219502   3.488   3.518   1.934 -0.0069 -0.1321  0.1680
 6499TIP3    H119503   3.489   3.563   1.850 -0.1011  0.1675  0.3255
 6499TIP3    H219504   3.569   3.543   1.977  0.6930 -1.3474 -0.3764
 6500TIP3   OH219505   2.614   0.093   3.124  0.2377  0.1486  0.4993
 6500TIP3    H119506   2.558   0.139   3.186 -1.4515 -0.3525 -0.5767
 6500TIP3    H219507   2.619   0.003   3.157 -1.4568 -0.3694 -0.5082
 6501TIP3   OH219508   5.629   3.037   4.092  0.0566  0.2612  0.4504
 6501TIP3    H119509   5.590   2.953   4.067  0.6966  0.2090 -0.4582
 6501TIP3    H219510   5.587   3.101   4.035 -2.3808  1.0395  2.9155
 6502TIP3   OH219511   4.414   1.112   3.268  0.4643  0.1231 -0.0320
 6502TIP3    H119512   4.393   1.143   3.180  1.2620 -1.7123 -0.9292
 6502TIP3    H219513   4.479   1.043   3.254  1.6702  0.7287  2.1032
 6503TIP3   OH219514   4.081   3.265   1.898  0.0501  0.6060 -0.6358
 6503TIP3    H119515   3.998   3.218   1.892 -0.9585  1.8107  2.2761
 6503TIP3    H219516   4.142   3.200   1.934 -0.6413  0.7278  0.8136
 6504TIP3   OH219517   1.867   0.933   2.653  0.1431  0.6124  0.4742
 6504TIP3    H119518   1.805   0.925   2.581  0.6588 -0.1540  0.1011
 6504TIP3    H219519   1.813   0.934   2.732 -0.3432 -0.0168  0.1535
 6505TIP3   OH219520   4.900   1.495   0.190  0.0809  0.1840 -0.3309
 6505TIP3    H119521   4.905   1.459   0.278 -0.0755 -0.9063 -0.7520
 6505TIP3    H219522   4.986   1.535   0.175  0.3305 -0.1885  0.0816
 6506TIP3   OH219523   4.343   1.261   3.474 -0.0853  0.1387 -0.4062
 6506TIP3    H119524   4.247   1.258   3.468 -0.0892  0.7892 -0.7685
 6506TIP3    H219525   4.373   1.236   3.387  0.0248  1.8409 -0.8876
 6507TIP3   OH219526   4.907   5.477   1.665 -0.7787 -0.1573 -0.1989
 6507TIP3    H119527   4.846   5.448   1.598 -1.3365 -0.6610  0.5152
 6507TIP3    H219528   4.927   5.398   1.716  0.6284 -0.0584 -0.5324
 6508TIP3   OH219529   5.565   0.359   3.088 -0.2354 -0.2130  0.6250
 6508TIP3    H119530   5.585   0.393   3.175 -3.5472  2.7557  0.4561
 6508TIP3    H219531   5.582   0.432   3.028  0.2285 -1.5858 -1.0145
 6509TIP3   OH219532   2.645   1.691   2.231  0.3856  0.3548 -0.2466
 6509TIP3    H119533   2.625   1.620   2.293  0.5558 -0.0467 -0.6437
 6509TIP3    H219534   2.697   1.648   2.163  0.2401  0.8039 -0.6398
 6510TIP3   OH219535   1.309   0.887   4.778  0.0162  0.7292 -0.4409
 6510TIP3    H119536   1.376   0.829   4.812 -0.5954  0.5503  0.5104
 6510TIP3    H219537   1.338   0.909   4.689 -0.2411 -1.8335 -1.2317
 6511TIP3   OH219538   1.235   2.243   3.370  0.1473 -0.2161  0.1182
 6511TIP3    H119539   1.262   2.179   3.304 -0.6989  0.1340 -0.5767
 6511TIP3    H219540   1.317   2.268   3.414  0.7606 -0.2483 -0.9818
 6512TIP3   OH219541   0.478   2.161   2.533  0.0514 -0.2674  0.2044
 6512TIP3    H119542   0.457   2.254   2.519  1.3075  0.1592  0.9552
 6512TIP3    H219543   0.570   2.154   2.506  0.5325 -0.8626  1.8680
 6513TIP3   OH219544   4.083   5.141   0.431 -0.6083 -0.1089 -0.4136
 6513TIP3    H119545   4.027   5.067   0.455 -0.1225 -0.1613  0.6522
 6513TIP3    H219546   4.165   5.101   0.402 -0.7730 -0.0088 -1.0311
 6514TIP3   OH219547   3.162   4.529   1.358 -0.1234 -0.1504 -0.2114
 6514TIP3    H119548   3.095   4.508   1.293 -0.2854  0.1915 -0.1592
 6514TIP3    H219549   3.202   4.445   1.379 -0.0809 -0.2676 -0.7405
 6515TIP3   OH219550   5.314   3.760   0.503 -0.0132 -0.1834 -0.3268
 6515TIP3    H119551   5.361   3.829   0.550  1.7500 -1.5822  0.0962
 6515TIP3    H219552   5.368   3.742   0.427  0.0928 -1.7497  0.0862
 6516TIP3   OH219553   5.055   0.169   1.153 -0.7061 -0.2827  0.0038
 6516TIP3    H119554   5.086   0.213   1.232 -2.0623 -2.6046  1.9396
 6516TIP3    H219555   5.103   0.086   1.151  0.7598  0.4980 -2.7782
 6517TIP3   OH219556   4.108   4.120   4.411  0.5028  0.2406 -0.3045
 6517TIP3    H119557   4.023   4.141   4.450  2.0247  1.5046  2.6080
 6517TIP3    H219558   4.131   4.199   4.362 -0.0561 -0.2164 -1.3559
 6518TIP3   OH219559   4.074   4.060   5.004  0.4425  0.4955 -0.4227
 6518TIP3    H119560   4.136   4.004   5.049 -2.0082  0.2580  3.0681
 6518TIP3    H219561   4.005   4.001   4.974 -0.6284  1.2210  0.5149
 6519TIP3   OH219562   5.804   1.473   3.891 -0.0301 -0.4130  0.4040
 6519TIP3    H119563   5.830   1.478   3.982 -2.2629  1.6337  1.0330
 6519TIP3    H219564   5.782   1.563   3.867 -0.6211 -1.0693 -1.7917
 6520TIP3   OH219565   1.577   5.866   3.267 -0.1322  0.0622 -0.4664
 6520TIP3    H119566   1.653   5.822   3.304 -0.4662 -0.9502 -0.9409
 6520TIP3    H219567   1.547   5.925   3.337  0.3636 -0.4283  0.1744
 6521TIP3   OH219568   5.737   3.580   4.998  0.4712  0.1656 -0.1297
 6521TIP3    H119569   5.670   3.516   4.975 -0.4489  1.2081 -0.4723
 6521TIP3    H219570   5.776   3.606   4.915 -0.1153  1.0439 -0.1424
 6522TIP3   OH219571   1.091   2.710   2.465  0.3563  0.2676  0.1699
 6522TIP3    H119572   1.134   2.633   2.429 -0.5473 -0.3078  0.3011
 6522TIP3    H219573   1.027   2.675   2.527 -0.3197  1.1012 -0.0450
 6523TIP3   OH219574   1.543   3.166   0.341 -0.0120 -0.0123 -0.3235
 6523TIP3    H119575   1.501   3.210   0.415  0.2114 -0.0789 -0.1557
 6523TIP3    H219576   1.471   3.145   0.281 -0.0703  0.9710 -0.6117
 6524TIP3   OH219577   3.042   5.182   0.428 -0.1096 -0.1267  0.5947
 6524TIP3    H119578   3.027   5.088   0.414  1.0090 -0.2280 -0.1009
 6524TIP3    H219579   3.129   5.186   0.468  0.2038  0.6428 -0.1339
 6525TIP3   OH219580   2.750   5.967   0.457 -0.1356  0.5738 -0.0484
 6525TIP3    H119581   2.726   5.907   0.528  0.2434 -0.7544 -0.9936
 6525TIP3    H219582   2.838   5.999   0.481  0.2188 -0.2844 -0.1607
 6526TIP3   OH219583   3.349   2.748   2.503  0.2127  0.2081 -0.1024
 6526TIP3    H119584   3.424   2.749   2.563  1.9941  3.0824 -2.1200
 6526TIP3    H219585   3.317   2.838   2.504 -1.2205 -0.2543 -1.6386
 6527TIP3   OH219586   2.303   2.580   2.521  0.1989 -0.0429  0.0416
 6527TIP3    H119587   2.229   2.633   2.492  0.1143 -0.1760  0.0180
 6527TIP3    H219588   2.344   2.633   2.589 -1.0345 -0.7897  1.4123
 6528TIP3   OH219589   3.003   1.862   4.807  0.8146 -0.2895  0.1446
 6528TIP3    H119590   3.054   1.805   4.749  1.6514 -1.2282  1.7357
 6528TIP3    H219591   3.054   1.865   4.888 -1.4741 -0.9874  1.7001
 6529TIP3   OH219592   2.225   0.569   5.138 -0.2771 -0.2220  0.5834
 6529TIP3    H119593   2.204   0.513   5.213 -1.5217 -1.1809 -0.4276
 6529TIP3    H219594   2.308   0.534   5.105  1.2015  1.2898  2.4641
 6530TIP3   OH219595   0.869   3.588   2.941  0.4557 -0.2374 -0.3476
 6530TIP3    H119596   0.853   3.682   2.950  1.2810 -0.0283 -0.9754
 6530TIP3    H219597   0.961   3.577   2.968  1.0094 -0.5395 -2.2568
 6531TIP3   OH219598   3.286   3.913   0.542  0.2229  0.5472  0.0983
 6531TIP3    H119599   3.351   3.845   0.529 -1.9803 -1.4244 -1.3942
 6531TIP3    H219600   3.266   3.945   0.454 -0.4079  1.5479  0.5819
 6532TIP3   OH219601   6.201   3.762   4.245  0.4357 -0.4600 -0.7103
 6532TIP3    H119602   6.123   3.817   4.254 -0.0845 -1.2971  0.0534
 6532TIP3    H219603   6.256   3.809   4.182  0.7968  1.8366  1.1533
 6533TIP3   OH219604   5.954   3.187   0.470 -0.1789 -0.2157 -0.4325
 6533TIP3    H119605   5.934   3.094   0.458 -1.0318 -0.1237  0.1810
 6533TIP3    H219606   6.030   3.187   0.528 -0.4079 -0.5354 -0.1198
 6534TIP3   OH219607   3.165  -0.021   3.849  0.3080  0.1515 -0.1856
 6534TIP3    H119608   3.189   0.044   3.915 -2.6572  0.7082  0.4575
 6534TIP3    H219609   3.153   0.029   3.769  1.0619 -0.1119 -0.4778
 6535TIP3   OH219610   3.590   4.442   1.587  0.5130  0.4521 -0.0480
 6535TIP3    H119611   3.578   4.384   1.662  1.3234  0.1953 -0.1059
 6535TIP3    H219612   3.578   4.386   1.510 -1.1098  0.8826 -0.1294
 6536TIP3   OH219613   0.287   2.146   1.403  0.5812  0.4349 -0.3493
 6536TIP3    H119614   0.194   2.164   1.412  0.4678 -0.4083  0.2436
 6536TIP3    H219615   0.330   2.208   1.462  0.2206 -0.9018  1.3910
 6537TIP3   OH219616   1.941   0.690   0.296 -0.1227 -0.1151  0.8372
 6537TIP3    H119617   2.026   0.681   0.252  0.7136  0.9177  2.1542
 6537TIP3    H219618   1.940   0.780   0.329 -1.4567 -0.3123  1.4184
 6538TIP3   OH219619   3.870   4.216   4.172  0.2973  0.4025  0.3463
 6538TIP3    H119620   3.875   4.187   4.081 -1.0471 -0.9251  0.6548
 6538TIP3    H219621   3.919   4.151   4.221 -0.1869  0.3204  0.7238
 6539TIP3   OH219622   4.226   1.642   4.725 -0.3023 -0.0275  0.1140
 6539TIP3    H119623   4.304   1.593   4.697  0.4225  1.0976  0.0917
 6539TIP3    H219624   4.153   1.594   4.686  0.5639  0.6914 -2.6830
 6540TIP3   OH219625   2.666   1.767   0.893 -0.2316 -0.1234 -0.1906
 6540TIP3    H119626   2.663   1.682   0.936 -1.4017  0.7055  1.5081
 6540TIP3    H219627   2.735   1.759   0.828  1.5402 -1.5424  1.7181
 6541TIP3   OH219628   1.387   5.874   3.648 -0.1605 -0.1410  0.1310
 6541TIP3    H119629   1.428   5.789   3.633  0.8387  0.2085  0.7671
 6541TIP3    H219630   1.445   5.937   3.607  0.4199  0.4437  1.7540
 6542TIP3   OH219631   2.288   4.009   4.367 -0.0519  0.4990  0.8651
 6542TIP3    H119632   2.261   4.100   4.380 -1.3112  0.4079 -0.8509
 6542TIP3    H219633   2.252   3.962   4.443  0.5990  1.3881  1.7549
 6543TIP3   OH219634   3.365   2.779   1.179 -0.4417 -0.4461  0.2327
 6543TIP3    H119635   3.420   2.834   1.236  0.6561 -0.6001 -0.6508
 6543TIP3    H219636   3.310   2.730   1.240  1.0636 -0.9987  1.2140
 6544TIP3   OH219637   4.332   3.740   4.193 -0.0386  0.2089  0.4720
 6544TIP3    H119638   4.292   3.815   4.150 -0.6178 -0.1821  0.3060
 6544TIP3    H219639   4.346   3.767   4.283  0.1022  0.6403  0.3200
 6545TIP3   OH219640   1.082   2.192   1.665 -0.1666  0.2223  0.1254
 6545TIP3    H119641   1.012   2.234   1.714 -0.2659  0.4118 -0.1738
 6545TIP3    H219642   1.093   2.106   1.706 -2.1650 -0.7699 -1.2833
 6546TIP3   OH219643   5.967   0.553   3.557  0.5439  0.2210  0.3000
 6546TIP3    H119644   5.980   0.604   3.477 -0.7633  0.8250  0.4392
 6546TIP3    H219645   6.025   0.594   3.621 -0.3218  1.4452  0.3482
 6547TIP3   OH219646   4.867   4.858   3.873  0.7147  0.0661 -0.8030
 6547TIP3    H119647   4.906   4.845   3.959  0.0359 -3.8038 -0.8911
 6547TIP3    H219648   4.940   4.850   3.812  0.6470 -1.8679 -0.7074
 6548TIP3   OH219649   0.229   3.240   4.681 -0.1685 -0.0940 -0.1764
 6548TIP3    H119650   0.324   3.228   4.690 -0.1349 -0.1796 -0.6393
 6548TIP3    H219651   0.217   3.264   4.589 -0.4890  0.9064  0.1091
 6549TIP3   OH219652   1.602   2.932   4.993  0.7616  0.0078  0.2770
 6549TIP3    H119653   1.587   2.982   5.074  1.1418 -1.0080  0.9906
 6549TIP3    H219654   1.546   2.855   5.001 -1.2477  1.1595 -1.6658
 6550TIP3   OH219655   3.164   2.458   2.314  0.4717  0.1289  0.4071
 6550TIP3    H119656   3.226   2.385   2.321  1.3762  0.9455  1.3698
 6550TIP3    H219657   3.085   2.427   2.357  0.2489 -0.8647 -0.6702
 6551TIP3   OH219658   4.903   1.509   4.855  0.2820  0.0526  0.3726
 6551TIP3    H119659   4.893   1.585   4.798 -0.8505  0.6499  1.3159
 6551TIP3    H219660   4.946   1.443   4.801 -1.8676  0.1368 -1.5812
 6552TIP3   OH219661  -0.021   4.817   3.603 -0.3265  0.1853  0.4658
 6552TIP3    H119662   0.073   4.823   3.621 -0.6159  1.5565  1.7105
 6552TIP3    H219663  -0.042   4.725   3.620  0.1403  0.5803  3.9714
 6553TIP3   OH219664   2.864   2.056   0.709 -0.5340  0.1376  0.1509
 6553TIP3    H119665   2.779   2.061   0.753 -0.0159  0.6250  1.1311
 6553TIP3    H219666   2.880   1.962   0.698 -0.9049  0.0252  0.5408
 6554TIP3   OH219667   0.489   2.631   2.058 -0.1505  0.4466  0.7675
 6554TIP3    H119668   0.434   2.570   2.008 -1.0039  2.2569 -0.6503
 6554TIP3    H219669   0.460   2.621   2.148 -2.9870  1.3939  0.0626
 6555TIP3   OH219670   4.091   2.164   1.360  0.1720  0.1355  0.4031
 6555TIP3    H119671   4.179   2.139   1.332 -0.6141  0.7393 -3.0549
 6555TIP3    H219672   4.080   2.254   1.329 -1.4184  0.3474  1.4384
 6556TIP3   OH219673   5.171   5.202   3.025  0.0671 -0.3442 -0.1328
 6556TIP3    H119674   5.184   5.125   3.082 -0.8394  0.1884  0.8293
 6556TIP3    H219675   5.184   5.168   2.937 -2.5241 -2.2116  0.0562
 6557TIP3   OH219676   4.047   0.921   0.552 -0.0433  0.4407 -0.1065
 6557TIP3    H119677   4.069   0.828   0.554 -1.0779  0.1937 -0.0125
 6557TIP3    H219678   4.123   0.964   0.593  0.6376 -0.3106 -0.5534
 6558TIP3   OH219679   3.946   2.581   3.380  0.1709 -0.0278  0.3506
 6558TIP3    H119680   4.020   2.524   3.361  0.1731  0.3237 -0.7728
 6558TIP3    H219681   3.935   2.575   3.475  0.3244 -1.6940  0.3036
 6559TIP3   OH219682   1.208   5.526   2.699  0.0217  0.2593  0.3044
 6559TIP3    H119683   1.168   5.511   2.784  0.7503 -2.9224  0.2105
 6559TIP3    H219684   1.301   5.535   2.718 -0.0902  2.4553  0.0442
 6560TIP3   OH219685   2.048   5.735   3.032  0.3748  0.2794 -0.7606
 6560TIP3    H119686   1.972   5.681   3.055 -0.6104  2.1306  0.7068
 6560TIP3    H219687   2.079   5.701   2.949 -1.1395 -1.5084 -0.6418
 6561TIP3   OH219688   4.920   4.282   3.935  0.0644  0.1699 -0.2792
 6561TIP3    H119689   4.945   4.370   3.961  0.2296 -0.1468  0.6664
 6561TIP3    H219690   4.991   4.226   3.967 -0.3993 -0.3950 -0.2082
 6562TIP3   OH219691   3.145   0.567   0.801 -0.6366 -0.4360 -0.4525
 6562TIP3    H119692   3.220   0.600   0.850 -1.4567  1.7664 -0.5906
 6562TIP3    H219693   3.071   0.576   0.862 -0.9618 -1.8124 -0.6057
 6563TIP3   OH219694   1.757   5.318   4.822 -0.0440 -0.3947 -0.7869
 6563TIP3    H119695   1.708   5.393   4.857 -2.3948 -1.5989 -1.2959
 6563TIP3    H219696   1.811   5.356   4.753 -0.7107  0.9206 -0.6313
 6564TIP3   OH219697   2.031   1.606   2.904  0.0293 -0.1544  0.4110
 6564TIP3    H119698   2.124   1.608   2.881  0.2827 -1.3074  1.3059
 6564TIP3    H219699   2.002   1.696   2.888  1.2209  0.1645 -0.1341
 6565TIP3   OH219700   4.785   5.192   0.116  0.0669 -0.3899 -0.6021
 6565TIP3    H119701   4.822   5.270   0.157 -1.3495  1.6513 -2.9183
 6565TIP3    H219702   4.841   5.176   0.040 -0.2173 -1.0614 -0.6800
 6566TIP3   OH219703   1.250   5.242   2.194 -0.5833  0.1707 -0.0281
 6566TIP3    H119704   1.269   5.231   2.287  0.4666 -0.0692 -0.2626
 6566TIP3    H219705   1.178   5.181   2.177 -2.2276  1.6905  1.0506
 6567TIP3   OH219706   1.740   0.907   3.543 -0.5569  0.0762 -1.1535
 6567TIP3    H119707   1.694   0.839   3.592  0.4532  1.2796  1.6623
 6567TIP3    H219708   1.748   0.871   3.454 -2.7961 -2.0862 -0.5840
 6568TIP3   OH219709   1.573   2.038   1.423  0.4229 -0.3211  0.1251
 6568TIP3    H119710   1.655   2.017   1.469  1.6997  1.4466 -1.2131
 6568TIP3    H219711   1.585   2.002   1.335 -0.4246 -0.4356  0.0551
 6569TIP3   OH219712   5.910   3.260   4.191  0.6498 -0.1012 -0.1525
 6569TIP3    H119713   5.969   3.332   4.169  0.5932 -0.0856 -0.2538
 6569TIP3    H219714   5.835   3.302   4.233  0.8299 -0.1450  0.2211
 6570TIP3   OH219715   0.948   0.426   3.100  0.2573  0.3569 -0.2533
 6570TIP3    H119716   0.899   0.461   3.174 -0.0852  1.0575 -0.8081
 6570TIP3    H219717   0.883   0.382   3.046  0.3713  0.5690 -0.5661
 6571TIP3   OH219718   5.126   5.701   2.625 -0.3269  0.3069 -0.5306
 6571TIP3    H119719   5.147   5.782   2.579  0.3495 -0.2565 -1.2340
 6571TIP3    H219720   5.184   5.635   2.587 -0.0086 -0.2626  0.8704
 6572TIP3   OH219721   0.494   4.526   4.180 -0.0884 -0.0757 -0.9662
 6572TIP3    H119722   0.558   4.539   4.110  1.5970 -1.6141  0.1995
 6572TIP3    H219723   0.463   4.437   4.168  0.6623 -0.5738  0.5419
 6573TIP3   OH219724   1.558   1.307   0.365  0.3257  0.1835 -0.7692
 6573TIP3    H119725   1.623   1.335   0.301 -0.3390  0.4055 -1.3602
 6573TIP3    H219726   1.490   1.375   0.361 -0.1211 -0.2375 -0.4302
 6574TIP3   OH219727   6.153   3.319   3.617  0.0822  0.0978  0.0267
 6574TIP3    H119728   6.118   3.408   3.605 -1.6437 -0.6552 -0.8508
 6574TIP3    H219729   6.129   3.296   3.707 -0.8198 -0.0387 -0.2436
 6575TIP3   OH219730   5.440   1.770   2.621  0.6117  0.8216 -0.1916
 6575TIP3    H119731   5.468   1.770   2.713 -0.4706 -0.6652  0.1777
 6575TIP3    H219732   5.444   1.862   2.595  0.8248  1.2889  1.3755
 6576TIP3   OH219733   3.214   2.814   3.704 -0.1865  0.8733  0.2473
 6576TIP3    H119734   3.187   2.833   3.614 -1.4990 -0.5369  0.2963
 6576TIP3    H219735   3.163   2.874   3.758  0.6597  1.7760  0.0751
 6577TIP3   OH219736   5.336   3.685   2.621 -0.5385  0.1532  0.1582
 6577TIP3    H119737   5.401   3.710   2.556 -1.1675  0.5869 -0.3259
 6577TIP3    H219738   5.334   3.758   2.683  0.7114 -0.6590  1.2110
 6578TIP3   OH219739   2.450   4.796   2.435  0.1075  0.0854 -0.1676
 6578TIP3    H119740   2.456   4.708   2.397  1.8640 -0.8009  1.9426
 6578TIP3    H219741   2.372   4.792   2.492  0.0102  0.0020 -0.3052
 6579TIP3   OH219742   2.769   2.300   0.318  0.7305  0.0369 -0.0811
 6579TIP3    H119743   2.756   2.236   0.248 -1.0383 -1.9665  1.9391
 6579TIP3    H219744   2.791   2.381   0.272  1.4871 -1.5923 -2.8373
 6580TIP3   OH219745   6.222   3.210   2.027  0.0514 -0.3367  0.2023
 6580TIP3    H119746   6.177   3.294   2.019 -0.0479 -0.2272  1.5383
 6580TIP3    H219747   6.313   3.234   2.043 -0.0741 -0.4492  1.1471
 6581TIP3   OH219748   0.439   1.604   0.610  0.3745 -0.1022  0.5807
 6581TIP3    H119749   0.397   1.571   0.531  1.5275  0.9134 -0.4963
 6581TIP3    H219750   0.480   1.526   0.649 -1.9051 -1.0009  1.3584
 6582TIP3   OH219751   4.382   3.522   2.315  0.5734  0.6672 -0.3768
 6582TIP3    H119752   4.462   3.507   2.365 -0.1550  0.0641  0.6435
 6582TIP3    H219753   4.375   3.618   2.310  1.7790  0.7348 -1.2042
 6583TIP3   OH219754   5.392   0.064   4.916  0.0232 -0.2271  0.1739
 6583TIP3    H119755   5.420   0.153   4.896 -0.0072 -0.4852 -1.0852
 6583TIP3    H219756   5.309   0.075   4.963 -1.0511  0.3892 -1.7472
 6584TIP3   OH219757   0.902   1.822   0.264 -0.0177 -0.1033  0.0547
 6584TIP3    H119758   0.821   1.828   0.214  0.9731 -0.2994 -1.6768
 6584TIP3    H219759   0.937   1.735   0.242 -0.8955 -1.4132  3.3478
 6585TIP3   OH219760   5.996   0.573   1.919 -0.5692  1.3645  0.3469
 6585TIP3    H119761   5.953   0.532   1.994  0.2460  0.5964  0.4105
 6585TIP3    H219762   5.994   0.667   1.938 -3.7350  1.5847 -0.4427
 6586TIP3   OH219763   2.456   4.010   2.922  0.3833  0.3243  0.3713
 6586TIP3    H119764   2.476   4.017   2.829  1.6475  1.9333  0.7110
 6586TIP3    H219765   2.361   4.021   2.927  0.1589 -0.8269 -0.7902
 6587TIP3   OH219766   1.497   3.278   4.094 -0.0272 -0.5924  0.3696
 6587TIP3    H119767   1.458   3.356   4.056  1.8062 -0.0769 -0.5857
 6587TIP3    H219768   1.483   3.209   4.029 -1.7415 -1.1647  1.2584
 6588TIP3   OH219769   1.390   4.523   3.628 -0.1479 -0.4019  0.1608
 6588TIP3    H119770   1.302   4.493   3.651 -0.4331  2.2810  3.2926
 6588TIP3    H219771   1.375   4.599   3.572  0.1267  0.3689  1.1183
 6589TIP3   OH219772   1.593   1.162   4.266 -0.7406  0.2522 -0.0600
 6589TIP3    H119773   1.589   1.158   4.171 -1.2351 -0.4253 -0.0193
 6589TIP3    H219774   1.516   1.113   4.296  0.2831 -0.9691  0.6915
 6590TIP3   OH219775   1.389   1.701   4.740 -0.4010  0.5891  0.4299
 6590TIP3    H119776   1.303   1.697   4.701 -0.7165 -1.0696  1.2217
 6590TIP3    H219777   1.450   1.686   4.668 -0.9274 -1.3927  0.3394
 6591TIP3   OH219778   2.500   0.230   0.565 -0.2957 -0.2881  0.2320
 6591TIP3    H119779   2.549   0.163   0.612 -2.2137 -1.5967  0.5095
 6591TIP3    H219780   2.445   0.181   0.504  0.4465  1.2470 -1.7842
 6592TIP3   OH219781   3.503   5.725   3.767  0.6646  0.4077  0.4350
 6592TIP3    H119782   3.558   5.792   3.728  0.7735  0.6482  1.0074
 6592TIP3    H219783   3.541   5.708   3.853 -0.4628  0.9683  1.0664
 6593TIP3   OH219784   2.365   2.088   2.098  0.3937 -0.3985 -0.0148
 6593TIP3    H119785   2.327   2.144   2.166 -0.4971  0.8739 -1.5104
 6593TIP3    H219786   2.414   2.148   2.042  1.9581 -1.5720  0.0218
 6594TIP3   OH219787   5.548   4.003   3.355  0.1998  0.1284  0.1300
 6594TIP3    H119788   5.549   4.044   3.268  0.0367 -0.6198 -0.2295
 6594TIP3    H219789   5.639   4.007   3.384  0.0027  1.8219  0.6216
 6595TIP3   OH219790   0.829   5.087   4.888  0.1811  0.4187  0.7035
 6595TIP3    H119791   0.901   5.147   4.869 -1.2667  1.4526 -2.0626
 6595TIP3    H219792   0.785   5.125   4.964 -1.7220  4.0350 -1.9542
 6596TIP3   OH219793   1.883   2.994   1.510  0.1709  0.2033  0.4583
 6596TIP3    H119794   1.949   3.022   1.446 -0.8863 -1.9368 -1.7120
 6596TIP3    H219795   1.818   2.947   1.458 -1.5628 -0.3197  2.9412
 6597TIP3   OH219796   2.416   0.412   4.989 -0.2884 -0.3734  0.2557
 6597TIP3    H119797   2.383   0.329   5.023  2.3653 -0.8308  1.9373
 6597TIP3    H219798   2.444   0.392   4.899  0.3162 -1.3101  0.6483
 6598TIP3   OH219799   5.513   3.904   3.956  0.0824 -0.2255  0.0289
 6598TIP3    H119800   5.472   3.990   3.963  1.5931  0.4961  0.5513
 6598TIP3    H219801   5.547   3.901   3.866  2.3984  0.9143  0.7850
 6599TIP3   OH219802   1.511   5.766   2.199 -0.1937  0.1066  0.5833
 6599TIP3    H119803   1.493   5.696   2.135 -1.5220  1.6456 -0.8219
 6599TIP3    H219804   1.467   5.737   2.279  0.9806 -1.5656  0.6979
 6600TIP3   OH219805   1.608   4.382   3.560 -0.4159 -0.1104 -0.5448
 6600TIP3    H119806   1.547   4.451   3.586  0.2419  1.0024 -1.8254
 6600TIP3    H219807   1.576   4.303   3.605 -1.3083  0.9650  0.7835
 6601TIP3   OH219808   0.054   0.266   4.337 -0.0989  0.6905 -0.6536
 6601TIP3    H119809   0.077   0.318   4.260  0.8724 -0.9521 -1.5300
 6601TIP3    H219810  -0.020   0.213   4.309 -0.9428  1.4099  0.1601
 6602TIP3   OH219811   2.411   1.089   0.042 -0.1926 -0.6149 -0.0130
 6602TIP3    H119812   2.372   1.034  -0.027  1.0930  0.1404 -1.4132
 6602TIP3    H219813   2.387   1.178   0.018  2.3500 -0.0995 -1.0106
 6603TIP3   OH219814   4.318   4.425   1.456  0.0173 -0.1452  0.4770
 6603TIP3    H119815   4.272   4.371   1.521 -0.6027  0.8721  0.8994
 6603TIP3    H219816   4.408   4.391   1.457 -0.6342 -2.0198 -0.2125
 6604TIP3   OH219817   1.382   0.965   4.287 -0.3666  0.2632 -0.4103
 6604TIP3    H119818   1.316   1.035   4.289  0.5269  1.1461 -0.8513
 6604TIP3    H219819   1.348   0.902   4.224 -0.7042  0.8129 -0.7888
 6605TIP3   OH219820   1.830   3.784   1.664 -0.4516 -0.1162 -0.5359
 6605TIP3    H119821   1.924   3.790   1.681 -0.3730  0.2635 -1.0672
 6605TIP3    H219822   1.824   3.758   1.572 -0.8667 -0.3959 -0.4327
 6606TIP3   OH219823   3.410   1.223   3.168 -0.1578  0.0759 -0.1757
 6606TIP3    H119824   3.363   1.157   3.221  1.0055  0.1655  1.0256
 6606TIP3    H219825   3.412   1.300   3.224  0.2751  0.4832 -0.7553
 6607TIP3   OH219826   4.661   0.627   4.664 -0.7193 -0.0859  0.4637
 6607TIP3    H119827   4.574   0.664   4.651 -0.4556  0.6972  0.8372
 6607TIP3    H219828   4.721   0.695   4.633 -0.2284 -1.9893 -3.2940
 6608TIP3   OH219829   3.142   3.107   1.976 -0.3317 -0.4891 -0.2709
 6608TIP3    H119830   3.220   3.161   1.989  0.1840 -1.2927  0.0188
 6608TIP3    H219831   3.127   3.066   2.061 -0.2743 -1.3781 -0.6804
 6609TIP3   OH219832   2.438   5.921   4.323  0.1172 -0.3577  0.1553
 6609TIP3    H119833   2.452   5.898   4.416  0.5795  0.7263  0.3623
 6609TIP3    H219834   2.520   5.897   4.280  1.0661  1.9202  0.5849
 6610TIP3   OH219835   0.402   0.255   2.057  0.1069  0.0150 -0.6597
 6610TIP3    H119836   0.315   0.215   2.051  0.0528 -0.9604  3.5413
 6610TIP3    H219837   0.462   0.181   2.067  0.8312  0.7245  0.6136
 6611TIP3   OH219838   1.606   1.405   1.530  0.1087 -0.4796  0.6242
 6611TIP3    H119839   1.639   1.359   1.453  0.1594 -0.8639  0.8759
 6611TIP3    H219840   1.557   1.339   1.579  0.3036 -0.3040  1.0592
 6612TIP3   OH219841   0.518   3.273   4.430 -0.2805  0.2040 -0.1524
 6612TIP3    H119842   0.587   3.338   4.425 -1.8464  2.0633  1.0834
 6612TIP3    H219843   0.543   3.217   4.504  0.9958 -0.5764 -1.1298
 6613TIP3   OH219844   3.367   1.490   0.534  0.1665  0.0896  0.1708
 6613TIP3    H119845   3.290   1.467   0.481 -0.9388  2.3306  0.6480
 6613TIP3    H219846   3.382   1.413   0.589 -1.1981 -0.7286 -0.5340
 6614TIP3   OH219847   1.556   0.928   1.183  0.1741  0.1626 -0.1503
 6614TIP3    H119848   1.516   0.866   1.123  0.5647  2.0047 -2.4740
 6614TIP3    H219849   1.514   0.911   1.268  0.9228 -3.7968 -0.3790
 6615TIP3   OH219850   0.513   1.540   4.438  0.0930 -0.2843  0.3243
 6615TIP3    H119851   0.572   1.592   4.385 -0.3376 -0.6917 -0.5880
 6615TIP3    H219852   0.443   1.515   4.378 -0.6237 -0.4238  1.1915
 6616TIP3   OH219853   4.272   5.534   1.479 -0.1631  0.0237 -0.3287
 6616TIP3    H119854   4.257   5.505   1.569  0.5022  3.3527  0.9960
 6616TIP3    H219855   4.338   5.474   1.446  0.1603 -0.8178  1.6838
 6617TIP3   OH219856   4.726   1.014   4.285  0.2382 -0.2721 -0.0314
 6617TIP3    H119857   4.796   1.019   4.221  0.0496 -0.8757 -0.2861
 6617TIP3    H219858   4.662   1.080   4.256  0.4338 -0.1167 -0.1127
 6618TIP3   OH219859   4.188   4.615   4.799  0.5372 -0.5881 -0.0976
 6618TIP3    H119860   4.116   4.561   4.831 -0.7125  0.7700 -0.5521
 6618TIP3    H219861   4.184   4.607   4.704 -0.0917  0.8337 -0.2015
 6619TIP3   OH219862   4.960   5.931   3.609 -0.3771 -0.5077 -0.3941
 6619TIP3    H119863   4.997   5.848   3.640 -0.8621 -0.3527  0.6342
 6619TIP3    H219864   4.956   5.921   3.514  0.8471 -1.1216 -0.4012
 6620TIP3   OH219865   2.896   2.683   0.363 -0.3987 -0.6831 -0.2386
 6620TIP3    H119866   2.873   2.635   0.443  0.3923 -0.4827  0.1267
 6620TIP3    H219867   2.964   2.744   0.391  0.0280 -0.7440 -1.1026
 6621TIP3   OH219868   1.863   2.665   1.620 -0.2064 -0.2182  0.0015
 6621TIP3    H119869   1.818   2.745   1.647 -3.2009  0.0294 -4.5930
 6621TIP3    H219870   1.815   2.595   1.664  0.1744  0.3222  1.3249
 6622TIP3   OH219871   4.114   1.473   1.334 -0.0602 -0.2846 -0.0334
 6622TIP3    H119872   4.198   1.451   1.373  0.1855  1.1030  0.2814
 6622TIP3    H219873   4.053   1.408   1.369  0.5594 -0.3189  1.0179
 6623TIP3   OH219874   4.077   3.553   1.365  0.0359 -0.6960  0.6983
 6623TIP3    H119875   4.146   3.529   1.303 -1.6240 -0.5575 -1.2878
 6623TIP3    H219876   4.041   3.470   1.395  0.3029 -0.7535  0.8612
 6624TIP3   OH219877   0.167   3.347   2.016  0.0983  0.2256 -0.7168
 6624TIP3    H119878   0.182   3.357   2.110  0.8392  0.4308 -0.8495
 6624TIP3    H219879   0.155   3.436   1.984 -0.1419  0.1568 -0.8145
 6625TIP3   OH219880   0.248   3.081   3.322 -0.5488  0.0923 -0.3900
 6625TIP3    H119881   0.221   3.010   3.381 -1.7906  0.0578 -0.9714
 6625TIP3    H219882   0.219   3.052   3.235  0.0660  0.7518 -0.8292
 6626TIP3   OH219883   6.225   4.092   4.423  0.1736 -0.4341 -0.0409
 6626TIP3    H119884   6.175   4.050   4.353  0.0444 -2.9825  1.4835
 6626TIP3    H219885   6.211   4.186   4.409 -0.8129 -0.8822 -2.6902
 6627TIP3   OH219886   4.677   0.215   1.731  0.2828  0.0396 -0.2654
 6627TIP3    H119887   4.731   0.143   1.763  0.4163 -0.3051 -1.2455
 6627TIP3    H219888   4.728   0.253   1.660 -0.6871 -0.1855 -1.0981
 6628TIP3   OH219889   3.639   0.921   0.993 -0.3792  0.5275 -0.4630
 6628TIP3    H119890   3.585   0.848   1.023  0.6361 -0.3656 -0.7487
 6628TIP3    H219891   3.729   0.892   1.008  0.0953  1.0074 -2.1896
 6629TIP3   OH219892   4.997   5.769   0.186  0.5545 -0.5603 -0.3165
 6629TIP3    H119893   4.905   5.767   0.159  0.3289 -2.1503  0.4530
 6629TIP3    H219894   4.997   5.815   0.270  0.5534 -0.0458 -0.5951
 6630TIP3   OH219895   4.584   0.759   3.902  0.0479 -0.2980 -0.2749
 6630TIP3    H119896   4.601   0.776   3.809 -0.7564  0.8278 -0.2342
 6630TIP3    H219897   4.632   0.827   3.948 -2.0415  1.1367 -0.0404
 6631TIP3   OH219898   1.989   5.938   3.585  0.6046 -0.2189  0.2707
 6631TIP3    H119899   2.001   5.897   3.499  0.1888  1.8581 -0.8407
 6631TIP3    H219900   1.984   5.864   3.646 -1.6780 -1.9647 -1.7818
 6632TIP3   OH219901   2.345   2.356   0.197  0.0405  0.3299  0.4130
 6632TIP3    H119902   2.303   2.270   0.197  2.2011 -0.7974  0.8318
 6632TIP3    H219903   2.295   2.407   0.261 -0.6870 -0.9319  0.9000
 6633TIP3   OH219904   4.699   2.049   0.192  0.3031  0.0198  0.4441
 6633TIP3    H119905   4.757   2.124   0.205  0.8810 -0.3474  0.0762
 6633TIP3    H219906   4.707   1.998   0.273 -1.7347  1.3953  1.6042
 6634TIP3   OH219907   1.828   1.072   2.993  0.3191 -0.0364 -0.0554
 6634TIP3    H119908   1.883   1.069   3.070  0.8851 -0.4942 -0.4703
 6634TIP3    H219909   1.853   1.154   2.949 -2.1738  1.9129  1.7866
 6635TIP3   OH219910   2.184   0.137   4.435 -0.8597 -0.3442 -0.8717
 6635TIP3    H119911   2.205   0.046   4.455 -2.5065 -0.7089 -0.6646
 6635TIP3    H219912   2.088   0.139   4.432 -0.8500  1.4395 -0.6318
 6636TIP3   OH219913   1.881   1.448   1.555  0.4418  0.7450 -0.6246
 6636TIP3    H119914   1.786   1.434   1.550  0.6347 -0.2835 -1.8356
 6636TIP3    H219915   1.893   1.502   1.634 -0.9958 -0.5166  0.5176
 6637TIP3   OH219916   2.377   2.863   0.038  0.3043  0.8806  0.1119
 6637TIP3    H119917   2.305   2.868  -0.025  0.8438 -1.8585 -0.8430
 6637TIP3    H219918   2.442   2.925   0.005 -0.2426  0.9417 -0.8839
 6638TIP3   OH219919   4.356   5.260   0.032 -0.0062  0.3821 -0.1773
 6638TIP3    H119920   4.278   5.225   0.075  0.2955 -0.3897 -0.2412
 6638TIP3    H219921   4.412   5.289   0.103  1.1182 -2.2068  0.0855
 6639TIP3   OH219922   2.678   3.323   4.758 -0.1991 -0.2989  0.2614
 6639TIP3    H119923   2.612   3.303   4.692 -0.0015  0.0211 -0.0367
 6639TIP3    H219924   2.712   3.237   4.785  1.0720 -0.3950 -1.4512
 6640TIP3   OH219925   0.972   4.194   0.344 -0.4470 -0.3043  0.0559
 6640TIP3    H119926   1.004   4.278   0.311  2.6084 -0.6857  1.6899
 6640TIP3    H219927   1.030   4.129   0.305 -0.1317 -1.2377  1.9698
 6641TIP3   OH219928   2.320   0.081   0.438  0.4781  0.5754  0.1019
 6641TIP3    H119929   2.294   0.127   0.358 -0.0819  2.2340  1.1828
 6641TIP3    H219930   2.324  -0.011   0.412 -0.3517  0.9836 -1.6666
 6642TIP3   OH219931   6.361   1.067   2.705  0.1185  0.3683 -0.0072
 6642TIP3    H119932   6.292   1.007   2.733  0.8042 -0.7743 -0.6585
 6642TIP3    H219933   6.322   1.118   2.634 -0.4449  0.6375  0.4903
 6643TIP3   OH219934   1.105   4.875   2.969 -0.0814  0.5474  0.6025
 6643TIP3    H119935   1.083   4.804   3.029  1.0145 -0.5201 -0.2362
 6643TIP3    H219936   1.023   4.923   2.958 -1.3262 -1.6459 -0.2219
 6644TIP3   OH219937   5.325   1.519   3.422  0.2520 -0.2818 -0.2159
 6644TIP3    H119938   5.414   1.545   3.448 -0.7491  1.2186  2.0044
 6644TIP3    H219939   5.335   1.488   3.332  3.1933 -1.1336  0.2820
 6645TIP3   OH219940   2.812   2.635   3.128 -0.0947 -0.0854 -0.1223
 6645TIP3    H119941   2.763   2.560   3.096  0.7770 -0.4616 -0.6143
 6645TIP3    H219942   2.859   2.668   3.051  0.7507  0.0039  0.4178
   6.33888   5.97635   5.17568   0.00000   0.00000  -2.11297   0.00000  -2.11297  -2.98817
