Title
19942
    1ASP      N    1   0.349   2.492   2.602  0.4467 -0.2079  0.3713
    1ASP    HT1    2   0.420   2.477   2.527  0.6760  0.4330  0.4557
    1ASP    HT2    3   0.401   2.520   2.687  0.7504 -3.4965  1.3863
    1ASP    HT3    4   0.276   2.562   2.578  0.7877  0.2507  0.6694
    1ASP     CA    5   0.279   2.370   2.645  0.1011  0.5074 -0.0677
    1ASP     HA    6   0.236   2.394   2.741 -0.1369  1.3970 -0.3917
    1ASP     CB    7   0.158   2.345   2.554 -0.3180  0.3317  0.2458
    1ASP    HB1    8   0.103   2.251   2.579 -0.3863  0.3429  0.1378
    1ASP    HB2    9   0.188   2.334   2.448 -3.0530  0.9028 -0.6646
    1ASP     CG   10   0.051   2.449   2.548  0.2161  0.4462  0.2535
    1ASP    OD1   11  -0.056   2.428   2.491 -0.0202  0.1850  0.6288
    1ASP    OD2   12   0.089   2.570   2.577 -0.1017  0.5983  0.0120
    1ASP      C   13   0.371   2.255   2.663 -0.7429  0.1633 -0.6959
    1ASP      O   14   0.479   2.263   2.613  0.4690 -0.0560  0.1289
    2ALA      N   15   0.339   2.146   2.740  0.6560 -0.1939 -0.2718
    2ALA     HN   16   0.250   2.140   2.783  1.2697  0.2366  1.1146
    2ALA     CA   17   0.426   2.030   2.761 -0.1746  0.6937  0.1627
    2ALA     HA   18   0.509   2.068   2.820  0.0171 -0.2480  0.5134
    2ALA     CB   19   0.370   1.929   2.860 -0.1958  0.1060  0.0325
    2ALA    HB1   20   0.441   1.847   2.884  0.7052  0.4310 -1.4211
    2ALA    HB2   21   0.282   1.884   2.809 -0.6637  1.8390 -0.7498
    2ALA    HB3   22   0.343   1.980   2.955 -1.4411  1.3372 -0.9375
    2ALA      C   23   0.493   1.962   2.643 -0.2811 -0.2879 -0.4282
    2ALA      O   24   0.441   1.962   2.530  0.1191  0.6734 -0.3192
    3ASP      N   25   0.614   1.910   2.669  0.1988 -0.7113 -0.0014
    3ASP     HN   26   0.653   1.919   2.761  0.4836 -0.2053 -0.1644
    3ASP     CA   27   0.687   1.824   2.577  0.2497 -0.3023 -0.4644
    3ASP     HA   28   0.711   1.883   2.490  0.5492 -0.7283 -0.6692
    3ASP     CB   29   0.827   1.783   2.625 -0.4976  0.6420  0.2257
    3ASP    HB1   30   0.876   1.722   2.545 -0.1941  0.1372  0.7890
    3ASP    HB2   31   0.811   1.711   2.708 -1.3249  1.0438  0.4192
    3ASP     CG   32   0.914   1.894   2.685  0.6004 -0.0263  0.3809
    3ASP    OD1   33   0.885   2.012   2.685  0.2612 -0.6346  0.1940
    3ASP    OD2   34   1.016   1.853   2.746  0.1346  0.6127  0.0764
    3ASP      C   35   0.607   1.706   2.536  0.1953  0.2258  0.0059
    3ASP      O   36   0.533   1.643   2.613  0.3906 -0.3580  0.3990
    4GLY      N   37   0.608   1.679   2.408 -0.0617  0.3710 -0.2840
    4GLY     HN   38   0.652   1.738   2.341 -1.5173  1.2187 -0.5315
    4GLY     CA   39   0.558   1.552   2.362  0.7878  0.2098 -0.4454
    4GLY    HA1   40   0.558   1.554   2.254  0.0657 -0.5575 -0.4785
    4GLY    HA2   41   0.467   1.535   2.418  1.1328 -2.9183 -0.6365
    4GLY      C   42   0.647   1.434   2.397  0.5843  1.3513 -0.0192
    4GLY      O   43   0.768   1.448   2.410  0.4789 -0.7296  0.6038
    5PRO      N   44   0.593   1.306   2.412 -0.2069 -0.1836 -0.1346
    5PRO     CD   45   0.454   1.275   2.389  0.2314  0.2871 -0.2234
    5PRO    HD1   46   0.439   1.268   2.279 -0.0874  0.4983 -0.1937
    5PRO    HD2   47   0.395   1.347   2.450 -0.8572 -1.6720  1.1732
    5PRO     CA   48   0.679   1.184   2.417 -0.0772  0.2825 -0.4873
    5PRO     HA   49   0.728   1.193   2.513 -0.3587  3.0553 -0.5204
    5PRO     CB   50   0.575   1.075   2.398  0.8158  0.4143  0.2703
    5PRO    HB1   51   0.600   0.982   2.453 -0.9667 -1.2421 -1.5196
    5PRO    HB2   52   0.565   1.052   2.289 -0.2823 -1.2610  0.6890
    5PRO     CG   53   0.442   1.131   2.441 -0.2598  0.7778  0.0078
    5PRO    HG1   54   0.357   1.072   2.400 -0.0472 -0.1885  0.9308
    5PRO    HG2   55   0.420   1.131   2.549 -1.6540 -0.5415 -0.2379
    5PRO      C   56   0.797   1.177   2.316  0.2646  0.1470  0.2073
    5PRO      O   57   0.783   1.236   2.210  0.0007 -0.3659  0.1428
    6GLY      N   58   0.904   1.097   2.338 -0.0133  1.4216 -0.3377
    6GLY     HN   59   0.910   1.054   2.428  1.5762 -0.0378 -1.0910
    6GLY     CA   60   1.015   1.065   2.241 -0.0235  0.0840  0.1155
    6GLY    HA1   61   1.095   1.013   2.292 -1.5068 -2.1738  0.3147
    6GLY    HA2   62   1.046   1.158   2.197 -0.3776 -0.6821 -1.8547
    6GLY      C   63   0.975   0.985   2.123  0.1714  0.8075  0.2593
    6GLY      O   64   0.895   0.894   2.132  0.5006 -0.0031  0.2586
    7ASP      N   65   1.026   1.016   2.009  0.4868  0.6717 -0.5369
    7ASP     HN   66   1.068   1.106   2.002  1.2134  0.3927  0.0575
    7ASP     CA   67   1.007   0.946   1.883 -0.0793  0.7461  0.6036
    7ASP     HA   68   0.900   0.942   1.864 -0.1957 -0.3943  1.3531
    7ASP     CB   69   1.083   1.026   1.779 -1.0861  0.4106  0.2596
    7ASP    HB1   70   1.188   1.043   1.810 -1.0004 -0.0715  0.2473
    7ASP    HB2   71   1.025   1.120   1.781 -2.0683 -0.1765  0.4051
    7ASP     CG   72   1.087   0.974   1.635  0.4124  0.2920  0.8854
    7ASP    OD1   73   1.029   0.874   1.594 -0.5537  0.2644 -0.4116
    7ASP    OD2   74   1.137   1.054   1.547 -0.2848  0.7181 -0.3321
    7ASP      C   75   1.054   0.799   1.886 -0.0094 -0.4646  0.3146
    7ASP      O   76   1.175   0.780   1.910 -0.9965  0.3501  0.1338
    8PRO      N   77   0.980   0.701   1.838  0.1368  0.0795 -0.0530
    8PRO     CD   78   0.834   0.715   1.810 -0.5825  0.0330  0.2270
    8PRO    HD1   79   0.802   0.774   1.722 -1.3306 -1.6552 -0.6955
    8PRO    HD2   80   0.779   0.741   1.903 -0.9589  1.9428 -0.4944
    8PRO     CA   81   1.027   0.559   1.834 -0.1249 -0.5643  0.4423
    8PRO     HA   82   1.087   0.520   1.914  1.8485 -0.8871 -1.1141
    8PRO     CB   83   0.890   0.486   1.849 -0.4121  0.1293 -0.0623
    8PRO    HB1   84   0.878   0.487   1.959  0.5900  1.6415  0.0619
    8PRO    HB2   85   0.895   0.385   1.802 -0.0100  0.9298 -1.8397
    8PRO     CG   86   0.787   0.566   1.780  0.5563 -0.1549  0.5847
    8PRO    HG1   87   0.793   0.554   1.670  0.1481  0.2018  0.5166
    8PRO    HG2   88   0.683   0.562   1.821 -0.4459  0.4790 -1.7083
    8PRO      C   89   1.091   0.522   1.704 -0.5264 -0.0649  0.1735
    8PRO      O   90   1.100   0.405   1.674 -0.1713  0.3934  0.3967
    9ASP      N   91   1.139   0.622   1.629 -0.5218 -0.0220  0.5642
    9ASP     HN   92   1.090   0.708   1.629 -0.8190 -0.1849  1.0553
    9ASP     CA   93   1.241   0.595   1.530 -0.2980 -0.0813 -0.2526
    9ASP     HA   94   1.226   0.498   1.484 -1.7707 -0.2669  0.5557
    9ASP     CB   95   1.239   0.696   1.409 -0.0078 -0.6923  0.2417
    9ASP    HB1   96   1.321   0.684   1.335  1.3029  1.9516  1.1335
    9ASP    HB2   97   1.259   0.796   1.453  0.5930 -0.8927  0.4292
    9ASP     CG   98   1.109   0.690   1.334 -0.0995  0.4843  0.2791
    9ASP    OD1   99   1.043   0.797   1.333 -0.2628 -0.0233 -0.0340
    9ASP    OD2  100   1.069   0.585   1.277 -0.4834 -0.1330  0.6145
    9ASP      C  101   1.383   0.594   1.587 -0.4748 -0.5062  0.0170
    9ASP      O  102   1.479   0.552   1.524  0.2138  0.2420 -0.0773
   10ALA      N  103   1.399   0.647   1.710  0.6104 -0.6317  0.4333
   10ALA     HN  104   1.319   0.690   1.751 -0.0553 -1.2815 -0.1566
   10ALA     CA  105   1.527   0.640   1.778 -0.0348 -0.0762 -0.7114
   10ALA     HA  106   1.612   0.604   1.722  0.6880 -0.8292  0.7915
   10ALA     CB  107   1.553   0.782   1.832 -0.2706 -0.6439  0.3071
   10ALA    HB1  108   1.458   0.809   1.882  0.4097  0.5884  0.9742
   10ALA    HB2  109   1.563   0.860   1.753  4.1883  0.7475  1.9191
   10ALA    HB3  110   1.634   0.793   1.907  0.3003  1.1852 -0.5115
   10ALA      C  111   1.514   0.551   1.894  0.1897  1.0658 -0.8193
   10ALA      O  112   1.408   0.491   1.920  0.5666  0.5519  0.7457
   11GLY      N  113   1.622   0.527   1.966  0.8247  0.0412  0.1506
   11GLY     HN  114   1.701   0.582   1.942  1.4464 -1.1848 -0.7328
   11GLY     CA  115   1.640   0.430   2.074  0.1412  0.4003  0.0487
   11GLY    HA1  116   1.746   0.415   2.086  0.2108 -0.4709 -1.4020
   11GLY    HA2  117   1.584   0.344   2.042 -0.6207  0.9717 -0.1993
   11GLY      C  118   1.575   0.491   2.202 -0.8689  0.0330 -0.3828
   11GLY    OT1  119   1.628   0.596   2.246 -0.3549  0.1020  0.2677
   11GLY    OT2  120   1.499   0.418   2.274 -0.2107 -0.3391 -0.5700
   12LIT    LIT  121   6.035   5.373   3.605  0.0854  0.5191 -0.6106
   13LIT    LIT  122   2.318   3.167   0.707 -0.2251  0.1200  1.1069
   14LIT    LIT  123   3.338   3.962   1.691  0.3603  0.0167  1.4152
   15LIT    LIT  124   1.597   0.641   0.309 -0.1140  0.3964 -0.2897
   16LIT    LIT  125   1.506   0.533   2.421 -0.3574  0.0159 -0.0870
   17LIT    LIT  126   0.268   5.513   5.100  0.4168  0.6329  0.0880
   18LIT    LIT  127   2.275   1.982   5.043 -0.1944 -0.9684 -0.0145
   19LIT    LIT  128   1.075   0.964   1.396 -0.3502  0.3151  0.0518
   20LIT    LIT  129   0.695   4.297   1.862 -1.6809  0.7030  0.2200
   21LIT    LIT  130   2.331   1.953   2.020  0.5992  1.0126  0.2298
   22LIT    LIT  131   4.118   1.989   1.103  0.3941  1.8939 -0.0297
   23LIT    LIT  132   2.808   5.710   4.843  0.6504 -0.3956  0.2772
   24LIT    LIT  133   4.818   2.089   4.920  0.6367 -0.2142 -0.0462
   25LIT    LIT  134   6.258   2.257   5.006 -0.2050  0.6023  0.0737
   26LIT    LIT  135   2.073   0.880   4.367  0.0492  0.7015 -0.6215
   27LIT    LIT  136   3.822   0.176   4.036  0.6258  1.5079  0.1085
   28LIT    LIT  137   2.084   5.064   1.580 -1.3290  0.1358 -1.1973
   29LIT    LIT  138   2.933   0.201   3.884  0.0084  0.1837  0.9347
   30LIT    LIT  139   5.638   4.093   4.613 -0.2553  0.2748  0.1626
   31LIT    LIT  140   2.767   0.351   0.747 -0.0869  0.1794 -1.0331
   32LIT    LIT  141   0.581   1.083   1.845  0.4106 -0.2006  0.2040
   33LIT    LIT  142   2.045   5.623   5.063 -0.9567  0.5613 -1.3388
   34CLA    CLA  143   3.632   2.933   0.249  0.0629 -0.0638  0.3027
   35CLA    CLA  144   0.440   5.748   3.941 -0.2303 -0.0175  0.1127
   36CLA    CLA  145   5.182   4.563   1.762 -0.2523 -0.5133 -0.0357
   37CLA    CLA  146   1.114   4.205   1.362  0.1212 -0.2836  0.1953
   38CLA    CLA  147   0.754   1.274   1.463  0.0925  0.4651 -0.0689
   39CLA    CLA  148   4.378   2.330   3.929  0.1402  0.1225  0.1269
   40CLA    CLA  149   3.975   2.001   4.210 -0.5248  0.0815 -0.2690
   41CLA    CLA  150   5.672   4.426   4.355  0.0283  0.5417 -0.0868
   42CLA    CLA  151   0.809   1.727   5.002 -0.3285 -0.0634  0.3978
   43CLA    CLA  152   0.603   5.149   3.506 -0.1631  0.0738  0.1345
   44CLA    CLA  153   2.089   4.006   2.939 -0.2920  0.0245  0.0812
   45CLA    CLA  154   1.553   5.287   4.643 -0.2314 -0.0912 -0.1746
   46CLA    CLA  155   2.672   0.367   1.470  0.0286 -0.2413 -0.1081
   47CLA    CLA  156   2.168   1.042   4.486  0.2266  0.1294 -0.0628
   48CLA    CLA  157   3.411   4.457   2.853  0.2473 -0.1172 -0.1780
   49CLA    CLA  158   3.805   1.662   1.224 -0.2185  0.2309  0.1180
   50CLA    CLA  159   0.897   4.892   2.796  0.2952  0.0641  0.0311
   51CLA    CLA  160   3.166   4.182   5.171  0.1989 -0.1817 -0.2476
   52TIP3   OH2  161   3.960   4.967   1.872 -0.3930  0.2846  0.5263
   52TIP3    H1  162   3.951   5.060   1.894  0.4350  0.0755  1.8487
   52TIP3    H2  163   4.027   4.935   1.932 -1.2711 -1.3701  0.6714
   53TIP3   OH2  164   3.241   5.575   3.023  0.1040 -0.2528 -0.2742
   53TIP3    H1  165   3.220   5.667   3.009 -0.0134 -0.5453 -2.1565
   53TIP3    H2  166   3.337   5.573   3.023  0.1325 -0.0035  0.8985
   54TIP3   OH2  167   2.828   4.276   2.333 -0.2087  0.4277  0.5266
   54TIP3    H1  168   2.758   4.302   2.393 -0.3205  0.8608  0.2147
   54TIP3    H2  169   2.796   4.302   2.247 -0.4338 -0.9851  0.1556
   55TIP3   OH2  170   1.967   3.839   1.029 -0.5750 -0.1776  0.1280
   55TIP3    H1  171   1.926   3.805   0.949  0.1574  0.1273 -0.3862
   55TIP3    H2  172   1.947   3.932   1.028 -0.3890 -0.1374  0.1949
   56TIP3   OH2  173   4.113   2.887   0.439 -0.0504 -0.5537  0.5153
   56TIP3    H1  174   4.050   2.873   0.509 -1.0094 -0.7493 -0.3663
   56TIP3    H2  175   4.112   2.806   0.389 -1.0519  0.3682 -1.0237
   57TIP3   OH2  176   5.702   1.757   1.897 -0.3353  0.1569  0.1485
   57TIP3    H1  177   5.683   1.761   1.803 -0.8883 -0.8490  0.2108
   57TIP3    H2  178   5.680   1.668   1.923  0.8276  0.0958  1.0243
   58TIP3   OH2  179   3.633   4.380   1.354 -0.5828  0.6136  0.2975
   58TIP3    H1  180   3.564   4.333   1.307  0.1818 -0.2553  0.0238
   58TIP3    H2  181   3.604   4.471   1.353 -2.0278  0.1847  0.7297
   59TIP3   OH2  182   3.026   1.347   0.745 -0.5395  0.3628 -0.2494
   59TIP3    H1  183   2.942   1.363   0.787 -1.0101 -1.1190 -0.5602
   59TIP3    H2  184   3.089   1.341   0.817 -0.8891  0.3749  0.0554
   60TIP3   OH2  185   4.444   5.427   0.487 -0.4493 -0.5438 -0.4113
   60TIP3    H1  186   4.413   5.424   0.577  0.5674 -1.5271 -0.0681
   60TIP3    H2  187   4.407   5.349   0.446 -2.3302  0.7758 -1.3740
   61TIP3   OH2  188   0.746   1.850   3.573 -0.5900  0.5252  0.3028
   61TIP3    H1  189   0.835   1.816   3.582 -0.9277 -0.1736  1.2769
   61TIP3    H2  190   0.743   1.888   3.485 -0.0938 -1.7447 -0.7590
   62TIP3   OH2  191   3.021   5.977   2.960 -0.1282 -0.0336  0.1522
   62TIP3    H1  192   3.034   5.946   2.871  0.0392  0.7254 -0.0935
   62TIP3    H2  193   3.109   5.987   2.996 -0.2020 -0.9527  0.6325
   63TIP3   OH2  194   3.644   2.923   3.014 -0.6552  0.2242 -0.0826
   63TIP3    H1  195   3.662   2.874   2.933 -0.3078 -0.9012  0.6425
   63TIP3    H2  196   3.597   3.001   2.985 -0.1339  0.0765 -1.4174
   64TIP3   OH2  197   1.779   5.388   1.854 -0.0265  0.3253 -0.0398
   64TIP3    H1  198   1.861   5.439   1.858  0.7140 -0.8108 -0.3004
   64TIP3    H2  199   1.778   5.339   1.936 -1.7529  2.2019  1.1626
   65TIP3   OH2  200   2.130   3.181   3.612 -0.1080 -0.0590  0.2056
   65TIP3    H1  201   2.109   3.196   3.704 -0.9965  0.0077 -0.0022
   65TIP3    H2  202   2.148   3.268   3.576  3.3306 -0.3087  1.0064
   66TIP3   OH2  203   3.378   2.666   0.985 -0.4763 -0.1988 -0.2056
   66TIP3    H1  204   3.430   2.635   0.911  1.2772 -0.7972  1.1923
   66TIP3    H2  205   3.375   2.591   1.045 -0.8378  0.6265  0.8343
   67TIP3   OH2  206   1.897   1.962   1.619  0.5083 -0.6215  0.6450
   67TIP3    H1  207   1.860   1.894   1.563 -0.3300  0.3132  0.0251
   67TIP3    H2  208   1.991   1.960   1.602  0.3580 -0.8962 -0.1774
   68TIP3   OH2  209   6.007   3.023   2.214  0.4040 -0.0551 -0.3331
   68TIP3    H1  210   6.061   3.012   2.135  2.4675  0.7451  0.8859
   68TIP3    H2  211   6.069   3.015   2.287 -1.3177 -0.0787  1.2005
   69TIP3   OH2  212   2.914   0.561   1.530 -0.5724  0.6529  0.6458
   69TIP3    H1  213   2.970   0.488   1.555  0.8378  0.1999 -3.1381
   69TIP3    H2  214   2.831   0.520   1.506  0.2075  0.1618 -1.4466
   70TIP3   OH2  215   2.313   1.551   1.756  0.1595 -0.2099  0.1313
   70TIP3    H1  216   2.267   1.472   1.785  0.5517 -0.1177  1.0050
   70TIP3    H2  217   2.284   1.562   1.665 -5.6769  2.6681  1.8266
   71TIP3   OH2  218   1.220   1.014   1.268  0.5399  0.2837  0.4472
   71TIP3    H1  219   1.304   0.968   1.271  0.9194  0.9417  0.1994
   71TIP3    H2  220   1.242   1.102   1.239 -0.3203  0.2884 -0.2279
   72TIP3   OH2  221   1.082   4.030   0.589 -0.1845  0.0035  0.7621
   72TIP3    H1  222   1.078   3.942   0.553 -0.2631  0.4623 -0.3726
   72TIP3    H2  223   1.027   4.026   0.667  0.2749 -1.0905  1.0435
   73TIP3   OH2  224   6.329   2.686   2.857  0.6388 -0.3491  0.0702
   73TIP3    H1  225   6.341   2.651   2.769  3.2179 -0.6344  0.4640
   73TIP3    H2  226   6.240   2.660   2.881 -0.6232  0.8591 -2.8787
   74TIP3   OH2  227   5.982   2.881   5.063  0.1426 -0.0386 -0.4299
   74TIP3    H1  228   6.068   2.878   5.020  1.9856  0.1565  2.9176
   74TIP3    H2  229   5.962   2.974   5.069 -0.5649 -0.0981 -1.5774
   75TIP3   OH2  230   2.595   3.255   4.030 -0.2472 -0.5018 -0.3348
   75TIP3    H1  231   2.641   3.331   3.995 -2.2635  0.5860 -0.7255
   75TIP3    H2  232   2.662   3.208   4.080  1.2247  1.1097 -0.6965
   76TIP3   OH2  233   1.495   4.597   4.717  0.0094 -0.4039 -0.2285
   76TIP3    H1  234   1.486   4.679   4.766  0.5085 -0.8903  0.7056
   76TIP3    H2  235   1.473   4.529   4.781  0.6274 -1.0552 -0.7001
   77TIP3   OH2  236   1.270   2.288   2.840 -0.8319 -0.0148 -0.1775
   77TIP3    H1  237   1.300   2.320   2.755  0.0611 -1.5009 -0.4501
   77TIP3    H2  238   1.206   2.220   2.819  0.3095 -1.2742  0.2664
   78TIP3   OH2  239   2.434   3.268   1.414  0.4589 -0.6240  0.0331
   78TIP3    H1  240   2.379   3.223   1.351 -1.0824 -0.2604  1.0617
   78TIP3    H2  241   2.456   3.351   1.373 -1.0776 -0.1121  0.2179
   79TIP3   OH2  242   5.655   3.196   2.802  0.0140  0.3835  0.3187
   79TIP3    H1  243   5.743   3.158   2.795 -0.2319 -0.1903  0.2825
   79TIP3    H2  244   5.652   3.261   2.731 -0.3945 -1.2459 -1.2197
   80TIP3   OH2  245   2.051   1.005   0.882  0.5866 -0.2857  0.1062
   80TIP3    H1  246   2.118   0.941   0.860  1.9932  0.5561  1.6626
   80TIP3    H2  247   2.085   1.088   0.848  0.0016  0.0440  0.3091
   81TIP3   OH2  248   3.651   1.704   2.412 -0.1993  0.6000  0.1791
   81TIP3    H1  249   3.717   1.773   2.414 -1.1236  1.5541 -0.8609
   81TIP3    H2  250   3.593   1.723   2.486 -0.1868  0.6669  0.1715
   82TIP3   OH2  251   5.333   2.953   2.510 -0.5683 -0.1280  0.3250
   82TIP3    H1  252   5.377   2.919   2.588  0.5275  1.8697  0.6663
   82TIP3    H2  253   5.262   3.008   2.544 -1.8148 -1.3742 -0.1812
   83TIP3   OH2  254   6.379   3.306   3.731 -0.5912  0.1526 -0.4527
   83TIP3    H1  255   6.308   3.288   3.670 -0.8769  2.0017 -0.7474
   83TIP3    H2  256   6.344   3.374   3.789  0.1019 -0.6905  0.9928
   84TIP3   OH2  257   4.454   4.364   3.492  0.3870 -0.4465  0.1165
   84TIP3    H1  258   4.548   4.371   3.507  0.2369 -0.2678  1.0255
   84TIP3    H2  259   4.439   4.270   3.478  0.5775 -0.5985  0.8778
   85TIP3   OH2  260   2.003   5.235   3.475 -0.1559  0.5058 -0.6017
   85TIP3    H1  261   1.932   5.183   3.437 -0.5743 -0.9631  1.9728
   85TIP3    H2  262   2.081   5.179   3.466 -0.6583 -0.8768  2.4229
   86TIP3   OH2  263   4.850   3.063   3.350  0.4065 -0.9121 -0.0885
   86TIP3    H1  264   4.909   3.075   3.424 -0.0292  0.6563  0.0236
   86TIP3    H2  265   4.874   3.132   3.289 -2.7991  1.3486  0.9625
   87TIP3   OH2  266   1.768   2.015   1.034 -0.1488  0.4315 -0.2524
   87TIP3    H1  267   1.830   2.061   1.091  0.9533 -0.3599 -0.7833
   87TIP3    H2  268   1.779   2.057   0.949  0.9814 -0.8707 -0.7816
   88TIP3   OH2  269   4.505   5.837   2.376 -0.1887  0.0078 -0.0774
   88TIP3    H1  270   4.546   5.921   2.354 -2.1130  1.1847  0.5571
   88TIP3    H2  271   4.437   5.825   2.309 -2.3091  0.8116  1.8007
   89TIP3   OH2  272   4.479   2.140   1.860  0.0067 -0.0401 -0.1534
   89TIP3    H1  273   4.539   2.101   1.923  1.3943  2.0437 -0.0691
   89TIP3    H2  274   4.452   2.067   1.804  1.9751 -1.2223  0.3384
   90TIP3   OH2  275   5.930   4.012   4.304 -0.3644  0.0950  0.0358
   90TIP3    H1  276   5.926   4.008   4.208  0.8786  1.5816 -0.1233
   90TIP3    H2  277   5.961   4.101   4.322 -0.7997 -0.0972  1.8324
   91TIP3   OH2  278   3.294   1.801   3.805 -0.3985 -0.0361 -0.1249
   91TIP3    H1  279   3.257   1.876   3.758 -0.5592 -1.0110 -1.6294
   91TIP3    H2  280   3.303   1.831   3.895 -0.4878  1.7789 -0.6811
   92TIP3   OH2  281   2.829   1.205   5.010  0.4798 -0.0624  0.5393
   92TIP3    H1  282   2.760   1.140   4.999  0.3466 -0.0248  1.1481
   92TIP3    H2  283   2.847   1.236   4.921 -1.0420  0.7132  0.4739
   93TIP3   OH2  284   2.645   2.785   2.532  0.2442  0.2793 -0.1255
   93TIP3    H1  285   2.639   2.696   2.566 -0.1357 -0.2947 -1.6608
   93TIP3    H2  286   2.693   2.777   2.450 -1.4369  1.2178 -1.2544
   94TIP3   OH2  287   2.200   3.420   1.072  0.3020 -0.3323  0.5089
   94TIP3    H1  288   2.144   3.491   1.040  0.7675 -0.0721  0.2510
   94TIP3    H2  289   2.250   3.459   1.144  2.1657  0.2997 -1.0193
   95TIP3   OH2  290   5.804   3.633   3.386 -0.1655 -0.1810 -0.5080
   95TIP3    H1  291   5.737   3.597   3.444  0.0711  0.2629  0.0528
   95TIP3    H2  292   5.884   3.631   3.438  0.0115  0.3976 -0.7557
   96TIP3   OH2  293   2.278   2.984   1.621 -0.1786 -0.2255  0.3028
   96TIP3    H1  294   2.368   2.990   1.591 -0.8008  0.7892 -1.4936
   96TIP3    H2  295   2.229   3.042   1.563 -1.8212  0.1480  1.9646
   97TIP3   OH2  296   3.469   5.511   3.540 -0.2076 -0.2361 -0.6489
   97TIP3    H1  297   3.424   5.465   3.469 -2.0344  0.2676  0.1179
   97TIP3    H2  298   3.422   5.484   3.619 -0.3470  1.7013 -0.0140
   98TIP3   OH2  299   4.088   0.660   3.024 -0.5989 -0.2240 -0.0135
   98TIP3    H1  300   4.098   0.670   3.119 -0.6893 -0.6428  0.0438
   98TIP3    H2  301   4.005   0.613   3.013 -0.8501  0.2796 -0.3282
   99TIP3   OH2  302   4.009   1.023   3.632  0.0867  0.1373 -0.2909
   99TIP3    H1  303   3.995   0.931   3.654  1.7447 -0.0359  0.1619
   99TIP3    H2  304   3.986   1.071   3.711 -1.0663  0.1630 -0.6218
  100TIP3   OH2  305   4.095   5.562   2.921  0.7733  0.0271  0.1554
  100TIP3    H1  306   4.138   5.567   2.836  0.3636 -1.7289 -0.2019
  100TIP3    H2  307   4.167   5.561   2.985  1.3236 -2.0979 -0.3902
  101TIP3   OH2  308   3.496   2.516   3.624  0.1672  0.1768  0.1032
  101TIP3    H1  309   3.556   2.493   3.695  1.4350  0.9252 -0.6949
  101TIP3    H2  310   3.518   2.457   3.553  1.4940  1.8448 -0.9498
  102TIP3   OH2  311   6.063   3.424   4.877  0.2708 -0.3433 -0.0398
  102TIP3    H1  312   6.036   3.454   4.964 -0.9981 -1.0206 -0.1677
  102TIP3    H2  313   5.980   3.411   4.830  0.9314 -0.1771 -1.2883
  103TIP3   OH2  314   4.181   2.091   1.538 -0.4631 -0.2952 -0.5419
  103TIP3    H1  315   4.208   1.999   1.536 -0.8072 -0.3965 -0.6023
  103TIP3    H2  316   4.189   2.116   1.630 -0.5083 -0.4290 -0.5009
  104TIP3   OH2  317   3.454   5.891   2.608 -0.6526  0.0639 -0.9849
  104TIP3    H1  318   3.521   5.918   2.546  0.0344  0.4728 -0.0840
  104TIP3    H2  319   3.388   5.960   2.603 -0.4619  0.2425 -1.0617
  105TIP3   OH2  320   5.647   3.927   1.261 -0.0581  0.3907 -0.6518
  105TIP3    H1  321   5.694   4.008   1.242  0.0451  0.6234  0.5236
  105TIP3    H2  322   5.692   3.889   1.337  0.1905 -1.0159 -1.4574
  106TIP3   OH2  323   5.870   2.934   1.906 -0.1596  0.6153 -0.6956
  106TIP3    H1  324   5.963   2.937   1.929 -0.9233 -0.1071  3.1292
  106TIP3    H2  325   5.865   2.870   1.836  2.1077 -0.0765 -0.3128
  107TIP3   OH2  326   1.680   5.886   0.261 -0.0583 -1.0276 -0.3287
  107TIP3    H1  327   1.633   5.861   0.340  0.4556 -2.3647 -0.4144
  107TIP3    H2  328   1.643   5.831   0.192 -1.3204  0.9399 -1.3161
  108TIP3   OH2  329   4.701   1.922   1.018  0.2095  0.0442  0.1314
  108TIP3    H1  330   4.767   1.882   0.961 -1.1441 -0.0804 -1.4115
  108TIP3    H2  331   4.748   1.942   1.099  1.8726 -1.0141 -0.5286
  109TIP3   OH2  332   2.314   5.389   4.764  0.2659  0.2009  0.1836
  109TIP3    H1  333   2.326   5.438   4.846 -1.6355 -0.4924  0.9323
  109TIP3    H2  334   2.237   5.429   4.724  0.0669 -0.6834 -0.3295
  110TIP3   OH2  335   2.308   0.329   1.553  0.1498 -0.0723 -0.1576
  110TIP3    H1  336   2.341   0.412   1.587  0.2453  0.1054 -0.6735
  110TIP3    H2  337   2.213   0.334   1.564  0.2705 -0.6667  1.5150
  111TIP3   OH2  338   4.577   1.706   1.162 -0.0627  0.3711  0.2516
  111TIP3    H1  339   4.571   1.772   1.093 -0.1698 -0.4377 -0.5303
  111TIP3    H2  340   4.613   1.628   1.118  1.2729  0.2862  1.4219
  112TIP3   OH2  341   3.994   5.225   4.898 -0.2103 -0.1074 -0.3040
  112TIP3    H1  342   3.974   5.318   4.907  1.2174  0.3177 -1.1722
  112TIP3    H2  343   3.909   5.184   4.879 -0.7121  1.1723 -0.9644
  113TIP3   OH2  344   0.830   5.151   5.065  0.4418 -0.4721 -0.2297
  113TIP3    H1  345   0.834   5.227   5.007 -1.0455 -0.9742 -1.0404
  113TIP3    H2  346   0.825   5.188   5.153  1.4446  0.3263 -0.4968
  114TIP3   OH2  347   3.299   5.211   3.294  0.6883 -0.8417 -0.5578
  114TIP3    H1  348   3.208   5.221   3.263  0.9694  0.5100 -0.9887
  114TIP3    H2  349   3.302   5.121   3.327 -0.8118 -0.9154 -0.5223
  115TIP3   OH2  350   5.532   0.216   1.545  0.0103  0.1915 -0.0962
  115TIP3    H1  351   5.592   0.141   1.545  3.1350  2.4504 -0.5472
  115TIP3    H2  352   5.524   0.241   1.638  0.6246  0.4517 -0.1065
  116TIP3   OH2  353   1.378   5.690   4.655 -0.0167 -0.0828 -0.4256
  116TIP3    H1  354   1.370   5.691   4.750 -0.8974  0.1496 -0.4923
  116TIP3    H2  355   1.451   5.750   4.636 -0.3558  0.4918  0.0584
  117TIP3   OH2  356   4.818   2.676   1.860  0.3425 -0.2663  0.1478
  117TIP3    H1  357   4.841   2.766   1.878 -1.5370 -0.0243  1.6118
  117TIP3    H2  358   4.844   2.627   1.938 -2.4434 -0.2186  1.2171
  118TIP3   OH2  359   4.869   4.680   3.037 -0.7436 -0.1329  0.6633
  118TIP3    H1  360   4.794   4.667   3.095 -1.0905 -2.3187 -0.1802
  118TIP3    H2  361   4.837   4.739   2.969 -1.9783 -1.5382 -0.0389
  119TIP3   OH2  362   0.014   2.979   2.849 -0.4492 -0.3846  0.4029
  119TIP3    H1  363  -0.004   2.886   2.848  2.5945 -1.0860  0.3465
  119TIP3    H2  364   0.093   2.988   2.902  0.4703  1.8855 -1.1564
  120TIP3   OH2  365   5.469   3.139   3.246  0.1779  0.6455 -0.4721
  120TIP3    H1  366   5.429   3.075   3.187  0.7194 -0.5896  0.4435
  120TIP3    H2  367   5.541   3.176   3.196  1.7601 -1.6820 -0.0783
  121TIP3   OH2  368   5.710   4.006   4.453 -0.3804 -0.4119  0.3189
  121TIP3    H1  369   5.653   3.960   4.392  0.5558  0.7766 -1.5579
  121TIP3    H2  370   5.798   3.996   4.415  0.7795 -2.2500  3.1389
  122TIP3   OH2  371   4.402   4.527  -0.002 -0.2402 -0.0065 -0.1771
  122TIP3    H1  372   4.325   4.545  -0.055  0.1227 -0.8679 -1.0314
  122TIP3    H2  373   4.370   4.525   0.088 -1.3375 -0.9747 -0.5681
  123TIP3   OH2  374   4.007   1.216   2.081 -0.2025  0.3105 -0.4573
  123TIP3    H1  375   4.018   1.298   2.032 -0.6361 -1.6907 -4.3279
  123TIP3    H2  376   3.912   1.207   2.092 -0.3430 -0.6344 -2.0958
  124TIP3   OH2  377   4.160   3.044   1.838 -0.1188 -0.4423  0.4619
  124TIP3    H1  378   4.138   3.015   1.749  1.1705 -0.0649  0.0003
  124TIP3    H2  379   4.182   3.136   1.828  2.7066 -1.0097  0.6516
  125TIP3   OH2  380   4.919   5.363   1.889 -0.4000 -0.4629  0.4333
  125TIP3    H1  381   4.853   5.309   1.845 -0.8889  0.2682  0.2574
  125TIP3    H2  382   5.003   5.330   1.856 -0.7298 -0.5009 -0.3825
  126TIP3   OH2  383   0.566   4.501   5.101  0.3546 -0.9125  0.1713
  126TIP3    H1  384   0.534   4.452   5.026 -0.8830 -0.1453  0.1709
  126TIP3    H2  385   0.587   4.588   5.066  2.3104 -1.3194  0.2107
  127TIP3   OH2  386   0.671   5.854   0.514  0.4852 -0.7555 -0.7190
  127TIP3    H1  387   0.732   5.888   0.449  0.8184 -1.1968 -0.6458
  127TIP3    H2  388   0.651   5.765   0.485  2.0242 -1.6207  0.6803
  128TIP3   OH2  389   2.031   0.469   3.697 -0.5700 -0.3247 -0.4429
  128TIP3    H1  390   2.089   0.540   3.721 -1.3274  0.8575 -1.9223
  128TIP3    H2  391   2.068   0.434   3.616 -0.2506 -1.5846  0.2182
  129TIP3   OH2  392   0.332   4.792   2.985 -0.5949 -0.1430  0.0889
  129TIP3    H1  393   0.268   4.835   3.042 -1.2043 -0.5997 -0.2451
  129TIP3    H2  394   0.416   4.829   3.012 -1.1300  1.5760 -0.4478
  130TIP3   OH2  395   0.920   5.577   1.130  0.3857  0.9349  0.5073
  130TIP3    H1  396   1.007   5.539   1.138  0.3118  0.8740  1.0554
  130TIP3    H2  397   0.861   5.508   1.158  0.1097  0.7545 -0.4761
  131TIP3   OH2  398   1.210   3.305   3.910  0.4301 -0.3439  0.1874
  131TIP3    H1  399   1.279   3.270   3.967  0.6786  1.6181  1.1647
  131TIP3    H2  400   1.131   3.303   3.964  0.5572  1.0363  0.4558
  132TIP3   OH2  401   0.635   3.042   3.318 -0.5369 -0.0865  0.0127
  132TIP3    H1  402   0.595   3.075   3.399 -2.1240 -1.9197  0.0434
  132TIP3    H2  403   0.722   3.012   3.345 -1.0700 -0.7421  1.0946
  133TIP3   OH2  404   4.745   1.672   4.040  0.1058 -0.3789 -0.3058
  133TIP3    H1  405   4.714   1.740   3.981 -1.7165 -2.1910 -1.5871
  133TIP3    H2  406   4.838   1.663   4.019  0.7221  2.5049  0.8133
  134TIP3   OH2  407   3.635   3.252   2.842 -0.6073 -0.1247  0.0837
  134TIP3    H1  408   3.726   3.244   2.870 -0.6841 -0.8368  0.1334
  134TIP3    H2  409   3.586   3.195   2.901 -0.8531 -1.1362 -1.0579
  135TIP3   OH2  410   1.168   1.683   0.662  0.5884 -0.0900  0.5067
  135TIP3    H1  411   1.135   1.709   0.576 -0.4938  0.1812  0.9829
  135TIP3    H2  412   1.210   1.761   0.697  0.3923  0.0149  0.5106
  136TIP3   OH2  413   3.102   4.460   1.021 -0.3442 -0.0740  0.1796
  136TIP3    H1  414   3.010   4.437   1.026 -0.3044 -0.1791  0.4547
  136TIP3    H2  415   3.125   4.488   1.110 -0.4269  1.1833 -0.1773
  137TIP3   OH2  416   4.071   3.963   1.109  0.5246  0.0282  0.5307
  137TIP3    H1  417   4.055   4.013   1.029  2.0314  0.9190  0.7451
  137TIP3    H2  418   4.030   4.015   1.178 -0.8943 -0.8087  0.3581
  138TIP3   OH2  419   0.251   2.612   2.949  0.1958  0.1629  0.1455
  138TIP3    H1  420   0.168   2.647   2.916  1.5228  2.3019 -1.1876
  138TIP3    H2  421   0.302   2.689   2.971  2.0430 -1.0794  0.4297
  139TIP3   OH2  422   5.590   2.961   0.072  0.1660 -0.0782 -1.0565
  139TIP3    H1  423   5.558   3.016   0.143  1.1528  0.5499 -1.0703
  139TIP3    H2  424   5.513   2.915   0.039 -0.5758  0.8650 -0.6590
  140TIP3   OH2  425   4.515   3.900   3.507 -0.0143 -0.2340  0.4080
  140TIP3    H1  426   4.510   3.812   3.545  0.6335 -0.5790 -0.2713
  140TIP3    H2  427   4.586   3.894   3.442 -1.8538 -0.0337 -1.7484
  141TIP3   OH2  428   5.060   5.952   0.852 -0.0969  0.1531 -0.4353
  141TIP3    H1  429   5.090   5.995   0.772 -0.3474 -0.4154 -0.8476
  141TIP3    H2  430   4.977   5.911   0.827 -0.9243  1.1893  0.5152
  142TIP3   OH2  431   1.899   0.884   0.240 -0.3753  0.1318 -0.1491
  142TIP3    H1  432   1.857   0.879   0.154  0.3009 -0.8292 -0.4371
  142TIP3    H2  433   1.932   0.973   0.246  1.0182 -0.2551 -1.5842
  143TIP3   OH2  434   3.224   4.610   4.790 -0.4044  0.2184 -0.0514
  143TIP3    H1  435   3.135   4.577   4.805 -0.7625  0.7870 -0.8415
  143TIP3    H2  436   3.280   4.551   4.840 -1.2996  0.4538  1.3031
  144TIP3   OH2  437   4.632   3.122   1.669 -0.2952  0.2451  0.1772
  144TIP3    H1  438   4.551   3.084   1.636 -0.8839  0.0562  1.7515
  144TIP3    H2  439   4.652   3.193   1.607 -0.4022 -1.1182 -1.5078
  145TIP3   OH2  440   4.014   4.227   2.284 -0.4598  0.2686 -0.1622
  145TIP3    H1  441   4.058   4.311   2.267 -0.5110 -0.2162 -3.3293
  145TIP3    H2  442   4.079   4.175   2.331 -0.1749  1.7897  1.2491
  146TIP3   OH2  443   2.320   0.062   1.875  0.5603 -0.3275  0.1355
  146TIP3    H1  444   2.333  -0.028   1.904  0.2653 -0.0428  1.2026
  146TIP3    H2  445   2.408   0.100   1.872  0.5988 -0.3725  0.6391
  147TIP3   OH2  446   3.980   2.138   0.765 -0.7934  0.2027  0.5014
  147TIP3    H1  447   3.975   2.180   0.679 -0.2656 -2.1103 -0.7475
  147TIP3    H2  448   3.895   2.096   0.776 -0.9627  0.7301  1.2750
  148TIP3   OH2  449   3.085   1.164   5.110  0.3886 -0.2260  0.5207
  148TIP3    H1  450   3.131   1.202   5.035 -0.7842 -0.4232 -0.3354
  148TIP3    H2  451   2.992   1.183   5.093  0.1052 -0.0818  2.0415
  149TIP3   OH2  452   1.410   2.590   1.819 -0.0493  0.1994  0.2922
  149TIP3    H1  453   1.423   2.524   1.751 -1.3513  0.9141 -0.7205
  149TIP3    H2  454   1.376   2.542   1.894  1.6659 -0.6479  0.5818
  150TIP3   OH2  455   0.106   5.760   1.785 -0.4819  0.2525 -0.3208
  150TIP3    H1  456   0.109   5.810   1.704 -1.3029  1.8720  0.6007
  150TIP3    H2  457   0.043   5.807   1.840 -0.6076 -1.2981  0.9372
  151TIP3   OH2  458   4.495   4.185   2.677 -0.4615 -0.5250  0.7883
  151TIP3    H1  459   4.570   4.141   2.639  0.5645  2.6977 -1.4052
  151TIP3    H2  460   4.421   4.158   2.622 -0.2690 -1.0898  0.8015
  152TIP3   OH2  461   4.395   0.031   0.270  0.1739 -1.0780 -0.3954
  152TIP3    H1  462   4.469   0.090   0.283 -0.1298 -0.5545 -1.0049
  152TIP3    H2  463   4.330   0.083   0.222 -0.4303 -1.6531 -0.2161
  153TIP3   OH2  464   5.516   4.156   4.209  0.4906 -0.0543 -0.0994
  153TIP3    H1  465   5.573   4.219   4.253 -0.2553 -0.4119  1.4742
  153TIP3    H2  466   5.551   4.071   4.235 -0.3926 -0.2716  0.4284
  154TIP3   OH2  467   2.665   0.901   3.613  0.1471 -0.2306  0.2559
  154TIP3    H1  468   2.635   0.840   3.545 -0.8773  1.7447 -1.1665
  154TIP3    H2  469   2.733   0.853   3.660  0.3119 -1.9760 -1.6404
  155TIP3   OH2  470   2.731   4.723   0.559  0.5457 -0.0678 -0.2299
  155TIP3    H1  471   2.802   4.787   0.552  2.0332 -1.6330 -0.2048
  155TIP3    H2  472   2.774   4.643   0.589 -1.3241 -0.9671  0.2129
  156TIP3   OH2  473   5.575   3.689   0.879  0.2884  0.1790 -0.3369
  156TIP3    H1  474   5.640   3.619   0.877 -2.2892 -2.3791 -1.0453
  156TIP3    H2  475   5.544   3.696   0.788 -2.1050 -0.4627  0.3645
  157TIP3   OH2  476   4.428   3.928   0.772 -0.2603  0.0938 -0.3536
  157TIP3    H1  477   4.354   3.973   0.730 -0.4328  0.9848  0.8621
  157TIP3    H2  478   4.505   3.976   0.741 -0.2941  0.0004 -0.5843
  158TIP3   OH2  479   0.111   1.449   2.321 -0.1575  1.1372 -0.1006
  158TIP3    H1  480   0.138   1.410   2.404  1.1100 -0.5530 -1.2413
  158TIP3    H2  481   0.016   1.453   2.326 -0.1894 -0.2912  0.8571
  159TIP3   OH2  482   1.051   0.856   0.318  0.5570  0.0958  0.4862
  159TIP3    H1  483   0.976   0.861   0.377  2.7525  1.5074  3.3411
  159TIP3    H2  484   1.013   0.872   0.231 -2.3858  1.1086  1.8097
  160TIP3   OH2  485   5.096   0.555   5.029 -0.3645 -0.6020 -0.2634
  160TIP3    H1  486   5.050   0.637   5.010  0.2531 -0.3667 -0.7802
  160TIP3    H2  487   5.159   0.546   4.958  0.4898 -0.8332  0.4970
  161TIP3   OH2  488   0.268   0.140   3.324 -0.3682  0.4088 -0.4583
  161TIP3    H1  489   0.215   0.208   3.283 -0.8449 -0.3370 -1.1197
  161TIP3    H2  490   0.238   0.059   3.283  0.9077 -0.0920 -0.4363
  162TIP3   OH2  491   5.036   3.742   1.993  0.2009 -0.2048 -0.1628
  162TIP3    H1  492   5.009   3.828   1.960  4.8915  1.4755 -0.2764
  162TIP3    H2  493   5.085   3.760   2.072 -1.2665 -3.2148  1.6335
  163TIP3   OH2  494   2.624   0.621   1.274  0.1736 -0.1589 -0.0545
  163TIP3    H1  495   2.628   0.592   1.183  3.3244 -0.3914  0.0240
  163TIP3    H2  496   2.647   0.544   1.326 -0.4376  0.2553  0.8684
  164TIP3   OH2  497   5.003   1.663   3.915  0.1811 -0.9312  0.0047
  164TIP3    H1  498   5.012   1.668   3.819  1.4105 -1.5359  0.0662
  164TIP3    H2  499   4.981   1.572   3.932 -0.1386 -0.8013  0.3042
  165TIP3   OH2  500   2.567   4.748   4.279  0.1562  0.4252 -0.6312
  165TIP3    H1  501   2.486   4.697   4.279  0.4815 -0.1123 -1.1401
  165TIP3    H2  502   2.622   4.706   4.345  1.2950 -1.3870 -2.5581
  166TIP3   OH2  503   0.405   4.472   2.479 -0.0576 -0.1728  0.4209
  166TIP3    H1  504   0.442   4.483   2.567 -3.0162 -1.1706  1.9573
  166TIP3    H2  505   0.397   4.378   2.467 -1.1361 -0.0255 -0.2070
  167TIP3   OH2  506   4.336   5.911   0.541 -0.1712 -0.0137 -0.2211
  167TIP3    H1  507   4.344   5.903   0.446  1.6055 -0.0465 -0.0934
  167TIP3    H2  508   4.290   5.831   0.567  1.0009 -0.9322 -0.8718
  168TIP3   OH2  509   1.824   4.268   0.090  0.4720 -0.2360  0.2371
  168TIP3    H1  510   1.800   4.358   0.107 -2.7603 -0.4013 -2.4146
  168TIP3    H2  511   1.913   4.273   0.055  0.2950  1.9215 -0.0195
  169TIP3   OH2  512   0.749   0.875   0.367  0.4863 -0.0562  0.1464
  169TIP3    H1  513   0.779   0.825   0.443 -1.9203 -0.1796  1.1097
  169TIP3    H2  514   0.657   0.848   0.356 -0.4191  2.9304 -0.3275
  170TIP3   OH2  515   6.109   2.808   1.270  0.1447 -0.6567  0.2621
  170TIP3    H1  516   6.068   2.752   1.336  1.9470  0.3552  2.4136
  170TIP3    H2  517   6.190   2.763   1.247  0.4927 -0.0515  0.2744
  171TIP3   OH2  518   0.931   4.313   0.135 -0.6684  0.4505 -0.0670
  171TIP3    H1  519   0.918   4.279   0.223 -0.3703 -0.6133 -0.4092
  171TIP3    H2  520   0.852   4.364   0.116 -0.8651  0.4311  0.6977
  172TIP3   OH2  521   4.947   3.831   0.886  0.5197 -0.0713  1.0993
  172TIP3    H1  522   5.031   3.849   0.844  0.6730 -1.6368  0.6719
  172TIP3    H2  523   4.920   3.746   0.851 -0.4449 -0.3667  2.4634
  173TIP3   OH2  524   5.751   2.257   4.843  0.2427 -0.7349  0.1955
  173TIP3    H1  525   5.770   2.281   4.934  0.5868 -0.9898  0.1906
  173TIP3    H2  526   5.658   2.232   4.844  0.1160 -0.2677  0.3789
  174TIP3   OH2  527   0.561   5.137   1.309  0.1841 -0.0652  0.2190
  174TIP3    H1  528   0.651   5.160   1.285  0.8651 -1.6494  1.1285
  174TIP3    H2  529   0.570   5.073   1.379 -1.5511 -2.8838 -1.8945
  175TIP3   OH2  530   2.213   5.705   3.125 -0.0433 -0.0988  0.5133
  175TIP3    H1  531   2.184   5.673   3.210  2.0101  1.7875  2.0485
  175TIP3    H2  532   2.157   5.781   3.108  0.2341  0.1607  0.7339
  176TIP3   OH2  533   0.250   1.358   3.615 -0.2461 -0.0671 -0.1141
  176TIP3    H1  534   0.162   1.360   3.577 -0.7854  1.1442  1.1159
  176TIP3    H2  535   0.251   1.278   3.667 -0.3456 -0.4614 -0.6964
  177TIP3   OH2  536   5.177   0.790   3.074 -0.0870 -0.5732  0.0910
  177TIP3    H1  537   5.253   0.731   3.072  0.0689 -0.3757 -2.3474
  177TIP3    H2  538   5.214   0.878   3.079 -0.1220 -0.4610 -1.4106
  178TIP3   OH2  539   4.819   2.273   5.004  0.2683  0.3516 -0.3175
  178TIP3    H1  540   4.796   2.345   4.945  0.4779  0.3074 -0.4532
  178TIP3    H2  541   4.760   2.284   5.079 -0.7416 -0.2176 -1.0063
  179TIP3   OH2  542   0.522   2.225   3.162 -0.5131 -0.0662  0.0989
  179TIP3    H1  543   0.591   2.291   3.170 -0.0573 -0.5653  0.3545
  179TIP3    H2  544   0.462   2.262   3.098 -0.1275  0.4794  0.0366
  180TIP3   OH2  545   2.519   1.226   0.833 -0.1938 -0.1799  0.4870
  180TIP3    H1  546   2.492   1.231   0.742 -0.2401 -1.2130  0.4361
  180TIP3    H2  547   2.498   1.137   0.860 -1.8040  0.6108  2.0223
  181TIP3   OH2  548   2.259   5.058   2.744 -0.4635  0.2399  1.0894
  181TIP3    H1  549   2.216   4.998   2.806 -1.2500 -0.0187  0.3053
  181TIP3    H2  550   2.237   5.145   2.775  0.7250  0.1604  2.2695
  182TIP3   OH2  551   0.253   5.268   0.217  0.1061  0.4607 -0.0917
  182TIP3    H1  552   0.291   5.181   0.225  0.7820  0.6069 -1.4922
  182TIP3    H2  553   0.181   5.258   0.156 -1.5073  0.3990  1.7415
  183TIP3   OH2  554   3.113   3.762   4.873  0.0089  0.0768 -0.3730
  183TIP3    H1  555   3.041   3.823   4.884 -2.1861 -2.1806 -1.2152
  183TIP3    H2  556   3.151   3.784   4.787  1.0374  1.8903  0.4948
  184TIP3   OH2  557   4.870   5.935   4.474  0.0970 -0.1426 -1.0024
  184TIP3    H1  558   4.927   5.860   4.491 -1.0003 -0.5824  1.2404
  184TIP3    H2  559   4.877   5.988   4.554  0.1697  1.7119 -2.1861
  185TIP3   OH2  560   0.240   0.541   1.254  0.3455  0.2240 -0.4651
  185TIP3    H1  561   0.221   0.559   1.162  0.5847  0.4486 -0.4702
  185TIP3    H2  562   0.319   0.592   1.273  0.1746  0.3475 -0.0755
  186TIP3   OH2  563   5.953   1.750   0.682 -0.2312 -0.1539 -0.1055
  186TIP3    H1  564   5.892   1.764   0.610 -0.2795 -1.2284 -0.2913
  186TIP3    H2  565   6.022   1.695   0.645  1.1350  1.4176 -0.0254
  187TIP3   OH2  566   0.949   5.612   4.113  0.5056  0.4460  0.5016
  187TIP3    H1  567   0.904   5.566   4.184  0.5887  0.2834  0.4511
  187TIP3    H2  568   0.882   5.668   4.074  0.2247 -0.1323  0.1375
  188TIP3   OH2  569   5.781   1.467   3.961 -0.1489  0.1921 -0.1985
  188TIP3    H1  570   5.871   1.497   3.946  0.2772 -0.3269  1.1717
  188TIP3    H2  571   5.747   1.449   3.873  0.3694  2.3637 -0.8909
  189TIP3   OH2  572   0.289   0.266   4.213  0.7804  0.7297  1.2275
  189TIP3    H1  573   0.318   0.186   4.257 -1.1540 -0.5660  0.2844
  189TIP3    H2  574   0.215   0.297   4.265  0.1990  0.7269  0.4023
  190TIP3   OH2  575   3.407   5.546   0.336 -0.3282  0.4070 -0.1034
  190TIP3    H1  576   3.433   5.638   0.326 -0.6884  0.7065  1.4490
  190TIP3    H2  577   3.488   5.501   0.363 -0.5028  0.5958  0.7733
  191TIP3   OH2  578   2.203   2.219   0.676 -0.0165 -0.7644 -0.0822
  191TIP3    H1  579   2.255   2.270   0.737 -0.8838 -0.4312  0.3963
  191TIP3    H2  580   2.139   2.173   0.730 -1.3306  0.1733 -0.7794
  192TIP3   OH2  581   3.251   2.580   4.036 -0.0622 -0.0549  0.4752
  192TIP3    H1  582   3.210   2.613   3.956  1.1093  0.0834 -0.0967
  192TIP3    H2  583   3.345   2.589   4.020  0.2379 -1.5548  1.2141
  193TIP3   OH2  584   1.348   3.047   3.028  0.2698 -0.1680 -0.1074
  193TIP3    H1  585   1.441   3.038   3.050  0.6397  1.1695 -0.9753
  193TIP3    H2  586   1.336   3.142   3.019 -0.3632 -0.4711 -3.3994
  194TIP3   OH2  587   2.040   3.787   3.962  0.0433 -0.1404  0.4200
  194TIP3    H1  588   2.083   3.709   3.995 -1.5958 -1.5705 -0.6291
  194TIP3    H2  589   1.964   3.800   4.020 -0.4263 -0.1094 -0.1919
  195TIP3   OH2  590   0.689   3.274   3.099 -0.0387  0.4853  0.5806
  195TIP3    H1  591   0.669   3.278   3.193 -0.3321 -0.1824  0.5537
  195TIP3    H2  592   0.727   3.187   3.087 -0.0323  0.5585  0.0712
  196TIP3   OH2  593   3.558   3.904   3.493 -0.0105 -0.1656 -0.4171
  196TIP3    H1  594   3.652   3.923   3.489  0.3465 -1.2786  1.4791
  196TIP3    H2  595   3.552   3.820   3.538 -1.8149 -1.4603 -2.8529
  197TIP3   OH2  596   4.902   2.460   3.828  0.2669 -0.3401 -0.3321
  197TIP3    H1  597   4.908   2.398   3.901 -2.1338 -0.6959 -0.3365
  197TIP3    H2  598   4.833   2.522   3.855  0.7996  0.7851 -1.4278
  198TIP3   OH2  599   2.285   2.998   3.806  0.1644  0.4896 -0.3394
  198TIP3    H1  600   2.212   3.021   3.863 -0.4340 -1.1593 -0.3928
  198TIP3    H2  601   2.243   2.971   3.724  0.6354 -2.3631  0.2524
  199TIP3   OH2  602   2.752   2.629   1.432 -0.0585  1.2692 -0.1004
  199TIP3    H1  603   2.699   2.680   1.371 -0.6503  0.8984  0.0958
  199TIP3    H2  604   2.768   2.547   1.385 -0.7666  0.8629  0.3484
  200TIP3   OH2  605   0.959   3.363   4.585  0.7322 -0.2052 -0.3232
  200TIP3    H1  606   1.020   3.420   4.632 -2.1749  2.0669  1.0751
  200TIP3    H2  607   0.995   3.275   4.595  1.5875  0.4324  4.2644
  201TIP3   OH2  608   0.291   1.846   0.968 -0.3664 -0.2252  0.1427
  201TIP3    H1  609   0.251   1.760   0.984 -0.7726 -0.2387 -0.9018
  201TIP3    H2  610   0.229   1.909   1.006  0.2173 -0.3957  1.4524
  202TIP3   OH2  611   1.976   1.237   4.331 -0.5429  0.3482  0.0928
  202TIP3    H1  612   2.011   1.326   4.338 -1.3130  0.6341  0.5339
  202TIP3    H2  613   2.015   1.190   4.404 -1.4105  0.7961  0.8734
  203TIP3   OH2  614   4.277   0.383   4.229  0.8090  0.1266 -0.2516
  203TIP3    H1  615   4.213   0.373   4.159 -0.0165  0.5980  0.4173
  203TIP3    H2  616   4.339   0.311   4.215 -0.0876 -0.5823 -0.6713
  204TIP3   OH2  617   2.095   4.743   1.874  0.3758 -0.4876  0.4580
  204TIP3    H1  618   2.157   4.763   1.804 -1.0679  0.3275 -0.6677
  204TIP3    H2  619   2.053   4.661   1.846 -0.7622  0.2527 -0.0736
  205TIP3   OH2  620   5.122   0.609   0.150 -0.4865  0.0938  0.3135
  205TIP3    H1  621   5.166   0.591   0.233 -1.4029  1.1352  1.0604
  205TIP3    H2  622   5.054   0.542   0.144 -0.1451 -0.2466  0.1785
  206TIP3   OH2  623   4.890   0.513   1.559  0.3099 -0.0285  0.0689
  206TIP3    H1  624   4.806   0.474   1.584  0.2330  0.5018  0.6729
  206TIP3    H2  625   4.889   0.600   1.599  1.4307 -0.2710  0.6761
  207TIP3   OH2  626   1.342   0.179   2.850  0.1082 -0.1390 -0.0612
  207TIP3    H1  627   1.248   0.160   2.856  0.2197 -0.3101  1.7667
  207TIP3    H2  628   1.384   0.095   2.866  0.5851 -0.1028 -1.0816
  208TIP3   OH2  629   5.273   1.017   4.529  0.0267  0.1378 -0.3927
  208TIP3    H1  630   5.365   1.023   4.556 -0.3461  0.7949  0.7962
  208TIP3    H2  631   5.247   1.108   4.514 -0.3596 -0.0672 -0.9821
  209TIP3   OH2  632   5.483   4.469   1.801  0.0322 -0.1571  0.3547
  209TIP3    H1  633   5.455   4.397   1.858 -0.8286  1.3379  1.9368
  209TIP3    H2  634   5.403   4.518   1.783  0.7510  1.0143  0.2399
  210TIP3   OH2  635   3.027   4.618   2.080  0.4438 -0.7084  0.0920
  210TIP3    H1  636   3.026   4.713   2.084 -0.5307 -0.7080  0.1067
  210TIP3    H2  637   3.103   4.592   2.132  1.3444  0.0869 -0.7856
  211TIP3   OH2  638   2.478   4.289   3.660 -0.4026 -0.9184 -0.3275
  211TIP3    H1  639   2.540   4.282   3.734  0.0698 -0.7442 -0.7011
  211TIP3    H2  640   2.467   4.199   3.630 -0.2801 -0.9438 -0.2976
  212TIP3   OH2  641   5.115   3.151   2.961  0.1128 -0.0444  0.0654
  212TIP3    H1  642   5.090   3.210   2.889  2.6133  0.6461 -0.3151
  212TIP3    H2  643   5.057   3.075   2.950 -0.6101  0.6971 -1.7474
  213TIP3   OH2  644   5.193   5.394   2.051 -0.3361 -0.5183  0.3724
  213TIP3    H1  645   5.280   5.355   2.060 -0.0609  0.3445  1.9358
  213TIP3    H2  646   5.134   5.330   2.090 -0.2016 -0.4725  0.6576
  214TIP3   OH2  647   0.159   0.332   1.770 -0.1005 -0.2095 -0.3640
  214TIP3    H1  648   0.161   0.269   1.842 -2.2906 -1.8042 -1.5659
  214TIP3    H2  649   0.147   0.278   1.691  2.8083  1.4201 -2.0732
  215TIP3   OH2  650   0.982   1.698   2.309  0.6404 -0.6721  0.6859
  215TIP3    H1  651   0.945   1.628   2.256 -1.3558  0.0936  0.9946
  215TIP3    H2  652   0.995   1.659   2.395  0.0963 -0.8483  0.6922
  216TIP3   OH2  653   3.029   1.558   4.435  0.4360  0.1854  0.2088
  216TIP3    H1  654   2.994   1.501   4.366 -2.3616  1.8220  0.1054
  216TIP3    H2  655   3.082   1.500   4.489 -0.3355 -1.9924 -1.2190
  217TIP3   OH2  656   4.405   4.862   3.000 -0.2584 -0.4635 -0.0954
  217TIP3    H1  657   4.481   4.904   2.960  0.6093 -1.9927 -0.1214
  217TIP3    H2  658   4.425   4.768   2.999 -2.9017 -1.1132 -1.7138
  218TIP3   OH2  659   1.126   3.480   3.559 -0.2289 -0.2319 -0.3321
  218TIP3    H1  660   1.117   3.543   3.488 -0.5286 -0.7414 -0.7537
  218TIP3    H2  661   1.061   3.412   3.540 -0.1927 -0.4623  0.3327
  219TIP3   OH2  662   0.737   1.172   4.443 -0.2322 -0.5776  0.1468
  219TIP3    H1  663   0.715   1.157   4.535 -1.0831 -0.0160  0.0483
  219TIP3    H2  664   0.770   1.262   4.441 -0.9742 -0.3070 -0.2175
  220TIP3   OH2  665   3.878   0.154   0.215 -0.3143 -0.1149 -0.6030
  220TIP3    H1  666   3.874   0.143   0.120 -0.6112 -1.0790 -0.4894
  220TIP3    H2  667   3.809   0.097   0.249 -0.4037  0.4402  0.1824
  221TIP3   OH2  668   0.674   0.320   1.515  0.5562 -0.0169  0.3012
  221TIP3    H1  669   0.654   0.254   1.581  0.6191 -0.0890  0.2481
  221TIP3    H2  670   0.590   0.363   1.499  0.4914 -0.1590  0.2549
  222TIP3   OH2  671   5.924   2.501   4.622 -0.5646 -0.0069 -0.3512
  222TIP3    H1  672   5.922   2.518   4.716 -0.1367  0.1781 -0.3737
  222TIP3    H2  673   5.832   2.501   4.595 -0.6207  1.6008 -0.2414
  223TIP3   OH2  674   1.231   3.593   4.283  0.0098  0.1056  0.1062
  223TIP3    H1  675   1.262   3.682   4.301 -0.4947  0.5269 -1.0198
  223TIP3    H2  676   1.137   3.596   4.303  0.2270 -0.5666  1.3739
  224TIP3   OH2  677   5.991   5.837   3.704  0.0260  0.3670  0.3307
  224TIP3    H1  678   5.979   5.897   3.778  0.6216  0.2863  0.5016
  224TIP3    H2  679   5.903   5.807   3.683 -0.1711  0.5296  0.8937
  225TIP3   OH2  680   3.858   2.081   1.315 -0.0996  0.0437 -0.0666
  225TIP3    H1  681   3.834   1.988   1.315  1.0574 -0.2742 -0.6017
  225TIP3    H2  682   3.791   2.122   1.260  0.3527 -0.7729 -1.2894
  226TIP3   OH2  683   0.821   1.233   0.506 -0.5107 -0.1314  1.0008
  226TIP3    H1  684   0.751   1.211   0.568 -0.7773  0.0241  0.7560
  226TIP3    H2  685   0.793   1.192   0.424 -1.3478  1.6568  0.3509
  227TIP3   OH2  686   0.855   0.674   1.111 -0.4273  0.1316  0.1505
  227TIP3    H1  687   0.892   0.590   1.084  0.0417  0.1088  0.8288
  227TIP3    H2  688   0.892   0.689   1.198 -1.4948  0.4425  0.5609
  228TIP3   OH2  689   0.308   4.957   0.026  0.1170  0.0495 -0.7158
  228TIP3    H1  690   0.388   4.982   0.072  0.9254 -0.4431 -1.7889
  228TIP3    H2  691   0.247   4.930   0.095  0.4016  1.6665  0.2073
  229TIP3   OH2  692   4.626   2.936   2.658  0.8027 -0.2549 -0.0197
  229TIP3    H1  693   4.638   2.902   2.746  1.2587  0.6736  0.2866
  229TIP3    H2  694   4.695   3.002   2.648 -0.8288  1.5342 -0.1084
  230TIP3   OH2  695   5.895   3.807   0.193 -0.0983 -0.5549  0.1931
  230TIP3    H1  696   5.880   3.839   0.282 -0.6921  0.0525 -0.1159
  230TIP3    H2  697   5.980   3.844   0.168 -0.9146  1.1398 -0.2809
  231TIP3   OH2  698   4.915   4.067   3.338 -0.5842 -0.1103 -0.1809
  231TIP3    H1  699   4.823   4.063   3.311 -0.4020 -0.0007 -0.8174
  231TIP3    H2  700   4.934   4.161   3.342 -1.2017 -0.0048  2.3922
  232TIP3   OH2  701   2.098   2.016   3.732  0.2518 -0.2099 -0.5402
  232TIP3    H1  702   2.171   1.954   3.735  0.2577 -0.1717  0.1901
  232TIP3    H2  703   2.021   1.965   3.758  0.5401  0.4775  1.8682
  233TIP3   OH2  704   4.043   5.900   2.856 -0.1609  0.4643 -0.6767
  233TIP3    H1  705   4.134   5.927   2.873 -0.1901  0.3433 -0.3056
  233TIP3    H2  706   4.025   5.835   2.924 -1.1340  1.8269  0.4295
  234TIP3   OH2  707   2.612   2.119   1.222  0.1951 -0.3498 -0.0623
  234TIP3    H1  708   2.628   2.166   1.304 -1.0087 -1.3837  0.8008
  234TIP3    H2  709   2.699   2.100   1.188  0.7098  1.1930  0.3084
  235TIP3   OH2  710   5.727   0.205   5.105  0.7180 -0.0704  0.2204
  235TIP3    H1  711   5.745   0.298   5.091  1.2657 -0.3342 -0.9324
  235TIP3    H2  712   5.679   0.202   5.188 -1.5402  1.4967 -0.9071
  236TIP3   OH2  713   4.976   0.027   1.405 -0.2760  0.1373  0.2683
  236TIP3    H1  714   4.918   0.012   1.480  0.0481 -0.0846  0.4735
  236TIP3    H2  715   4.973   0.122   1.392 -0.2705  0.1862  0.6109
  237TIP3   OH2  716   2.783   3.447   4.917  0.3517 -0.0077 -0.0541
  237TIP3    H1  717   2.725   3.523   4.905 -2.2216 -1.9144 -0.6665
  237TIP3    H2  718   2.744   3.399   4.990  1.9854 -0.7281  0.3895
  238TIP3   OH2  719   6.162   0.253   1.237 -0.0008 -0.4666 -0.1858
  238TIP3    H1  720   6.089   0.292   1.188 -0.8246  1.8870  2.6045
  238TIP3    H2  721   6.120   0.202   1.306  1.1048 -2.4484 -0.9182
  239TIP3   OH2  722   0.042   1.578   3.251  0.3784  0.3806  0.4083
  239TIP3    H1  723  -0.046   1.538   3.253  1.7087 -2.8921  0.0712
  239TIP3    H2  724   0.041   1.641   3.323 -1.7020 -0.9034  1.6399
  240TIP3   OH2  725   3.119   1.026   2.016  0.3994 -0.4048 -0.2648
  240TIP3    H1  726   3.211   1.001   2.003  0.3969 -0.7127  0.2804
  240TIP3    H2  727   3.123   1.121   2.029  0.4770 -0.1913 -1.6746
  241TIP3   OH2  728   1.329   2.409   1.999  0.4428 -0.1364 -0.5046
  241TIP3    H1  729   1.294   2.368   2.078 -1.2425 -0.5880 -1.4325
  241TIP3    H2  730   1.424   2.400   2.007  0.2575 -1.0998  0.9648
  242TIP3   OH2  731   1.151   2.497   4.312 -0.0722 -0.2100  0.1652
  242TIP3    H1  732   1.198   2.441   4.374  2.4964 -0.1147 -1.5449
  242TIP3    H2  733   1.198   2.487   4.229 -2.3359  0.9605 -1.3934
  243TIP3   OH2  734   0.079   3.012   4.981 -0.2895  0.3427  0.8440
  243TIP3    H1  735   0.142   3.014   4.909 -0.0521 -0.9141  0.9981
  243TIP3    H2  736   0.056   3.104   4.995 -3.8805  0.5162 -3.8190
  244TIP3   OH2  737   1.623   1.435   1.899  0.3651 -0.9982  0.1117
  244TIP3    H1  738   1.591   1.346   1.886 -1.1466 -0.4132 -0.3055
  244TIP3    H2  739   1.653   1.436   1.990 -0.4114 -1.6915  0.3910
  245TIP3   OH2  740   2.747   3.843   3.608 -0.4498  0.1574 -0.2869
  245TIP3    H1  741   2.838   3.853   3.580  0.0631 -0.5210  1.0671
  245TIP3    H2  742   2.699   3.828   3.527  1.0967 -2.5353 -0.8282
  246TIP3   OH2  743   2.334   0.723   2.381  0.4222  0.2634  0.9665
  246TIP3    H1  744   2.277   0.794   2.409 -1.9851 -1.2552  0.2739
  246TIP3    H2  745   2.333   0.660   2.453 -1.8102 -1.3909 -0.3501
  247TIP3   OH2  746   2.997   4.505   0.150 -0.0773  0.1125  0.3925
  247TIP3    H1  747   3.090   4.502   0.173  0.2935  2.5041 -0.5522
  247TIP3    H2  748   2.994   4.474   0.060 -0.2329 -0.1974  0.5044
  248TIP3   OH2  749   1.113   3.682   2.921 -0.5433 -0.0885  0.4579
  248TIP3    H1  750   1.183   3.729   2.966 -0.1977 -0.7382  0.6225
  248TIP3    H2  751   1.151   3.595   2.904 -1.4363 -0.5685  0.8622
  249TIP3   OH2  752   0.777   5.003   0.903 -0.3211 -0.2233 -0.1623
  249TIP3    H1  753   0.682   5.018   0.904 -0.5696 -1.5982  0.5676
  249TIP3    H2  754   0.789   4.932   0.840  0.4203  0.8604 -1.2905
  250TIP3   OH2  755   1.682   5.967   3.346  0.1881 -0.2440 -0.0167
  250TIP3    H1  756   1.756   5.911   3.366 -0.1940 -0.6204  0.3669
  250TIP3    H2  757   1.652   5.938   3.260 -0.3344 -0.9964  0.4072
  251TIP3   OH2  758   1.966   1.430   2.253  0.0086 -0.2686  0.8819
  251TIP3    H1  759   1.944   1.346   2.213  2.6278 -0.8820  0.4970
  251TIP3    H2  760   1.956   1.494   2.183 -0.5394 -0.5042  0.7428
  252TIP3   OH2  761   0.479   2.003   0.647  0.1494  0.5134 -0.4223
  252TIP3    H1  762   0.504   1.993   0.739 -3.0465 -0.0319  0.5242
  252TIP3    H2  763   0.444   1.918   0.622  0.0503  0.9398 -1.8386
  253TIP3   OH2  764   0.082   4.873   3.121  0.2049  0.1666 -0.0022
  253TIP3    H1  765   0.079   4.792   3.170  1.1186 -0.1661 -0.4687
  253TIP3    H2  766  -0.006   4.910   3.130  0.4871  0.4286  2.3592
  254TIP3   OH2  767   3.326   5.380   2.574  0.2179  0.1526 -0.2299
  254TIP3    H1  768   3.261   5.377   2.644 -0.1218 -1.2947 -0.5662
  254TIP3    H2  769   3.411   5.375   2.619  0.0514  0.5508  0.1319
  255TIP3   OH2  770   1.818   5.109   3.042 -0.3173  0.3283  0.0130
  255TIP3    H1  771   1.766   5.041   3.085 -1.3339  1.4719  0.6530
  255TIP3    H2  772   1.761   5.143   2.973  0.3673  0.2126 -0.6218
  256TIP3   OH2  773   6.153   4.524   0.307  0.4249  0.4545 -0.7927
  256TIP3    H1  774   6.172   4.597   0.249  2.6813  0.9679  0.4502
  256TIP3    H2  775   6.198   4.546   0.389  0.7933 -2.0824 -0.2183
  257TIP3   OH2  776   5.447   3.716   4.811 -0.5176  0.0637 -0.0014
  257TIP3    H1  777   5.463   3.713   4.906  0.3144  1.4826 -0.0539
  257TIP3    H2  778   5.355   3.741   4.803 -0.4460  0.4974  0.4544
  258TIP3   OH2  779   1.514   4.016   3.251  0.2127 -0.5398  0.3365
  258TIP3    H1  780   1.566   3.936   3.257  2.1579  0.6580  0.2588
  258TIP3    H2  781   1.571   4.085   3.285 -1.5217  0.7934  0.7118
  259TIP3   OH2  782   3.083   3.582   1.789 -0.1659  0.0064 -0.0982
  259TIP3    H1  783   3.130   3.645   1.843  1.4452 -0.0077 -1.4131
  259TIP3    H2  784   3.111   3.496   1.821 -2.4295 -0.1239  1.7547
  260TIP3   OH2  785   0.386   3.368   4.547  0.0099 -0.2951 -0.2248
  260TIP3    H1  786   0.394   3.455   4.587 -0.7893  0.3739 -1.4490
  260TIP3    H2  787   0.475   3.333   4.548  0.3383  0.5277  0.3370
  261TIP3   OH2  788   5.063   5.148   0.232 -0.5197  0.4144  0.3128
  261TIP3    H1  789   5.110   5.142   0.315 -0.6354 -1.9006  0.2907
  261TIP3    H2  790   5.129   5.134   0.165 -0.5490  1.5540  0.0262
  262TIP3   OH2  791   0.058   0.852   2.558  0.5000 -0.1990  0.2431
  262TIP3    H1  792   0.013   0.890   2.634  1.1702  0.8788  0.1245
  262TIP3    H2  793   0.032   0.760   2.558  1.8290 -0.6816  2.8267
  263TIP3   OH2  794   3.117   0.616   2.889  0.2488  0.3220  0.8107
  263TIP3    H1  795   3.143   0.537   2.936  0.7557  0.3077  0.5152
  263TIP3    H2  796   3.073   0.583   2.810 -1.6286  0.3407  1.7918
  264TIP3   OH2  797   0.645   0.097   4.147 -0.0974 -0.2804 -0.4982
  264TIP3    H1  798   0.602   0.130   4.225  0.6999  3.0173 -1.3222
  264TIP3    H2  799   0.624   0.161   4.079  2.6256 -0.7819 -1.9363
  265TIP3   OH2  800   0.759   3.275   2.649  0.8058  0.1922 -0.2945
  265TIP3    H1  801   0.781   3.191   2.690  1.6214  0.4359 -0.2289
  265TIP3    H2  802   0.667   3.264   2.622  0.3751 -0.1152  1.2121
  266TIP3   OH2  803   2.649   0.314   3.272  0.2465  0.1812 -0.1384
  266TIP3    H1  804   2.582   0.343   3.334  1.0913 -0.9349  1.3700
  266TIP3    H2  805   2.732   0.337   3.313  0.8316 -0.5171 -0.8856
  267TIP3   OH2  806   2.829   0.724   4.914  0.4630 -0.2464  0.0776
  267TIP3    H1  807   2.768   0.738   4.986 -0.5144 -1.3949 -0.4904
  267TIP3    H2  808   2.778   0.744   4.835  1.2470  0.1205 -0.3456
  268TIP3   OH2  809   6.348   0.110   1.100 -0.2503 -0.0757  0.1360
  268TIP3    H1  810   6.308   0.114   1.013  0.4056  0.2820 -0.1630
  268TIP3    H2  811   6.301   0.175   1.151 -0.9696 -0.6372  0.1912
  269TIP3   OH2  812   6.221   0.916   1.564 -0.7416  1.3955 -0.0361
  269TIP3    H1  813   6.177   0.831   1.569  0.2028  0.8715 -0.4595
  269TIP3    H2  814   6.304   0.898   1.521 -0.6544  2.5914 -0.4086
  270TIP3   OH2  815   4.263   1.076   3.870  0.1822 -0.3194 -0.3085
  270TIP3    H1  816   4.243   1.126   3.949  0.5378 -1.5461  0.5900
  270TIP3    H2  817   4.251   0.985   3.896  1.5823 -0.8160 -1.2719
  271TIP3   OH2  818   5.148   1.287   4.741 -0.1305  0.1055 -0.3059
  271TIP3    H1  819   5.156   1.324   4.653  1.2740  1.5419  0.3811
  271TIP3    H2  820   5.072   1.331   4.779 -0.9233 -0.7338 -0.8572
  272TIP3   OH2  821   0.262   0.717   2.916 -0.5435 -0.4357 -0.0132
  272TIP3    H1  822   0.298   0.634   2.886  0.7022 -0.2257  0.8693
  272TIP3    H2  823   0.167   0.703   2.917 -0.2992 -2.2318  1.2310
  273TIP3   OH2  824   2.591   2.148   1.492  0.4409  0.3708 -0.2122
  273TIP3    H1  825   2.585   2.069   1.546 -2.6577  0.8799  0.4050
  273TIP3    H2  826   2.622   2.216   1.552 -0.8594  0.4480  0.4267
  274TIP3   OH2  827   5.955   5.910   2.376 -0.5586  0.1468  0.1990
  274TIP3    H1  828   5.989   5.876   2.459 -0.3093  1.7844  0.8084
  274TIP3    H2  829   5.864   5.932   2.395 -0.3146  1.1729  0.2790
  275TIP3   OH2  830   5.452   2.737   4.123  0.1026 -0.0807 -0.6357
  275TIP3    H1  831   5.397   2.793   4.068 -0.4862  1.5466  1.4875
  275TIP3    H2  832   5.503   2.799   4.176  1.6525 -1.5781 -0.3008
  276TIP3   OH2  833   5.548   5.409   1.197 -0.7808 -0.0813  0.5687
  276TIP3    H1  834   5.560   5.361   1.279 -1.4533  0.8015  1.1884
  276TIP3    H2  835   5.486   5.355   1.147  0.3954 -1.1386  0.1932
  277TIP3   OH2  836   0.898   5.506   3.437  0.3146  0.9337  0.1681
  277TIP3    H1  837   0.806   5.483   3.450  0.3657  0.5915 -0.0854
  277TIP3    H2  838   0.945   5.458   3.505  0.6022 -0.9936 -1.3103
  278TIP3   OH2  839   0.854   4.690   0.073 -0.2512  0.6054  0.8087
  278TIP3    H1  840   0.778   4.665   0.019  0.4221 -0.4606  0.3250
  278TIP3    H2  841   0.849   4.786   0.078  1.2326  1.1607 -3.6441
  279TIP3   OH2  842   1.593  -0.017   4.199 -0.0336 -0.7300 -0.4057
  279TIP3    H1  843   1.540   0.027   4.133  0.1946 -1.5902 -1.1879
  279TIP3    H2  844   1.580   0.034   4.279 -1.6330 -0.6413 -0.7026
  280TIP3   OH2  845   1.753   3.541   1.992 -0.5954  0.4208  0.4576
  280TIP3    H1  846   1.742   3.446   1.997  1.0493  0.2515  1.3980
  280TIP3    H2  847   1.694   3.568   1.922 -0.6618 -1.3670 -0.2219
  281TIP3   OH2  848   0.718   1.570   0.315  0.0599  0.2486 -0.1683
  281TIP3    H1  849   0.750   1.564   0.405  0.3098 -0.6160 -0.3026
  281TIP3    H2  850   0.779   1.630   0.272  0.1818  0.3466  0.1382
  282TIP3   OH2  851   0.910   2.304   1.920 -0.2225 -0.4962 -0.3386
  282TIP3    H1  852   0.967   2.276   1.849  1.2382  0.8999  0.2237
  282TIP3    H2  853   0.927   2.398   1.929 -2.2890 -0.1202  0.1698
  283TIP3   OH2  854   5.551   3.170   0.626 -1.1382 -0.0059  0.5321
  283TIP3    H1  855   5.632   3.138   0.665 -0.7074  2.1154  1.5025
  283TIP3    H2  856   5.491   3.181   0.699 -0.6672  3.0077  0.5926
  284TIP3   OH2  857   1.384   4.883   3.761 -0.4431  0.1964  0.3600
  284TIP3    H1  858   1.404   4.941   3.688 -1.1113 -0.0636 -0.0383
  284TIP3    H2  859   1.288   4.879   3.764 -0.4183 -0.4150  0.7514
  285TIP3   OH2  860   1.382   4.582   4.138  0.7107  0.0675 -0.1123
  285TIP3    H1  861   1.386   4.517   4.069 -0.6734 -0.0007 -0.1530
  285TIP3    H2  862   1.394   4.532   4.219 -0.0404 -0.1906 -0.1615
  286TIP3   OH2  863   4.761   3.967   3.016 -0.3020  0.3469 -0.3164
  286TIP3    H1  864   4.822   3.896   2.997 -0.1365 -0.6748  3.2510
  286TIP3    H2  865   4.812   4.047   3.005  1.1022 -0.3904  0.4982
  287TIP3   OH2  866   3.220   2.713   4.706  0.1216  0.0714 -0.0643
  287TIP3    H1  867   3.308   2.739   4.680  0.9488 -1.3684  1.2016
  287TIP3    H2  868   3.179   2.795   4.735  1.3320  0.6259  0.1579
  288TIP3   OH2  869   0.671   3.860   1.636  0.4910 -0.1889  0.3878
  288TIP3    H1  870   0.714   3.838   1.718  0.4418 -1.1628  0.1611
  288TIP3    H2  871   0.742   3.873   1.574  0.4864 -1.4201  0.1069
  289TIP3   OH2  872   5.631   2.459   1.953 -0.5604  0.7593 -0.1393
  289TIP3    H1  873   5.543   2.420   1.958  0.3185 -1.2658  0.6882
  289TIP3    H2  874   5.650   2.487   2.042 -0.0657  0.4382 -0.1374
  290TIP3   OH2  875   3.642   1.530   2.799  0.1315 -0.4814  0.4184
  290TIP3    H1  876   3.662   1.481   2.878  3.2814  1.0677  0.7680
  290TIP3    H2  877   3.651   1.622   2.825 -1.0619  0.1481 -1.2226
  291TIP3   OH2  878   2.174   0.101   0.363  0.2652  0.1651 -0.3601
  291TIP3    H1  879   2.204   0.187   0.333 -0.1735  0.5681  0.3403
  291TIP3    H2  880   2.253   0.049   0.371  0.9913  1.5069  2.4637
  292TIP3   OH2  881   1.046   3.240   4.848 -0.2671  0.0287  0.1156
  292TIP3    H1  882   1.091   3.322   4.866  0.7181 -0.8798  2.1320
  292TIP3    H2  883   1.090   3.205   4.771 -1.4695  1.8805 -1.4882
  293TIP3   OH2  884   5.662   3.760   1.556 -0.0952  0.5784  0.0323
  293TIP3    H1  885   5.621   3.845   1.543 -1.7053 -0.2732 -0.7614
  293TIP3    H2  886   5.589   3.701   1.576  0.9164 -0.7112  0.0587
  294TIP3   OH2  887   3.042   2.242   3.210  0.1068  0.4267 -0.0247
  294TIP3    H1  888   3.080   2.158   3.187 -0.5547  0.0357  0.2844
  294TIP3    H2  889   3.111   2.306   3.189  0.8032 -0.2263  0.2078
  295TIP3   OH2  890   2.650   2.391   2.707  0.2282  0.1541  0.3072
  295TIP3    H1  891   2.593   2.426   2.775 -0.5514  0.2919 -0.3945
  295TIP3    H2  892   2.616   2.302   2.692 -1.0563  0.8948 -1.4451
  296TIP3   OH2  893   5.501   0.758   2.205  0.2063 -0.1527 -0.1106
  296TIP3    H1  894   5.586   0.770   2.163  0.1327 -1.4228 -0.6748
  296TIP3    H2  895   5.496   0.664   2.224 -1.5584 -0.3554 -1.2341
  297TIP3   OH2  896   2.875   5.668   1.216  0.6741  0.4740 -0.2289
  297TIP3    H1  897   2.929   5.747   1.219  0.1766  0.8067  1.4025
  297TIP3    H2  898   2.920   5.607   1.274  0.0343  0.2699  0.0604
  298TIP3   OH2  899   4.012   2.470   2.169 -0.3266  0.4643  0.4407
  298TIP3    H1  900   4.025   2.521   2.249 -0.6152 -0.3237  1.0032
  298TIP3    H2  901   3.970   2.389   2.199  0.5795 -0.3300 -0.3638
  299TIP3   OH2  902   6.012   0.170   4.006 -0.5671 -0.1634 -0.2503
  299TIP3    H1  903   5.922   0.201   4.014 -0.1380  0.9275  0.7053
  299TIP3    H2  904   6.020   0.141   3.916 -1.7706  0.0704 -0.4459
  300TIP3   OH2  905   1.275   0.109   0.760  0.3338 -0.2208 -0.4491
  300TIP3    H1  906   1.238   0.021   0.764  2.7217 -1.2555  0.9805
  300TIP3    H2  907   1.238   0.147   0.680 -2.2129 -1.7710 -0.1373
  301TIP3   OH2  908   3.212   4.079   1.779 -0.1273 -0.5426  0.0797
  301TIP3    H1  909   3.210   4.164   1.735 -0.2872 -0.4507  0.2617
  301TIP3    H2  910   3.136   4.081   1.837 -0.2440 -0.8870 -0.0577
  302TIP3   OH2  911   3.602   0.763   4.120 -0.1161  0.3912  0.3198
  302TIP3    H1  912   3.517   0.772   4.164 -0.1460  1.4428  0.0787
  302TIP3    H2  913   3.646   0.693   4.167 -0.7649  0.4570  1.0422
  303TIP3   OH2  914   4.469   4.123   1.121 -0.5959 -0.2404 -0.0437
  303TIP3    H1  915   4.426   4.052   1.168  0.4292 -0.3604  0.7453
  303TIP3    H2  916   4.515   4.173   1.188  0.8638 -0.3893 -0.8818
  304TIP3   OH2  917   0.122   4.552   1.795  0.0559  0.0196 -0.0586
  304TIP3    H1  918   0.043   4.500   1.809 -0.4801  0.4601 -1.2676
  304TIP3    H2  919   0.092   4.627   1.744  1.5823 -0.7989 -2.2862
  305TIP3   OH2  920   1.229   2.093   3.111 -0.5623  0.1105 -0.5439
  305TIP3    H1  921   1.287   2.158   3.071  0.5795 -1.5597 -1.7825
  305TIP3    H2  922   1.228   2.021   3.048 -2.6834 -0.6195  0.2524
  306TIP3   OH2  923   4.181   4.158   2.629  0.3252  0.0879  0.1045
  306TIP3    H1  924   4.107   4.217   2.645 -0.3246 -0.2228 -1.5534
  306TIP3    H2  925   4.145   4.071   2.640  0.2891 -0.0797 -1.1678
  307TIP3   OH2  926   1.205   5.769   2.336 -0.0921 -0.3092 -0.1945
  307TIP3    H1  927   1.275   5.822   2.375 -0.3147  0.7423 -1.1420
  307TIP3    H2  928   1.242   5.681   2.329  0.9158  0.0942 -0.1060
  308TIP3   OH2  929   4.323   0.428   0.538  0.0829  0.3923 -0.1813
  308TIP3    H1  930   4.398   0.461   0.587 -0.1111  0.2917  0.1967
  308TIP3    H2  931   4.326   0.473   0.454  0.4462  0.5413 -0.0890
  309TIP3   OH2  932   3.316   2.108   4.969 -0.4373 -0.4456 -0.0375
  309TIP3    H1  933   3.335   2.079   4.880 -1.9070  0.4727 -0.6982
  309TIP3    H2  934   3.221   2.120   4.970 -0.6330 -1.6897  2.0575
  310TIP3   OH2  935   0.812   2.581   1.079 -0.3081 -0.2460 -0.0355
  310TIP3    H1  936   0.720   2.592   1.105 -0.3197 -1.4375  0.4954
  310TIP3    H2  937   0.810   2.579   0.984 -0.7318  0.5311 -0.0475
  311TIP3   OH2  938   0.697   0.226   1.029 -0.3598  0.3350  0.1096
  311TIP3    H1  939   0.695   0.285   1.105 -1.3480  1.0469 -0.4490
  311TIP3    H2  940   0.723   0.141   1.066  2.7292  1.3958  0.7089
  312TIP3   OH2  941   3.061   2.482   2.036  0.0961  0.0593  0.3514
  312TIP3    H1  942   3.008   2.557   2.008  0.0595  0.1711  0.7103
  312TIP3    H2  943   3.152   2.513   2.028  0.1472 -0.3588 -0.9092
  313TIP3   OH2  944   1.518   3.293   0.844  0.7786 -0.2243  0.3149
  313TIP3    H1  945   1.476   3.218   0.886  0.1068  0.4031  0.8073
  313TIP3    H2  946   1.446   3.342   0.804  1.2036  0.1557  0.0013
  314TIP3   OH2  947   3.891   0.282   4.878  0.5076 -0.1234  0.0262
  314TIP3    H1  948   3.985   0.272   4.892  0.4466 -1.5814 -0.3633
  314TIP3    H2  949   3.856   0.306   4.964  1.1169 -0.6716  0.4404
  315TIP3   OH2  950   1.194   4.723   3.577  0.4565 -0.2134 -0.1252
  315TIP3    H1  951   1.280   4.686   3.597  1.7084  2.4826 -0.0736
  315TIP3    H2  952   1.154   4.738   3.662  0.5837 -0.0795 -0.0882
  316TIP3   OH2  953   0.784   5.933   4.312 -0.5699  0.0579 -0.2514
  316TIP3    H1  954   0.723   5.964   4.244 -1.0247  0.0792  0.1664
  316TIP3    H2  955   0.778   5.838   4.308 -1.1791  0.0694  0.2812
  317TIP3   OH2  956   1.736   3.591   3.871  0.3398  0.2677 -0.5370
  317TIP3    H1  957   1.791   3.558   3.800  1.3064 -1.4560  0.9170
  317TIP3    H2  958   1.735   3.686   3.858  2.8271  0.2831 -1.2680
  318TIP3   OH2  959   0.078   3.362   5.062  0.2597  0.1853 -0.1591
  318TIP3    H1  960   0.043   3.340   4.975  0.5272  0.5735 -0.3661
  318TIP3    H2  961   0.152   3.420   5.044 -0.7878  1.7741  0.3904
  319TIP3   OH2  962   4.454   1.066   1.711 -0.4706 -0.4278  0.1978
  319TIP3    H1  963   4.462   1.161   1.706 -0.9027 -0.3895  0.2306
  319TIP3    H2  964   4.385   1.051   1.775 -0.8127 -0.7498 -0.2408
  320TIP3   OH2  965   1.397   3.046   1.455  0.0300  0.0160  0.0431
  320TIP3    H1  966   1.390   2.980   1.524 -0.2520 -1.0128 -0.9311
  320TIP3    H2  967   1.333   3.018   1.389 -0.1790  1.3426 -0.3438
  321TIP3   OH2  968   3.383   2.801   0.104 -0.0462 -1.0020  0.7594
  321TIP3    H1  969   3.304   2.853   0.115  0.4966 -0.0851  0.4200
  321TIP3    H2  970   3.450   2.849   0.152  0.7486 -0.7056 -0.5995
  322TIP3   OH2  971   3.208   1.528   1.188  0.1787  0.7710 -0.8616
  322TIP3    H1  972   3.113   1.535   1.200 -0.1030 -2.6410 -0.1605
  322TIP3    H2  973   3.243   1.540   1.276  0.3089  0.9811 -0.9424
  323TIP3   OH2  974   5.321   0.292   3.049 -0.7509 -0.6210 -0.1856
  323TIP3    H1  975   5.348   0.214   3.098  2.8744 -1.1095 -2.5862
  323TIP3    H2  976   5.226   0.285   3.045 -0.8466 -3.1450  2.4426
  324TIP3   OH2  977   3.115   1.635   3.226  0.4827  0.4640  0.3947
  324TIP3    H1  978   3.088   1.686   3.149 -0.4154 -0.1930  0.2609
  324TIP3    H2  979   3.036   1.590   3.254  0.9492  0.2116  1.3426
  325TIP3   OH2  980   2.183   0.599   1.867 -0.1856  0.4097 -0.1104
  325TIP3    H1  981   2.188   0.506   1.885  0.6886  0.5599  0.5021
  325TIP3    H2  982   2.200   0.641   1.951  0.0950  1.1133 -0.5059
  326TIP3   OH2  983   3.751   3.042   3.247  0.0934  1.0235 -0.0806
  326TIP3    H1  984   3.673   3.085   3.282 -0.8152 -1.5262  1.3024
  326TIP3    H2  985   3.722   3.006   3.162 -0.5530 -0.5747  0.7712
  327TIP3   OH2  986   0.377   5.568   4.525  0.1413 -0.1278 -0.4048
  327TIP3    H1  987   0.423   5.652   4.519 -1.1229  0.5351 -1.5333
  327TIP3    H2  988   0.428   5.509   4.470  2.5268 -0.9072  2.4258
  328TIP3   OH2  989   2.079   4.567   4.607 -0.7625  0.1334 -0.4610
  328TIP3    H1  990   1.997   4.609   4.635  0.4141  2.6021 -0.4258
  328TIP3    H2  991   2.090   4.597   4.516  0.6221  0.7743 -0.1099
  329TIP3   OH2  992   3.919   4.511   1.724  0.6187 -0.0480  0.4449
  329TIP3    H1  993   3.984   4.524   1.655 -1.4441 -0.4940 -1.7328
  329TIP3    H2  994   3.889   4.600   1.745  0.7474  0.0470  0.2342
  330TIP3   OH2  995   3.300   2.628   1.553  0.5026 -0.5218  0.2548
  330TIP3    H1  996   3.383   2.668   1.526 -0.5028  0.2559 -1.8940
  330TIP3    H2  997   3.271   2.681   1.628  1.8617 -0.7246  0.9474
  331TIP3   OH2  998   6.185   3.875   0.477 -0.0425 -0.1017 -0.5402
  331TIP3    H1  999   6.128   3.830   0.540  2.0150 -0.6918  1.0387
  331TIP3    H2 1000   6.144   3.960   0.464 -0.8815 -0.2004  1.1596
  332TIP3   OH2 1001   4.150   2.710   3.967 -0.0131  0.4475  0.9683
  332TIP3    H1 1002   4.079   2.649   3.987  0.8274 -0.7623  0.4271
  332TIP3    H2 1003   4.122   2.793   4.005 -2.6001  0.5281 -0.8223
  333TIP3   OH2 1004   0.041   0.245   0.577  0.1845  0.7585 -0.2251
  333TIP3    H1 1005   0.077   0.331   0.553 -0.9269  0.9056 -1.4621
  333TIP3    H2 1006   0.079   0.184   0.514 -1.0168  0.7773 -0.9922
  334TIP3   OH2 1007   0.068   3.522   1.254 -0.3997 -0.5234  0.3297
  334TIP3    H1 1008   0.031   3.449   1.304 -0.2062 -0.7432  0.1548
  334TIP3    H2 1009   0.101   3.582   1.320 -0.3893 -0.6847  0.4732
  335TIP3   OH2 1010   0.914   3.981   1.442 -0.2997  0.3291 -0.1730
  335TIP3    H1 1011   0.961   4.063   1.456 -0.8533  0.3251  2.0543
  335TIP3    H2 1012   0.975   3.913   1.472  0.2535 -0.1591 -2.2283
  336TIP3   OH2 1013   0.324   0.670   2.302 -0.3894 -0.4011 -0.3502
  336TIP3    H1 1014   0.401   0.714   2.339 -1.3428  2.1209 -1.1653
  336TIP3    H2 1015   0.322   0.585   2.346  1.2743  0.5376  1.7418
  337TIP3   OH2 1016   3.957   0.881   0.443  0.0556  0.1004  0.2516
  337TIP3    H1 1017   3.929   0.916   0.359  0.7690  0.0734  0.0056
  337TIP3    H2 1018   3.898   0.806   0.458  0.5571 -0.4891 -0.6758
  338TIP3   OH2 1019   4.823   5.637   4.891  0.2393 -0.9080 -0.5259
  338TIP3    H1 1020   4.751   5.586   4.852  0.6868 -1.4469 -0.6736
  338TIP3    H2 1021   4.894   5.630   4.827  0.1175  0.4215 -0.8319
  339TIP3   OH2 1022   1.356   2.944   0.162  0.0171  0.0969  0.0227
  339TIP3    H1 1023   1.386   3.026   0.123 -1.9600 -0.6338 -3.4234
  339TIP3    H2 1024   1.262   2.957   0.176 -0.0372 -1.0750  0.9178
  340TIP3   OH2 1025   5.869   2.275   1.685  0.3099  0.0772  0.4695
  340TIP3    H1 1026   5.829   2.188   1.686 -0.7945  0.5269 -1.1136
  340TIP3    H2 1027   5.948   2.266   1.738 -0.7270 -1.4160  1.8409
  341TIP3   OH2 1028   2.728   5.072   2.904  0.1300 -0.3761  0.0412
  341TIP3    H1 1029   2.659   5.122   2.862 -1.2940  0.0955  2.7148
  341TIP3    H2 1030   2.749   5.002   2.842 -1.5233  0.4770 -1.5603
  342TIP3   OH2 1031   5.689   3.666   3.024 -0.6436 -1.1395  0.0505
  342TIP3    H1 1032   5.631   3.739   3.046 -0.1604 -0.9620  0.7849
  342TIP3    H2 1033   5.647   3.623   2.950 -0.4202  0.4972 -1.0813
  343TIP3   OH2 1034   4.404   4.661   2.015 -0.8617 -0.3069  0.0144
  343TIP3    H1 1035   4.495   4.679   1.994 -0.6091 -0.4035  0.9742
  343TIP3    H2 1036   4.383   4.580   1.968 -0.3988 -0.3833 -0.0603
  344TIP3   OH2 1037   4.054   3.915   3.570  0.2756 -0.0488  0.0748
  344TIP3    H1 1038   4.099   3.844   3.525  1.3585 -1.4381  3.0830
  344TIP3    H2 1039   4.122   3.980   3.588 -0.4640  1.2534 -1.5590
  345TIP3   OH2 1040   5.168   3.704   3.514  0.2590 -0.6262  0.5705
  345TIP3    H1 1041   5.193   3.661   3.596  0.8654 -1.2002  0.0984
  345TIP3    H2 1042   5.248   3.704   3.461 -0.0442  0.0260  0.1008
  346TIP3   OH2 1043   2.340   4.044   4.310  0.4007 -0.5236 -0.2427
  346TIP3    H1 1044   2.302   4.129   4.329  0.5554 -0.5146  0.0324
  346TIP3    H2 1045   2.309   4.022   4.222 -2.6366 -1.8187  1.0330
  347TIP3   OH2 1046   0.827   2.003   1.678  0.3926 -0.2316 -0.0981
  347TIP3    H1 1047   0.919   2.018   1.703  0.5066  0.2640 -0.7844
  347TIP3    H2 1048   0.833   1.962   1.592 -0.0108 -1.4424  0.4208
  348TIP3   OH2 1049   0.572   4.518   1.156 -0.2092 -0.2824  0.2816
  348TIP3    H1 1050   0.643   4.538   1.094  0.3956 -0.1551  1.0002
  348TIP3    H2 1051   0.509   4.468   1.104  0.1670  0.0309 -0.5017
  349TIP3   OH2 1052   3.106   0.371   3.518  1.0072  0.6368  0.0032
  349TIP3    H1 1053   3.173   0.305   3.504  1.0308  0.3616  1.3121
  349TIP3    H2 1054   3.113   0.429   3.442  0.4076 -1.3114 -1.6238
  350TIP3   OH2 1055   1.368   2.497   4.902 -0.7203 -0.5528  0.2498
  350TIP3    H1 1056   1.463   2.487   4.896 -0.6342  0.9704 -2.0532
  350TIP3    H2 1057   1.355   2.571   4.961 -0.4073  0.0811 -0.4685
  351TIP3   OH2 1058   5.058   5.725   0.105  0.2994  0.3012 -0.4758
  351TIP3    H1 1059   5.064   5.818   0.082 -0.7653  0.6181  0.4490
  351TIP3    H2 1060   5.138   5.707   0.153 -0.4353  1.3249  1.2157
  352TIP3   OH2 1061   6.094   3.855   2.932  0.1850 -0.6543  0.4137
  352TIP3    H1 1062   6.023   3.799   2.963 -2.1017  2.4221  1.1247
  352TIP3    H2 1063   6.101   3.834   2.838 -0.0111 -2.6075  0.7783
  353TIP3   OH2 1064   3.648   2.769   2.506  0.2748 -0.1626  0.3700
  353TIP3    H1 1065   3.583   2.832   2.477  0.9441  0.6977  0.7022
  353TIP3    H2 1066   3.728   2.791   2.457  0.3653 -1.1396  0.0350
  354TIP3   OH2 1067   4.465   1.189   3.476 -0.3441  0.2149 -0.2678
  354TIP3    H1 1068   4.512   1.111   3.506 -0.9334  0.0748  0.2993
  354TIP3    H2 1069   4.390   1.196   3.534 -0.2380  1.2779 -0.2443
  355TIP3   OH2 1070   4.370   3.709   3.040  0.2442 -0.6028  0.4038
  355TIP3    H1 1071   4.420   3.781   3.002 -2.1842  1.2297  0.4900
  355TIP3    H2 1072   4.354   3.736   3.130 -2.0742 -0.3937 -0.0083
  356TIP3   OH2 1073   4.208   2.628   4.492 -0.0419 -0.4785 -0.0627
  356TIP3    H1 1074   4.178   2.580   4.570 -1.1425  1.3024  0.6586
  356TIP3    H2 1075   4.127   2.659   4.451  0.6266  0.3691 -0.7590
  357TIP3   OH2 1076   3.160   2.827   2.226  0.1919  0.1565 -0.7258
  357TIP3    H1 1077   3.107   2.796   2.299  2.6866 -0.2698  1.0077
  357TIP3    H2 1078   3.142   2.921   2.223 -0.9994 -0.0434 -0.5104
  358TIP3   OH2 1079   5.018   2.924   0.910  0.6437  0.2483  0.0942
  358TIP3    H1 1080   5.076   2.999   0.918  1.0300 -0.0169 -0.1972
  358TIP3    H2 1081   5.031   2.893   0.820 -0.0768  0.2955 -0.0358
  359TIP3   OH2 1082   5.234   5.210   3.369 -0.1335 -0.3047 -0.0726
  359TIP3    H1 1083   5.263   5.235   3.457  1.1046  3.7164 -1.4245
  359TIP3    H2 1084   5.143   5.240   3.365 -0.1732 -0.4419 -0.1972
  360TIP3   OH2 1085   0.285   1.703   2.504  0.5682 -0.3373  0.1249
  360TIP3    H1 1086   0.378   1.689   2.523  0.9451  0.7430 -0.7900
  360TIP3    H2 1087   0.267   1.791   2.537  0.1619 -0.1044 -0.6970
  361TIP3   OH2 1088   1.413   5.517   3.476  0.5515  0.0441 -0.2705
  361TIP3    H1 1089   1.354   5.522   3.400 -0.7516  1.3017  0.7606
  361TIP3    H2 1090   1.476   5.588   3.462  1.7261 -1.1657 -1.2689
  362TIP3   OH2 1091   6.096   3.099   4.441 -0.3797 -0.2352 -0.7359
  362TIP3    H1 1092   6.048   3.070   4.363 -2.0586 -0.9497  0.5112
  362TIP3    H2 1093   6.063   3.186   4.459  2.0582  1.1462 -2.3781
  363TIP3   OH2 1094   2.238   4.425   4.961 -0.1101 -0.1696 -0.2186
  363TIP3    H1 1095   2.168   4.383   5.011 -2.3473  1.2167 -1.9815
  363TIP3    H2 1096   2.260   4.362   4.893 -0.7553 -0.0089 -0.5807
  364TIP3   OH2 1097   5.237   2.045   3.496  0.1515 -0.9314 -0.1798
  364TIP3    H1 1098   5.292   2.123   3.492 -1.5671  0.3562  0.0335
  364TIP3    H2 1099   5.197   2.039   3.409 -0.4613 -0.9913  0.0986
  365TIP3   OH2 1100   1.081   0.170   2.478 -0.2476  0.2072 -0.1697
  365TIP3    H1 1101   1.173   0.184   2.497  0.5680 -2.6933 -1.5211
  365TIP3    H2 1102   1.078   0.155   2.383 -1.4628 -3.4190  0.2948
  366TIP3   OH2 1103   6.093   0.509   2.744  0.2135  0.1162 -0.6350
  366TIP3    H1 1104   6.054   0.559   2.673 -2.1842 -0.8370 -0.0687
  366TIP3    H2 1105   6.100   0.420   2.710 -1.6153 -0.5088  0.4710
  367TIP3   OH2 1106   4.408   1.214   0.304 -0.3604  0.2917  0.4573
  367TIP3    H1 1107   4.313   1.219   0.297 -0.3655 -0.1892  0.1472
  367TIP3    H2 1108   4.440   1.240   0.218 -0.1686  1.5558  0.8994
  368TIP3   OH2 1109   1.512   4.795   2.478  0.7225 -0.3490  0.0240
  368TIP3    H1 1110   1.556   4.856   2.536 -2.0202 -0.3490  2.2920
  368TIP3    H2 1111   1.535   4.709   2.511  1.2711 -0.4526 -0.5985
  369TIP3   OH2 1112   1.459   5.821   2.422 -0.2173 -0.0877 -0.3544
  369TIP3    H1 1113   1.500   5.827   2.336 -3.7142  1.4265 -2.1210
  369TIP3    H2 1114   1.487   5.900   2.468  1.4219 -0.7547 -0.1266
  370TIP3   OH2 1115   0.623   5.814   1.637  0.4241 -0.0849  0.0864
  370TIP3    H1 1116   0.628   5.909   1.626 -1.4942  0.0534  0.1003
  370TIP3    H2 1117   0.539   5.799   1.681  1.1128 -1.7290  0.9184
  371TIP3   OH2 1118   3.510   5.238   4.425 -0.3794 -0.1443 -0.5929
  371TIP3    H1 1119   3.429   5.215   4.379 -0.8391 -2.0942  1.0707
  371TIP3    H2 1120   3.484   5.250   4.516  1.2998 -2.0208  0.2275
  372TIP3   OH2 1121   4.335   4.027   3.689 -0.4596  0.2696 -0.4279
  372TIP3    H1 1122   4.412   3.977   3.660 -0.4058 -0.5380  1.0160
  372TIP3    H2 1123   4.290   3.969   3.749 -2.4085  0.6210 -1.4791
  373TIP3   OH2 1124   4.997   2.213   2.478  0.7134  0.2813  0.2666
  373TIP3    H1 1125   4.973   2.303   2.458 -1.6610 -0.0397  1.3431
  373TIP3    H2 1126   4.931   2.160   2.435  1.4240 -0.8899  0.5800
  374TIP3   OH2 1127   4.492   5.940   1.763  0.0299 -0.3699 -0.2513
  374TIP3    H1 1128   4.469   5.929   1.855  1.3841  1.5954  0.3871
  374TIP3    H2 1129   4.580   5.904   1.755  0.5859  0.9421 -0.3450
  375TIP3   OH2 1130   1.638   3.519   2.660 -0.8999 -0.2510 -0.1762
  375TIP3    H1 1131   1.696   3.528   2.736 -0.0281 -2.6334 -0.4774
  375TIP3    H2 1132   1.552   3.543   2.692 -0.1899  0.9048  0.9659
  376TIP3   OH2 1133   3.606   1.451   3.552 -0.2790  0.8066 -0.1101
  376TIP3    H1 1134   3.610   1.392   3.627  2.6472  1.4930  0.3780
  376TIP3    H2 1135   3.632   1.536   3.586  2.5573  0.8593 -2.0369
  377TIP3   OH2 1136   0.054   3.123   2.045  0.1857  0.4144 -0.1885
  377TIP3    H1 1137   0.142   3.085   2.034  0.1792  0.1082  0.7221
  377TIP3    H2 1138   0.036   3.166   1.962  0.2596 -1.4682 -1.2188
  378TIP3   OH2 1139   1.990   4.196   3.172 -0.2366 -0.2657 -0.2188
  378TIP3    H1 1140   2.017   4.124   3.115  0.1087 -1.4266  1.3389
  378TIP3    H2 1141   2.062   4.204   3.235 -0.8690  0.5751  0.4139
  379TIP3   OH2 1142   2.053   0.507   4.994 -0.7225  0.2125  0.0912
  379TIP3    H1 1143   1.960   0.489   4.984 -0.8453  0.2718  1.0500
  379TIP3    H2 1144   2.058   0.602   5.004 -0.6899  0.0980  1.2855
  380TIP3   OH2 1145   2.212   2.156   3.147 -0.2487  0.3454 -0.6658
  380TIP3    H1 1146   2.155   2.080   3.155 -0.8060  0.8324  0.1404
  380TIP3    H2 1147   2.264   2.139   3.069  0.5171 -1.4249  0.1964
  381TIP3   OH2 1148   4.082   3.907   4.908 -0.3755 -0.6441 -0.5102
  381TIP3    H1 1149   4.176   3.920   4.915 -0.6830  3.2714 -1.1898
  381TIP3    H2 1150   4.068   3.870   4.821  0.5021 -1.2636 -0.3938
  382TIP3   OH2 1151   4.880   2.913   5.127  0.4313  0.5701  0.6468
  382TIP3    H1 1152   4.959   2.862   5.142 -0.3461 -0.4593  1.3280
  382TIP3    H2 1153   4.898   2.962   5.046  0.8492 -1.4982 -0.5720
  383TIP3   OH2 1154   3.026   5.550   1.407 -0.3730  0.3694 -0.1886
  383TIP3    H1 1155   3.112   5.584   1.431 -1.0516  1.3828  0.9543
  383TIP3    H2 1156   3.034   5.455   1.418  0.5837  0.4507 -0.0675
  384TIP3   OH2 1157   6.104   2.690   4.798  0.1111 -0.1859 -0.3012
  384TIP3    H1 1158   6.054   2.643   4.866 -0.1192  0.4855 -0.0008
  384TIP3    H2 1159   6.189   2.646   4.797 -0.7224 -1.8762 -1.3909
  385TIP3   OH2 1160   0.055   4.165   5.008  0.4902 -0.2833 -0.6153
  385TIP3    H1 1161   0.091   4.240   4.960  2.4969 -2.3804 -2.6073
  385TIP3    H2 1162  -0.030   4.149   4.966  0.3106  0.4809 -0.5640
  386TIP3   OH2 1163   2.236   1.406   0.884 -0.7213  0.3624  0.3209
  386TIP3    H1 1164   2.287   1.366   0.813 -1.6786 -0.3600  0.0156
  386TIP3    H2 1165   2.267   1.496   0.888 -0.7874  0.4810 -1.1846
  387TIP3   OH2 1166   0.642   0.465   2.278  0.7495 -0.7425 -0.1901
  387TIP3    H1 1167   0.643   0.384   2.330 -0.2319  0.0720  1.1796
  387TIP3    H2 1168   0.734   0.491   2.272  1.3190 -2.8910 -2.2720
  388TIP3   OH2 1169   1.743   1.259   4.176 -0.3045 -0.0504  0.1361
  388TIP3    H1 1170   1.684   1.234   4.248  0.4290 -0.9185  0.4575
  388TIP3    H2 1171   1.829   1.266   4.217 -0.3115  2.3579 -0.0900
  389TIP3   OH2 1172   4.883   4.214   4.446 -0.7162  0.7620  0.4920
  389TIP3    H1 1173   4.891   4.121   4.423 -1.8801  0.9416 -0.8523
  389TIP3    H2 1174   4.795   4.237   4.416 -0.5865  2.2036  1.1799
  390TIP3   OH2 1175   4.523   0.899   4.151  0.4001 -0.0703 -0.2542
  390TIP3    H1 1176   4.568   0.847   4.084 -1.3548 -1.0974 -0.6828
  390TIP3    H2 1177   4.521   0.988   4.116  0.7194 -0.3197 -0.9269
  391TIP3   OH2 1178   1.407   0.706   3.832 -0.3205 -0.4771 -0.1680
  391TIP3    H1 1179   1.432   0.787   3.878 -1.1332  0.5640 -1.4778
  391TIP3    H2 1180   1.459   0.638   3.874  1.0647  0.8596  0.4001
  392TIP3   OH2 1181   1.910   4.950   4.491 -0.1907 -0.2551  0.1998
  392TIP3    H1 1182   1.948   4.973   4.576  1.1362 -1.2840 -0.0866
  392TIP3    H2 1183   1.907   5.033   4.443  0.1007  0.1423  0.8556
  393TIP3   OH2 1184   1.150   5.194   4.686  0.5217  0.3254 -0.2567
  393TIP3    H1 1185   1.093   5.235   4.621  0.5013 -0.1623 -0.5539
  393TIP3    H2 1186   1.159   5.103   4.656 -0.4979 -0.2605  1.1081
  394TIP3   OH2 1187   1.716   4.608   4.250  0.9431  0.3959  0.3369
  394TIP3    H1 1188   1.697   4.677   4.314  1.3776 -1.0637  2.1147
  394TIP3    H2 1189   1.632   4.590   4.208  0.7198  1.6209  0.2187
  395TIP3   OH2 1190   3.623   5.006   4.558  0.1855 -0.0457  0.1887
  395TIP3    H1 1191   3.555   4.942   4.536 -0.5042  0.7080  0.0635
  395TIP3    H2 1192   3.609   5.078   4.496  0.1259  0.7815  1.1312
  396TIP3   OH2 1193   5.797   2.390   1.257 -0.2114 -0.2332  0.7505
  396TIP3    H1 1194   5.752   2.319   1.212 -0.8633  0.2326  0.6560
  396TIP3    H2 1195   5.778   2.468   1.205  1.6472 -0.1868  0.0443
  397TIP3   OH2 1196   4.946   5.567   1.201  0.5844 -0.3457  0.1956
  397TIP3    H1 1197   4.875   5.612   1.156  1.2539  0.7824  0.2152
  397TIP3    H2 1198   5.007   5.637   1.224  1.4819 -1.2313  0.5738
  398TIP3   OH2 1199   1.147   1.636   2.812 -0.1434 -0.3370 -0.1607
  398TIP3    H1 1200   1.179   1.669   2.896 -0.6182  0.4750 -0.2902
  398TIP3    H2 1201   1.083   1.701   2.784 -0.8405 -1.1935 -0.6005
  399TIP3   OH2 1202   4.731   5.552   0.805  1.2257 -0.4785  0.2923
  399TIP3    H1 1203   4.712   5.524   0.894  2.5025  2.1618  1.5110
  399TIP3    H2 1204   4.665   5.620   0.787  1.6285 -0.2484 -0.3588
  400TIP3   OH2 1205   5.939   5.757   3.029  0.4033  0.0595 -0.7025
  400TIP3    H1 1206   5.884   5.688   3.066  1.8986 -0.8023 -0.0231
  400TIP3    H2 1207   5.991   5.789   3.103  1.2186  0.4704 -1.4295
  401TIP3   OH2 1208   2.748   4.773   3.965 -0.3433 -0.1694  0.0298
  401TIP3    H1 1209   2.780   4.835   4.031  1.3032  0.3606 -1.2131
  401TIP3    H2 1210   2.825   4.750   3.914 -1.4175 -1.2522 -1.1632
  402TIP3   OH2 1211   0.586   0.748   2.321  0.0921  0.0273 -0.4226
  402TIP3    H1 1212   0.655   0.784   2.264 -0.7421  0.4109 -1.2019
  402TIP3    H2 1213   0.601   0.654   2.319  0.8547  0.1340 -0.2451
  403TIP3   OH2 1214   2.321   1.719   2.646  0.3056 -0.5082 -0.0642
  403TIP3    H1 1215   2.308   1.643   2.588  0.1887 -0.9144  0.4862
  403TIP3    H2 1216   2.239   1.768   2.639  1.9385  2.1153 -3.9962
  404TIP3   OH2 1217   1.239   2.424   1.176 -0.4105 -0.2993  0.2080
  404TIP3    H1 1218   1.191   2.344   1.154  1.3090 -1.2881 -0.0848
  404TIP3    H2 1219   1.327   2.409   1.143  0.0429  1.5991  0.4462
  405TIP3   OH2 1220   1.907   5.105   5.030 -0.1713  0.0978  0.4688
  405TIP3    H1 1221   1.823   5.130   4.991  1.0720  1.2151 -1.6468
  405TIP3    H2 1222   1.924   5.017   4.994  0.5399  0.7524 -0.8627
  406TIP3   OH2 1223   4.349   1.888   3.307  0.2333 -0.0073 -0.2673
  406TIP3    H1 1224   4.287   1.959   3.326 -0.2141 -0.6354  0.6949
  406TIP3    H2 1225   4.317   1.814   3.357  1.4500 -0.5198 -0.2103
  407TIP3   OH2 1226   6.196   4.016   3.136 -0.5375  0.1013 -0.3026
  407TIP3    H1 1227   6.286   4.019   3.104 -0.1031  0.8601  0.9308
  407TIP3    H2 1228   6.150   3.960   3.073  1.0078 -1.0966 -0.4377
  408TIP3   OH2 1229   2.064   2.591  -0.012  0.0830 -0.2743  0.3155
  408TIP3    H1 1230   2.056   2.685   0.004  0.0694 -0.3697  0.8896
  408TIP3    H2 1231   2.027   2.550   0.066 -3.2347 -0.8244 -1.4014
  409TIP3   OH2 1232   5.272   4.081   4.680  0.1235 -0.1459  0.0378
  409TIP3    H1 1233   5.196   4.022   4.678  0.4888 -0.5923 -1.3236
  409TIP3    H2 1234   5.289   4.102   4.588  1.8793 -0.3461  0.2787
  410TIP3   OH2 1235   0.262   3.393   4.309  0.2985 -0.1994 -0.1893
  410TIP3    H1 1236   0.342   3.382   4.257  0.8429 -2.3835  1.0041
  410TIP3    H2 1237   0.293   3.394   4.399 -1.0401 -1.6310  0.3222
  411TIP3   OH2 1238   2.222   3.672   0.133  1.0565 -0.0668  0.3755
  411TIP3    H1 1239   2.295   3.669   0.195  0.6858 -2.8105  0.8084
  411TIP3    H2 1240   2.147   3.638   0.182  0.6141 -1.7648 -1.3437
  412TIP3   OH2 1241   0.630   4.692   4.852 -0.2198 -0.0998 -0.0021
  412TIP3    H1 1242   0.674   4.769   4.888 -1.2715  0.0703  0.9581
  412TIP3    H2 1243   0.561   4.728   4.796  1.1597 -0.3617 -2.0127
  413TIP3   OH2 1244   6.347   5.392   4.182  0.4049 -0.1535 -0.3143
  413TIP3    H1 1245   6.296   5.439   4.115  1.7515  2.1426  0.1344
  413TIP3    H2 1246   6.386   5.319   4.135  2.9320  2.4777 -2.7575
  414TIP3   OH2 1247   5.281   1.347   1.476  0.2972  0.2665  0.0215
  414TIP3    H1 1248   5.374   1.332   1.494  0.4487  0.4752 -0.5681
  414TIP3    H2 1249   5.241   1.261   1.485  0.4202  0.2984  0.9956
  415TIP3   OH2 1250   0.245   4.367   1.637  0.0355 -0.5027  0.6619
  415TIP3    H1 1251   0.220   4.433   1.702  0.7978  0.3232  0.1287
  415TIP3    H2 1252   0.180   4.297   1.649 -0.6936  0.2631  1.3407
  416TIP3   OH2 1253   3.795   3.497   5.013  0.2647  0.0024 -0.0593
  416TIP3    H1 1254   3.836   3.508   4.927  0.7835 -0.4567  0.1235
  416TIP3    H2 1255   3.731   3.427   5.000 -0.5082  0.7445 -0.3544
  417TIP3   OH2 1256   5.050   4.979   1.923  0.0815 -0.1271  0.3581
  417TIP3    H1 1257   5.089   5.052   1.875  0.7255  0.8125  2.2063
  417TIP3    H2 1258   5.109   4.906   1.906 -0.7165 -0.3647 -1.7339
  418TIP3   OH2 1259   4.707   4.455   2.330  0.0001 -0.7035  0.2917
  418TIP3    H1 1260   4.771   4.520   2.360  0.0437 -0.7187  0.2306
  418TIP3    H2 1261   4.748   4.370   2.350  0.6949 -0.7413 -1.1918
  419TIP3   OH2 1262   0.152   4.945   2.741 -0.1292 -0.0293  0.0651
  419TIP3    H1 1263   0.230   4.891   2.751 -0.1855 -0.0094  0.6718
  419TIP3    H2 1264   0.135   4.947   2.647 -0.3525 -1.3968  0.0530
  420TIP3   OH2 1265   5.769   2.848   3.684  0.2643 -0.3464  0.7013
  420TIP3    H1 1266   5.731   2.899   3.613  0.9832  0.0391  0.5848
  420TIP3    H2 1267   5.774   2.910   3.757  2.7217  0.3014  0.0662
  421TIP3   OH2 1268   1.115   2.645   4.677 -0.5730 -0.2648  0.4885
  421TIP3    H1 1269   1.190   2.608   4.723 -1.1593 -1.0658  0.8154
  421TIP3    H2 1270   1.154   2.690   4.601  0.2827 -0.1036  1.0103
  422TIP3   OH2 1271   1.552   0.778   2.889  0.3572  0.0891  0.1470
  422TIP3    H1 1272   1.465   0.745   2.866 -0.3625  1.0565  1.3568
  422TIP3    H2 1273   1.606   0.700   2.895 -0.6285 -0.6084  0.1938
  423TIP3   OH2 1274   1.941   0.577   0.804 -0.3580  0.1346  0.1704
  423TIP3    H1 1275   1.919   0.669   0.817  1.9877  0.7048  0.5890
  423TIP3    H2 1276   1.990   0.553   0.883 -0.2297 -1.2392 -0.2926
  424TIP3   OH2 1277   6.268   1.200   2.887  0.6157  0.0598 -0.0658
  424TIP3    H1 1278   6.263   1.224   2.795 -1.6185 -0.2293 -0.0555
  424TIP3    H2 1279   6.298   1.279   2.931  1.1072  0.3793 -0.9509
  425TIP3   OH2 1280  -0.002   3.456   4.189 -0.2687 -0.2207  0.3627
  425TIP3    H1 1281  -0.041   3.475   4.274 -0.9148  2.0032 -0.3596
  425TIP3    H2 1282   0.089   3.435   4.209 -0.2503  0.8413  1.5888
  426TIP3   OH2 1283   3.790   4.752   1.753 -0.0067 -0.2814  0.0229
  426TIP3    H1 1284   3.706   4.760   1.797 -0.3586 -1.6598 -0.3578
  426TIP3    H2 1285   3.847   4.814   1.799 -1.1630  0.5310  0.4052
  427TIP3   OH2 1286   5.980   5.134   2.523 -0.2391 -0.2730  0.0746
  427TIP3    H1 1287   5.921   5.081   2.575 -0.4173  0.0908  0.2441
  427TIP3    H2 1288   5.932   5.215   2.506 -0.2114 -0.4097 -0.7088
  428TIP3   OH2 1289   5.358   1.954   2.474  0.0861  0.2189 -0.2508
  428TIP3    H1 1290   5.315   2.002   2.402 -1.1934 -1.0974 -0.4163
  428TIP3    H2 1291   5.302   1.972   2.550  0.8333  0.7275  0.1934
  429TIP3   OH2 1292   2.559   2.177   3.115 -0.0159  0.6155 -0.0875
  429TIP3    H1 1293   2.624   2.213   3.175 -1.4259  2.0144  0.6683
  429TIP3    H2 1294   2.542   2.089   3.149  1.2294  0.3385 -0.1247
  430TIP3   OH2 1295   5.515   4.927   3.309 -0.3308 -0.0919 -0.4202
  430TIP3    H1 1296   5.559   4.874   3.375 -0.7306 -0.1737 -0.2150
  430TIP3    H2 1297   5.534   5.017   3.332 -0.8760 -0.1033  0.0998
  431TIP3   OH2 1298   4.285   1.751   4.616  0.1820  0.0269  0.1393
  431TIP3    H1 1299   4.204   1.767   4.568  0.5936  2.7185  0.1824
  431TIP3    H2 1300   4.353   1.744   4.549  0.0009 -2.3243  0.0965
  432TIP3   OH2 1301   0.662   0.445   4.842  0.3876 -0.1783 -0.4285
  432TIP3    H1 1302   0.604   0.400   4.903 -0.8752  1.4060 -0.4147
  432TIP3    H2 1303   0.603   0.490   4.782  1.6010 -0.8302 -2.1976
  433TIP3   OH2 1304   3.559   1.463   1.811  0.1037 -0.5322 -0.1625
  433TIP3    H1 1305   3.487   1.427   1.759 -0.1997 -2.0458  1.2303
  433TIP3    H2 1306   3.606   1.520   1.750 -2.5523  0.9301 -0.9928
  434TIP3   OH2 1307   1.524   3.115   2.365 -0.0945 -0.2098  0.5887
  434TIP3    H1 1308   1.442   3.162   2.355  0.1695  0.0093 -0.7353
  434TIP3    H2 1309   1.550   3.132   2.455 -1.0183  0.5148  0.7373
  435TIP3   OH2 1310   3.202   3.820   1.617 -0.3207 -0.4759 -0.2522
  435TIP3    H1 1311   3.107   3.833   1.623 -0.3544 -0.9934  0.4613
  435TIP3    H2 1312   3.211   3.747   1.555 -0.3072  0.4711 -1.4017
  436TIP3   OH2 1313   4.372   1.511   3.656 -0.1205  0.1024  0.3425
  436TIP3    H1 1314   4.445   1.505   3.718 -1.1025  2.7360  1.9242
  436TIP3    H2 1315   4.296   1.479   3.706 -0.9728  2.4969  0.7058
  437TIP3   OH2 1316   2.002   1.262   0.785 -0.1237  0.2506 -0.0487
  437TIP3    H1 1317   2.077   1.310   0.823  1.3755 -1.6133 -0.4848
  437TIP3    H2 1318   1.933   1.271   0.851  1.1088  0.4403  1.2849
  438TIP3   OH2 1319   1.934   5.743   3.910 -0.4375 -0.4817  0.2750
  438TIP3    H1 1320   2.020   5.786   3.909 -0.9921  0.6664 -0.0942
  438TIP3    H2 1321   1.889   5.779   3.834 -1.3549 -0.8411  0.6393
  439TIP3   OH2 1322   0.815   2.079   2.442 -0.0094  0.1406  0.0702
  439TIP3    H1 1323   0.867   2.061   2.520 -1.1634 -0.0828  0.8052
  439TIP3    H2 1324   0.724   2.071   2.471 -0.6101 -4.0653 -2.1173
  440TIP3   OH2 1325   3.415   2.425   5.029  0.0166 -0.0531 -0.1723
  440TIP3    H1 1326   3.353   2.412   5.101  0.1142  0.8946  0.0971
  440TIP3    H2 1327   3.410   2.344   4.978 -0.5199 -0.4841  0.5442
  441TIP3   OH2 1328   5.177   5.479   0.627  0.5285  0.1747  0.2570
  441TIP3    H1 1329   5.183   5.478   0.722 -1.7256  0.5163  0.4526
  441TIP3    H2 1330   5.098   5.530   0.608  0.7801 -0.0922 -1.7962
  442TIP3   OH2 1331   3.178   2.958   3.984  0.1931 -0.1949 -0.2800
  442TIP3    H1 1332   3.148   2.960   3.893  1.2443  0.5336 -0.6293
  442TIP3    H2 1333   3.271   2.934   3.979 -0.1051 -1.6569  0.7146
  443TIP3   OH2 1334   5.460   0.507   2.309 -0.3071  0.1665  0.5278
  443TIP3    H1 1335   5.468   0.415   2.333 -0.1876  0.0889  0.1991
  443TIP3    H2 1336   5.367   0.527   2.317 -0.4582 -0.2189 -0.2477
  444TIP3   OH2 1337   1.386   5.867   1.244 -0.2155 -0.2311  0.2183
  444TIP3    H1 1338   1.479   5.856   1.264 -0.5270 -0.4477  1.6039
  444TIP3    H2 1339   1.385   5.902   1.155  1.2598  1.0847  0.6721
  445TIP3   OH2 1340   0.921   5.316   3.134  0.3247  0.3660 -0.6046
  445TIP3    H1 1341   0.899   5.291   3.044 -0.4204 -1.6956  0.0867
  445TIP3    H2 1342   0.988   5.253   3.161  0.1282  0.5885  0.4459
  446TIP3   OH2 1343   4.541   4.928   0.006 -0.4176 -0.3613  0.2680
  446TIP3    H1 1344   4.551   4.987   0.081  0.3889 -0.4467  0.2355
  446TIP3    H2 1345   4.631   4.911  -0.023 -0.6504 -1.4454  0.1547
  447TIP3   OH2 1346   4.687   5.073   3.337  0.1108 -0.0865  0.2192
  447TIP3    H1 1347   4.751   5.051   3.269 -0.4859  0.8822 -0.6751
  447TIP3    H2 1348   4.625   5.000   3.336  1.0204 -0.9014  0.9063
  448TIP3   OH2 1349   3.698   1.023   0.538 -0.4165 -0.1670  0.4810
  448TIP3    H1 1350   3.669   1.110   0.566  2.4184  1.3250 -0.7257
  448TIP3    H2 1351   3.749   0.989   0.612  0.4335  0.2887  0.1268
  449TIP3   OH2 1352   2.776   4.727   4.524 -0.3776  0.0306  0.2963
  449TIP3    H1 1353   2.793   4.785   4.599 -1.5269  0.3799  0.3087
  449TIP3    H2 1354   2.740   4.647   4.563  1.3131 -0.7788  0.2885
  450TIP3   OH2 1355   3.747   2.791   2.101 -0.5320 -1.0352  0.3146
  450TIP3    H1 1356   3.780   2.864   2.048 -1.2021 -0.6169  0.4554
  450TIP3    H2 1357   3.787   2.804   2.187  1.6541 -2.4909 -0.4052
  451TIP3   OH2 1358   4.629   4.040   2.438  0.3649  0.0217  0.3574
  451TIP3    H1 1359   4.605   3.948   2.427  0.1499  0.0767  0.3638
  451TIP3    H2 1360   4.571   4.087   2.379 -0.0759  0.2250  0.9390
  452TIP3   OH2 1361   2.561   0.580   0.427  0.2423  0.4099 -0.3667
  452TIP3    H1 1362   2.578   0.662   0.473  1.9715 -0.1284  0.0509
  452TIP3    H2 1363   2.644   0.559   0.383  0.2997 -1.7525  0.6081
  453TIP3   OH2 1364   3.846   4.047   1.751  0.6015  0.8079 -0.1682
  453TIP3    H1 1365   3.922   4.101   1.772  1.4986  0.3126 -1.9210
  453TIP3    H2 1366   3.781   4.108   1.717  1.4109  0.8930 -1.6328
  454TIP3   OH2 1367   5.743   0.253   3.078  0.2107 -0.2713 -0.0524
  454TIP3    H1 1368   5.805   0.230   3.147  0.1038 -2.7901 -0.6681
  454TIP3    H2 1369   5.783   0.326   3.032  1.4682 -0.1819  1.1252
  455TIP3   OH2 1370   0.871   3.340   4.315 -0.8858  0.1300  0.0681
  455TIP3    H1 1371   0.883   3.356   4.408  0.0067  1.4205 -0.2376
  455TIP3    H2 1372   0.789   3.291   4.309 -0.9633  0.0487  1.5226
  456TIP3   OH2 1373   1.824   4.916   2.490 -0.0474  0.0322 -0.0919
  456TIP3    H1 1374   1.834   4.952   2.579 -0.4969  1.3129 -0.5360
  456TIP3    H2 1375   1.801   4.992   2.436  0.3733 -0.6993 -1.3422
  457TIP3   OH2 1376   4.211   2.180   1.789  0.3791  0.3315 -0.1959
  457TIP3    H1 1377   4.161   2.181   1.870 -1.4920  2.5122 -1.2739
  457TIP3    H2 1378   4.303   2.189   1.816 -0.0604 -0.4699  1.6896
  458TIP3   OH2 1379   0.807   5.345   1.739 -0.2876 -0.2657 -0.7917
  458TIP3    H1 1380   0.785   5.326   1.648  0.1495 -0.2117 -0.9129
  458TIP3    H2 1381   0.776   5.435   1.753  1.1395  0.3637 -1.4081
  459TIP3   OH2 1382   5.347   0.759   3.793 -0.0384 -0.1640  0.3840
  459TIP3    H1 1383   5.372   0.709   3.871  2.4067  2.9925  1.8592
  459TIP3    H2 1384   5.427   0.766   3.741 -1.0424 -0.1714 -1.2520
  460TIP3   OH2 1385   0.561   3.327   0.576  0.1101  0.0080  0.5225
  460TIP3    H1 1386   0.510   3.285   0.507  1.0496 -0.8944  0.3461
  460TIP3    H2 1387   0.562   3.419   0.553 -1.2518  0.0145  0.4272
  461TIP3   OH2 1388   4.413   2.064   2.772  0.3430 -0.3114  0.1781
  461TIP3    H1 1389   4.340   2.080   2.713  0.4349  0.9345  0.3813
  461TIP3    H2 1390   4.380   2.085   2.859  1.0909  0.8562  0.2055
  462TIP3   OH2 1391   3.256   3.879   0.617  0.3896  0.0098 -0.4817
  462TIP3    H1 1392   3.188   3.936   0.652  0.8116 -0.5343  1.3044
  462TIP3    H2 1393   3.336   3.932   0.619  0.4586 -0.0969 -0.4017
  463TIP3   OH2 1394   0.919   5.821   4.794 -0.0208 -0.5920 -0.2397
  463TIP3    H1 1395   0.857   5.893   4.806 -1.4539 -1.9165  0.6675
  463TIP3    H2 1396   0.978   5.851   4.725 -0.2005  1.6751  0.5172
  464TIP3   OH2 1397   3.932   2.843   0.211  0.2013  0.2934  0.1069
  464TIP3    H1 1398   3.952   2.812   0.122  0.7354 -0.1530  0.3746
  464TIP3    H2 1399   3.837   2.856   0.211 -0.1031 -1.6117  0.0528
  465TIP3   OH2 1400   4.213   0.325   2.035 -0.2519  0.1245 -0.4374
  465TIP3    H1 1401   4.128   0.298   2.068 -0.2568 -0.6592 -1.0494
  465TIP3    H2 1402   4.193   0.381   1.959 -0.2510 -1.6464 -1.8067
  466TIP3   OH2 1403   5.809   5.025   3.365 -0.0233 -0.3304 -0.5074
  466TIP3    H1 1404   5.756   5.098   3.396  1.0711  0.1863  0.2151
  466TIP3    H2 1405   5.840   5.052   3.279  0.5254  0.1421 -0.1654
  467TIP3   OH2 1406   3.303   0.148   3.557 -0.1564 -0.5085  0.2114
  467TIP3    H1 1407   3.365   0.089   3.600 -0.6641 -1.7810 -0.7295
  467TIP3    H2 1408   3.222   0.096   3.550 -0.5469  0.2212 -0.8539
  468TIP3   OH2 1409   0.259   5.257   1.944  0.0255 -0.3374  0.0723
  468TIP3    H1 1410   0.241   5.335   1.892 -0.8374 -0.1710  0.5904
  468TIP3    H2 1411   0.345   5.273   1.983 -0.7881  1.0818  1.4174
  469TIP3   OH2 1412   1.250   1.091   3.626 -0.0326  0.5308  0.3220
  469TIP3    H1 1413   1.303   1.092   3.546  1.4210 -0.5422  1.2204
  469TIP3    H2 1414   1.293   1.154   3.684 -1.0698  1.2943  0.2779
  470TIP3   OH2 1415   5.802   1.520   2.724 -0.6035 -0.0444 -0.3386
  470TIP3    H1 1416   5.853   1.569   2.660 -0.0712  0.8960  0.7839
  470TIP3    H2 1417   5.712   1.551   2.712 -0.3933  0.6570 -0.1717
  471TIP3   OH2 1418   3.484   0.416   1.779  0.5658 -0.2520  0.2498
  471TIP3    H1 1419   3.416   0.354   1.753 -0.4181  1.4110 -1.3852
  471TIP3    H2 1420   3.559   0.394   1.724 -0.0588  0.4773 -0.9375
  472TIP3   OH2 1421   2.418   5.799   2.066 -0.1357  0.2694 -0.1916
  472TIP3    H1 1422   2.437   5.724   2.010  3.4010  1.9107 -1.5004
  472TIP3    H2 1423   2.440   5.876   2.012 -1.9572  2.2287  1.6474
  473TIP3   OH2 1424   1.473   1.229   3.738  0.0315  0.0762 -0.2448
  473TIP3    H1 1425   1.564   1.209   3.714  0.0387 -0.2499  0.0421
  473TIP3    H2 1426   1.480   1.310   3.789  0.3664 -0.7981  1.1654
  474TIP3   OH2 1427   5.252   5.073   0.055 -0.3863  0.2608  1.1012
  474TIP3    H1 1428   5.288   5.090  -0.032  0.0982  1.0011  1.4320
  474TIP3    H2 1429   5.223   4.982   0.052 -0.1225  0.1965  0.2548
  475TIP3   OH2 1430   3.397   5.124   0.185 -0.1454  0.1322 -0.1073
  475TIP3    H1 1431   3.347   5.184   0.129 -0.3267 -0.4463 -0.5810
  475TIP3    H2 1432   3.485   5.161   0.188 -1.1972  2.8775  3.1992
  476TIP3   OH2 1433   2.411   3.024   2.665 -0.0179 -0.2645 -0.4483
  476TIP3    H1 1434   2.385   3.071   2.744  2.1372 -0.4071  0.4147
  476TIP3    H2 1435   2.400   3.088   2.595 -2.2644 -0.2372 -0.1492
  477TIP3   OH2 1436   0.437   5.532   2.032 -0.0208 -0.3241 -0.5999
  477TIP3    H1 1437   0.381   5.566   1.961  0.0941 -2.1465 -1.6268
  477TIP3    H2 1438   0.382   5.538   2.110 -1.3791 -1.2745 -1.4315
  478TIP3   OH2 1439   1.346   5.170   2.383 -0.0420  0.0647  0.4512
  478TIP3    H1 1440   1.363   5.103   2.450  0.5100 -0.0838  0.1688
  478TIP3    H2 1441   1.315   5.246   2.432 -2.0848 -0.8504  0.6654
  479TIP3   OH2 1442   6.189   1.551   2.938 -0.1332 -0.1079 -0.0635
  479TIP3    H1 1443   6.126   1.623   2.943 -0.8550 -0.5087 -2.1410
  479TIP3    H2 1444   6.274   1.592   2.946 -0.5740  0.8470 -0.1530
  480TIP3   OH2 1445   5.611   4.143   4.932 -0.3957  0.1956 -0.2374
  480TIP3    H1 1446   5.642   4.104   5.014  0.6989  1.1280 -0.1954
  480TIP3    H2 1447   5.690   4.158   4.881 -0.8475  1.8200 -0.4948
  481TIP3   OH2 1448   3.069   2.188   4.572  0.3676  0.0461  0.0677
  481TIP3    H1 1449   3.101   2.256   4.631  0.4938  0.4278 -0.4357
  481TIP3    H2 1450   2.999   2.229   4.523 -0.3051 -0.5216  0.5278
  482TIP3   OH2 1451   0.977   4.112   4.015  0.1761 -0.2060  0.2424
  482TIP3    H1 1452   1.053   4.168   4.032  0.0579 -0.2160  0.8255
  482TIP3    H2 1453   0.909   4.172   3.987  0.2532 -0.1365  0.2027
  483TIP3   OH2 1454   2.142   3.216   4.288  0.3759  0.0870  0.1597
  483TIP3    H1 1455   2.165   3.154   4.218  4.2094  1.2574  0.1289
  483TIP3    H2 1456   2.193   3.187   4.363 -0.0300  1.5247  1.0321
  484TIP3   OH2 1457   5.385   5.889   3.324 -0.2546  1.0569  0.5824
  484TIP3    H1 1458   5.318   5.833   3.285  1.0668  0.7656 -1.3827
  484TIP3    H2 1459   5.433   5.832   3.383  0.1549  0.4828 -0.2984
  485TIP3   OH2 1460   0.051   4.974   3.697  0.0638 -0.5908  0.1001
  485TIP3    H1 1461  -0.036   5.004   3.723  0.1088 -1.1005  0.8638
  485TIP3    H2 1462   0.043   4.955   3.603 -0.3593  0.3543 -0.0682
  486TIP3   OH2 1463   2.406   2.563   1.317 -0.3311  0.1413  0.7299
  486TIP3    H1 1464   2.480   2.547   1.260 -1.4373  0.8633 -1.0121
  486TIP3    H2 1465   2.348   2.488   1.304 -0.3175  0.0148  1.3765
  487TIP3   OH2 1466   6.026   5.560   3.532  0.0431  0.0267  0.1803
  487TIP3    H1 1467   6.067   5.637   3.572 -0.4710  0.2585  0.2746
  487TIP3    H2 1468   5.937   5.589   3.511 -0.2535 -0.6342  0.5086
  488TIP3   OH2 1469   5.603   3.941   0.493 -0.2222  0.1023 -0.7593
  488TIP3    H1 1470   5.585   3.860   0.540 -0.0338 -0.5888 -1.8212
  488TIP3    H2 1471   5.698   3.943   0.485 -0.2494  0.2301 -1.0594
  489TIP3   OH2 1472   2.983   3.587   0.158  0.1420 -0.1322  0.1337
  489TIP3    H1 1473   2.980   3.562   0.065 -0.3142 -4.0855  1.0693
  489TIP3    H2 1474   3.077   3.593   0.178  0.2729 -1.0227 -0.1825
  490TIP3   OH2 1475   6.069   5.501   1.574 -0.0986  0.4161 -0.7160
  490TIP3    H1 1476   6.080   5.438   1.502 -0.2019  0.7165 -0.9949
  490TIP3    H2 1477   5.978   5.529   1.566  0.0371  0.8397 -0.7843
  491TIP3   OH2 1478   4.911   4.283   1.971 -0.1728 -0.5290  0.3005
  491TIP3    H1 1479   5.003   4.280   1.944 -0.5977 -1.3518 -1.1429
  491TIP3    H2 1480   4.890   4.193   1.995 -0.8398 -0.5063 -0.2002
  492TIP3   OH2 1481   3.489   5.796   1.378  0.2064 -0.3436  0.5023
  492TIP3    H1 1482   3.453   5.810   1.291  1.2637 -0.5443  0.0160
  492TIP3    H2 1483   3.529   5.879   1.402 -0.5484 -0.1217  1.0373
  493TIP3   OH2 1484   5.134   3.561   3.180 -0.4507  0.1720  0.5043
  493TIP3    H1 1485   5.173   3.477   3.204 -0.0101  0.4076  0.6139
  493TIP3    H2 1486   5.207   3.614   3.147 -0.9408  0.0663 -0.8093
  494TIP3   OH2 1487   2.420   3.545   4.774  0.0126 -0.1180  0.7019
  494TIP3    H1 1488   2.500   3.575   4.730 -0.5521  0.8306  0.2946
  494TIP3    H2 1489   2.451   3.481   4.838  0.8012 -1.8496 -1.3377
  495TIP3   OH2 1490   5.573   2.592   2.643 -0.3847 -0.2785  0.6264
  495TIP3    H1 1491   5.568   2.687   2.654 -0.5860 -0.2207  0.0559
  495TIP3    H2 1492   5.538   2.576   2.555 -1.3956 -0.9871  1.1410
  496TIP3   OH2 1493   2.445   2.851   3.067 -0.1893 -0.3392 -0.3604
  496TIP3    H1 1494   2.362   2.861   3.022 -0.5702  1.1034  0.5697
  496TIP3    H2 1495   2.439   2.911   3.142  1.5923 -0.3609 -0.1461
  497TIP3   OH2 1496   2.679   5.791   2.912 -0.0764  0.2709  0.1893
  497TIP3    H1 1497   2.731   5.785   2.992 -1.1429 -1.4630  0.7953
  497TIP3    H2 1498   2.588   5.794   2.942 -0.6181 -2.2017 -0.9226
  498TIP3   OH2 1499   6.262   4.208   3.734 -0.0312 -0.2254  0.0210
  498TIP3    H1 1500   6.226   4.122   3.711  1.2913 -0.7078 -0.3386
  498TIP3    H2 1501   6.204   4.270   3.690 -1.5999 -0.8500  1.0798
  499TIP3   OH2 1502   0.426   4.157   5.073 -0.0864  0.4594 -0.0061
  499TIP3    H1 1503   0.505   4.104   5.066 -0.8729 -0.6419 -0.8368
  499TIP3    H2 1504   0.356   4.094   5.092 -1.0830  1.1584 -1.2152
  500TIP3   OH2 1505   5.423   0.986   3.532  0.6594  0.7055  0.1924
  500TIP3    H1 1506   5.485   1.007   3.462 -0.7987  1.4845 -0.9297
  500TIP3    H2 1507   5.367   1.063   3.537 -1.4513 -0.7249 -0.2200
  501TIP3   OH2 1508   4.037   5.706   3.710 -0.1152  0.2584  0.5162
  501TIP3    H1 1509   4.105   5.639   3.717 -1.3631 -1.1635 -0.4318
  501TIP3    H2 1510   4.073   5.781   3.756  1.2155 -1.1642  1.9436
  502TIP3   OH2 1511   3.577   0.017   3.516  0.1878 -0.1056  0.0440
  502TIP3    H1 1512   3.589   0.098   3.565  0.2209  0.0067 -0.1484
  502TIP3    H2 1513   3.661   0.001   3.475  0.1229 -0.1312 -0.0797
  503TIP3   OH2 1514   3.532   3.450   3.355  0.3768 -0.6223 -0.2277
  503TIP3    H1 1515   3.576   3.435   3.272  0.1812  0.8628 -0.6277
  503TIP3    H2 1516   3.440   3.465   3.331  0.2070 -0.7620  0.3125
  504TIP3   OH2 1517   4.292   2.587   2.582 -0.9743 -0.4928  0.1393
  504TIP3    H1 1518   4.329   2.499   2.571 -1.6046 -0.9174  1.2598
  504TIP3    H2 1519   4.246   2.583   2.666  0.5476  1.4456  1.1386
  505TIP3   OH2 1520   0.386   2.843   2.968  0.0267 -0.1817 -0.0166
  505TIP3    H1 1521   0.461   2.873   3.019  0.2241  1.3239 -1.0997
  505TIP3    H2 1522   0.316   2.904   2.989 -1.5632 -2.6114  2.3615
  506TIP3   OH2 1523   3.339   4.879   4.777 -0.2118  0.2893  0.0569
  506TIP3    H1 1524   3.424   4.870   4.821  0.4741 -0.2751 -1.2951
  506TIP3    H2 1525   3.307   4.789   4.768 -0.4740  0.4194 -0.3149
  507TIP3   OH2 1526   0.763   3.554   1.386 -0.4164  0.1463 -0.4666
  507TIP3    H1 1527   0.723   3.628   1.339 -0.3006  0.7276  0.3230
  507TIP3    H2 1528   0.754   3.577   1.478  0.4873 -0.3811 -0.2379
  508TIP3   OH2 1529   3.464   0.860   3.921  0.1803 -0.1573  0.2365
  508TIP3    H1 1530   3.499   0.800   3.987  0.9338 -2.2658 -1.9233
  508TIP3    H2 1531   3.485   0.819   3.837 -1.6939  1.8211 -1.3419
  509TIP3   OH2 1532   1.006   4.257   4.759  0.2256  0.4696 -0.2036
  509TIP3    H1 1533   0.961   4.189   4.809  1.3257 -0.0152  0.1594
  509TIP3    H2 1534   0.943   4.329   4.754  0.4652  1.1001  3.0548
  510TIP3   OH2 1535   1.690   2.740   3.707  0.4423  0.3062  0.5955
  510TIP3    H1 1536   1.690   2.817   3.651 -1.2135 -0.1518 -0.1022
  510TIP3    H2 1537   1.611   2.691   3.681  1.0684 -1.2688  1.4877
  511TIP3   OH2 1538   5.991   4.914   1.023  0.3133 -0.0074  0.4936
  511TIP3    H1 1539   5.963   4.886   1.111 -0.2182  1.1014  0.6978
  511TIP3    H2 1540   6.018   5.005   1.035  1.7818 -0.3327 -0.1837
  512TIP3   OH2 1541   0.276   3.301   2.623 -0.6514  0.4051  0.0464
  512TIP3    H1 1542   0.259   3.379   2.677 -0.9376 -0.4450  1.2415
  512TIP3    H2 1543   0.189   3.262   2.611 -0.5566  0.4695 -0.8703
  513TIP3   OH2 1544   4.449   5.862   2.067 -0.7084 -0.6026  0.0944
  513TIP3    H1 1545   4.437   5.784   2.013 -0.1306 -0.8578  0.3257
  513TIP3    H2 1546   4.544   5.867   2.082 -0.7479  0.0997  0.1460
  514TIP3   OH2 1547   2.534   4.652   3.778 -0.2196  0.0964  0.0394
  514TIP3    H1 1548   2.587   4.600   3.718  0.8465  1.0683  0.1047
  514TIP3    H2 1549   2.597   4.710   3.821 -1.3685  1.4795 -0.0775
  515TIP3   OH2 1550   6.239   0.926   3.596 -0.2128 -0.1480  0.5124
  515TIP3    H1 1551   6.304   0.975   3.546 -0.7672  0.7663  0.6658
  515TIP3    H2 1552   6.284   0.844   3.620  1.0992  0.7170  1.1465
  516TIP3   OH2 1553   0.978   4.516   3.010  0.1353 -0.0193 -0.2368
  516TIP3    H1 1554   0.891   4.532   2.972 -0.8975  0.2676  2.0753
  516TIP3    H2 1555   0.997   4.425   2.988 -0.9548 -0.2274 -0.3879
  517TIP3   OH2 1556   1.532   4.339   1.029  0.6817  0.4048  0.1267
  517TIP3    H1 1557   1.483   4.376   1.103  0.0946  0.6917 -0.4020
  517TIP3    H2 1558   1.467   4.287   0.982  1.4589 -1.2978  0.8229
  518TIP3   OH2 1559   2.500   2.890   4.386 -0.0307 -0.5549 -0.0076
  518TIP3    H1 1560   2.534   2.823   4.445 -0.7102 -0.4083  0.5555
  518TIP3    H2 1561   2.578   2.924   4.342  0.5754 -0.1800  1.3188
  519TIP3   OH2 1562   1.505   0.904   4.530 -0.4805 -0.3447 -0.0386
  519TIP3    H1 1563   1.411   0.915   4.518 -0.0658  3.7929 -1.1144
  519TIP3    H2 1564   1.540   0.893   4.442  0.1525 -1.3287  0.3083
  520TIP3   OH2 1565   0.965   1.292   0.767  0.5041  0.8082  0.0900
  520TIP3    H1 1566   1.023   1.233   0.816  1.6388  1.3529 -0.5568
  520TIP3    H2 1567   0.922   1.236   0.703 -0.3625  0.2387  1.1455
  521TIP3   OH2 1568   1.759   4.041   1.102  0.2438 -0.4964 -0.3320
  521TIP3    H1 1569   1.681   4.068   1.151  0.0826 -2.1110  0.3484
  521TIP3    H2 1570   1.772   4.111   1.038 -0.4834  0.8866  0.9527
  522TIP3   OH2 1571   5.481   4.978   4.863 -0.1326 -1.1331 -1.0854
  522TIP3    H1 1572   5.403   4.944   4.906 -0.0227 -0.8260 -0.6413
  522TIP3    H2 1573   5.447   5.028   4.789 -0.4759  0.5011  0.1181
  523TIP3   OH2 1574   3.361   4.859   0.761 -0.2716  0.8934  0.0041
  523TIP3    H1 1575   3.272   4.862   0.797 -0.7550  0.6855 -1.1527
  523TIP3    H2 1576   3.349   4.866   0.667  0.8930  0.1067 -0.2175
  524TIP3   OH2 1577   2.290   1.900   1.510  0.0153 -0.0602  0.0616
  524TIP3    H1 1578   2.307   1.912   1.604 -1.2698 -0.2071  0.3339
  524TIP3    H2 1579   2.269   1.988   1.478  1.2512  0.1293 -0.2832
  525TIP3   OH2 1580   5.584   0.346   3.353  0.5106 -0.0547  0.3880
  525TIP3    H1 1581   5.622   0.367   3.267  1.3494  1.7500  1.1400
  525TIP3    H2 1582   5.650   0.290   3.395  1.3066  1.1350  0.7842
  526TIP3   OH2 1583   5.871   3.269   4.708 -0.4295  0.0695 -0.5063
  526TIP3    H1 1584   5.809   3.217   4.657 -0.1089 -2.0411  1.0838
  526TIP3    H2 1585   5.917   3.324   4.644 -2.2955 -0.0251 -1.9960
  527TIP3   OH2 1586   0.407   4.781   5.087  0.1340  0.0551  0.0904
  527TIP3    H1 1587   0.498   4.772   5.117  0.0114 -3.2833 -0.1447
  527TIP3    H2 1588   0.356   4.789   5.168  0.4788  0.1407  0.3048
  528TIP3   OH2 1589   1.600   5.085   0.458  0.5867 -1.1305  0.3848
  528TIP3    H1 1590   1.566   5.047   0.539  0.3279 -1.9873 -0.1134
  528TIP3    H2 1591   1.526   5.085   0.398  0.2966  1.1333  0.6660
  529TIP3   OH2 1592   2.122   2.740   1.144  0.3808 -0.2617  0.4386
  529TIP3    H1 1593   2.070   2.665   1.171 -0.9143  1.3262  2.7141
  529TIP3    H2 1594   2.182   2.756   1.217  1.5103  0.1970 -0.5469
  530TIP3   OH2 1595   0.455   5.064   0.256 -0.0638  0.1752 -0.5661
  530TIP3    H1 1596   0.489   4.990   0.306 -1.8522 -0.2656  0.0531
  530TIP3    H2 1597   0.479   5.141   0.308 -1.0511 -0.2177  0.5250
  531TIP3   OH2 1598   5.333   5.890   0.833  0.5675 -0.1262  0.0821
  531TIP3    H1 1599   5.244   5.916   0.856  0.7004 -0.0987  0.5698
  531TIP3    H2 1600   5.322   5.816   0.774  0.2267 -1.1902  1.4280
  532TIP3   OH2 1601   0.699   5.118   3.806  0.7305  0.1445  0.5254
  532TIP3    H1 1602   0.634   5.050   3.824  1.0920 -0.3430  0.0436
  532TIP3    H2 1603   0.688   5.137   3.712  1.4361 -0.1171  0.3837
  533TIP3   OH2 1604   5.139   4.566   3.682 -0.1280  0.0682  0.4431
  533TIP3    H1 1605   5.091   4.489   3.714 -2.0626  0.3668 -1.4489
  533TIP3    H2 1606   5.200   4.530   3.617  0.6057 -0.0721  1.1935
  534TIP3   OH2 1607   0.201   5.621   3.797 -0.7361 -0.7460 -0.0039
  534TIP3    H1 1608   0.277   5.669   3.831 -1.0349 -0.6541  0.5482
  534TIP3    H2 1609   0.239   5.550   3.745 -0.2798 -0.4049 -0.1408
  535TIP3   OH2 1610   0.586   1.859   3.161 -0.5560  0.0185  0.4830
  535TIP3    H1 1611   0.528   1.810   3.102  1.7013 -1.4755 -0.6417
  535TIP3    H2 1612   0.664   1.876   3.109  0.8998  0.0626  2.5683
  536TIP3   OH2 1613   5.437   5.505   1.578 -0.1042 -0.4137  0.0943
  536TIP3    H1 1614   5.383   5.469   1.507 -0.8194  0.3433  0.2395
  536TIP3    H2 1615   5.469   5.588   1.544 -0.2379 -0.1699  0.5569
  537TIP3   OH2 1616   4.787   2.685   0.198  0.4279 -0.0091 -0.6597
  537TIP3    H1 1617   4.844   2.656   0.127  1.3226 -0.3702  0.1830
  537TIP3    H2 1618   4.763   2.774   0.175 -0.7557 -0.7103 -2.3093
  538TIP3   OH2 1619   6.166   5.158   4.172  0.0769 -0.0049 -0.1962
  538TIP3    H1 1620   6.140   5.070   4.199  0.4672  0.4148  1.6600
  538TIP3    H2 1621   6.240   5.144   4.112 -0.6892 -0.9593 -0.9571
  539TIP3   OH2 1622   4.835   4.985   0.101  0.0276  0.1187 -0.5671
  539TIP3    H1 1623   4.909   5.039   0.128  1.4439 -1.3589 -1.2661
  539TIP3    H2 1624   4.787   4.967   0.181  0.3673  1.1877 -0.1093
  540TIP3   OH2 1625   4.808   2.153   2.280  0.5824  0.5265 -0.3781
  540TIP3    H1 1626   4.849   2.222   2.229  0.5636  0.8267  0.0107
  540TIP3    H2 1627   4.783   2.087   2.215 -0.8909  1.6114 -0.9802
  541TIP3   OH2 1628   1.720   1.002   0.540  0.6333  0.0471 -0.7162
  541TIP3    H1 1629   1.665   1.075   0.510 -0.4151 -0.2329  0.4327
  541TIP3    H2 1630   1.803   1.043   0.564  0.0470  0.8870 -0.0494
  542TIP3   OH2 1631   6.210   2.307   4.325 -0.0213  0.2588 -0.7367
  542TIP3    H1 1632   6.201   2.388   4.376  0.8481  0.6462 -1.1760
  542TIP3    H2 1633   6.171   2.239   4.380  0.8775  0.6703  0.4407
  543TIP3   OH2 1634   3.405   5.773   3.611  0.1232  0.0862  0.5892
  543TIP3    H1 1635   3.410   5.682   3.581  1.2167 -0.3007  1.8422
  543TIP3    H2 1636   3.325   5.776   3.664  0.1267 -0.1782  0.6108
  544TIP3   OH2 1637   0.553   0.563   1.028  0.3543 -0.4544  0.1953
  544TIP3    H1 1638   0.608   0.623   1.077  2.4204 -1.6451 -0.5466
  544TIP3    H2 1639   0.544   0.487   1.085 -1.1931  0.0031  0.6119
  545TIP3   OH2 1640   5.819   2.751   3.090  0.0717  0.9662 -0.5395
  545TIP3    H1 1641   5.749   2.815   3.077 -0.4859  0.6310  0.6207
  545TIP3    H2 1642   5.780   2.668   3.064 -0.0765  0.7336  0.3953
  546TIP3   OH2 1643   0.146   4.890   0.247 -0.1545  0.4265 -0.2103
  546TIP3    H1 1644   0.127   4.797   0.262 -0.1303  0.2237 -1.3501
  546TIP3    H2 1645   0.180   4.921   0.331 -1.9111 -0.1379  0.7683
  547TIP3   OH2 1646   5.952   3.307   2.391 -0.3671  0.6020 -0.0323
  547TIP3    H1 1647   6.031   3.287   2.341 -0.9923 -1.2485 -0.3321
  547TIP3    H2 1648   5.979   3.299   2.482 -0.1132  0.3602 -0.1281
  548TIP3   OH2 1649   1.578   4.992   0.075  0.3605  0.3417 -0.0427
  548TIP3    H1 1650   1.614   4.921   0.129  1.1160 -0.6843 -1.8001
  548TIP3    H2 1651   1.651   5.052   0.063  0.2684  0.4397 -0.1125
  549TIP3   OH2 1652   1.644   4.497   3.985  0.0690  0.1542 -0.1556
  549TIP3    H1 1653   1.738   4.482   3.979  0.3481  1.7592 -0.2253
  549TIP3    H2 1654   1.632   4.587   3.953 -1.6932 -0.5682 -1.6783
  550TIP3   OH2 1655   1.417   5.555   1.140  0.4923  0.0147 -0.4010
  550TIP3    H1 1656   1.494   5.537   1.193  0.1614  0.2177  0.1617
  550TIP3    H2 1657   1.450   5.598   1.062  1.1978 -2.0073 -1.2748
  551TIP3   OH2 1658   1.540   4.378   4.894 -0.2943 -0.2452 -0.7200
  551TIP3    H1 1659   1.473   4.333   4.945 -0.5332  2.0871  1.1717
  551TIP3    H2 1660   1.598   4.307   4.863 -2.3490 -2.0978 -0.5813
  552TIP3   OH2 1661   0.313   5.956   0.347 -0.8715 -0.1922  0.2567
  552TIP3    H1 1662   0.352   5.916   0.269 -0.8288  1.1820 -0.4422
  552TIP3    H2 1663   0.377   6.021   0.376 -1.9959  1.0895 -0.0641
  553TIP3   OH2 1664   1.944   4.001   0.251 -0.5394  0.4321  0.2006
  553TIP3    H1 1665   1.882   3.995   0.178 -1.3275 -0.8378  0.9296
  553TIP3    H2 1666   2.010   4.064   0.222 -0.9510  0.1228 -1.5023
  554TIP3   OH2 1667   3.621   2.774   5.001 -0.2800 -0.0196 -0.2167
  554TIP3    H1 1668   3.672   2.804   5.076 -0.4828  1.6453 -0.7073
  554TIP3    H2 1669   3.674   2.705   4.962  0.6030  0.2333  0.5071
  555TIP3   OH2 1670   1.339   4.214   0.898  0.1008 -0.0549  0.5908
  555TIP3    H1 1671   1.245   4.225   0.915 -0.0599  0.8572 -0.6851
  555TIP3    H2 1672   1.348   4.233   0.805  1.6758  0.7425  0.8764
  556TIP3   OH2 1673   2.506   3.531   3.090 -0.4300  0.2403  0.7138
  556TIP3    H1 1674   2.587   3.480   3.102  0.3097  1.2116  0.0398
  556TIP3    H2 1675   2.447   3.471   3.044  0.3534 -0.0843  0.1089
  557TIP3   OH2 1676   1.844   5.022   3.429  0.8794 -0.2044  0.5990
  557TIP3    H1 1677   1.764   4.970   3.436  0.1643  0.7255 -0.3064
  557TIP3    H2 1678   1.915   4.961   3.448 -0.0509 -1.0098  1.5899
  558TIP3   OH2 1679   3.089   5.945   3.320 -0.0716 -0.0371 -0.1722
  558TIP3    H1 1680   3.142   5.910   3.248 -1.4438 -0.5015 -0.9840
  558TIP3    H2 1681   3.144   6.014   3.357  0.5848  0.3858 -1.8116
  559TIP3   OH2 1682   5.328   5.926   1.157  0.0855 -0.1759 -0.0093
  559TIP3    H1 1683   5.287   5.845   1.128 -1.3412  0.0036  1.3398
  559TIP3    H2 1684   5.256   5.990   1.158  1.0417  0.9361 -0.4114
  560TIP3   OH2 1685   4.636   2.208   0.562  0.1623 -0.0774 -0.2481
  560TIP3    H1 1686   4.713   2.264   0.572  0.6613 -0.4651 -1.7447
  560TIP3    H2 1687   4.669   2.119   0.577 -0.3415 -0.1022  0.7422
  561TIP3   OH2 1688   5.836   2.806   2.288 -0.3004  0.8572 -0.8242
  561TIP3    H1 1689   5.849   2.899   2.266  0.6554  1.6220  2.4017
  561TIP3    H2 1690   5.760   2.806   2.346 -0.2158 -0.3527 -0.6971
  562TIP3   OH2 1691   3.590   1.172   0.058 -0.2223 -0.3684  0.0476
  562TIP3    H1 1692   3.645   1.188  -0.018 -0.8191 -0.7340 -0.4800
  562TIP3    H2 1693   3.645   1.121   0.117 -0.6179 -2.6953 -1.4145
  563TIP3   OH2 1694   4.587   0.163   2.931  0.2208  0.2302  0.3482
  563TIP3    H1 1695   4.564   0.136   3.019  3.1049 -0.1870  1.0769
  563TIP3    H2 1696   4.557   0.254   2.925 -2.6222 -0.5835  0.6197
  564TIP3   OH2 1697   1.910   4.797   3.704  0.0887 -0.1498  0.1133
  564TIP3    H1 1698   1.936   4.881   3.742  1.4378 -0.2878 -0.4477
  564TIP3    H2 1699   1.942   4.800   3.614 -0.2091 -1.1015 -0.0391
  565TIP3   OH2 1700   4.596   4.701   4.213  0.0367 -0.0453  0.2173
  565TIP3    H1 1701   4.609   4.704   4.118 -3.1360 -2.7202 -0.4896
  565TIP3    H2 1702   4.675   4.660   4.246 -0.0937 -2.1222 -1.7779
  566TIP3   OH2 1703   2.190   4.165   0.284  0.2816  0.6102 -0.3627
  566TIP3    H1 1704   2.268   4.213   0.255  1.3372  0.1810  1.5524
  566TIP3    H2 1705   2.124   4.232   0.298  1.1345  1.3117  0.4369
  567TIP3   OH2 1706   0.105   1.625   2.977 -0.0618  0.4376 -0.2089
  567TIP3    H1 1707   0.119   1.636   3.071 -0.7686 -1.8403  0.2218
  567TIP3    H2 1708   0.175   1.566   2.950 -1.0940 -0.5828 -0.6761
  568TIP3   OH2 1709   0.207   1.928   5.132 -0.0196  0.0429 -0.6630
  568TIP3    H1 1710   0.266   1.982   5.185  2.2604 -0.6405 -2.3146
  568TIP3    H2 1711   0.196   1.847   5.182 -2.5337  1.4395  1.2931
  569TIP3   OH2 1712   5.901   5.348   3.745  0.5244 -0.0555 -0.6007
  569TIP3    H1 1713   5.811   5.316   3.756  0.0893  0.4411 -2.3545
  569TIP3    H2 1714   5.938   5.345   3.833 -1.4355  0.3915  0.3085
  570TIP3   OH2 1715   4.188   0.616   3.729  0.1188 -0.0869 -0.3645
  570TIP3    H1 1716   4.224   0.699   3.761  0.5380 -0.1919 -0.5647
  570TIP3    H2 1717   4.253   0.551   3.752  1.5471  0.1191 -3.3850
  571TIP3   OH2 1718   0.923   0.787   3.247 -0.2032 -0.4927  0.2152
  571TIP3    H1 1719   0.892   0.736   3.171 -2.2462 -1.3044  1.5075
  571TIP3    H2 1720   0.851   0.781   3.310  0.8013  1.4719  1.6269
  572TIP3   OH2 1721   2.070   5.107   2.271  0.3838 -0.2352 -0.3606
  572TIP3    H1 1722   2.064   5.085   2.364 -0.7902  0.3953 -0.2758
  572TIP3    H2 1723   2.161   5.133   2.259  0.8467 -1.4306  0.3551
  573TIP3   OH2 1724   1.691   2.868   4.220  0.3840  0.1598 -0.5169
  573TIP3    H1 1725   1.769   2.919   4.243 -0.2197 -0.1726  2.8613
  573TIP3    H2 1726   1.618   2.928   4.235 -0.1797 -0.7793  0.6946
  574TIP3   OH2 1727   0.599   3.976   4.453  0.0020 -0.2114  0.2630
  574TIP3    H1 1728   0.504   3.979   4.450  0.0402 -0.0060 -1.3279
  574TIP3    H2 1729   0.627   3.973   4.362  1.5330 -0.0924  0.6880
  575TIP3   OH2 1730   0.230   4.424   3.341  0.5771  0.3136  0.1007
  575TIP3    H1 1731   0.167   4.415   3.270  0.1742 -0.0595  0.4942
  575TIP3    H2 1732   0.293   4.490   3.311  0.3333  0.2543 -0.5373
  576TIP3   OH2 1733   3.871   3.248   2.959  0.2782 -0.2737 -0.2326
  576TIP3    H1 1734   3.946   3.225   2.903  0.7948  0.4145  0.1545
  576TIP3    H2 1735   3.901   3.228   3.048 -0.8948 -2.3221 -0.2272
  577TIP3   OH2 1736   4.213   3.641   2.775 -0.6570  0.1393  0.0443
  577TIP3    H1 1737   4.123   3.615   2.791 -0.2249 -0.8548  1.0373
  577TIP3    H2 1738   4.252   3.649   2.862 -0.1220  1.8905 -0.3128
  578TIP3   OH2 1739   1.583   2.177   1.254  0.2506 -0.7028  0.2779
  578TIP3    H1 1740   1.505   2.149   1.301  1.1463 -2.8144  0.6254
  578TIP3    H2 1741   1.635   2.097   1.244  2.3889  0.6224  0.1102
  579TIP3   OH2 1742   4.606   0.573   2.023  0.5197  0.2859  0.1571
  579TIP3    H1 1743   4.683   0.593   2.077 -1.6114  1.6144  2.9643
  579TIP3    H2 1744   4.555   0.512   2.076 -1.8043  1.8174 -0.1830
  580TIP3   OH2 1745   5.156   0.600   3.628 -0.0416 -0.3974  0.5242
  580TIP3    H1 1746   5.196   0.664   3.570 -1.5209 -1.6200 -2.0346
  580TIP3    H2 1747   5.075   0.641   3.657 -0.2678 -0.5168  0.0774
  581TIP3   OH2 1748   1.814   5.040   0.332 -0.2735 -0.3608  0.1691
  581TIP3    H1 1749   1.792   4.951   0.305  0.3736 -0.5901  0.3758
  581TIP3    H2 1750   1.750   5.061   0.400  0.5691 -1.2956  1.2978
  582TIP3   OH2 1751   5.639   0.772   3.058  0.1734 -0.2718  0.1166
  582TIP3    H1 1752   5.715   0.724   3.091 -0.1964 -0.1807  1.1148
  582TIP3    H2 1753   5.598   0.712   2.995  0.2020 -0.9202  0.7128
  583TIP3   OH2 1754   4.963   3.391   3.401 -0.2452 -0.1784  0.2076
  583TIP3    H1 1755   4.961   3.328   3.329  2.9633 -0.3386  0.1420
  583TIP3    H2 1756   5.034   3.451   3.379 -0.1991  0.7134  2.5070
  584TIP3   OH2 1757   4.640   2.596   3.841  0.5680 -0.5736  0.0460
  584TIP3    H1 1758   4.552   2.604   3.878  1.3336  0.9771  1.7090
  584TIP3    H2 1759   4.628   2.614   3.748 -0.8113  0.1733  0.3328
  585TIP3   OH2 1760   2.967   4.514   4.792 -0.1192 -0.0870 -0.1854
  585TIP3    H1 1761   2.942   4.490   4.703  2.3130 -2.4286 -0.3481
  585TIP3    H2 1762   2.885   4.509   4.842 -1.2176 -0.4797 -1.9296
  586TIP3   OH2 1763   1.852   0.188   2.473  0.6340 -0.2552 -0.3668
  586TIP3    H1 1764   1.941   0.200   2.440  1.3494 -0.9688  1.1961
  586TIP3    H2 1765   1.848   0.241   2.553 -1.0099  1.3510 -1.4280
  587TIP3   OH2 1766   0.218   4.863   3.902 -0.0675  0.6034 -0.0272
  587TIP3    H1 1767   0.153   4.884   3.835 -1.9518  0.5716  1.6761
  587TIP3    H2 1768   0.172   4.804   3.962  1.6563  0.3073  1.0840
  588TIP3   OH2 1769   4.310   0.661   0.827 -0.0471 -0.6238  0.2472
  588TIP3    H1 1770   4.230   0.609   0.836 -0.7777  0.1089 -1.5415
  588TIP3    H2 1771   4.363   0.612   0.764 -0.3709  0.3353 -0.7951
  589TIP3   OH2 1772   1.420   0.223   4.148  0.9605 -0.0608  0.0678
  589TIP3    H1 1773   1.436   0.295   4.209  1.1193 -0.3946  0.4265
  589TIP3    H2 1774   1.470   0.247   4.069  2.5417 -0.6443  0.8430
  590TIP3   OH2 1775   3.680   4.405   1.796  0.1153  0.1373 -0.2560
  590TIP3    H1 1776   3.690   4.398   1.891  0.4210 -1.1829 -0.3662
  590TIP3    H2 1777   3.746   4.469   1.770 -2.0817  3.0471  0.7437
  591TIP3   OH2 1778   1.518   5.700   2.068 -0.3728  0.4909 -0.2304
  591TIP3    H1 1779   1.592   5.733   2.119 -0.5786 -2.0003  1.8939
  591TIP3    H2 1780   1.535   5.607   2.057 -1.2596  0.6023 -3.2976
  592TIP3   OH2 1781   6.224   2.669   4.228 -0.3306  0.3240  0.3210
  592TIP3    H1 1782   6.227   2.621   4.311  1.1370  0.0907  0.1531
  592TIP3    H2 1783   6.315   2.695   4.211 -0.4768 -0.1647 -1.5084
  593TIP3   OH2 1784   2.787   5.234   3.387 -0.3030  0.0269 -0.0533
  593TIP3    H1 1785   2.727   5.203   3.319 -1.3240  2.4409 -0.3779
  593TIP3    H2 1786   2.759   5.190   3.466 -0.1059 -1.6450 -0.8728
  594TIP3   OH2 1787   4.026   4.149   0.899 -0.2007  0.6014  0.5319
  594TIP3    H1 1788   4.032   4.232   0.852 -1.7101  0.1243 -0.5811
  594TIP3    H2 1789   3.942   4.112   0.872  0.8474 -1.7478  0.2378
  595TIP3   OH2 1790   4.318   0.579   2.837 -0.0367 -0.5993  0.3897
  595TIP3    H1 1791   4.267   0.587   2.756  0.1385 -0.4133  0.2986
  595TIP3    H2 1792   4.253   0.581   2.907 -0.1688 -0.5463  0.2652
  596TIP3   OH2 1793   2.206   2.750   5.155  0.6238  0.0832 -0.1384
  596TIP3    H1 1794   2.175   2.840   5.144 -1.1140 -0.1725  1.8923
  596TIP3    H2 1795   2.270   2.755   5.225  1.1219 -0.1674 -0.5700
  597TIP3   OH2 1796   1.000   0.595   4.535  0.0717  0.2611  0.1500
  597TIP3    H1 1797   0.919   0.545   4.548 -1.3310  2.2760 -0.3300
  597TIP3    H2 1798   1.004   0.653   4.611  0.7573  0.5832 -0.1272
  598TIP3   OH2 1799   4.516   0.994   0.455 -0.3913 -0.3311 -0.1461
  598TIP3    H1 1800   4.480   1.039   0.378 -1.6708  0.0448  0.6341
  598TIP3    H2 1801   4.601   1.035   0.470 -1.2483  1.4152  0.1637
  599TIP3   OH2 1802   6.034   2.368   4.031  0.3232 -0.1559 -0.1498
  599TIP3    H1 1803   6.040   2.326   4.116 -0.0987 -0.8792 -0.4654
  599TIP3    H2 1804   5.942   2.361   4.007  0.7143 -1.4282 -1.3853
  600TIP3   OH2 1805   5.706   5.501   1.728 -0.5097 -0.0836 -0.0507
  600TIP3    H1 1806   5.678   5.551   1.651  0.6333 -0.7773 -0.9449
  600TIP3    H2 1807   5.763   5.561   1.776  0.7156 -0.4420 -1.0283
  601TIP3   OH2 1808   0.156   4.515   2.595 -0.3392  0.3030  0.3307
  601TIP3    H1 1809   0.141   4.424   2.568 -2.7244  1.5166 -2.9967
  601TIP3    H2 1810   0.243   4.535   2.563  0.6934 -1.0404  2.0952
  602TIP3   OH2 1811   4.792   3.437   5.021  0.2586  0.4070 -0.0249
  602TIP3    H1 1812   4.866   3.416   4.964  0.5763  1.6232 -0.0869
  602TIP3    H2 1813   4.720   3.383   4.988  1.1985 -1.1288  0.3018
  603TIP3   OH2 1814   0.573   3.602   4.012 -0.3612 -0.1963 -0.4772
  603TIP3    H1 1815   0.487   3.636   3.988 -0.0703  0.8017 -0.1389
  603TIP3    H2 1816   0.628   3.679   4.020  0.3544 -0.7577  0.1595
  604TIP3   OH2 1817   2.068   1.198   3.260  0.3866  0.0102 -0.3734
  604TIP3    H1 1818   1.974   1.189   3.274  0.1199 -0.3469 -2.1333
  604TIP3    H2 1819   2.103   1.110   3.277  0.2983 -0.0403 -0.4535
  605TIP3   OH2 1820   2.351   5.350   5.152  0.1754 -0.4239 -0.0965
  605TIP3    H1 1821   2.270   5.326   5.107  0.8857 -1.3765 -0.9201
  605TIP3    H2 1822   2.328   5.353   5.245 -1.4626  2.1225 -0.4868
  606TIP3   OH2 1823   4.953   3.519   0.557  0.0594  0.4199  0.9396
  606TIP3    H1 1824   4.867   3.512   0.517 -0.9584 -1.4405  3.2113
  606TIP3    H2 1825   4.936   3.525   0.651  2.3860 -0.1589  1.4723
  607TIP3   OH2 1826   2.649   2.604   1.676  0.2088  0.2013  0.7433
  607TIP3    H1 1827   2.648   2.700   1.675  1.7706  0.2626  1.7412
  607TIP3    H2 1828   2.678   2.580   1.588 -0.8233  0.6020  0.2758
  608TIP3   OH2 1829   2.480   3.702   1.856 -0.1647 -0.6383  0.4071
  608TIP3    H1 1830   2.573   3.684   1.845 -0.3177 -1.0266 -0.3266
  608TIP3    H2 1831   2.443   3.693   1.768 -0.8814 -0.4185  0.6777
  609TIP3   OH2 1832   5.917   2.532   4.914 -0.1825  0.2534  0.4635
  609TIP3    H1 1833   5.860   2.457   4.933 -1.0041  0.7118 -0.1481
  609TIP3    H2 1834   5.864   2.609   4.935  0.4958  0.6799  0.6545
  610TIP3   OH2 1835   3.915   5.627   1.658  0.4647 -0.1261  0.1290
  610TIP3    H1 1836   3.842   5.583   1.616  1.9683 -0.4865 -2.2630
  610TIP3    H2 1837   3.965   5.557   1.699  1.3808 -0.3675 -1.3426
  611TIP3   OH2 1838   3.887   0.125   4.650  0.0678 -0.1388  0.0860
  611TIP3    H1 1839   3.796   0.104   4.629  0.4360 -1.4859 -0.2257
  611TIP3    H2 1840   3.882   0.164   4.737 -0.8915  0.5743 -0.2681
  612TIP3   OH2 1841   3.154   3.770   3.070 -0.0740 -0.0928 -0.4453
  612TIP3    H1 1842   3.167   3.740   3.160 -1.1286 -0.3894 -0.3733
  612TIP3    H2 1843   3.228   3.828   3.053  0.5166 -0.5859  0.3678
  613TIP3   OH2 1844   3.329   0.554   4.868  0.6768  0.3615  0.0958
  613TIP3    H1 1845   3.270   0.480   4.882  0.7234  0.1806 -0.6178
  613TIP3    H2 1846   3.415   0.522   4.893  0.5752  0.4148  0.5103
  614TIP3   OH2 1847   2.796   1.651   2.415 -0.7288 -0.3574 -0.0752
  614TIP3    H1 1848   2.878   1.656   2.464 -0.6173  1.7507 -0.4039
  614TIP3    H2 1849   2.734   1.610   2.475 -1.1226  3.8039  2.7337
  615TIP3   OH2 1850   2.244   5.941   4.424 -0.3225 -0.0272 -0.1933
  615TIP3    H1 1851   2.185   5.994   4.478 -0.4968  0.0163 -0.4217
  615TIP3    H2 1852   2.185   5.894   4.364 -0.1433 -0.1965 -0.2377
  616TIP3   OH2 1853   0.721   2.071   3.011  0.4733  0.1094 -0.0693
  616TIP3    H1 1854   0.647   2.108   3.058  0.8404  0.5989  0.1363
  616TIP3    H2 1855   0.727   2.123   2.931  1.0161  0.5267  0.2382
  617TIP3   OH2 1856   6.117   2.069   4.474 -0.3615  0.5649 -0.4262
  617TIP3    H1 1857   6.030   2.089   4.507 -1.8571 -3.2719 -1.4893
  617TIP3    H2 1858   6.166   2.037   4.550 -0.2367  1.5106 -0.0862
  618TIP3   OH2 1859   4.304   3.540   1.829 -0.1024 -0.6154  0.4300
  618TIP3    H1 1860   4.307   3.463   1.773 -1.2336  0.4029 -1.1094
  618TIP3    H2 1861   4.229   3.524   1.887 -1.9647  0.3256 -1.5580
  619TIP3   OH2 1862   0.622   4.911   0.411  0.1212 -0.5368 -0.6236
  619TIP3    H1 1863   0.556   4.844   0.428 -0.7766  0.4400 -0.1340
  619TIP3    H2 1864   0.667   4.922   0.495  0.3607 -0.6194 -0.7399
  620TIP3   OH2 1865   1.448   0.411   4.627  0.3436  0.5038  0.4486
  620TIP3    H1 1866   1.370   0.376   4.584  0.6770 -1.4919  1.3846
  620TIP3    H2 1867   1.519   0.354   4.598  1.5723  2.4849 -0.6465
  621TIP3   OH2 1868   0.620   4.385   1.709 -0.2300  0.1023  0.2604
  621TIP3    H1 1869   0.561   4.338   1.650 -0.8903  0.7188  0.4213
  621TIP3    H2 1870   0.593   4.476   1.703  2.5009  0.8954 -1.8138
  622TIP3   OH2 1871   0.786   3.307   2.050  0.0897 -0.5072 -0.0773
  622TIP3    H1 1872   0.740   3.332   2.129 -0.2054 -0.2477 -0.3295
  622TIP3    H2 1873   0.800   3.212   2.059  1.2165 -0.2728  0.8784
  623TIP3   OH2 1874   1.757   5.258   2.102 -0.1674 -0.6152  0.0782
  623TIP3    H1 1875   1.681   5.224   2.149 -0.7932 -0.7962 -1.0189
  623TIP3    H2 1876   1.804   5.311   2.166 -1.1950 -0.5478  0.7920
  624TIP3   OH2 1877   5.399   4.338   0.541 -0.5929  0.1636 -0.1295
  624TIP3    H1 1878   5.432   4.327   0.452  0.7933 -2.0179  0.5626
  624TIP3    H2 1879   5.473   4.312   0.597 -1.9379 -0.1111  1.6106
  625TIP3   OH2 1880   3.364   3.932   3.073 -0.2940  0.2112 -0.0900
  625TIP3    H1 1881   3.388   4.017   3.111 -1.0852  0.7469 -0.7426
  625TIP3    H2 1882   3.439   3.908   3.018 -0.1840  0.6335 -0.1278
  626TIP3   OH2 1883   5.395   4.433   4.924  0.2221  0.5784  0.1589
  626TIP3    H1 1884   5.378   4.427   4.830  1.1364  1.4937 -0.0977
  626TIP3    H2 1885   5.454   4.360   4.942  0.4704  0.7100 -0.1005
  627TIP3   OH2 1886   1.245   5.600   3.782  0.6727  0.5450 -0.0025
  627TIP3    H1 1887   1.277   5.512   3.764 -2.0436 -0.2919 -1.2096
  627TIP3    H2 1888   1.316   5.657   3.753  1.5085 -1.1778 -1.5539
  628TIP3   OH2 1889   0.411   0.087   2.388 -0.0826  0.2427 -0.1910
  628TIP3    H1 1890   0.443   0.098   2.299 -0.3552 -2.2900 -0.6763
  628TIP3    H2 1891   0.470   0.139   2.442  1.2519  0.3093 -1.6582
  629TIP3   OH2 1892   3.961   5.557   2.316  0.1995  0.4237  0.0297
  629TIP3    H1 1893   3.940   5.565   2.409  1.2224 -1.4178  0.4694
  629TIP3    H2 1894   4.013   5.477   2.310  1.8428  1.5257 -1.8555
  630TIP3   OH2 1895   3.637   4.863   3.853  0.3732  0.2981 -0.5443
  630TIP3    H1 1896   3.686   4.828   3.779  2.1113 -0.3628  0.8783
  630TIP3    H2 1897   3.579   4.792   3.880  0.6137  0.1230 -0.4972
  631TIP3   OH2 1898   5.894   0.218   0.325  0.0152 -0.3410  0.3529
  631TIP3    H1 1899   5.899   0.274   0.248 -0.2387  0.8223  1.1653
  631TIP3    H2 1900   5.812   0.243   0.368  1.5229  1.1117  2.5443
  632TIP3   OH2 1901   2.077   5.257   2.016 -0.6875  0.3913  0.0861
  632TIP3    H1 1902   2.108   5.170   2.043 -0.8395  0.4971  0.6200
  632TIP3    H2 1903   2.005   5.276   2.076 -1.7198  0.2064 -1.0608
  633TIP3   OH2 1904   0.510   1.377   1.628 -0.3146 -0.0561 -0.6298
  633TIP3    H1 1905   0.593   1.355   1.585  0.5078  0.0760  0.8524
  633TIP3    H2 1906   0.521   1.347   1.718 -1.2313  1.5293  0.0366
  634TIP3   OH2 1907   0.626   3.543   2.577 -0.1430 -0.1568 -0.2944
  634TIP3    H1 1908   0.658   3.477   2.638 -2.2944  0.6309  1.8402
  634TIP3    H2 1909   0.682   3.619   2.591  0.7880 -0.6892 -0.9949
  635TIP3   OH2 1910   3.247   3.916   0.971  0.4476  0.3210  0.1655
  635TIP3    H1 1911   3.182   3.940   0.905  1.4093  2.1207 -0.1946
  635TIP3    H2 1912   3.216   3.959   1.051 -0.7038 -1.8372  0.9380
  636TIP3   OH2 1913   0.405   5.234   3.800 -0.2180  0.0876 -0.4114
  636TIP3    H1 1914   0.408   5.226   3.896  0.0186  0.5651 -0.3757
  636TIP3    H2 1915   0.453   5.158   3.768  0.6800  0.5190 -0.1182
  637TIP3   OH2 1916   4.449   4.124   1.527  0.6501 -0.3663  0.3685
  637TIP3    H1 1917   4.430   4.189   1.459  0.4427 -1.0932 -0.2774
  637TIP3    H2 1918   4.444   4.174   1.609 -0.1678  0.2956 -0.0663
  638TIP3   OH2 1919   2.679   5.280   0.816  0.7458 -0.0580  0.1105
  638TIP3    H1 1920   2.672   5.244   0.904  1.7402 -0.0739  0.1955
  638TIP3    H2 1921   2.675   5.375   0.828 -0.7966 -0.0731 -0.0106
  639TIP3   OH2 1922   3.804   2.987   4.266 -0.4253  0.0214 -0.2107
  639TIP3    H1 1923   3.751   2.993   4.187 -1.1944 -0.8307  0.2141
  639TIP3    H2 1924   3.788   3.069   4.312  1.1615  1.1485 -1.6012
  640TIP3   OH2 1925   0.766   2.529   3.600  0.0610  0.3331 -0.2956
  640TIP3    H1 1926   0.739   2.438   3.612 -1.3175  0.3309 -2.7335
  640TIP3    H2 1927   0.685   2.579   3.611  0.2969  0.9983 -1.4482
  641TIP3   OH2 1928   0.287   5.045   0.760 -0.1340 -0.4728 -0.0096
  641TIP3    H1 1929   0.245   5.071   0.678 -0.1676  1.5554  0.5914
  641TIP3    H2 1930   0.217   5.006   0.812 -0.4772 -0.2958 -0.3312
  642TIP3   OH2 1931   6.108   6.009   3.474 -0.3203 -0.2686 -0.8574
  642TIP3    H1 1932   6.169   5.968   3.412  1.1673 -0.1503  0.4676
  642TIP3    H2 1933   6.096   5.943   3.542 -1.5887 -0.2226 -1.0114
  643TIP3   OH2 1934   0.001   5.520   3.487  0.0067 -0.1214 -0.2848
  643TIP3    H1 1935   0.041   5.533   3.574 -0.3770  1.1057 -0.2785
  643TIP3    H2 1936  -0.002   5.608   3.449 -1.7361 -0.3393 -0.7092
  644TIP3   OH2 1937   3.408   0.167   3.127  0.3602  0.4541  0.4381
  644TIP3    H1 1938   3.383   0.222   3.053  1.7424  0.9768  0.3427
  644TIP3    H2 1939   3.481   0.212   3.168 -0.5426  0.3186  2.3213
  645TIP3   OH2 1940   3.407   0.941   0.051 -0.0980  1.3262  0.1097
  645TIP3    H1 1941   3.471   1.013   0.053 -0.4014  1.5795  1.1253
  645TIP3    H2 1942   3.366   0.943   0.137 -0.8081  0.5511 -0.2002
  646TIP3   OH2 1943   0.851   2.104   0.129  0.5778  0.5775 -0.0133
  646TIP3    H1 1944   0.822   2.023   0.170 -2.2590  1.3939 -0.1691
  646TIP3    H2 1945   0.913   2.077   0.061  0.5427 -1.3270  0.6778
  647TIP3   OH2 1946   3.309   0.714   1.305  0.1812 -0.4533  0.2982
  647TIP3    H1 1947   3.246   0.786   1.308  0.3712 -0.3148  1.8074
  647TIP3    H2 1948   3.263   0.643   1.260 -0.2238  0.3780 -0.6613
  648TIP3   OH2 1949   0.662   5.173   4.572  0.6096 -0.6094  0.3592
  648TIP3    H1 1950   0.601   5.242   4.596  0.0364 -0.8553 -0.3582
  648TIP3    H2 1951   0.749   5.208   4.593  0.4014  0.6841 -0.8302
  649TIP3   OH2 1952   0.396   4.759   0.460 -0.9556 -0.5403  0.3040
  649TIP3    H1 1953   0.329   4.815   0.499  0.1280 -0.2238  1.7933
  649TIP3    H2 1954   0.349   4.680   0.433 -2.2471  0.4503 -0.4803
  650TIP3   OH2 1955   3.034   2.835   2.464  0.0368 -0.3015  0.0218
  650TIP3    H1 1956   3.108   2.830   2.525  1.3641  0.7961 -1.4109
  650TIP3    H2 1957   2.965   2.879   2.512  0.7621 -0.1977  0.9845
  651TIP3   OH2 1958   1.410   1.940   2.664 -0.2799 -0.1408  0.3037
  651TIP3    H1 1959   1.418   2.034   2.651 -0.0986 -0.4167 -1.9721
  651TIP3    H2 1960   1.479   1.918   2.727  0.5642  1.0587 -0.1733
  652TIP3   OH2 1961   4.461   1.774   3.052  0.3702 -0.6616 -0.1315
  652TIP3    H1 1962   4.444   1.811   3.138 -2.1551 -1.6213 -0.1431
  652TIP3    H2 1963   4.488   1.684   3.069 -0.9705 -1.1241 -0.3233
  653TIP3   OH2 1964   4.133   3.188   5.034 -0.4030 -0.1495 -0.1868
  653TIP3    H1 1965   4.064   3.122   5.034 -0.4584 -0.2129  2.4547
  653TIP3    H2 1966   4.197   3.156   5.098 -0.5475  2.3989  1.3607
  654TIP3   OH2 1967   1.134   2.490   3.290 -0.3988 -0.1541  0.1080
  654TIP3    H1 1968   1.194   2.545   3.340 -1.2911  0.5455  0.4208
  654TIP3    H2 1969   1.141   2.523   3.200 -0.8167  0.3718  0.2663
  655TIP3   OH2 1970   0.179   1.974   1.394  0.2414 -0.2661  0.3644
  655TIP3    H1 1971   0.136   1.894   1.361  0.9144 -0.3827 -0.2591
  655TIP3    H2 1972   0.194   1.956   1.487  1.0818 -1.2024  0.0730
  656TIP3   OH2 1973   1.114   4.335   1.040 -0.3943  0.0668  0.1066
  656TIP3    H1 1974   1.024   4.368   1.051  0.0358  1.6858 -0.8216
  656TIP3    H2 1975   1.139   4.304   1.127 -1.3740  0.8884  0.7071
  657TIP3   OH2 1976   1.413   3.225   1.751 -0.6605  0.3014  0.3062
  657TIP3    H1 1977   1.486   3.178   1.791 -0.0770  0.9750  0.0567
  657TIP3    H2 1978   1.440   3.239   1.660 -0.9022  0.9498  0.3286
  658TIP3   OH2 1979   5.242   4.490   1.471 -0.1616 -0.0229 -0.4267
  658TIP3    H1 1980   5.223   4.501   1.564 -0.5306 -1.1956 -0.3447
  658TIP3    H2 1981   5.161   4.515   1.426 -0.7537 -1.5653 -0.2835
  659TIP3   OH2 1982   5.611   0.572   2.876 -0.5952 -0.0416 -0.6029
  659TIP3    H1 1983   5.685   0.511   2.885 -1.6632 -1.1451  1.3347
  659TIP3    H2 1984   5.564   0.541   2.798  0.6871  0.3872 -1.5838
  660TIP3   OH2 1985   5.031   3.626   5.027 -0.5014 -0.1326 -0.2053
  660TIP3    H1 1986   4.995   3.714   5.040  0.3795  0.1125  0.6867
  660TIP3    H2 1987   4.974   3.587   4.960 -1.4100  0.8144 -0.0220
  661TIP3   OH2 1988   4.141   3.122   4.251  0.2397  0.2569 -0.2527
  661TIP3    H1 1989   4.204   3.172   4.200  1.1739 -0.0718  0.5437
  661TIP3    H2 1990   4.194   3.068   4.310 -0.7819  0.1090  0.5780
  662TIP3   OH2 1991   3.599   6.000   1.588  0.0865 -0.2969 -0.1411
  662TIP3    H1 1992   3.668   6.013   1.653 -0.4749 -1.1319  0.6487
  662TIP3    H2 1993   3.560   5.915   1.610  0.1610 -0.8099 -1.8397
  663TIP3   OH2 1994   2.685   1.099   3.412 -0.3355 -0.1615 -0.6962
  663TIP3    H1 1995   2.764   1.067   3.367  0.9675  1.8584 -0.0142
  663TIP3    H2 1996   2.670   1.035   3.482  0.2318 -0.9864 -1.2976
  664TIP3   OH2 1997   4.933   1.321   2.601  0.1549  0.9643 -0.3649
  664TIP3    H1 1998   5.017   1.332   2.644 -0.3251  0.1574  0.8503
  664TIP3    H2 1999   4.902   1.235   2.631 -0.4996  0.6538 -1.8389
  665TIP3   OH2 2000   2.918   3.300   1.393  0.0511 -0.7362 -0.0492
  665TIP3    H1 2001   2.941   3.383   1.434  0.7723  1.6439 -4.5926
  665TIP3    H2 2002   2.827   3.285   1.418 -0.1899  1.6184  0.6808
  666TIP3   OH2 2003   5.077   5.748   4.551  0.4149  0.2972  0.5416
  666TIP3    H1 2004   5.128   5.823   4.522  1.8510 -0.8063  0.1424
  666TIP3    H2 2005   5.105   5.733   4.641  0.2416  0.1462  0.5719
  667TIP3   OH2 2006   4.034   4.809   4.795 -0.8903  0.3534  0.7196
  667TIP3    H1 2007   4.090   4.826   4.870  1.3130 -0.2555 -0.6885
  667TIP3    H2 2008   4.054   4.879   4.733 -0.8842 -0.4467 -0.2179
  668TIP3   OH2 2009   4.143   3.102   3.533  0.0187  0.1528 -0.2808
  668TIP3    H1 2010   4.063   3.053   3.513 -0.4862  1.4327 -1.5645
  668TIP3    H2 2011   4.213   3.053   3.490 -0.4658  0.4818 -1.4777
  669TIP3   OH2 2012   0.723   1.940   4.561 -0.0521  0.0719 -0.0100
  669TIP3    H1 2013   0.682   1.889   4.491  1.9699  1.0491 -2.0249
  669TIP3    H2 2014   0.663   2.013   4.576 -0.7804 -0.4490 -0.3078
  670TIP3   OH2 2015   4.414   1.013   2.445 -0.0106 -0.4397  0.2897
  670TIP3    H1 2016   4.383   0.983   2.531  1.5171  0.8804  1.3559
  670TIP3    H2 2017   4.334   1.028   2.395 -0.9406 -1.2871  1.4525
  671TIP3   OH2 2018   3.669   5.269   0.254  0.4817 -0.7990 -0.2303
  671TIP3    H1 2019   3.742   5.207   0.246 -0.0303 -1.4385 -0.1101
  671TIP3    H2 2020   3.656   5.278   0.348  1.4352  0.5768 -0.2119
  672TIP3   OH2 2021   2.396   1.835   3.959 -0.1401 -0.0709 -0.3087
  672TIP3    H1 2022   2.363   1.838   3.870 -0.9679  3.8310 -0.0652
  672TIP3    H2 2023   2.318   1.836   4.014  0.2768  2.1031  0.3419
  673TIP3   OH2 2024   3.936   0.458   1.211  0.2022 -0.2931  0.3179
  673TIP3    H1 2025   3.881   0.486   1.138  1.6500 -0.5631 -0.9128
  673TIP3    H2 2026   3.929   0.530   1.275 -1.5546 -0.3304  0.2171
  674TIP3   OH2 2027   1.893   4.656   2.098 -0.5961  0.1445 -0.4532
  674TIP3    H1 2028   1.916   4.742   2.064 -1.9125  0.7131  0.0269
  674TIP3    H2 2029   1.907   4.662   2.192  2.4046 -1.2240 -0.7058
  675TIP3   OH2 2030   1.502   2.299   3.362  1.2207 -0.0855  1.0426
  675TIP3    H1 2031   1.518   2.345   3.280 -0.3739 -0.9218  0.2041
  675TIP3    H2 2032   1.585   2.305   3.410  2.1740  0.4722 -0.5944
  676TIP3   OH2 2033   0.208   5.749   2.997  0.4379 -0.1684 -0.3547
  676TIP3    H1 2034   0.183   5.715   2.911 -0.6662  0.2109 -0.1854
  676TIP3    H2 2035   0.304   5.748   2.995  0.4351 -1.1479 -1.1954
  677TIP3   OH2 2036   1.045   1.050   3.232  0.0360  0.0414  0.4264
  677TIP3    H1 2037   1.123   1.030   3.181 -0.4850  1.0908 -0.8638
  677TIP3    H2 2038   1.020   0.967   3.273  0.2104 -0.9839 -1.4336
  678TIP3   OH2 2039   6.250   4.655   3.230  0.6324  0.3477  0.4185
  678TIP3    H1 2040   6.313   4.592   3.195  0.3312 -0.7339  1.7797
  678TIP3    H2 2041   6.173   4.646   3.174  0.8194 -0.0219  0.2179
  679TIP3   OH2 2042   5.887   5.955   5.136  0.2918  0.5912 -0.2786
  679TIP3    H1 2043   5.831   5.946   5.213 -0.1993  0.5894 -0.6260
  679TIP3    H2 2044   5.951   5.884   5.144  0.1273  0.4758  0.0302
  680TIP3   OH2 2045   4.169   1.060   1.598  0.3818  0.3062  0.3914
  680TIP3    H1 2046   4.103   1.060   1.668  0.2173 -2.0093  0.3420
  680TIP3    H2 2047   4.229   1.131   1.620 -2.1330  2.5920  0.3865
  681TIP3   OH2 2048   5.003   2.959   4.157 -0.2879 -0.4539 -0.2180
  681TIP3    H1 2049   4.936   2.911   4.109 -1.4262  0.2437  0.6155
  681TIP3    H2 2050   5.064   2.892   4.188 -1.7929 -1.3820  0.8520
  682TIP3   OH2 2051   5.266   4.907   4.076 -0.8061  0.1058  0.3233
  682TIP3    H1 2052   5.361   4.919   4.076 -0.9380  1.3699  0.8880
  682TIP3    H2 2053   5.233   4.981   4.025 -1.5102 -0.0285  0.5802
  683TIP3   OH2 2054   6.238   1.977   4.698 -0.3850  0.8205  0.2119
  683TIP3    H1 2055   6.269   1.965   4.788  0.1448  1.9511  0.2022
  683TIP3    H2 2056   6.299   1.925   4.645 -0.7333  0.1023  0.4974
  684TIP3   OH2 2057   1.271   2.896   4.882 -0.0806  0.8191 -0.1285
  684TIP3    H1 2058   1.178   2.877   4.895  0.5877 -2.4104  1.0428
  684TIP3    H2 2059   1.285   2.884   4.788 -0.7256  0.5746 -0.1963
  685TIP3   OH2 2060   5.143  -0.004   1.907  0.6286 -0.5319  0.3123
  685TIP3    H1 2061   5.100  -0.027   1.990 -0.6861  2.3537  0.5689
  685TIP3    H2 2062   5.184   0.080   1.924  0.1089  0.2721 -2.0038
  686TIP3   OH2 2063   3.860   1.097   1.394  0.2710  0.0653  0.1956
  686TIP3    H1 2064   3.937   1.141   1.432  0.1950 -0.8724  1.5090
  686TIP3    H2 2065   3.840   1.148   1.316  1.4582  1.0944  0.5209
  687TIP3   OH2 2066   0.826   4.142   2.810  0.2110  0.1889 -0.7969
  687TIP3    H1 2067   0.809   4.057   2.769  0.4529  0.1230 -0.7631
  687TIP3    H2 2068   0.803   4.206   2.743 -2.8310  0.2353  0.1102
  688TIP3   OH2 2069   0.974   3.214   2.321 -0.3592 -0.2294  0.4990
  688TIP3    H1 2070   1.068   3.204   2.329 -0.7323 -2.4423  4.1925
  688TIP3    H2 2071   0.948   3.269   2.394 -2.0713 -1.0590  0.5863
  689TIP3   OH2 2072   1.317   3.223   0.166  0.3270 -0.3628  0.7859
  689TIP3    H1 2073   1.330   3.317   0.158  0.2349 -0.3810  0.4134
  689TIP3    H2 2074   1.225   3.212   0.187  0.0658 -0.4273 -0.3522
  690TIP3   OH2 2075   2.469   3.545   0.579 -0.4074  0.4123 -0.0744
  690TIP3    H1 2076   2.513   3.486   0.640 -1.7525 -0.3815  0.1849
  690TIP3    H2 2077   2.534   3.611   0.557  0.9144 -0.7580  0.2037
  691TIP3   OH2 2078   0.796   1.573   1.602 -0.4398  0.7769 -0.2278
  691TIP3    H1 2079   0.764   1.485   1.581 -1.8443  1.0947  0.4514
  691TIP3    H2 2080   0.887   1.560   1.629 -1.1259 -0.7407  1.5729
  692TIP3   OH2 2081   2.011   4.683   4.385 -0.2185  0.0553  0.5034
  692TIP3    H1 2082   1.916   4.692   4.377 -0.3005 -1.8095 -1.2588
  692TIP3    H2 2083   2.041   4.771   4.408 -2.2419  1.0063 -0.2624
  693TIP3   OH2 2084   5.933   5.535   0.190 -0.3247 -0.0552 -0.1092
  693TIP3    H1 2085   5.859   5.475   0.190 -0.7953  0.5129  0.2311
  693TIP3    H2 2086   5.897   5.617   0.224  0.6638 -0.0161  0.9004
  694TIP3   OH2 2087   6.301   2.940   3.393 -0.5799  0.3370 -0.0037
  694TIP3    H1 2088   6.276   2.848   3.387  1.9824 -0.4100 -0.0235
  694TIP3    H2 2089   6.395   2.940   3.410  0.0371  2.9431 -2.4541
  695TIP3   OH2 2090   6.071   4.605   3.011 -0.5175  0.5972  0.1505
  695TIP3    H1 2091   6.081   4.686   2.960 -1.1237 -0.9708 -2.6956
  695TIP3    H2 2092   5.983   4.610   3.047 -0.7118  1.0092 -0.3762
  696TIP3   OH2 2093   4.159   0.921   0.883 -0.9675  0.2167  0.9314
  696TIP3    H1 2094   4.165   0.960   0.970 -1.5502  1.4502  0.4364
  696TIP3    H2 2095   4.221   0.848   0.885  1.8176  2.4595  1.2137
  697TIP3   OH2 2096   1.868   5.658   1.259 -0.0038  0.0562 -0.2079
  697TIP3    H1 2097   1.936   5.603   1.219  2.4481  2.8849 -0.2489
  697TIP3    H2 2098   1.913   5.705   1.329 -2.2718  1.1755  0.5922
  698TIP3   OH2 2099   1.075   1.063   0.538 -0.0957 -0.1985 -0.9030
  698TIP3    H1 2100   1.133   1.139   0.531 -0.6719  0.5158  1.2975
  698TIP3    H2 2101   0.994   1.090   0.494  0.0769  0.0637 -1.0599
  699TIP3   OH2 2102   0.863   1.730   3.944 -0.5399  0.3671 -0.2920
  699TIP3    H1 2103   0.827   1.802   3.892  1.6887  1.5268 -0.3366
  699TIP3    H2 2104   0.957   1.736   3.931 -0.1885 -1.6140  0.9779
  700TIP3   OH2 2105   5.629   5.252   3.807 -0.4003  0.5547  0.5379
  700TIP3    H1 2106   5.595   5.193   3.874 -0.2284  0.9697  0.9972
  700TIP3    H2 2107   5.581   5.333   3.820 -0.0191  0.7917  0.4761
  701TIP3   OH2 2108   3.472   2.284   4.770  0.0387  0.3078 -0.2426
  701TIP3    H1 2109   3.485   2.191   4.748 -0.2780 -0.0985  1.2241
  701TIP3    H2 2110   3.560   2.322   4.764 -0.0065  0.2312 -2.1012
  702TIP3   OH2 2111   3.288   3.057   0.938 -0.4649  0.1036  0.2811
  702TIP3    H1 2112   3.377   3.082   0.961 -0.3003  0.0418 -0.2734
  702TIP3    H2 2113   3.258   3.126   0.878 -0.7715  0.0986  0.4257
  703TIP3   OH2 2114   4.209   0.983   1.144  0.5781 -0.2713  0.6257
  703TIP3    H1 2115   4.248   0.976   1.231  0.5416 -1.2205  0.5737
  703TIP3    H2 2116   4.159   1.065   1.146  0.3178 -0.4477  1.5975
  704TIP3   OH2 2117   4.832   3.656   1.537 -0.2353 -0.2033  0.2545
  704TIP3    H1 2118   4.814   3.641   1.444  0.1156 -0.6885  0.2651
  704TIP3    H2 2119   4.920   3.693   1.538  0.0235 -0.8258  0.4445
  705TIP3   OH2 2120   2.334   3.282   4.051 -0.0888 -0.4703  0.6054
  705TIP3    H1 2121   2.428   3.275   4.037 -0.3501 -1.3559 -1.0107
  705TIP3    H2 2122   2.308   3.195   4.082 -0.2660  0.0423  1.9775
  706TIP3   OH2 2123   0.399   1.610   3.086  0.0643  0.0052 -0.0713
  706TIP3    H1 2124   0.394   1.515   3.097 -2.1358 -0.0048 -0.7221
  706TIP3    H2 2125   0.467   1.623   3.021 -0.0875 -1.1725 -0.4931
  707TIP3   OH2 2126   0.787   3.455   0.819 -0.2320 -0.1260 -0.2688
  707TIP3    H1 2127   0.717   3.454   0.755  0.0929 -0.8643 -0.6129
  707TIP3    H2 2128   0.784   3.369   0.860  0.4524 -0.1549 -0.2694
  708TIP3   OH2 2129   1.994   4.943   4.772 -0.2323 -0.3355 -0.0045
  708TIP3    H1 2130   2.074   4.909   4.733  1.6141  3.1067  0.3856
  708TIP3    H2 2131   1.980   4.890   4.851  0.3620 -2.3693 -1.2066
  709TIP3   OH2 2132   0.841   5.453   2.693  0.1720 -0.1368  0.2341
  709TIP3    H1 2133   0.816   5.361   2.702  1.5340 -0.6288 -0.5339
  709TIP3    H2 2134   0.928   5.458   2.732  0.3747  0.6765 -0.2885
  710TIP3   OH2 2135   1.853   1.435   3.838  0.0734  0.2196  0.2715
  710TIP3    H1 2136   1.787   1.365   3.839  0.5870 -0.2702  1.3917
  710TIP3    H2 2137   1.918   1.406   3.774 -0.2278  0.1534 -0.0028
  711TIP3   OH2 2138   4.347   1.015   1.962 -0.5278 -0.2000  0.0581
  711TIP3    H1 2139   4.433   1.049   1.985  0.1392  0.5841 -3.1298
  711TIP3    H2 2140   4.349   0.923   1.991  0.2708  0.5108  2.4743
  712TIP3   OH2 2141   0.803   3.654   3.152  0.8424  0.1067  0.1908
  712TIP3    H1 2142   0.806   3.668   3.246  1.2375 -0.0508  0.2025
  712TIP3    H2 2143   0.737   3.716   3.121  1.3570  0.7982  0.4573
  713TIP3   OH2 2144   0.027   2.577   3.716  0.6038 -0.4178  0.3141
  713TIP3    H1 2145   0.020   2.508   3.782  1.4014 -0.6020  0.2217
  713TIP3    H2 2146   0.001   2.657   3.762  0.7855 -0.6034  0.7451
  714TIP3   OH2 2147   5.604   5.762   5.035 -0.0102  0.4369  0.4069
  714TIP3    H1 2148   5.546   5.772   5.110  3.0432 -0.2119  3.0981
  714TIP3    H2 2149   5.657   5.841   5.035 -0.6212  0.9129 -1.8128
  715TIP3   OH2 2150   1.673   2.435   5.095  0.0116  0.2074 -0.4629
  715TIP3    H1 2151   1.642   2.375   5.026  1.9543 -2.2480  0.6144
  715TIP3    H2 2152   1.732   2.495   5.049 -2.4148  1.7881 -1.6746
  716TIP3   OH2 2153   6.285   4.302   2.357  0.8163 -0.3378 -0.2213
  716TIP3    H1 2154   6.368   4.321   2.400 -0.2680  0.3263  1.6804
  716TIP3    H2 2155   6.272   4.375   2.297  0.4148  0.9314  1.3520
  717TIP3   OH2 2156   4.847   2.521   4.594  0.0538 -0.0280  0.8991
  717TIP3    H1 2157   4.756   2.550   4.604 -0.3694 -0.7265 -0.5413
  717TIP3    H2 2158   4.839   2.431   4.561  1.2331  0.5045 -0.9743
  718TIP3   OH2 2159   1.583   1.019   2.980 -0.2838 -0.6398  0.5052
  718TIP3    H1 2160   1.570   0.926   2.963 -0.1050 -0.6372  0.3533
  718TIP3    H2 2161   1.501   1.060   2.954 -0.1587 -0.6863  0.0280
  719TIP3   OH2 2162   2.714   5.410   1.704 -0.9589  0.4915 -0.0663
  719TIP3    H1 2163   2.626   5.446   1.711 -1.4140 -0.8346  1.7001
  719TIP3    H2 2164   2.701   5.322   1.667 -0.8387 -1.0362  3.2016
  720TIP3   OH2 2165   3.029   2.138   4.944  0.0680 -0.2258  0.3515
  720TIP3    H1 2166   2.992   2.090   4.870  2.7625 -0.5475 -0.9093
  720TIP3    H2 2167   3.011   2.229   4.924 -0.9400 -0.4229  0.3159
  721TIP3   OH2 2168   3.530   5.069   1.714  0.3563 -0.0858  0.0961
  721TIP3    H1 2169   3.472   5.122   1.769  2.4363  1.3494  1.0609
  721TIP3    H2 2170   3.548   4.991   1.768 -1.2862 -1.0051 -0.5868
  722TIP3   OH2 2171   0.091   3.488   2.028  0.4792  0.0007  0.3267
  722TIP3    H1 2172   0.061   3.420   1.968  0.5299  0.6669 -0.4653
  722TIP3    H2 2173   0.187   3.485   2.021  0.4628  0.6394 -0.2725
  723TIP3   OH2 2174   3.102   0.736   4.898  0.0904  0.7348  0.3430
  723TIP3    H1 2175   3.173   0.671   4.898  0.1076  0.7082 -1.5734
  723TIP3    H2 2176   3.024   0.686   4.922  0.6985  0.8097  2.7079
  724TIP3   OH2 2177   0.337   2.471   1.162  0.5620 -0.1167 -0.3620
  724TIP3    H1 2178   0.316   2.434   1.076  1.4375  1.0338 -1.0968
  724TIP3    H2 2179   0.280   2.546   1.171  2.3884  1.4631 -1.2292
  725TIP3   OH2 2180   5.092   0.614   1.900 -0.1206  0.2613 -0.2572
  725TIP3    H1 2181   5.048   0.694   1.927  0.8689  1.1701 -1.2448
  725TIP3    H2 2182   5.100   0.563   1.981 -1.0832  0.9822  0.3219
  726TIP3   OH2 2183   3.998   5.910   1.778 -0.1425  0.1665  0.0951
  726TIP3    H1 2184   4.072   5.948   1.825  0.8482 -0.2405 -1.0724
  726TIP3    H2 2185   4.023   5.819   1.763  0.4497  0.7053 -2.7727
  727TIP3   OH2 2186   0.744   2.910   0.997 -0.1255 -0.1834  0.3079
  727TIP3    H1 2187   0.799   2.831   0.999 -2.7566 -2.1291  1.5533
  727TIP3    H2 2188   0.746   2.942   1.087 -0.8760 -0.1734  0.3241
  728TIP3   OH2 2189   0.356   0.089   0.974 -0.4852 -0.6286 -0.2972
  728TIP3    H1 2190   0.320   0.176   0.960 -1.0908 -1.0741 -1.6762
  728TIP3    H2 2191   0.412   0.073   0.898  1.2173 -0.6774  0.9217
  729TIP3   OH2 2192   0.522   2.845   4.140 -0.3357 -0.1494 -0.4541
  729TIP3    H1 2193   0.455   2.901   4.101  0.7741 -0.2624 -2.6621
  729TIP3    H2 2194   0.560   2.798   4.066  2.5460  0.2642  0.6506
  730TIP3   OH2 2195   1.046   3.325   0.053  0.0434 -0.4796 -0.0427
  730TIP3    H1 2196   1.035   3.233   0.026 -0.1638 -0.1749 -1.0434
  730TIP3    H2 2197   1.097   3.364  -0.017  0.5387  0.0664  0.6181
  731TIP3   OH2 2198   2.086   3.147   4.637  0.2631 -0.5283 -0.0420
  731TIP3    H1 2199   2.131   3.232   4.632 -0.3393 -0.2621 -1.7792
  731TIP3    H2 2200   1.994   3.169   4.651  0.3930 -1.0106  1.7992
  732TIP3   OH2 2201   2.897   0.421   4.206 -0.0403  0.4195 -0.1708
  732TIP3    H1 2202   2.842   0.494   4.233  0.8536  1.5440 -1.2467
  732TIP3    H2 2203   2.934   0.387   4.287  0.4673  1.9474  0.2770
  733TIP3   OH2 2204   5.816   1.800   0.461  0.3231  0.4570 -0.3993
  733TIP3    H1 2205   5.752   1.844   0.517  0.0738 -0.6922  0.2566
  733TIP3    H2 2206   5.853   1.870   0.408 -1.4220  1.1759 -0.7479
  734TIP3   OH2 2207   5.969   0.084   3.196  0.0751 -0.1609  0.2561
  734TIP3    H1 2208   5.975   0.176   3.223 -4.0790  0.2674  0.3486
  734TIP3    H2 2209   5.992   0.035   3.275 -3.5229  1.0212  2.3080
  735TIP3   OH2 2210   0.192   4.472   0.083 -0.3635  0.6526 -0.4378
  735TIP3    H1 2211   0.106   4.435   0.063  0.3561 -0.7092 -1.1001
  735TIP3    H2 2212   0.252   4.430   0.021  1.2099 -0.3075  1.6069
  736TIP3   OH2 2213   1.287   1.550   2.390  0.4445 -0.4545  0.1752
  736TIP3    H1 2214   1.353   1.590   2.332 -0.9118  1.3400 -0.2241
  736TIP3    H2 2215   1.233   1.623   2.418 -1.2144 -1.8383  0.7228
  737TIP3   OH2 2216   5.946   0.776   0.316 -0.4831 -0.3860 -0.2786
  737TIP3    H1 2217   6.010   0.818   0.373  1.6655  0.5108 -3.1270
  737TIP3    H2 2218   5.881   0.844   0.299  0.0921  0.0791 -0.6586
  738TIP3   OH2 2219   1.679   4.553   0.173  0.2877 -0.4260  0.2996
  738TIP3    H1 2220   1.591   4.545   0.136 -0.0671  0.4852  0.8902
  738TIP3    H2 2221   1.678   4.496   0.250  0.0855 -0.1176  0.5257
  739TIP3   OH2 2222   5.464   4.740   3.735  0.2314  0.1222  0.3573
  739TIP3    H1 2223   5.530   4.802   3.705  0.0973 -0.1075 -0.4336
  739TIP3    H2 2224   5.502   4.654   3.716 -0.9160 -0.0209 -1.5832
  740TIP3   OH2 2225   1.806   3.094   3.162  0.5066  0.6700 -0.3308
  740TIP3    H1 2226   1.833   3.027   3.224  1.2834  0.1013 -1.2514
  740TIP3    H2 2227   1.726   3.060   3.122  0.1442  0.9243  0.1665
  741TIP3   OH2 2228   4.677   5.551   3.842  0.3059 -0.1060  0.2968
  741TIP3    H1 2229   4.611   5.619   3.830  0.8285  0.3489 -0.0750
  741TIP3    H2 2230   4.745   5.594   3.895 -0.0477 -0.8040  1.3575
  742TIP3   OH2 2231   0.518   3.026   3.707  0.3472 -0.0939 -0.2425
  742TIP3    H1 2232   0.468   3.093   3.754  0.3668 -1.0088  1.1593
  742TIP3    H2 2233   0.575   3.075   3.649  0.2882  1.1064  0.6603
  743TIP3   OH2 2234   3.485   2.554   0.732 -0.2973 -0.1392  0.0393
  743TIP3    H1 2235   3.482   2.630   0.673 -1.2884  0.6364  1.0409
  743TIP3    H2 2236   3.403   2.507   0.716 -0.3877 -0.1453  0.5000
  744TIP3   OH2 2237   4.942   4.574   1.394  0.1300  0.1785 -0.0025
  744TIP3    H1 2238   4.884   4.506   1.428  0.7435 -0.5314 -0.3594
  744TIP3    H2 2239   4.979   4.536   1.314  0.0817  1.1318 -0.4997
  745TIP3   OH2 2240   4.231   4.768   1.657  0.2299 -0.5023  0.2082
  745TIP3    H1 2241   4.231   4.863   1.654  0.8754 -0.5280 -1.4246
  745TIP3    H2 2242   4.171   4.746   1.729 -1.5057  1.1066 -0.6616
  746TIP3   OH2 2243   5.056   1.009   0.643  0.1119 -0.1184  0.2372
  746TIP3    H1 2244   4.998   1.078   0.676  0.2258 -0.2360  0.6968
  746TIP3    H2 2245   5.092   1.044   0.562  0.4943  0.5454  0.6767
  747TIP3   OH2 2246   4.160   5.157   4.672 -0.5260  0.0808 -0.3709
  747TIP3    H1 2247   4.099   5.097   4.630 -0.3945 -1.6408  1.6965
  747TIP3    H2 2248   4.109   5.199   4.741 -0.1938  1.2071 -0.7796
  748TIP3   OH2 2249   0.830   3.028   1.968  0.0806  0.3433 -0.2629
  748TIP3    H1 2250   0.774   2.985   1.904 -1.6611  0.1811  1.2710
  748TIP3    H2 2251   0.838   2.964   2.039 -0.8803  1.7311  1.1599
  749TIP3   OH2 2252   5.173   2.973   0.044  0.6081  0.6620  0.4219
  749TIP3    H1 2253   5.078   2.974   0.050  0.5484 -1.3335  0.4795
  749TIP3    H2 2254   5.197   3.063   0.022 -1.2204  1.3744  1.1419
  750TIP3   OH2 2255   0.176   0.670   4.792 -0.0516  0.0162 -0.5833
  750TIP3    H1 2256   0.245   0.668   4.859 -1.1879 -1.3901  0.5968
  750TIP3    H2 2257   0.100   0.706   4.836 -0.9107 -1.2145 -0.9932
  751TIP3   OH2 2258   4.574   5.128   1.931  0.2581 -0.0292  0.0137
  751TIP3    H1 2259   4.623   5.102   2.008  0.4122  0.0524 -0.0554
  751TIP3    H2 2260   4.496   5.073   1.931 -0.6992  1.2460  1.2685
  752TIP3   OH2 2261   5.534   3.800   2.717  0.6199 -0.2120  0.1975
  752TIP3    H1 2262   5.628   3.781   2.722  0.5999 -0.3804 -0.0947
  752TIP3    H2 2263   5.516   3.850   2.797  1.0861  0.3706 -0.0501
  753TIP3   OH2 2264   0.547   3.173   1.038 -0.0625 -0.1611 -0.4771
  753TIP3    H1 2265   0.528   3.114   1.111  0.0041 -0.9157 -1.0482
  753TIP3    H2 2266   0.605   3.239   1.075 -2.0988  1.0129  0.8045
  754TIP3   OH2 2267   6.021   1.613   3.428  0.4482  0.6693 -0.4255
  754TIP3    H1 2268   6.088   1.681   3.427 -0.0560  1.2283 -3.2857
  754TIP3    H2 2269   5.946   1.652   3.382 -1.1254 -0.6607  0.8608
  755TIP3   OH2 2270   1.784   5.246   0.572  0.6031  0.2287 -0.2435
  755TIP3    H1 2271   1.850   5.179   0.591  0.2722 -0.3118 -0.9411
  755TIP3    H2 2272   1.704   5.196   0.557 -0.7737  0.9928  3.6071
  756TIP3   OH2 2273   2.597   5.347   0.547  0.0492  0.0695  0.3461
  756TIP3    H1 2274   2.645   5.427   0.569  0.3979 -0.3309  1.0400
  756TIP3    H2 2275   2.555   5.321   0.629  0.5123 -0.8539  0.2909
  757TIP3   OH2 2276   1.915   1.946   2.344 -0.1136 -0.2428 -0.8449
  757TIP3    H1 2277   1.831   1.906   2.362  1.1635 -2.4070  0.7534
  757TIP3    H2 2278   1.955   1.958   2.430  2.5117 -2.3793 -1.6289
  758TIP3   OH2 2279   5.063   4.737   4.046  0.4202  0.0033  0.5059
  758TIP3    H1 2280   5.008   4.793   3.990  0.3592 -1.5151 -1.0399
  758TIP3    H2 2281   5.142   4.789   4.061 -0.7765  1.6157  1.4953
  759TIP3   OH2 2282   1.504   2.715   2.056 -0.2560 -0.9507  0.1758
  759TIP3    H1 2283   1.493   2.656   1.982  0.7367 -0.4650 -0.3726
  759TIP3    H2 2284   1.596   2.707   2.080  0.2193  1.2774 -0.7049
  760TIP3   OH2 2285   2.419   1.474   0.634  0.2535 -0.4027  0.0299
  760TIP3    H1 2286   2.496   1.517   0.597 -0.2111  0.6988  0.3010
  760TIP3    H2 2287   2.431   1.381   0.613  1.5245 -0.2189 -0.1490
  761TIP3   OH2 2288   6.290   1.657   3.495 -0.2048 -0.2885  0.2223
  761TIP3    H1 2289   6.242   1.589   3.542  0.2119 -0.0147  1.0697
  761TIP3    H2 2290   6.341   1.701   3.563 -0.4507  0.8578 -0.3075
  762TIP3   OH2 2291   5.432   2.246   2.661 -0.2828  0.1517 -0.0703
  762TIP3    H1 2292   5.407   2.290   2.580 -0.3390 -0.7361 -0.5464
  762TIP3    H2 2293   5.368   2.175   2.671  0.4666 -0.5268  0.0752
  763TIP3   OH2 2294   0.416   3.480   0.318 -0.3256  0.0705  0.5992
  763TIP3    H1 2295   0.478   3.519   0.379  0.3205 -0.0183  0.0103
  763TIP3    H2 2296   0.336   3.531   0.330 -0.4804 -0.4849  2.1145
  764TIP3   OH2 2297   3.653   2.058   1.953 -0.3832  0.0295 -0.1073
  764TIP3    H1 2298   3.566   2.094   1.935 -0.2410  1.0061  1.0255
  764TIP3    H2 2299   3.701   2.070   1.871 -0.9900  0.5044 -0.4056
  765TIP3   OH2 2300   3.861   1.268   2.452 -0.9753  0.6652 -0.4722
  765TIP3    H1 2301   3.942   1.295   2.409 -0.3313 -0.6688 -0.1568
  765TIP3    H2 2302   3.869   1.300   2.542 -1.7322  2.2919 -0.9376
  766TIP3   OH2 2303   1.252   5.876   3.443 -0.3787 -0.3659  0.0226
  766TIP3    H1 2304   1.188   5.875   3.514 -0.5567 -1.1780 -0.1313
  766TIP3    H2 2305   1.325   5.928   3.476 -0.9099  0.1574  0.3865
  767TIP3   OH2 2306   2.575   1.328   2.926 -0.3488 -0.2652  0.3838
  767TIP3    H1 2307   2.640   1.259   2.920 -1.2346 -1.1034  0.2271
  767TIP3    H2 2308   2.509   1.306   2.859  0.6748  2.1900 -1.5965
  768TIP3   OH2 2309   1.676   5.316   1.050 -0.0618  0.2257  0.5568
  768TIP3    H1 2310   1.641   5.287   0.965  0.3275  0.6578  0.2417
  768TIP3    H2 2311   1.602   5.310   1.109 -0.2898 -0.2759  0.2330
  769TIP3   OH2 2312   0.507   3.015   1.280  0.3866  0.0926 -0.1953
  769TIP3    H1 2313   0.603   3.024   1.284  1.0403 -4.2851 -0.4627
  769TIP3    H2 2314   0.482   2.993   1.370 -0.0465 -0.6698 -0.4974
  770TIP3   OH2 2315   5.508   5.064   4.204  0.0399  0.4650  0.2104
  770TIP3    H1 2316   5.430   5.105   4.242 -0.5226  0.4805 -0.9389
  770TIP3    H2 2317   5.576   5.131   4.211 -0.7871  1.5147 -1.3653
  771TIP3   OH2 2318   4.636   2.544   0.378 -0.3884 -0.0831 -0.1631
  771TIP3    H1 2319   4.543   2.549   0.354 -0.1063 -0.8076 -1.5397
  771TIP3    H2 2320   4.680   2.596   0.311  0.1156  1.3999  1.2529
  772TIP3   OH2 2321   2.008   3.907   3.726 -0.0417  0.3299 -0.0843
  772TIP3    H1 2322   2.016   3.883   3.818  2.0823  1.4621  0.0749
  772TIP3    H2 2323   1.947   3.981   3.725 -0.5309 -0.0653  0.3322
  773TIP3   OH2 2324   0.640   2.585   4.331 -0.0876 -0.0631  0.0034
  773TIP3    H1 2325   0.695   2.626   4.398  0.0804 -1.0439  0.4920
  773TIP3    H2 2326   0.671   2.622   4.248 -1.4429  2.4664  0.5488
  774TIP3   OH2 2327   3.633   5.369   2.179  0.4944 -0.4871  0.6284
  774TIP3    H1 2328   3.637   5.330   2.266 -0.3617 -0.4597  0.6861
  774TIP3    H2 2329   3.558   5.427   2.182 -0.8750 -2.0763 -0.7539
  775TIP3   OH2 2330   6.233   1.963   4.228 -0.0058  0.2882  0.0745
  775TIP3    H1 2331   6.168   1.902   4.193  0.2681 -0.4623  0.8473
  775TIP3    H2 2332   6.198   1.991   4.312  0.7810 -0.3541  0.6394
  776TIP3   OH2 2333   2.757   5.919   4.821 -0.1394  0.0600  0.0394
  776TIP3    H1 2334   2.675   5.955   4.853 -0.1863 -0.4163  0.4593
  776TIP3    H2 2335   2.786   5.982   4.754 -0.8220  0.2423 -0.0900
  777TIP3   OH2 2336   4.814   1.841   2.507  0.2127  0.0430 -0.3420
  777TIP3    H1 2337   4.813   1.854   2.601  0.7537  1.6316 -0.5250
  777TIP3    H2 2338   4.906   1.849   2.482 -0.0844  1.0674 -1.1710
  778TIP3   OH2 2339   3.029   3.207   2.440 -0.3154  0.3899 -0.0001
  778TIP3    H1 2340   3.072   3.225   2.524 -0.0348 -0.7583  0.1114
  778TIP3    H2 2341   2.959   3.146   2.460 -1.2806  1.3417 -0.3730
  779TIP3   OH2 2342   4.930   5.684   0.940 -0.1008 -0.2876  0.0599
  779TIP3    H1 2343   4.860   5.741   0.971 -1.3541 -1.0748 -1.2193
  779TIP3    H2 2344   4.902   5.656   0.853  1.4181 -1.2937 -0.1456
  780TIP3   OH2 2345   2.504   2.732   2.768  0.1941 -0.5423  0.2668
  780TIP3    H1 2346   2.522   2.824   2.748 -1.5487  0.0068  1.0127
  780TIP3    H2 2347   2.431   2.735   2.830  0.7312 -2.4062  1.0697
  781TIP3   OH2 2348   4.466   4.592   2.971  0.3227 -0.1120 -0.4120
  781TIP3    H1 2349   4.401   4.536   2.928  0.7539 -0.1577 -1.0238
  781TIP3    H2 2350   4.550   4.550   2.952  0.6060  0.4381 -0.4012
  782TIP3   OH2 2351   1.423   3.950   2.791 -0.2660 -0.0774  0.0608
  782TIP3    H1 2352   1.508   3.989   2.769 -0.0778 -0.4171  0.1720
  782TIP3    H2 2353   1.440   3.899   2.870 -0.9567  1.2341  1.0993
  783TIP3   OH2 2354   6.337   1.291   3.653  0.0575  0.3831  0.6216
  783TIP3    H1 2355   6.260   1.240   3.678  0.2700 -0.4181 -0.3073
  783TIP3    H2 2356   6.410   1.247   3.697  0.3013 -0.4299 -0.5427
  784TIP3   OH2 2357   3.753   4.734   2.486  0.2512  0.4232 -0.3192
  784TIP3    H1 2358   3.658   4.722   2.496  0.1195  1.6217  0.0399
  784TIP3    H2 2359   3.763   4.825   2.458  1.2526  0.0134 -1.3449
  785TIP3   OH2 2360   1.637   4.905   2.238 -0.2979 -0.2698  0.4938
  785TIP3    H1 2361   1.620   4.854   2.317 -2.2974  0.3441  0.4983
  785TIP3    H2 2362   1.693   4.848   2.185 -1.4249 -1.9704  1.0510
  786TIP3   OH2 2363   2.695   5.124   1.643 -0.1424  0.1449  0.5187
  786TIP3    H1 2364   2.660   5.040   1.612 -0.7955  0.0267  1.5372
  786TIP3    H2 2365   2.703   5.113   1.738 -0.7354  1.4189  0.7330
  787TIP3   OH2 2366   0.218   3.689   4.372  0.1823  0.0194 -0.5447
  787TIP3    H1 2367   0.211   3.691   4.467  0.6455 -1.5612 -0.4389
  787TIP3    H2 2368   0.134   3.721   4.340  0.6100  2.2067  0.3435
  788TIP3   OH2 2369   4.255   1.726   2.495 -0.1208 -0.1935  0.2875
  788TIP3    H1 2370   4.281   1.729   2.587  1.3345 -0.2660 -0.0996
  788TIP3    H2 2371   4.336   1.743   2.446 -0.7527 -0.7051 -0.9928
  789TIP3   OH2 2372   4.002   4.639   2.499  0.0121 -0.5399 -0.0514
  789TIP3    H1 2373   4.044   4.688   2.429 -1.1636  0.1508 -0.3138
  789TIP3    H2 2374   3.910   4.667   2.496 -0.3042 -1.3732  1.0086
  790TIP3   OH2 2375   2.445   2.833   3.507 -0.9701  0.6555 -0.0963
  790TIP3    H1 2376   2.493   2.752   3.489  0.7546  1.1971  1.6789
  790TIP3    H2 2377   2.446   2.841   3.602 -0.8752  2.8727 -0.2209
  791TIP3   OH2 2378   4.446   1.759   2.723 -0.3919  0.0098 -0.2962
  791TIP3    H1 2379   4.422   1.748   2.816 -1.3750 -0.3767 -0.5823
  791TIP3    H2 2380   4.437   1.853   2.707  0.1628  0.1361  0.0942
  792TIP3   OH2 2381   3.892   1.985   3.520  0.0013  0.2144 -0.2896
  792TIP3    H1 2382   3.821   1.932   3.483 -1.4460  1.9026 -0.0660
  792TIP3    H2 2383   3.873   1.987   3.614  1.1491 -0.4175 -0.0218
  793TIP3   OH2 2384   5.996   5.506   0.921 -0.0735 -0.0450 -0.1492
  793TIP3    H1 2385   5.976   5.457   1.000 -0.6670 -0.6985 -0.6941
  793TIP3    H2 2386   5.941   5.585   0.927  0.8243  0.5387  0.6875
  794TIP3   OH2 2387   6.150   3.962   3.652 -0.9100  0.4257 -0.2367
  794TIP3    H1 2388   6.059   3.934   3.666 -0.5960  0.0449  1.1725
  794TIP3    H2 2389   6.166   3.945   3.559 -0.7740 -4.1093  0.4077
  795TIP3   OH2 2390   1.935   2.430   2.525  0.3788 -0.1593  0.8481
  795TIP3    H1 2391   1.899   2.343   2.510 -0.3329  0.2612  0.0716
  795TIP3    H2 2392   1.952   2.465   2.437 -0.2714  0.8640  1.1123
  796TIP3   OH2 2393  -0.019   2.534   4.743 -0.0644  0.5930 -0.2692
  796TIP3    H1 2394   0.028   2.451   4.752 -0.0980  0.6577  0.6192
  796TIP3    H2 2395   0.026   2.579   4.672  0.4300  0.1275 -0.2623
  797TIP3   OH2 2396   0.694   1.943   1.909 -0.4457  0.3344  0.0695
  797TIP3    H1 2397   0.720   2.029   1.941  1.3900 -0.4878  0.9180
  797TIP3    H2 2398   0.689   1.954   1.814  1.0230  1.1000  0.0459
  798TIP3   OH2 2399   0.227   1.401   4.128 -0.1382  0.4031  0.1305
  798TIP3    H1 2400   0.166   1.327   4.132  0.4295 -0.4131 -2.9372
  798TIP3    H2 2401   0.309   1.367   4.165  0.1913 -0.6809 -1.4889
  799TIP3   OH2 2402   2.711   1.012   4.079  0.5911  0.1669 -0.4748
  799TIP3    H1 2403   2.727   1.084   4.141 -1.2683  1.0272 -0.9061
  799TIP3    H2 2404   2.726   1.051   3.993  1.9183 -0.6680 -0.6419
  800TIP3   OH2 2405   3.395   3.150   0.171  0.0544  0.8527  0.3950
  800TIP3    H1 2406   3.386   3.162   0.076 -1.3532  0.0053  0.3816
  800TIP3    H2 2407   3.451   3.073   0.180  0.1436  0.8977  0.2330
  801TIP3   OH2 2408   3.737   1.661   0.869 -0.6617  0.0977  0.3460
  801TIP3    H1 2409   3.826   1.657   0.832  0.0257  1.1830  1.7782
  801TIP3    H2 2410   3.682   1.690   0.796  0.3787  0.5782 -0.2738
  802TIP3   OH2 2411   0.882   0.831   2.638  0.0692 -0.0515  0.2543
  802TIP3    H1 2412   0.788   0.823   2.624  0.2446 -2.9217  0.1806
  802TIP3    H2 2413   0.890   0.877   2.721 -1.2680  2.4633 -0.8769
  803TIP3   OH2 2414   2.668   3.937   4.842 -0.2381 -0.1294  0.3941
  803TIP3    H1 2415   2.753   3.980   4.842 -0.0297 -0.5269  0.0012
  803TIP3    H2 2416   2.661   3.897   4.929  0.1161 -0.3616  0.3194
  804TIP3   OH2 2417   4.735   1.091   4.739  0.0105 -0.6866  0.1811
  804TIP3    H1 2418   4.798   1.069   4.670  2.1848  1.6290  1.2505
  804TIP3    H2 2419   4.701   1.177   4.713  1.6292  0.7280  2.3220
  805TIP3   OH2 2420   4.302   3.170   3.083 -0.2212  0.6443 -0.6972
  805TIP3    H1 2421   4.332   3.080   3.071 -2.2934  0.0726 -2.2547
  805TIP3    H2 2422   4.343   3.218   3.011  1.9306  1.3278  0.8719
  806TIP3   OH2 2423   1.486   0.120   4.396 -0.8481  0.2698 -0.0052
  806TIP3    H1 2424   1.422   0.174   4.350 -0.2785  2.4976  1.5828
  806TIP3    H2 2425   1.436   0.047   4.431 -2.1003  0.8429 -0.5325
  807TIP3   OH2 2426   6.147   2.399   5.021  0.4440  0.0487 -0.2058
  807TIP3    H1 2427   6.085   2.432   4.956 -0.1371  0.5728  0.6016
  807TIP3    H2 2428   6.141   2.461   5.094  1.8519  0.0540 -0.0756
  808TIP3   OH2 2429   4.091   3.906   1.896 -0.1212  0.2870  0.6295
  808TIP3    H1 2430   4.029   3.969   1.932 -0.6960 -0.1263  0.3746
  808TIP3    H2 2431   4.051   3.821   1.913 -0.3043  0.0672 -0.8007
  809TIP3   OH2 2432   4.816   0.030   2.763 -0.4111 -0.2577  0.2089
  809TIP3    H1 2433   4.738   0.066   2.806  1.2947  0.9721  2.4777
  809TIP3    H2 2434   4.832  -0.052   2.809  0.3062  0.0978  0.6095
  810TIP3   OH2 2435   5.611   3.871   4.238  0.1092 -0.3079 -0.6494
  810TIP3    H1 2436   5.679   3.857   4.172  0.8321  1.0360 -0.2291
  810TIP3    H2 2437   5.535   3.824   4.204  0.4187  0.4334 -2.5030
  811TIP3   OH2 2438   0.709   3.589   4.557  0.2115 -0.8737 -0.3776
  811TIP3    H1 2439   0.623   3.617   4.526  0.1891  0.9293  1.1349
  811TIP3    H2 2440   0.702   3.494   4.564 -1.8891 -0.7286  0.3103
  812TIP3   OH2 2441   1.516   1.770   5.039 -0.0526 -0.3753  0.3838
  812TIP3    H1 2442   1.565   1.804   5.115  1.4122  0.2616 -0.7934
  812TIP3    H2 2443   1.567   1.693   5.011  1.7063  1.5767 -2.2322
  813TIP3   OH2 2444   5.460   5.325   4.010 -0.3998  0.4724 -0.1180
  813TIP3    H1 2445   5.408   5.245   4.005  1.1893 -0.5798 -0.7180
  813TIP3    H2 2446   5.399   5.395   3.992 -1.5882 -0.7148 -0.8751
  814TIP3   OH2 2447   2.755   3.183   4.422 -0.0287  0.1324  0.1991
  814TIP3    H1 2448   2.756   3.277   4.402  1.6465  0.2751  0.8051
  814TIP3    H2 2449   2.737   3.180   4.516 -3.2395 -0.3338 -0.3260
  815TIP3   OH2 2450   3.616   4.656   3.638 -0.5044 -0.5874  0.0453
  815TIP3    H1 2451   3.609   4.624   3.728  0.9282 -1.3295 -0.0893
  815TIP3    H2 2452   3.554   4.602   3.589 -2.2116  0.6266  0.7425
  816TIP3   OH2 2453   5.530   0.663   3.292  0.0020 -0.0202 -0.0182
  816TIP3    H1 2454   5.575   0.731   3.242 -1.2525  0.3469 -0.6729
  816TIP3    H2 2455   5.601   0.612   3.332  0.9726  1.0746 -0.3058
  817TIP3   OH2 2456   0.242   2.006   1.692 -0.4037 -0.2304  0.4405
  817TIP3    H1 2457   0.325   2.054   1.690 -0.5094 -0.0271  0.7507
  817TIP3    H2 2458   0.185   2.061   1.746 -0.2025 -1.2266  1.7056
  818TIP3   OH2 2459   4.489   5.356   2.116 -0.4838  0.0324 -0.3640
  818TIP3    H1 2460   4.555   5.368   2.049  0.3273 -0.2359  0.3730
  818TIP3    H2 2461   4.518   5.409   2.190 -1.9947  1.2985 -0.6268
  819TIP3   OH2 2462   6.093   4.470   3.391 -0.9074  0.4412 -0.1514
  819TIP3    H1 2463   6.109   4.384   3.351 -1.5816 -0.0403  0.5930
  819TIP3    H2 2464   6.138   4.532   3.333  2.4416 -0.6756  1.0440
  820TIP3   OH2 2465   1.458   0.460   4.296 -0.2003 -0.2398 -0.8351
  820TIP3    H1 2466   1.392   0.514   4.340  0.3116 -0.2749 -0.0163
  820TIP3    H2 2467   1.537   0.514   4.296  0.3685 -1.0354  0.1540
  821TIP3   OH2 2468   3.701   4.229   2.254  0.3935  0.5378 -0.2990
  821TIP3    H1 2469   3.795   4.230   2.269  0.4420  0.8563 -0.6118
  821TIP3    H2 2470   3.663   4.245   2.340  0.6271  0.5234 -0.1928
  822TIP3   OH2 2471   1.645   2.941   0.364  0.1870  0.2647 -0.0117
  822TIP3    H1 2472   1.626   2.985   0.281 -1.8159 -0.4034  0.0338
  822TIP3    H2 2473   1.719   2.989   0.400 -0.9145  2.6173 -0.6849
  823TIP3   OH2 2474   4.768   1.001   4.301 -0.1866 -0.4480 -0.2502
  823TIP3    H1 2475   4.688   0.953   4.282 -0.4699 -0.6647  1.3661
  823TIP3    H2 2476   4.740   1.091   4.314 -0.7387 -0.9931  3.3582
  824TIP3   OH2 2477   1.946   1.100   3.505 -0.0183 -0.3742  0.4089
  824TIP3    H1 2478   2.020   1.045   3.533  0.3989  0.4654  0.9917
  824TIP3    H2 2479   1.880   1.037   3.475  0.7028 -1.1642  0.4437
  825TIP3   OH2 2480   4.989   3.547   4.336  0.0406  0.2231 -0.5806
  825TIP3    H1 2481   4.946   3.512   4.258  0.7891 -0.9185 -0.5182
  825TIP3    H2 2482   5.058   3.604   4.302 -0.6455  0.9939 -0.7061
  826TIP3   OH2 2483   3.711   2.747   3.769 -0.2868 -0.0943  0.0013
  826TIP3    H1 2484   3.746   2.836   3.782 -0.2270 -0.2620  1.1286
  826TIP3    H2 2485   3.634   2.759   3.714 -0.4548  0.7068  0.3928
  827TIP3   OH2 2486   4.944   4.047   0.636  0.0947  0.5940  0.4082
  827TIP3    H1 2487   5.012   4.078   0.576  0.4322 -1.0554 -0.1387
  827TIP3    H2 2488   4.988   3.978   0.687 -0.8686  0.2720  0.8195
  828TIP3   OH2 2489   3.048   2.995   0.583 -0.0440 -0.0993  0.0441
  828TIP3    H1 2490   3.130   3.000   0.631 -0.7967 -0.5058  1.4172
  828TIP3    H2 2491   3.071   2.957   0.498  1.2260  0.1521  0.2687
  829TIP3   OH2 2492   0.812   5.151   1.192 -0.1411 -0.7064 -0.0310
  829TIP3    H1 2493   0.792   5.058   1.182  0.1196 -0.8187  0.4351
  829TIP3    H2 2494   0.898   5.152   1.234  0.1254 -0.2481 -0.5743
  830TIP3   OH2 2495   0.379   2.788   2.695  0.0375  0.1874 -0.0805
  830TIP3    H1 2496   0.383   2.816   2.786  0.7166  1.9584 -0.6009
  830TIP3    H2 2497   0.471   2.776   2.670 -0.1103  0.2583 -0.6748
  831TIP3   OH2 2498   3.819   4.532   0.456 -0.7620 -0.0511 -0.3842
  831TIP3    H1 2499   3.907   4.539   0.494 -0.4719 -0.8697 -0.8824
  831TIP3    H2 2500   3.780   4.457   0.500 -2.0133  1.5478  1.3575
  832TIP3   OH2 2501   4.135   2.659   3.043  0.0832  0.3156  0.1578
  832TIP3    H1 2502   4.209   2.633   3.098 -1.4614  0.1760  2.3283
  832TIP3    H2 2503   4.166   2.735   2.995  1.4298  0.6780  1.5102
  833TIP3   OH2 2504   6.326   4.990   0.055 -0.1809  0.1249  0.0987
  833TIP3    H1 2505   6.335   5.085   0.064  0.1646  0.0330  0.7013
  833TIP3    H2 2506   6.387   4.953   0.118  0.0008 -0.5058 -0.4321
  834TIP3   OH2 2507   3.123   3.569   3.533 -0.0139 -0.4245  0.1873
  834TIP3    H1 2508   3.202   3.611   3.568 -0.6157  0.3364  0.6568
  834TIP3    H2 2509   3.101   3.502   3.597  1.6664 -2.4099 -1.1654
  835TIP3   OH2 2510   2.468   1.105   5.201 -0.9208 -0.0564 -0.0222
  835TIP3    H1 2511   2.484   1.109   5.106 -1.0898  0.9940 -0.0276
  835TIP3    H2 2512   2.526   1.172   5.237 -1.2336 -0.0919  0.5517
  836TIP3   OH2 2513   4.567   1.427   4.031 -0.3085 -0.7811 -0.3021
  836TIP3    H1 2514   4.600   1.487   3.963 -1.6284 -0.6265 -0.8388
  836TIP3    H2 2515   4.562   1.481   4.110  0.7996 -0.8400 -0.1769
  837TIP3   OH2 2516   0.785   2.764   0.320  0.6075 -0.2465 -0.1908
  837TIP3    H1 2517   0.728   2.835   0.347  1.4403  0.3563  0.0348
  837TIP3    H2 2518   0.817   2.790   0.233  0.6223 -0.5244 -0.2712
  838TIP3   OH2 2519   4.393   3.436   3.039  0.4889  0.0222 -0.2956
  838TIP3    H1 2520   4.406   3.531   3.044  1.8053 -0.0637 -1.4748
  838TIP3    H2 2521   4.451   3.400   3.106 -1.7465  0.0994  1.8201
  839TIP3   OH2 2522   2.861   0.668   0.466 -0.4741 -0.8342  0.0456
  839TIP3    H1 2523   2.832   0.652   0.376  0.5490  0.2052 -0.4975
  839TIP3    H2 2524   2.811   0.745   0.493  1.6702  1.0416 -0.9371
  840TIP3   OH2 2525   1.347   5.107   3.556  0.0754 -1.0201  0.6758
  840TIP3    H1 2526   1.380   5.117   3.467  0.7717 -2.1534  0.7956
  840TIP3    H2 2527   1.254   5.088   3.545 -0.5236  1.6170  0.3187
  841TIP3   OH2 2528   0.023   5.517   3.082 -0.1048  0.2858  0.0104
  841TIP3    H1 2529   0.056   5.535   2.994  1.2830  0.8571  0.6133
  841TIP3    H2 2530   0.025   5.421   3.090  2.9794  0.2876  0.5154
  842TIP3   OH2 2531   1.827   3.566   2.472 -0.4991  0.1460  0.2520
  842TIP3    H1 2532   1.755   3.583   2.534 -0.5826  0.1529  0.1533
  842TIP3    H2 2533   1.792   3.499   2.413 -0.0465 -0.6337  0.8579
  843TIP3   OH2 2534   4.265   0.135   3.886 -0.0830 -0.0909 -0.2758
  843TIP3    H1 2535   4.212   0.104   3.959 -0.5597  1.0264 -0.1356
  843TIP3    H2 2536   4.356   0.126   3.917 -0.1109 -2.6023 -0.7580
  844TIP3   OH2 2537   6.151   2.079   0.283  0.3185  0.7217 -0.3716
  844TIP3    H1 2538   6.154   1.991   0.245 -2.3230  0.0579  0.7068
  844TIP3    H2 2539   6.239   2.114   0.269  1.4183 -1.9962 -1.0024
  845TIP3   OH2 2540   2.539   1.582   2.142  0.3341 -0.3509  0.1243
  845TIP3    H1 2541   2.620   1.588   2.092 -1.0005  1.6596 -2.0116
  845TIP3    H2 2542   2.544   1.498   2.187  2.7384 -1.1292 -1.4257
  846TIP3   OH2 2543   1.311   0.421   3.827  0.3076  0.0054 -0.0125
  846TIP3    H1 2544   1.233   0.467   3.857  0.2011 -0.2597  0.1206
  846TIP3    H2 2545   1.382   0.459   3.878  0.1911 -0.1219  0.2479
  847TIP3   OH2 2546   3.119   1.674   0.125  0.5097 -0.1977 -0.4776
  847TIP3    H1 2547   3.080   1.590   0.150 -0.9623  0.2292 -1.2501
  847TIP3    H2 2548   3.196   1.650   0.074 -0.1562 -1.1056 -1.0996
  848TIP3   OH2 2549   6.283   2.228   4.816  0.2290  0.1064 -0.0645
  848TIP3    H1 2550   6.227   2.159   4.780  1.6428 -0.6347 -0.9073
  848TIP3    H2 2551   6.343   2.250   4.745  1.7391  0.0826  1.1527
  849TIP3   OH2 2552   5.045   3.911   2.966  0.2984 -0.2061  0.0895
  849TIP3    H1 2553   5.089   3.992   2.939  2.2781 -0.8758  1.1127
  849TIP3    H2 2554   5.062   3.850   2.895 -0.7244  0.1055 -0.4310
  850TIP3   OH2 2555   4.160   3.712   0.490  0.4832 -0.3041  0.0493
  850TIP3    H1 2556   4.182   3.646   0.424  0.6672  0.9924 -1.2323
  850TIP3    H2 2557   4.238   3.718   0.545  0.3681 -1.3131  0.3518
  851TIP3   OH2 2558   4.447   2.181   4.818 -0.2087 -0.0338 -0.2717
  851TIP3    H1 2559   4.362   2.144   4.842  0.0560 -0.8982 -0.6209
  851TIP3    H2 2560   4.439   2.201   4.724  0.2127 -0.8408 -0.4909
  852TIP3   OH2 2561   5.951   2.998   3.438  0.3253 -0.1377 -0.0472
  852TIP3    H1 2562   5.965   2.908   3.411  0.2761 -0.3257  0.5423
  852TIP3    H2 2563   5.947   3.047   3.356 -2.2325 -1.0248 -0.5495
  853TIP3   OH2 2564   5.699   5.830   3.818  0.1861  0.2036 -0.1934
  853TIP3    H1 2565   5.743   5.914   3.829  0.4168  0.1849 -0.9596
  853TIP3    H2 2566   5.708   5.787   3.904  0.2766  0.8527  0.1257
  854TIP3   OH2 2567   0.086   4.079   1.335 -0.3903  0.6760  0.6737
  854TIP3    H1 2568   0.098   4.071   1.240 -0.0480 -1.1811  0.8184
  854TIP3    H2 2569   0.132   4.159   1.359  0.9747  0.2993 -0.5324
  855TIP3   OH2 2570   2.716   2.320   1.676 -0.1828  0.3764 -0.7176
  855TIP3    H1 2571   2.688   2.408   1.702 -2.6504 -0.3709 -0.6175
  855TIP3    H2 2572   2.801   2.309   1.720 -1.7515  1.1292  2.9053
  856TIP3   OH2 2573   5.666   4.468   1.306 -0.2193  0.1624  0.8918
  856TIP3    H1 2574   5.600   4.484   1.238  2.0075  0.8956 -1.2348
  856TIP3    H2 2575   5.646   4.379   1.337 -3.0803  0.8926  1.4805
  857TIP3   OH2 2576   5.247   3.300   3.201  0.1468  0.3233 -0.3733
  857TIP3    H1 2577   5.326   3.286   3.253 -0.7410 -0.8962  0.7151
  857TIP3    H2 2578   5.265   3.259   3.117 -0.0470 -1.8304  0.5775
  858TIP3   OH2 2579   2.948   0.392   2.309 -0.3725  0.2024  0.1324
  858TIP3    H1 2580   2.875   0.451   2.327 -1.0703 -0.8113  0.7078
  858TIP3    H2 2581   2.909   0.305   2.308  0.3396 -0.1618 -2.3230
  859TIP3   OH2 2582   0.040   0.835   3.986  0.2596  0.3386 -0.0495
  859TIP3    H1 2583   0.015   0.906   4.045  0.7658 -0.3164  0.9744
  859TIP3    H2 2584  -0.023   0.765   4.006  0.7006 -0.0390  0.0206
  860TIP3   OH2 2585   2.584   4.943   4.994  0.3653 -0.1448 -0.3500
  860TIP3    H1 2586   2.583   5.038   4.990  2.3813 -0.1187 -1.3862
  860TIP3    H2 2587   2.508   4.916   4.942 -0.8613  0.8617  0.8475
  861TIP3   OH2 2588   1.644   3.118   4.819  0.4496 -0.5051  0.1990
  861TIP3    H1 2589   1.673   3.027   4.816  1.0866 -0.3032  0.0948
  861TIP3    H2 2590   1.553   3.116   4.789  0.1665 -1.2206  1.0815
  862TIP3   OH2 2591   4.805   3.394   1.255 -0.1640 -0.4780  0.3284
  862TIP3    H1 2592   4.729   3.416   1.201  0.4443  0.8128 -0.0468
  862TIP3    H2 2593   4.838   3.312   1.220 -0.2954 -0.0925 -0.7184
  863TIP3   OH2 2594   0.018   5.783   2.187  0.2209 -0.7008 -0.3851
  863TIP3    H1 2595   0.035   5.857   2.244  0.5880 -0.6573 -0.5481
  863TIP3    H2 2596  -0.016   5.715   2.245  3.0085 -1.5794  0.3998
  864TIP3   OH2 2597   5.656   5.781   1.620 -0.0253  0.1987  0.3755
  864TIP3    H1 2598   5.620   5.845   1.559 -0.5339 -0.2811  0.1634
  864TIP3    H2 2599   5.626   5.810   1.706 -1.5271 -0.5469  0.1521
  865TIP3   OH2 2600   5.484   1.217   3.873  0.5433  0.3425 -0.0304
  865TIP3    H1 2601   5.493   1.261   3.958  1.4411  0.4764 -0.1850
  865TIP3    H2 2602   5.417   1.267   3.827 -0.0347  0.1975  0.6410
  866TIP3   OH2 2603   0.065   2.088   3.766  0.3948 -0.3901 -0.4500
  866TIP3    H1 2604   0.057   2.001   3.726  1.0663 -0.0488 -1.3737
  866TIP3    H2 2605  -0.021   2.128   3.755  0.4775 -0.4295 -1.2618
  867TIP3   OH2 2606   5.042   2.584   0.914  0.0490 -0.0832 -0.0633
  867TIP3    H1 2607   5.073   2.675   0.910  2.2828 -0.7924 -0.2588
  867TIP3    H2 2608   5.080   2.550   0.995 -0.1625 -1.0504 -0.3695
  868TIP3   OH2 2609   1.495   4.650   1.991  0.6802 -0.0731 -0.0809
  868TIP3    H1 2610   1.424   4.677   1.933  2.5049 -0.2404 -2.5718
  868TIP3    H2 2611   1.555   4.724   1.992  0.2190  0.3991  2.6475
  869TIP3   OH2 2612   5.548   0.225   3.672  0.3268  0.1572 -0.4611
  869TIP3    H1 2613   5.512   0.308   3.642  1.8969  1.7751  1.7864
  869TIP3    H2 2614   5.572   0.179   3.592 -1.2505  1.5092 -1.7937
  870TIP3   OH2 2615   0.313   2.446   4.756  0.0825  0.3389  0.1101
  870TIP3    H1 2616   0.287   2.524   4.804  0.1476  0.9883 -0.8938
  870TIP3    H2 2617   0.403   2.464   4.726  0.3641 -0.4095  0.4633
  871TIP3   OH2 2618   4.417   3.075   4.209  0.4964  0.1082 -0.1971
  871TIP3    H1 2619   4.471   3.147   4.178  1.5596 -0.7966 -0.5351
  871TIP3    H2 2620   4.399   3.023   4.131  3.9541 -2.6978  0.5789
  872TIP3   OH2 2621   5.544   3.085   3.706 -0.6484 -0.3687 -0.3092
  872TIP3    H1 2622   5.550   3.172   3.745 -1.8582 -0.3694 -0.0709
  872TIP3    H2 2623   5.597   3.090   3.627  0.5221  0.1248  0.4882
  873TIP3   OH2 2624   5.639   5.785   0.233 -0.1918  0.3206  0.0363
  873TIP3    H1 2625   5.616   5.692   0.230  1.4808 -0.1968  1.5653
  873TIP3    H2 2626   5.735   5.786   0.231 -0.1403  1.9379  1.2284
  874TIP3   OH2 2627   0.561   4.421   3.824  0.1630 -0.1628  0.2314
  874TIP3    H1 2628   0.541   4.368   3.747  0.6898 -2.7896  1.7908
  874TIP3    H2 2629   0.484   4.477   3.835 -0.5806 -0.8214 -1.3162
  875TIP3   OH2 2630   1.014   3.231   4.098  0.0480  0.4437  0.3445
  875TIP3    H1 2631   0.986   3.260   4.185  0.3917  1.0214  0.2673
  875TIP3    H2 2632   1.007   3.136   4.102 -0.0218  0.4661  0.9770
  876TIP3   OH2 2633   2.014   2.090   0.074 -0.3012 -0.2664 -0.6917
  876TIP3    H1 2634   2.053   2.094   0.161  0.4299  0.1871 -1.0323
  876TIP3    H2 2635   1.940   2.151   0.078 -0.9024 -1.0186 -0.0883
  877TIP3   OH2 2636   4.213   4.931   3.813 -0.1559 -0.3151 -0.7725
  877TIP3    H1 2637   4.270   4.878   3.868 -2.7373 -2.5127  0.0451
  877TIP3    H2 2638   4.204   5.014   3.860  0.5592 -0.7815  0.2239
  878TIP3   OH2 2639   4.261   3.435   0.705 -0.2615 -0.0466 -0.0801
  878TIP3    H1 2640   4.263   3.530   0.719 -0.3270 -0.1810  0.9623
  878TIP3    H2 2641   4.301   3.422   0.619  1.6315  0.7772  0.6086
  879TIP3   OH2 2642   3.334   2.137   1.220  0.3924  0.2662  0.2875
  879TIP3    H1 2643   3.398   2.196   1.260  0.9770 -0.0032 -0.2402
  879TIP3    H2 2644   3.316   2.175   1.134  0.7217 -0.2755 -0.0278
  880TIP3   OH2 2645   4.544   0.310   1.711  0.6551 -0.0727  0.3452
  880TIP3    H1 2646   4.572   0.346   1.627  1.6689 -0.1425  0.6368
  880TIP3    H2 2647   4.452   0.333   1.718 -0.1823 -2.2293 -1.9499
  881TIP3   OH2 2648   3.438   0.627   0.830  0.3861  0.2255 -0.1706
  881TIP3    H1 2649   3.527   0.594   0.817  0.8116  1.8417 -1.7447
  881TIP3    H2 2650   3.441   0.673   0.914  1.2936  0.9949 -0.6104
  882TIP3   OH2 2651   1.348   5.527   2.318 -0.3116 -0.2177 -0.2118
  882TIP3    H1 2652   1.275   5.464   2.314 -0.5958  0.1334 -0.6462
  882TIP3    H2 2653   1.394   5.516   2.235  0.0622 -0.3513  0.0112
  883TIP3   OH2 2654   0.701   4.952   4.929  0.2808 -0.7438 -0.4751
  883TIP3    H1 2655   0.759   5.005   4.983 -0.9273 -0.0990  0.2295
  883TIP3    H2 2656   0.676   5.009   4.857 -0.8826 -0.3739  0.1901
  884TIP3   OH2 2657   5.661   0.315   0.436  0.2331  0.2457 -0.0949
  884TIP3    H1 2658   5.594   0.345   0.497 -1.1588 -1.5188 -0.6328
  884TIP3    H2 2659   5.687   0.393   0.388  0.0501  1.3315  1.4996
  885TIP3   OH2 2660   4.833   2.233   0.874  0.3026  0.2824 -0.3085
  885TIP3    H1 2661   4.848   2.214   0.967 -0.6459  1.7024  0.1712
  885TIP3    H2 2662   4.820   2.148   0.833 -1.7471 -0.2648  1.3342
  886TIP3   OH2 2663   3.652   2.245   0.604 -0.2386  0.3892  0.1272
  886TIP3    H1 2664   3.669   2.157   0.637 -0.8533  0.4815  0.7136
  886TIP3    H2 2665   3.587   2.282   0.665  1.9607  2.2310  1.5412
  887TIP3   OH2 2666   5.749   2.412   3.984 -0.0568  0.1338  0.1665
  887TIP3    H1 2667   5.744   2.366   3.900  2.5140 -0.8507  0.4817
  887TIP3    H2 2668   5.728   2.503   3.962  1.7421  0.1494 -1.8136
  888TIP3   OH2 2669   4.096   1.342   2.328 -0.3510  0.2673  0.6576
  888TIP3    H1 2670   4.054   1.427   2.313  1.8782  1.3379  0.1229
  888TIP3    H2 2671   4.099   1.302   2.241 -1.1306 -0.2640  0.8625
  889TIP3   OH2 2672   0.088   2.265   5.071 -0.2294  0.0252 -0.6101
  889TIP3    H1 2673   0.137   2.207   5.129 -0.9672  0.0016  0.0122
  889TIP3    H2 2674   0.132   2.349   5.077  0.4261 -0.2913 -0.9659
  890TIP3   OH2 2675   6.237   4.562   3.706 -0.4927  0.5775  0.1296
  890TIP3    H1 2676   6.146   4.592   3.696  0.1212  1.8939 -2.4529
  890TIP3    H2 2677   6.289   4.641   3.691  1.1310 -0.0520  2.0405
  891TIP3   OH2 2678   3.649   4.220   1.619  0.3692  0.4981  0.8951
  891TIP3    H1 2679   3.664   4.280   1.546  0.8933  1.1660  1.5398
  891TIP3    H2 2680   3.625   4.276   1.692  3.0785  0.1846  2.1245
  892TIP3   OH2 2681   0.807   2.229   4.743 -0.0555 -0.4792  0.0104
  892TIP3    H1 2682   0.769   2.228   4.655 -0.8662 -0.0097  0.3473
  892TIP3    H2 2683   0.806   2.137   4.770  0.7714 -0.7155 -0.6975
  893TIP3   OH2 2684   4.527   3.164   4.672  0.3685  0.0914  0.9092
  893TIP3    H1 2685   4.444   3.207   4.654  0.6504  0.5652  0.7109
  893TIP3    H2 2686   4.529   3.089   4.613 -1.4846 -2.0339  3.3421
  894TIP3   OH2 2687   2.334   5.898   2.505 -0.2364 -0.1117  1.1203
  894TIP3    H1 2688   2.415   5.869   2.464  0.3462  2.4950  0.2462
  894TIP3    H2 2689   2.348   5.884   2.599  1.2426  0.3454  0.9840
  895TIP3   OH2 2690   2.084   0.631   4.681 -0.4677 -0.3469 -0.6144
  895TIP3    H1 2691   1.993   0.623   4.652 -0.9363  3.1623 -0.5410
  895TIP3    H2 2692   2.079   0.688   4.758  1.7271 -1.1993  0.2333
  896TIP3   OH2 2693   3.601   3.841   2.968  0.9713  0.5267 -0.3300
  896TIP3    H1 2694   3.655   3.804   3.037  1.4081  0.0782 -0.8949
  896TIP3    H2 2695   3.642   3.925   2.946  1.3540  0.2620 -0.6459
  897TIP3   OH2 2696   1.174   5.802   0.974 -0.7592  0.4424  0.5782
  897TIP3    H1 2697   1.228   5.739   0.928 -0.0127  0.8734  0.8544
  897TIP3    H2 2698   1.099   5.817   0.915  0.3259  1.2230 -0.6596
  898TIP3   OH2 2699   3.246   3.296   1.622  0.3762  0.8754  0.3126
  898TIP3    H1 2700   3.208   3.215   1.657  0.7671  0.6216  0.1600
  898TIP3    H2 2701   3.325   3.310   1.675 -0.3962  1.8863  1.2245
  899TIP3   OH2 2702   5.729   1.073   0.988 -0.6598 -0.1818 -0.0039
  899TIP3    H1 2703   5.649   1.125   0.982 -0.7697 -0.4563 -0.9544
  899TIP3    H2 2704   5.738   1.031   0.903  1.3447  1.0721 -0.4881
  900TIP3   OH2 2705   0.856   1.207   1.089  0.6268  0.2636 -0.6533
  900TIP3    H1 2706   0.844   1.244   1.002 -0.0453  0.9187 -0.2915
  900TIP3    H2 2707   0.821   1.273   1.148  0.1052 -0.6280  0.0569
  901TIP3   OH2 2708   0.105   3.082   2.327 -0.0803  0.1958 -0.3133
  901TIP3    H1 2709   0.107   3.143   2.253 -2.2807  0.6951 -0.0321
  901TIP3    H2 2710   0.073   3.000   2.290  1.7689 -0.4946 -0.4665
  902TIP3   OH2 2711   1.987   2.892   4.107 -0.0778 -0.5335  0.0669
  902TIP3    H1 2712   1.957   2.888   4.016 -2.0146 -1.5661  0.7087
  902TIP3    H2 2713   1.971   2.805   4.142 -0.4506  0.1618  1.7217
  903TIP3   OH2 2714   2.393   0.413   1.245 -0.5142 -0.0265  0.3003
  903TIP3    H1 2715   2.342   0.479   1.292  2.0604  1.4684  1.2080
  903TIP3    H2 2716   2.444   0.369   1.313  2.4500  1.4000 -0.8497
  904TIP3   OH2 2717   3.529   5.529   3.190 -0.3171 -0.2629  0.1913
  904TIP3    H1 2718   3.450   5.540   3.242  0.9009  2.0532  1.7506
  904TIP3    H2 2719   3.580   5.608   3.207  1.3630 -0.6220 -2.5020
  905TIP3   OH2 2720   5.401   0.474   3.664 -0.1845 -0.4779 -0.4895
  905TIP3    H1 2721   5.460   0.548   3.649 -0.4205 -0.2003 -0.0661
  905TIP3    H2 2722   5.314   0.511   3.651 -0.3813 -0.3087  1.1764
  906TIP3   OH2 2723   2.923   3.690   3.343 -0.1192  0.4516 -0.7847
  906TIP3    H1 2724   2.989   3.674   3.411 -1.7138 -0.7795  0.5323
  906TIP3    H2 2725   2.925   3.785   3.329  3.5493  0.3100 -2.5331
  907TIP3   OH2 2726   3.679   0.066   4.459  0.1014 -0.0196 -0.1789
  907TIP3    H1 2727   3.671   0.159   4.442  0.3961  0.1677  0.6262
  907TIP3    H2 2728   3.747   0.036   4.399 -0.1326  0.2434 -0.5759
  908TIP3   OH2 2729   4.112   4.648   0.542  0.2749 -0.4596  0.0892
  908TIP3    H1 2730   4.087   4.737   0.566 -1.9479 -1.6010  2.4908
  908TIP3    H2 2731   4.207   4.647   0.550  0.5877  2.1436 -1.9835
  909TIP3   OH2 2732   3.429   4.636   0.961 -0.2193 -0.1212 -0.2315
  909TIP3    H1 2733   3.508   4.650   1.013 -0.7662 -0.0178  0.5884
  909TIP3    H2 2734   3.378   4.716   0.972  0.3519  0.5818 -2.2323
  910TIP3   OH2 2735   5.308   1.118   4.870 -0.7585  0.2846 -0.0914
  910TIP3    H1 2736   5.240   1.172   4.830 -1.7510 -1.4265 -0.8301
  910TIP3    H2 2737   5.285   1.117   4.963 -1.5029  0.0869 -0.2699
  911TIP3   OH2 2738   6.247   0.367   0.311 -0.1407 -0.0074 -0.1798
  911TIP3    H1 2739   6.311   0.438   0.309 -0.3084  0.1403 -0.3320
  911TIP3    H2 2740   6.165   0.408   0.339 -0.0472 -0.2952  0.5193
  912TIP3   OH2 2741   4.956   4.962   1.556 -0.3654 -0.1647 -0.0726
  912TIP3    H1 2742   4.918   4.878   1.581  1.4765 -0.1621  3.3842
  912TIP3    H2 2743   4.897   5.027   1.595 -0.1064  0.0229  0.0112
  913TIP3   OH2 2744   1.993   0.186   0.822 -0.2053  0.1941  0.2450
  913TIP3    H1 2745   2.065   0.135   0.860 -0.0481  0.1003 -0.1699
  913TIP3    H2 2746   1.990   0.266   0.874  0.3602  0.3056  0.1126
  914TIP3   OH2 2747   2.140   2.858   3.606 -0.2392  0.2435  0.2259
  914TIP3    H1 2748   2.133   2.851   3.511 -0.3641 -1.3053  0.3340
  914TIP3    H2 2749   2.121   2.770   3.638  0.6943  0.5301  1.6362
  915TIP3   OH2 2750   5.574   5.232   2.051 -0.1379  0.0666 -0.2339
  915TIP3    H1 2751   5.561   5.326   2.041  1.3192  0.6354  2.1354
  915TIP3    H2 2752   5.579   5.198   1.962  0.7915  2.4910 -1.1955
  916TIP3   OH2 2753   4.944   5.444   0.323 -0.2988  0.0893 -0.6460
  916TIP3    H1 2754   4.873   5.430   0.386  1.5381 -0.1180  1.5433
  916TIP3    H2 2755   4.918   5.395   0.245 -2.5954  0.1801 -0.0060
  917TIP3   OH2 2756   3.315   1.179   2.618  0.4259  0.0538 -0.2946
  917TIP3    H1 2757   3.349   1.268   2.628 -2.1692  0.9605  1.6363
  917TIP3    H2 2758   3.252   1.186   2.546  0.2431 -0.2355 -0.1623
  918TIP3   OH2 2759   4.038   5.943   4.271 -0.6445  0.2604  0.1045
  918TIP3    H1 2760   4.053   5.969   4.180  1.6736  0.4147  0.4586
  918TIP3    H2 2761   3.982   6.012   4.307  0.6124  1.6798 -0.5308
  919TIP3   OH2 2762   3.927   3.737   4.426  0.4174  0.8844 -0.7464
  919TIP3    H1 2763   3.985   3.801   4.467 -1.1931  1.4434  0.8197
  919TIP3    H2 2764   3.919   3.765   4.335  0.5404  2.3279 -0.3321
  920TIP3   OH2 2765   0.300   5.001   1.267  0.0095 -0.0518 -0.2937
  920TIP3    H1 2766   0.389   5.019   1.298  1.1055  1.2210 -3.7094
  920TIP3    H2 2767   0.311   4.930   1.203 -1.6016 -0.4832 -0.1432
  921TIP3   OH2 2768   4.978   1.409   4.979  0.0950 -0.4723 -0.0637
  921TIP3    H1 2769   4.994   1.318   5.005  1.2165 -0.0929  0.6344
  921TIP3    H2 2770   4.945   1.451   5.058  0.5333 -0.0416 -0.1090
  922TIP3   OH2 2771   5.178   0.547   3.898  0.4418  0.0221  0.0375
  922TIP3    H1 2772   5.192   0.585   3.811  0.3378  0.6209  0.2800
  922TIP3    H2 2773   5.206   0.615   3.959 -1.7123  0.5333  0.5215
  923TIP3   OH2 2774   0.900   2.560   2.000 -0.0807 -0.3069  0.0469
  923TIP3    H1 2775   0.968   2.527   2.058 -1.4471 -1.3504  1.1511
  923TIP3    H2 2776   0.820   2.556   2.052 -0.8061  2.2294 -0.7137
  924TIP3   OH2 2777   6.040   3.538   0.884  0.8189  0.0147 -0.3373
  924TIP3    H1 2778   6.075   3.575   0.965  0.5347  0.4457 -0.4108
  924TIP3    H2 2779   6.116   3.533   0.826  1.1358 -0.8056  0.1315
  925TIP3   OH2 2780   4.252   2.157   3.544  0.0182  0.0872  0.2409
  925TIP3    H1 2781   4.223   2.153   3.453  0.7461 -0.2864  0.0204
  925TIP3    H2 2782   4.315   2.228   3.546 -0.1285  0.2113  0.4952
  926TIP3   OH2 2783   2.612   0.562   4.367  0.1405 -0.0244  0.0018
  926TIP3    H1 2784   2.556   0.508   4.312 -1.2226 -0.0310  1.3056
  926TIP3    H2 2785   2.585   0.540   4.457  0.4489  1.8534  0.6012
  927TIP3   OH2 2786   1.123   1.496   3.738 -0.1952  0.2390 -0.7445
  927TIP3    H1 2787   1.170   1.426   3.783  0.6917  0.5196 -1.2184
  927TIP3    H2 2788   1.154   1.491   3.647 -0.0990  1.2590 -0.7773
  928TIP3   OH2 2789   1.978   2.556   4.253 -0.0615  0.0067  0.2579
  928TIP3    H1 2790   1.943   2.473   4.223  2.2756 -0.3446 -1.8282
  928TIP3    H2 2791   1.910   2.592   4.310 -1.4577 -2.9318  0.6044
  929TIP3   OH2 2792   5.160   2.597   4.003 -0.0787  0.1627  0.0651
  929TIP3    H1 2793   5.095   2.640   3.947 -0.8953 -1.5416 -0.3915
  929TIP3    H2 2794   5.152   2.639   4.088 -0.2173  1.4611 -0.5735
  930TIP3   OH2 2795   5.854   1.081   2.745  0.6036  0.6775  0.3550
  930TIP3    H1 2796   5.898   1.161   2.772 -0.7961  1.3201  0.8371
  930TIP3    H2 2797   5.820   1.043   2.827 -0.1636  0.4815 -0.0364
  931TIP3   OH2 2798   2.368   2.373   2.282  0.5425 -0.3765  0.1405
  931TIP3    H1 2799   2.425   2.319   2.227  2.3486  2.8679 -1.4898
  931TIP3    H2 2800   2.428   2.429   2.330 -1.1468  2.2432 -0.5737
  932TIP3   OH2 2801   0.643   1.650   0.643 -0.6096 -0.0988  0.0658
  932TIP3    H1 2802   0.565   1.599   0.623  0.1473 -1.2731 -0.0343
  932TIP3    H2 2803   0.716   1.591   0.620  0.3693  1.8597 -2.2617
  933TIP3   OH2 2804   3.710   0.516   2.303  0.3803  0.3690 -0.0400
  933TIP3    H1 2805   3.701   0.464   2.382 -1.1404  1.3344  0.4807
  933TIP3    H2 2806   3.710   0.607   2.334  3.4073  0.7723 -0.8714
  934TIP3   OH2 2807   4.420   5.375   1.489  0.3814 -0.3282  0.0592
  934TIP3    H1 2808   4.372   5.400   1.410  1.0862 -1.5315 -0.7928
  934TIP3    H2 2809   4.353   5.372   1.558 -0.0274  1.9564 -0.1686
  935TIP3   OH2 2810   4.894   2.256   3.999 -0.6104 -0.1375  0.2242
  935TIP3    H1 2811   4.908   2.212   3.916  0.1305  1.5090 -0.5756
  935TIP3    H2 2812   4.814   2.217   4.035  1.5367 -4.2468  1.0860
  936TIP3   OH2 2813   5.660   4.202   1.420  0.6402 -0.1550 -0.2153
  936TIP3    H1 2814   5.587   4.141   1.426  2.1064 -1.9553  0.0786
  936TIP3    H2 2815   5.658   4.250   1.504 -1.0592  0.9234 -0.8130
  937TIP3   OH2 2816   1.969   5.329   3.131 -0.2937 -0.0607 -0.1246
  937TIP3    H1 2817   2.050   5.311   3.179 -0.3931  0.4710  0.2559
  937TIP3    H2 2818   1.918   5.249   3.139  1.7411 -1.9633 -3.6708
  938TIP3   OH2 2819   1.112   4.470   3.838  0.7501 -0.1369 -0.2585
  938TIP3    H1 2820   1.207   4.484   3.842  0.7367  0.1434 -0.8297
  938TIP3    H2 2821   1.103   4.380   3.806  0.8385  0.4135 -1.9608
  939TIP3   OH2 2822   5.852   2.443   0.491  0.1907 -0.2252 -0.0952
  939TIP3    H1 2823   5.914   2.502   0.535 -0.9577  0.9054  0.0958
  939TIP3    H2 2824   5.813   2.392   0.562  0.6032 -0.6428 -0.1679
  940TIP3   OH2 2825   6.162   0.702   2.078  0.0342  0.0672  0.2860
  940TIP3    H1 2826   6.119   0.637   2.022 -2.0142  1.3713  0.2309
  940TIP3    H2 2827   6.118   0.695   2.162  0.0206  1.1119  0.3853
  941TIP3   OH2 2828   2.256   0.551   2.164 -0.6478 -0.4136 -0.0246
  941TIP3    H1 2829   2.287   0.634   2.199 -1.2754 -0.4521  0.6502
  941TIP3    H2 2830   2.161   0.562   2.157 -1.1105 -1.9561  2.6250
  942TIP3   OH2 2831   1.319   4.739   0.937 -0.0142 -0.1129  0.5467
  942TIP3    H1 2832   1.366   4.690   1.004  0.3316 -1.8709 -0.9160
  942TIP3    H2 2833   1.349   4.829   0.948  2.4585 -0.8887  0.7287
  943TIP3   OH2 2834   3.546   2.188   3.195 -0.3640 -0.1322 -0.2567
  943TIP3    H1 2835   3.499   2.272   3.196  0.7645  0.6064 -2.4159
  943TIP3    H2 2836   3.633   2.208   3.229 -0.1183 -0.4264 -0.6955
  944TIP3   OH2 2837   5.935   5.523   3.167 -0.5433  0.0841  0.1268
  944TIP3    H1 2838   5.940   5.439   3.212  1.0394  0.4526  0.7022
  944TIP3    H2 2839   5.895   5.503   3.082  0.6550 -1.4160 -0.1293
  945TIP3   OH2 2840   0.971   0.966   2.886  0.1705  0.6251  0.2752
  945TIP3    H1 2841   0.909   0.921   2.943  0.2550  0.1117 -0.0309
  945TIP3    H2 2842   1.056   0.954   2.929  0.3893 -0.6750 -0.4882
  946TIP3   OH2 2843   0.268   1.655   2.206 -0.4677  0.0054  0.4626
  946TIP3    H1 2844   0.338   1.670   2.270  1.4956 -0.3047 -1.5000
  946TIP3    H2 2845   0.210   1.592   2.249  0.1567  0.6318  2.3455
  947TIP3   OH2 2846   1.422   1.730   3.983 -0.5388 -0.2064  0.2568
  947TIP3    H1 2847   1.343   1.746   4.036 -0.0151  0.5435  0.8387
  947TIP3    H2 2848   1.494   1.757   4.040  0.0288  1.0944 -1.0042
  948TIP3   OH2 2849   3.818   4.982   2.383 -0.5883  0.8898  0.0640
  948TIP3    H1 2850   3.737   5.027   2.357 -0.3260  1.3244 -0.0128
  948TIP3    H2 2851   3.876   5.052   2.413 -0.2000  0.5931  0.0187
  949TIP3   OH2 2852   3.856   3.002   5.136 -0.0605  0.8350 -0.3437
  949TIP3    H1 2853   3.871   2.910   5.115 -2.3559  0.1736  0.5963
  949TIP3    H2 2854   3.922   3.023   5.202 -0.1426 -0.4205  0.1566
  950TIP3   OH2 2855   5.965   0.461   4.799  0.2089  0.1046  0.7284
  950TIP3    H1 2856   5.912   0.381   4.800 -1.2108  1.0014  1.0139
  950TIP3    H2 2857   6.011   0.458   4.716 -0.3028 -0.7011  0.4569
  951TIP3   OH2 2858   2.416   4.021   2.304  0.1932  0.2747 -0.1942
  951TIP3    H1 2859   2.327   4.048   2.280  0.7536  0.8514 -1.7205
  951TIP3    H2 2860   2.418   4.028   2.400 -1.6255 -0.4808 -0.0484
  952TIP3   OH2 2861   2.754   3.042   3.555 -0.6789  0.3717 -0.2806
  952TIP3    H1 2862   2.734   2.964   3.503  2.2563  0.2312 -1.3501
  952TIP3    H2 2863   2.671   3.064   3.598 -2.1261 -2.0425 -1.6432
  953TIP3   OH2 2864   2.904   5.728   1.616  0.5385 -0.3139  0.2885
  953TIP3    H1 2865   2.926   5.678   1.537  0.7054 -2.0360  1.3852
  953TIP3    H2 2866   2.962   5.804   1.613 -1.0611  0.9838 -2.4485
  954TIP3   OH2 2867   4.697   5.019   2.666  0.4139 -0.6943 -0.4336
  954TIP3    H1 2868   4.702   4.966   2.586  1.6424  0.5258 -1.2092
  954TIP3    H2 2869   4.605   5.047   2.670  0.7025  0.7638 -2.4912
  955TIP3   OH2 2870   1.853   4.078   4.354  0.5769 -0.0806 -0.5898
  955TIP3    H1 2871   1.767   4.035   4.347 -0.2632  1.2684  0.9006
  955TIP3    H2 2872   1.900   4.049   4.275 -0.5081 -2.3850 -0.4792
  956TIP3   OH2 2873   1.356   3.867   3.037  0.1350 -0.0030  0.1050
  956TIP3    H1 2874   1.290   3.923   2.996 -0.6208 -0.2311  0.9921
  956TIP3    H2 2875   1.398   3.922   3.103 -1.1064 -0.6528  1.4853
  957TIP3   OH2 2876   1.352   4.287   1.969 -0.9069  0.6619  0.2605
  957TIP3    H1 2877   1.394   4.200   1.968  1.3071  1.6548  0.6502
  957TIP3    H2 2878   1.371   4.323   1.882 -2.8669  0.3386 -0.3456
  958TIP3   OH2 2879   0.480   1.300   5.186  0.6275 -0.2308  0.1480
  958TIP3    H1 2880   0.489   1.382   5.139  0.4704  0.6362  1.5647
  958TIP3    H2 2881   0.570   1.274   5.208  0.6567 -0.2478  0.0046
  959TIP3   OH2 2882   5.727   5.548   1.411  0.2828  0.3097  0.0154
  959TIP3    H1 2883   5.717   5.642   1.397  0.2920  0.2623 -0.3269
  959TIP3    H2 2884   5.755   5.514   1.326  1.7830  0.2084  0.5233
  960TIP3   OH2 2885   0.477   4.343   4.184 -0.2441  0.1753 -0.4684
  960TIP3    H1 2886   0.447   4.433   4.198 -1.7827 -0.3112 -0.4275
  960TIP3    H2 2887   0.423   4.311   4.112  1.3424 -0.2516 -1.5121
  961TIP3   OH2 2888   3.415   4.233   2.616  0.3177 -0.6356 -0.5898
  961TIP3    H1 2889   3.415   4.294   2.690  2.3831 -1.0641 -0.1930
  961TIP3    H2 2890   3.382   4.151   2.652 -1.0693 -0.1959 -0.7818
  962TIP3   OH2 2891   6.369   5.495   2.349 -0.5817  0.5407  0.2364
  962TIP3    H1 2892   6.342   5.510   2.440 -0.5830  0.5734  0.2305
  962TIP3    H2 2893   6.292   5.455   2.308 -0.6913  0.8218  0.1673
  963TIP3   OH2 2894   1.249   3.946   1.238 -0.2104  0.6436  0.2979
  963TIP3    H1 2895   1.176   3.906   1.189  0.7033  0.2333 -0.7746
  963TIP3    H2 2896   1.211   4.026   1.275 -1.5091 -0.1364  0.7328
  964TIP3   OH2 2897   5.322   1.575   4.210  0.2126 -0.2469  0.0765
  964TIP3    H1 2898   5.263   1.626   4.155 -0.5663 -2.0719 -0.8452
  964TIP3    H2 2899   5.272   1.557   4.289 -0.1331 -0.9931 -0.3075
  965TIP3   OH2 2900   3.003   5.767   4.805 -0.4505 -0.0970  0.2264
  965TIP3    H1 2901   3.051   5.817   4.739 -1.2295  0.4793  0.0746
  965TIP3    H2 2902   3.065   5.756   4.877 -0.5969  2.1321  0.7714
  966TIP3   OH2 2903   1.579   5.516   1.723 -0.1191 -0.1613  0.1068
  966TIP3    H1 2904   1.615   5.605   1.718  0.1233 -0.2872 -0.4468
  966TIP3    H2 2905   1.643   5.468   1.775  0.4573 -0.3528 -0.7678
  967TIP3   OH2 2906   0.076   0.785   2.016  0.5020 -0.3825  0.3056
  967TIP3    H1 2907   0.070   0.839   2.095  0.5137  2.1874 -1.3383
  967TIP3    H2 2908  -0.015   0.759   1.998  0.3126  0.1909  0.4077
  968TIP3   OH2 2909   5.808   4.483   3.650 -0.1674 -0.3341  0.1938
  968TIP3    H1 2910   5.849   4.398   3.667 -1.3229 -1.0988 -0.7285
  968TIP3    H2 2911   5.721   4.477   3.690 -0.0574  0.6483  0.6325
  969TIP3   OH2 2912   0.448   4.680   1.366  0.3822  0.0628 -0.0206
  969TIP3    H1 2913   0.494   4.612   1.316  1.0993 -0.3621  1.1838
  969TIP3    H2 2914   0.386   4.717   1.303  0.6415 -1.0470 -0.9806
  970TIP3   OH2 2915   5.654   4.875   5.047  0.5038  0.2398 -0.3377
  970TIP3    H1 2916   5.701   4.927   5.112  1.8709 -1.3634  0.0213
  970TIP3    H2 2917   5.618   4.940   4.986  2.6904  1.6099 -0.3012
  971TIP3   OH2 2918   6.174   1.937   3.516 -0.3269 -0.2646  0.5830
  971TIP3    H1 2919   6.256   1.890   3.500 -0.0504  0.8030 -1.4971
  971TIP3    H2 2920   6.183   2.019   3.468 -2.0684  0.5211  1.4825
  972TIP3   OH2 2921   1.055   2.470   4.017 -0.6073  0.1717  0.1611
  972TIP3    H1 2922   1.030   2.389   4.062 -2.1988  0.0487 -0.8828
  972TIP3    H2 2923   1.148   2.482   4.040  0.4014 -3.1892 -1.4816
  973TIP3   OH2 2924   5.230   1.299   3.586 -0.1174  0.2705  0.6001
  973TIP3    H1 2925   5.227   1.347   3.503  0.0560 -1.0030 -0.1647
  973TIP3    H2 2926   5.257   1.364   3.651  0.5689  1.0862 -0.4876
  974TIP3   OH2 2927   0.797   4.973   3.338  0.4313  0.1400 -0.0888
  974TIP3    H1 2928   0.754   5.025   3.406  1.7784  2.4879 -0.9125
  974TIP3    H2 2929   0.853   4.912   3.387  1.1425  1.5768  0.9645
  975TIP3   OH2 2930   4.888   4.042   2.571  0.9248 -0.4178 -0.6040
  975TIP3    H1 2931   4.801   4.042   2.531  0.8485  0.5061 -0.4522
  975TIP3    H2 2932   4.944   4.001   2.505  0.6100  0.1654 -1.2465
  976TIP3   OH2 2933   3.779   3.943   2.426  0.2032 -0.1323  0.2992
  976TIP3    H1 2934   3.732   4.009   2.375 -0.3610 -0.5747  0.2366
  976TIP3    H2 2935   3.779   3.977   2.515  1.1580  0.6270  0.0303
  977TIP3   OH2 2936   4.710   1.879   1.588  0.4379 -0.5595  0.2162
  977TIP3    H1 2937   4.680   1.811   1.527 -0.4772 -1.8204  1.9855
  977TIP3    H2 2938   4.798   1.849   1.614 -0.1116 -1.2940  1.2747
  978TIP3   OH2 2939   6.318   3.714   4.850  0.4922 -0.0333  0.2130
  978TIP3    H1 2940   6.282   3.786   4.798  1.1473  1.0801  1.2505
  978TIP3    H2 2941   6.269   3.717   4.932  1.6541  0.3412  0.9256
  979TIP3   OH2 2942   3.374   2.461   0.156 -0.0282 -0.0229  0.4965
  979TIP3    H1 2943   3.399   2.456   0.248 -1.0740 -0.9457  0.7495
  979TIP3    H2 2944   3.328   2.544   0.147  0.4528  0.2674  0.7026
  980TIP3   OH2 2945   1.038   4.454   0.530  0.0025 -0.3271 -0.1433
  980TIP3    H1 2946   0.986   4.521   0.485  0.2285  0.3279  0.5495
  980TIP3    H2 2947   1.071   4.398   0.460  0.6126  0.8574 -0.8415
  981TIP3   OH2 2948   5.074   2.340   3.637  0.1143 -0.0990 -0.1245
  981TIP3    H1 2949   5.018   2.400   3.687  0.9108 -0.4159  1.2025
  981TIP3    H2 2950   5.023   2.260   3.630  1.0544 -1.0908  2.8202
  982TIP3   OH2 2951   3.798   2.436   2.872  0.1038 -0.1662 -0.0390
  982TIP3    H1 2952   3.747   2.512   2.900  2.2531  0.5768  2.2463
  982TIP3    H2 2953   3.742   2.361   2.890 -1.5639  0.7717 -1.1182
  983TIP3   OH2 2954   5.669   4.655   0.577  0.0804  0.5984  0.0264
  983TIP3    H1 2955   5.622   4.738   0.581 -1.2119 -0.0976 -0.0996
  983TIP3    H2 2956   5.628   4.607   0.505  0.6900 -0.2166  0.2060
  984TIP3   OH2 2957   5.491   2.482   2.412  0.0908  0.6821 -0.4459
  984TIP3    H1 2958   5.415   2.427   2.394  1.3243 -1.8168  1.4062
  984TIP3    H2 2959   5.542   2.480   2.332 -0.4907  0.1765 -0.8145
  985TIP3   OH2 2960   2.243   4.856   4.085 -0.0160 -0.3384  0.3818
  985TIP3    H1 2961   2.266   4.815   4.001  0.3598 -0.1254  0.3764
  985TIP3    H2 2962   2.327   4.887   4.120 -0.0738 -1.0438  1.1733
  986TIP3   OH2 2963   4.535   3.335   1.020  0.5926  0.0583  0.0387
  986TIP3    H1 2964   4.491   3.417   1.042 -2.5246 -1.3576 -0.3543
  986TIP3    H2 2965   4.522   3.326   0.925 -2.3850 -2.4361  0.5126
  987TIP3   OH2 2966   3.406   5.899   3.352 -0.4055  0.2560  0.2977
  987TIP3    H1 2967   3.374   5.853   3.430 -0.6886 -0.9303 -0.4841
  987TIP3    H2 2968   3.427   5.987   3.383 -0.6558 -0.1410  1.6762
  988TIP3   OH2 2969   1.636   2.756   2.914 -0.1898 -0.4757 -0.7796
  988TIP3    H1 2970   1.699   2.823   2.892 -0.9154  1.1446  1.6431
  988TIP3    H2 2971   1.686   2.690   2.962 -0.1447  0.5012  0.5854
  989TIP3   OH2 2972   2.601   4.788   1.833  0.1025  0.1661 -0.1427
  989TIP3    H1 2973   2.616   4.868   1.883  2.0742 -1.7209  2.5677
  989TIP3    H2 2974   2.679   4.779   1.778 -0.9700  0.9743 -1.8958
  990TIP3   OH2 2975   1.347   0.820   0.796  0.4109 -0.2255 -0.7340
  990TIP3    H1 2976   1.325   0.836   0.888 -0.9527 -0.8139 -0.9348
  990TIP3    H2 2977   1.373   0.728   0.794 -1.4723 -0.7859 -1.2341
  991TIP3   OH2 2978   5.572   4.506   0.025  0.3295 -0.0059  0.1084
  991TIP3    H1 2979   5.503   4.553   0.072  0.0462  0.7589 -1.0218
  991TIP3    H2 2980   5.624   4.464   0.093 -0.5546  0.3814  1.0435
  992TIP3   OH2 2981   5.781   0.179   2.714 -0.0282  0.7051 -0.0631
  992TIP3    H1 2982   5.834   0.146   2.787  0.4350  0.2492 -0.6028
  992TIP3    H2 2983   5.711   0.229   2.757  1.3114  2.0479  0.6386
  993TIP3   OH2 2984   0.799   3.751   4.757  0.0513  0.3916 -0.0210
  993TIP3    H1 2985   0.782   3.691   4.685 -0.4745 -0.5646  0.8756
  993TIP3    H2 2986   0.714   3.761   4.801  0.3985  0.8157  0.5791
  994TIP3   OH2 2987   4.267   5.332   0.788 -0.4509  0.3501 -0.1905
  994TIP3    H1 2988   4.195   5.345   0.727 -2.4055 -1.1611  1.6157
  994TIP3    H2 2989   4.287   5.238   0.782 -0.6579  0.1793  1.3877
  995TIP3   OH2 2990   2.815   0.846   2.791  0.0171  0.2187 -0.3443
  995TIP3    H1 2991   2.855   0.930   2.769 -1.2207  0.9589  0.1134
  995TIP3    H2 2992   2.781   0.812   2.708 -0.4791  0.7210 -0.3486
  996TIP3   OH2 2993   5.840   2.524   1.773  0.6079  0.2273 -0.3804
  996TIP3    H1 2994   5.755   2.511   1.815  1.4317 -0.5936  1.1119
  996TIP3    H2 2995   5.868   2.437   1.746  2.1660  0.0117  1.6354
  997TIP3   OH2 2996   6.092   0.595   4.233 -0.0739  0.6801 -0.1090
  997TIP3    H1 2997   6.155   0.615   4.303  1.5863 -2.4502 -0.4994
  997TIP3    H2 2998   6.018   0.654   4.249  1.5162  2.1933  2.4175
  998TIP3   OH2 2999   5.712   1.582   2.361  0.1672 -0.5047 -0.1662
  998TIP3    H1 3000   5.670   1.586   2.275  0.3554 -0.7888 -0.2723
  998TIP3    H2 3001   5.652   1.628   2.419  0.5827  0.7201 -0.6650
  999TIP3   OH2 3002   6.059   4.344   3.631 -0.5513 -0.4430 -0.3516
  999TIP3    H1 3003   6.100   4.390   3.557  0.1934 -1.1679 -0.4113
  999TIP3    H2 3004   6.018   4.268   3.591  2.8099 -2.8150  0.2570
 1000TIP3   OH2 3005   0.432   4.434   0.668 -0.2530  0.0388 -0.3548
 1000TIP3    H1 3006   0.484   4.511   0.691  0.7499 -1.2315  1.8787
 1000TIP3    H2 3007   0.486   4.386   0.606  1.0710 -0.9515  1.4770
 1001TIP3   OH2 3008   4.702   3.162   2.915  0.4378  0.6453 -0.1771
 1001TIP3    H1 3009   4.746   3.246   2.927 -0.7847  1.1848  0.7125
 1001TIP3    H2 3010   4.650   3.174   2.835  1.0847  0.3657 -0.6431
 1002TIP3   OH2 3011   4.630   3.386   2.698 -1.1819  0.5547  0.8847
 1002TIP3    H1 3012   4.567   3.453   2.671  0.1858  1.6626  0.3352
 1002TIP3    H2 3013   4.677   3.426   2.771 -2.0070 -0.7993  2.2033
 1003TIP3   OH2 3014   1.606   3.037   1.126 -0.4744  0.7263 -0.0186
 1003TIP3    H1 3015   1.697   3.021   1.149 -0.4259  0.2915 -0.5081
 1003TIP3    H2 3016   1.564   3.059   1.209  0.5697  3.4098 -0.0861
 1004TIP3   OH2 3017   2.788   5.162   4.328 -0.9173  0.0231  0.3366
 1004TIP3    H1 3018   2.844   5.143   4.404 -0.7194  0.0931  0.2084
 1004TIP3    H2 3019   2.710   5.108   4.342 -1.1368  0.4720  0.8901
 1005TIP3   OH2 3020   4.614   4.917   4.739  0.3324  0.0491  0.0807
 1005TIP3    H1 3021   4.633   5.011   4.727  0.6249 -0.1549 -1.2528
 1005TIP3    H2 3022   4.641   4.877   4.656  1.1400 -1.3666  0.9939
 1006TIP3   OH2 3023   5.104   1.523   1.544  0.2440 -0.2065  0.6254
 1006TIP3    H1 3024   5.162   1.458   1.505  0.6538 -0.2164  1.2422
 1006TIP3    H2 3025   5.145   1.545   1.628  1.3206  2.4925 -0.5034
 1007TIP3   OH2 3026   2.546   2.603   3.620  0.4184 -0.1752  0.0268
 1007TIP3    H1 3027   2.641   2.600   3.633  0.6972  1.6456 -1.1492
 1007TIP3    H2 3028   2.534   2.576   3.529  0.4178  4.2173 -1.5044
 1008TIP3   OH2 3029   5.539   3.643   0.249 -0.2245  0.2338  0.0618
 1008TIP3    H1 3030   5.633   3.628   0.253 -0.2641  0.1400  0.9908
 1008TIP3    H2 3031   5.500   3.557   0.268 -0.5194 -0.0548 -1.7179
 1009TIP3   OH2 3032   0.585   2.480   4.694  0.2851 -0.6470 -0.3648
 1009TIP3    H1 3033   0.611   2.450   4.607  1.8871  2.1551 -0.9890
 1009TIP3    H2 3034   0.666   2.513   4.734 -0.9385  1.0542  0.8711
 1010TIP3   OH2 3035   0.989   3.485   0.310 -0.3407 -0.0863  0.4971
 1010TIP3    H1 3036   0.981   3.556   0.246 -0.8701 -0.5776  0.0146
 1010TIP3    H2 3037   1.031   3.414   0.261  0.2581 -0.0870  0.9996
 1011TIP3   OH2 3038   5.201   4.932   2.420  0.4603  0.3509  0.2543
 1011TIP3    H1 3039   5.202   4.946   2.325 -1.3066  0.6172  0.2360
 1011TIP3    H2 3040   5.203   5.020   2.457 -0.7397  0.3396  0.3919
 1012TIP3   OH2 3041   1.145   2.436   0.508 -0.2446 -0.3376 -0.1684
 1012TIP3    H1 3042   1.236   2.450   0.480 -0.4242  0.0736 -0.5656
 1012TIP3    H2 3043   1.149   2.435   0.604  0.2655 -0.9425 -0.1959
 1013TIP3   OH2 3044   3.029   0.658   1.229 -0.2544 -0.2015 -0.0385
 1013TIP3    H1 3045   2.961   0.723   1.248  1.0618  1.1328  0.3377
 1013TIP3    H2 3046   2.992   0.575   1.259 -2.0460  0.3251 -0.6505
 1014TIP3   OH2 3047   4.123   0.340   5.044 -0.1476 -0.4013  0.0569
 1014TIP3    H1 3048   4.091   0.375   5.128 -3.3502 -3.4860  0.3561
 1014TIP3    H2 3049   4.195   0.282   5.069 -0.6658 -0.8171  0.6258
 1015TIP3   OH2 3050   3.173   5.665   4.994 -0.1205  0.6522 -0.0637
 1015TIP3    H1 3051   3.141   5.588   5.040 -1.0616  1.3008  0.4021
 1015TIP3    H2 3052   3.269   5.658   4.998 -0.0922 -1.7401 -2.1854
 1016TIP3   OH2 3053   6.182   2.215   3.848  0.1849 -0.0347 -0.5057
 1016TIP3    H1 3054   6.144   2.128   3.837  1.7835 -0.5384 -2.9847
 1016TIP3    H2 3055   6.133   2.254   3.920 -1.5670 -2.4299 -0.2771
 1017TIP3   OH2 3056   5.386   2.364   1.451 -0.2468  0.6426 -0.4431
 1017TIP3    H1 3057   5.318   2.329   1.507  0.4695 -1.0144 -0.5548
 1017TIP3    H2 3058   5.465   2.363   1.505 -0.4803  3.8721  0.1743
 1018TIP3   OH2 3059   1.327   2.853   1.114  0.0610 -0.2720  0.1820
 1018TIP3    H1 3060   1.369   2.789   1.172  0.5071 -1.0467 -0.9524
 1018TIP3    H2 3061   1.259   2.894   1.167 -0.4261 -1.9056  0.8689
 1019TIP3   OH2 3062   3.375   0.522   4.318 -0.4429 -0.0001  0.4080
 1019TIP3    H1 3063   3.398   0.550   4.407  1.8902  1.2836 -0.5019
 1019TIP3    H2 3064   3.376   0.603   4.267  0.3523 -0.9657 -1.1581
 1020TIP3   OH2 3065   2.049   6.001   0.642 -0.2530  0.0557  0.3714
 1020TIP3    H1 3066   2.132   5.953   0.642 -1.6892 -2.6265  1.9356
 1020TIP3    H2 3067   2.023   6.004   0.550  1.2807  0.4783 -0.0781
 1021TIP3   OH2 3068   1.869   5.659   4.144 -0.2029  0.6687  0.5336
 1021TIP3    H1 3069   1.911   5.670   4.058 -1.7213 -0.1158 -0.3496
 1021TIP3    H2 3070   1.775   5.658   4.124 -0.6044  0.9950  2.2838
 1022TIP3   OH2 3071   0.806   3.871   2.211 -0.0997 -0.0407 -0.1838
 1022TIP3    H1 3072   0.718   3.833   2.205 -1.0472  2.2181 -2.1158
 1022TIP3    H2 3073   0.800   3.935   2.282  0.7688 -1.5780  1.3530
 1023TIP3   OH2 3074   1.681   1.954   4.340 -0.0303  0.1305 -0.7449
 1023TIP3    H1 3075   1.774   1.977   4.348  0.3614 -0.8181 -2.2053
 1023TIP3    H2 3076   1.678   1.891   4.268 -1.6623 -0.8174  0.1028
 1024TIP3   OH2 3077   3.276   3.714   2.219 -0.1559  0.2695  0.0712
 1024TIP3    H1 3078   3.279   3.807   2.239 -0.3613  0.1996  0.4441
 1024TIP3    H2 3079   3.198   3.682   2.264 -1.7029  0.4386 -2.2709
 1025TIP3   OH2 3080   0.568   0.943   3.283  0.2943  0.2103 -0.3541
 1025TIP3    H1 3081   0.502   0.965   3.349 -0.2941 -0.3888 -0.7223
 1025TIP3    H2 3082   0.628   0.884   3.328 -0.5220 -0.7887 -0.5456
 1026TIP3   OH2 3083   1.836   2.192   0.695 -0.2793 -0.0270  0.2235
 1026TIP3    H1 3084   1.902   2.123   0.703 -0.2238 -0.1457 -1.0675
 1026TIP3    H2 3085   1.756   2.146   0.672 -0.9223  0.0918  2.0238
 1027TIP3   OH2 3086   0.263   2.389   3.458 -0.2901  0.1008  0.3895
 1027TIP3    H1 3087   0.167   2.385   3.461 -0.3478  1.5055  1.3831
 1027TIP3    H2 3088   0.284   2.479   3.485  1.2525  0.3722 -1.4710
 1028TIP3   OH2 3089   0.227   3.193   0.113 -0.2549  0.3835  0.2123
 1028TIP3    H1 3090   0.322   3.184   0.110 -0.3477 -1.0617  0.8085
 1028TIP3    H2 3091   0.212   3.278   0.153  0.7736  1.8403 -2.2872
 1029TIP3   OH2 3092   5.325   0.732   3.499  0.0195 -0.1255  0.2376
 1029TIP3    H1 3093   5.399   0.723   3.439  1.2986 -0.4891  1.7872
 1029TIP3    H2 3094   5.327   0.824   3.526 -1.6042  0.4790 -1.4970
 1030TIP3   OH2 3095   3.477   3.156   3.038  0.0904 -0.7731  0.5183
 1030TIP3    H1 3096   3.493   3.173   3.131 -2.0858  1.2638  0.6131
 1030TIP3    H2 3097   3.382   3.165   3.028  0.3870  0.3837 -2.1242
 1031TIP3   OH2 3098   5.475   5.193   2.463 -0.3721  0.2247  0.2154
 1031TIP3    H1 3099   5.463   5.159   2.375 -2.6109  0.5351  0.3214
 1031TIP3    H2 3100   5.538   5.133   2.504 -1.2371 -1.4677 -0.8114
 1032TIP3   OH2 3101   4.374   1.533   1.812  0.0144 -0.3168 -0.1554
 1032TIP3    H1 3102   4.382   1.600   1.880  1.2302 -0.3894 -0.1973
 1032TIP3    H2 3103   4.406   1.575   1.732  0.4176 -0.8190 -0.2642
 1033TIP3   OH2 3104   1.715   5.493   4.828  0.6986 -0.5981 -0.1553
 1033TIP3    H1 3105   1.667   5.439   4.766  2.4573  0.3042 -2.4306
 1033TIP3    H2 3106   1.654   5.506   4.901 -2.4445  0.4050 -2.7614
 1034TIP3   OH2 3107   4.158   0.552   4.864  0.1080 -0.2440 -0.2321
 1034TIP3    H1 3108   4.248   0.583   4.872  0.1655 -0.6831  1.0995
 1034TIP3    H2 3109   4.154   0.474   4.920 -1.2778  0.1982  0.3306
 1035TIP3   OH2 3110   5.005   3.083   3.616  0.5864  0.0021 -0.3590
 1035TIP3    H1 3111   5.022   3.094   3.710 -0.9553 -2.5417  0.3182
 1035TIP3    H2 3112   5.090   3.062   3.579  1.0949  0.2917  0.6027
 1036TIP3   OH2 3113   3.178   1.284   1.665  0.0883 -0.5035 -0.1601
 1036TIP3    H1 3114   3.151   1.281   1.757 -0.4960  0.3611 -0.2928
 1036TIP3    H2 3115   3.225   1.367   1.657 -1.5731  0.4069 -1.0761
 1037TIP3   OH2 3116   3.163   4.769   3.454  0.1027 -0.4089  0.2499
 1037TIP3    H1 3117   3.230   4.818   3.405  1.9582 -1.7562  1.3203
 1037TIP3    H2 3118   3.113   4.724   3.386  0.2780  0.5889 -0.5774
 1038TIP3   OH2 3119   1.586   2.667   0.333 -0.0287 -0.1881 -0.6977
 1038TIP3    H1 3120   1.618   2.756   0.318 -1.1785  0.4651  0.5065
 1038TIP3    H2 3121   1.652   2.627   0.389 -1.0676  1.0459  1.5272
 1039TIP3   OH2 3122   3.037   3.046   3.728  0.2811  0.6428 -0.3743
 1039TIP3    H1 3123   2.947   3.017   3.737  0.2927  0.4626 -0.8133
 1039TIP3    H2 3124   3.031   3.142   3.726  0.2318  0.6777  0.9261
 1040TIP3   OH2 3125   0.520   2.852   2.222  0.2741 -0.1314 -0.0741
 1040TIP3    H1 3126   0.573   2.902   2.284  1.2758  0.7701 -1.5814
 1040TIP3    H2 3127   0.431   2.855   2.258  0.1488  3.3040 -0.3315
 1041TIP3   OH2 3128   3.884   5.530   0.680 -0.5869  0.3180  0.5703
 1041TIP3    H1 3129   3.821   5.601   0.666  1.0207  2.1293  1.9158
 1041TIP3    H2 3130   3.880   5.514   0.774 -0.4493 -0.9641  0.3728
 1042TIP3   OH2 3131   0.183   2.401   0.229 -0.4946 -0.0546  0.3034
 1042TIP3    H1 3132   0.118   2.444   0.286 -1.1670 -1.0835  0.3467
 1042TIP3    H2 3133   0.254   2.377   0.289 -0.8054 -0.3596  0.5538
 1043TIP3   OH2 3134   0.738   5.230   0.062  0.3728  0.2556  0.5135
 1043TIP3    H1 3135   0.789   5.241  -0.019  0.8609 -1.5268  0.5321
 1043TIP3    H2 3136   0.658   5.280   0.047 -0.2265 -1.2489 -1.7073
 1044TIP3   OH2 3137   0.118   0.315   1.308 -0.1327 -0.4618 -0.7748
 1044TIP3    H1 3138   0.134   0.247   1.242  1.2832 -0.1527 -0.7870
 1044TIP3    H2 3139   0.192   0.375   1.298  0.4296 -0.6977  1.4756
 1045TIP3   OH2 3140   2.769   1.323   1.849  0.0503 -0.5043 -0.3685
 1045TIP3    H1 3141   2.767   1.306   1.754  1.5399  1.2345 -0.7648
 1045TIP3    H2 3142   2.796   1.239   1.887 -1.7737 -1.6057 -1.3047
 1046TIP3   OH2 3143   5.630   2.210   1.137  0.7286 -0.1037 -0.4042
 1046TIP3    H1 3144   5.576   2.131   1.132  0.3861  0.1199 -0.3421
 1046TIP3    H2 3145   5.569   2.281   1.119  0.2476  0.4366  2.6661
 1047TIP3   OH2 3146   3.981   1.635   2.661 -0.1320  0.1603 -0.1127
 1047TIP3    H1 3147   4.044   1.601   2.725  0.7358  0.5960 -0.7206
 1047TIP3    H2 3148   3.939   1.709   2.705  0.4356  0.4383 -0.0438
 1048TIP3   OH2 3149   1.963   3.169   4.910 -0.3036  0.8954  0.2454
 1048TIP3    H1 3150   2.033   3.233   4.897  0.8755 -0.2172  0.9061
 1048TIP3    H2 3151   1.929   3.152   4.822  1.2191  0.4284 -0.2846
 1049TIP3   OH2 3152   1.945   4.616   0.194 -0.3187  0.0517 -0.3135
 1049TIP3    H1 3153   1.958   4.710   0.177 -1.3946 -0.0218 -1.6553
 1049TIP3    H2 3154   1.851   4.603   0.183 -0.0246 -1.4035 -1.3005
 1050TIP3   OH2 3155   6.279   2.700   1.512 -0.3610 -0.1247  0.3398
 1050TIP3    H1 3156   6.250   2.609   1.515 -1.0729  0.1162  0.9335
 1050TIP3    H2 3157   6.364   2.701   1.556  0.0067 -0.6223 -0.3375
 1051TIP3   OH2 3158   5.409   1.644   1.482  0.1958  0.0479 -0.5458
 1051TIP3    H1 3159   5.452   1.705   1.543 -2.3368  0.5418  0.9061
 1051TIP3    H2 3160   5.400   1.563   1.532 -1.2880  0.2434 -0.4241
 1052TIP3   OH2 3161   1.225   4.274   0.659 -0.4527  0.1618 -0.3913
 1052TIP3    H1 3162   1.174   4.199   0.627  1.2097  0.1459 -3.4146
 1052TIP3    H2 3163   1.185   4.350   0.617 -0.3078  0.6046  0.2640
 1053TIP3   OH2 3164   6.170   5.455   2.813  0.0938 -0.3267 -0.5621
 1053TIP3    H1 3165   6.265   5.451   2.829 -0.3539  0.0836  2.9612
 1053TIP3    H2 3166   6.147   5.546   2.832 -0.8578  0.0460 -3.1072
 1054TIP3   OH2 3167   3.543   2.917   4.723 -0.0842  0.0035 -0.5971
 1054TIP3    H1 3168   3.613   2.880   4.669  0.1329 -0.8503  0.2355
 1054TIP3    H2 3169   3.557   2.878   4.810  0.3877  2.3623  0.4460
 1055TIP3   OH2 3170   1.274   4.169   0.097 -0.0021  0.6306  0.4651
 1055TIP3    H1 3171   1.325   4.123   0.164 -0.3731  2.8417  2.3781
 1055TIP3    H2 3172   1.183   4.156   0.123 -0.3660 -1.0252 -1.4074
 1056TIP3   OH2 3173   2.625   1.560   0.470  0.5315  0.0195 -0.6942
 1056TIP3    H1 3174   2.681   1.633   0.493  0.7664 -0.5154  0.5148
 1056TIP3    H2 3175   2.684   1.494   0.434  0.3140  0.4211 -1.8305
 1057TIP3   OH2 3176   5.887   0.769   4.321 -0.0342 -0.7034 -0.3129
 1057TIP3    H1 3177   5.815   0.821   4.285 -0.6630 -1.2738  0.1107
 1057TIP3    H2 3178   5.951   0.835   4.350 -0.5800 -0.1777 -0.2761
 1058TIP3   OH2 3179   4.066   0.064   0.371  0.3050 -0.0057  0.0204
 1058TIP3    H1 3180   4.008   0.068   0.294 -1.4779  0.4906  1.3182
 1058TIP3    H2 3181   4.049   0.146   0.418 -0.3265 -1.2421  2.0719
 1059TIP3   OH2 3182   5.324   4.587   2.985  0.0473  0.1048  0.1293
 1059TIP3    H1 3183   5.270   4.549   2.915 -0.1387  0.4623  0.0734
 1059TIP3    H2 3184   5.261   4.634   3.040  0.0031 -1.2556  1.2806
 1060TIP3   OH2 3185   6.271   4.685   0.494  0.5793  0.4121  0.5972
 1060TIP3    H1 3186   6.247   4.775   0.515 -0.5854  0.2456  0.0786
 1060TIP3    H2 3187   6.335   4.693   0.424  2.2558  0.8738  2.0877
 1061TIP3   OH2 3188   1.657   3.467   0.156 -0.3540  0.0865  0.2640
 1061TIP3    H1 3189   1.728   3.481   0.094 -0.7829  1.5023  0.0395
 1061TIP3    H2 3190   1.678   3.384   0.199  0.8043 -0.1033 -0.6116
 1062TIP3   OH2 3191   3.632   0.548   3.561 -0.3183 -0.0603 -0.2605
 1062TIP3    H1 3192   3.607   0.590   3.479  0.3423  0.7610 -0.0667
 1062TIP3    H2 3193   3.614   0.615   3.628  1.1603  0.1031  0.0080
 1063TIP3   OH2 3194   4.128   5.158   1.288  0.2466  0.1363  0.0209
 1063TIP3    H1 3195   4.129   5.063   1.280 -0.5967  0.1626 -0.4596
 1063TIP3    H2 3196   4.126   5.191   1.198  1.9193  0.6472  0.1441
 1064TIP3   OH2 3197   3.135   4.721   1.026  0.3337  0.1525 -0.4871
 1064TIP3    H1 3198   3.152   4.627   1.023 -1.2141 -0.1853  0.1120
 1064TIP3    H2 3199   3.086   4.739   0.945 -0.5144  0.1632  0.0127
 1065TIP3   OH2 3200   2.805   5.622   3.864  0.1388 -0.1370 -0.1881
 1065TIP3    H1 3201   2.853   5.639   3.782  3.0932 -2.7335  0.8230
 1065TIP3    H2 3202   2.752   5.544   3.845 -0.0957 -0.0307  0.0280
 1066TIP3   OH2 3203   3.026   2.422   5.070 -0.6095 -0.5082  0.1735
 1066TIP3    H1 3204   3.031   2.477   5.147 -0.2886 -0.5644  0.1954
 1066TIP3    H2 3205   3.033   2.483   4.996 -0.7402 -0.4715  0.1917
 1067TIP3   OH2 3206   4.896   1.252   2.337  0.3841  0.0824  0.9838
 1067TIP3    H1 3207   4.918   1.300   2.417  0.4391 -1.7523  2.1115
 1067TIP3    H2 3208   4.822   1.197   2.362 -1.7436  1.7486 -1.1200
 1068TIP3   OH2 3209   1.470   2.061   1.944 -0.0369 -0.2350  0.1445
 1068TIP3    H1 3210   1.401   2.099   1.890 -1.7986 -0.7904  1.8962
 1068TIP3    H2 3211   1.473   1.969   1.918 -0.0636 -0.2424  0.1671
 1069TIP3   OH2 3212   4.018   5.329   0.031  0.2202 -0.0829 -0.1291
 1069TIP3    H1 3213   3.998   5.240   0.005  0.9622 -0.1825 -0.3754
 1069TIP3    H2 3214   3.944   5.381  -0.000 -0.5832 -0.7091  0.6721
 1070TIP3   OH2 3215   2.365   5.910   2.790 -0.0042 -0.0995 -0.6334
 1070TIP3    H1 3216   2.420   5.980   2.824 -0.1750 -0.7887  1.2122
 1070TIP3    H2 3217   2.307   5.887   2.863 -2.1478 -0.0167 -2.2071
 1071TIP3   OH2 3218   2.177   4.635   2.410 -0.5799 -0.0673  0.0957
 1071TIP3    H1 3219   2.180   4.654   2.316 -0.0155  0.7991  0.2777
 1071TIP3    H2 3220   2.193   4.541   2.416 -3.2660 -0.6783 -0.8212
 1072TIP3   OH2 3221   5.670   3.284   0.166 -0.0911 -0.4436  0.0940
 1072TIP3    H1 3222   5.707   3.352   0.222  0.5695 -0.5330 -0.2264
 1072TIP3    H2 3223   5.681   3.203   0.216 -1.1457 -0.2881  0.6031
 1073TIP3   OH2 3224   5.367   5.816   2.911  0.2203 -0.1344 -0.5086
 1073TIP3    H1 3225   5.372   5.865   2.829 -0.8046  0.8821  0.0109
 1073TIP3    H2 3226   5.290   5.851   2.955  0.7795 -0.6406  0.9218
 1074TIP3   OH2 3227   1.907   0.955   1.539  0.1322  0.0275  0.4472
 1074TIP3    H1 3228   1.961   0.979   1.614 -0.8902  2.0311  0.6034
 1074TIP3    H2 3229   1.868   0.871   1.564  1.6404 -0.5186  1.1115
 1075TIP3   OH2 3230   4.508   4.276   0.882 -0.4752 -0.7456  0.4161
 1075TIP3    H1 3231   4.499   4.223   0.961  0.1045 -0.8321  0.4298
 1075TIP3    H2 3232   4.562   4.222   0.823 -0.0694 -0.2714  0.3434
 1076TIP3   OH2 3233   0.072   4.228   0.751 -0.2288  0.0967 -0.2790
 1076TIP3    H1 3234   0.033   4.315   0.752 -0.8352 -0.0974 -2.3946
 1076TIP3    H2 3235   0.006   4.172   0.709  0.5877 -1.1649  0.0519
 1077TIP3   OH2 3236   0.091   5.987   4.328  0.5777  0.1835  0.5133
 1077TIP3    H1 3237   0.169   5.979   4.274 -0.6172  1.7886 -1.5812
 1077TIP3    H2 3238   0.031   5.920   4.294  1.3352 -1.8622  2.8803
 1078TIP3   OH2 3239   1.261   5.943   3.757  0.2976  0.4061  0.2312
 1078TIP3    H1 3240   1.181   5.916   3.802  0.7768 -1.7570 -0.0772
 1078TIP3    H2 3241   1.300   6.009   3.814 -0.9912  0.4606  1.0807
 1079TIP3   OH2 3242   1.572   4.758   3.966  0.1907  0.5956  0.7651
 1079TIP3    H1 3243   1.513   4.755   4.041  0.0627 -0.3709  0.6370
 1079TIP3    H2 3244   1.520   4.796   3.895  0.0056  0.5982  0.9031
 1080TIP3   OH2 3245   0.966   0.780   4.726  0.0658  0.4615 -0.1175
 1080TIP3    H1 3246   0.877   0.780   4.692 -0.0682  0.1520  0.2296
 1080TIP3    H2 3247   0.956   0.764   4.820  0.3642  2.2572  0.2562
 1081TIP3   OH2 3248   3.077   2.320   0.955 -0.2985  0.3189 -0.4406
 1081TIP3    H1 3249   3.045   2.379   1.022 -0.1232 -0.2846  0.1846
 1081TIP3    H2 3250   3.033   2.348   0.875  1.6061  2.8587 -0.7048
 1082TIP3   OH2 3251   0.311   0.408   2.466 -0.6488  0.0892  0.5488
 1082TIP3    H1 3252   0.231   0.363   2.437  1.1199 -2.9379 -0.0576
 1082TIP3    H2 3253   0.381   0.362   2.421  1.5890  1.5663  2.3324
 1083TIP3   OH2 3254   1.603   0.830   0.339  0.0009 -1.0526  0.3643
 1083TIP3    H1 3255   1.607   0.879   0.257 -2.8047 -0.6174  0.4011
 1083TIP3    H2 3256   1.654   0.883   0.401 -3.0206  2.1181  0.4489
 1084TIP3   OH2 3257   5.117   1.726   3.323  0.7802 -0.0007  0.0591
 1084TIP3    H1 3258   5.050   1.679   3.273  0.8355 -0.2979  0.2606
 1084TIP3    H2 3259   5.164   1.657   3.370 -1.1552  0.4143  2.8855
 1085TIP3   OH2 3260   3.485   4.140   0.891 -0.4111 -0.0497 -0.5133
 1085TIP3    H1 3261   3.445   4.227   0.897  0.7005  0.4101  0.6200
 1085TIP3    H2 3262   3.446   4.090   0.962 -0.8735 -0.4158 -1.0182
 1086TIP3   OH2 3263   3.316   2.759   2.695  0.0706 -0.3264 -0.3214
 1086TIP3    H1 3264   3.243   2.808   2.734 -0.5817 -0.9743 -0.7155
 1086TIP3    H2 3265   3.352   2.818   2.629 -0.2341 -0.0846 -0.2732
 1087TIP3   OH2 3266   2.320   2.586   1.696  0.7853 -0.0247  0.6353
 1087TIP3    H1 3267   2.307   2.493   1.715  0.0026 -0.0126  0.2208
 1087TIP3    H2 3268   2.385   2.588   1.626 -1.2718 -0.4489 -1.4070
 1088TIP3   OH2 3269   3.870   0.797   1.049 -0.1330 -0.0893  0.2335
 1088TIP3    H1 3270   3.932   0.762   1.114  1.0645  1.2788 -0.1179
 1088TIP3    H2 3271   3.920   0.799   0.968 -0.0752  2.5120  0.2620
 1089TIP3   OH2 3272   5.464   0.746   4.384 -0.3418  0.0818  0.2411
 1089TIP3    H1 3273   5.535   0.799   4.348 -0.7203 -0.2936 -1.1371
 1089TIP3    H2 3274   5.434   0.794   4.460  0.1823  1.1833 -0.2239
 1090TIP3   OH2 3275   6.063   5.574   3.878  0.2085 -0.0408  0.1226
 1090TIP3    H1 3276   6.151   5.594   3.909  0.2457 -1.4477  1.0013
 1090TIP3    H2 3277   6.006   5.632   3.930  0.4738 -0.5710  1.0345
 1091TIP3   OH2 3278   0.620   4.878   2.985 -0.0084  0.9859 -0.1144
 1091TIP3    H1 3279   0.672   4.888   2.905 -1.6719  2.3484 -1.0957
 1091TIP3    H2 3280   0.574   4.961   2.994 -0.7343  0.4379  1.6374
 1092TIP3   OH2 3281   0.483   0.327   1.789 -0.6899  0.2848  0.4088
 1092TIP3    H1 3282   0.416   0.396   1.784 -2.4177 -1.3523 -0.0525
 1092TIP3    H2 3283   0.535   0.351   1.866 -1.5531  1.8168  0.5653
 1093TIP3   OH2 3284   3.223   5.359   2.830 -0.2317  0.0330  0.3655
 1093TIP3    H1 3285   3.250   5.272   2.860 -2.5449 -0.7211  0.4560
 1093TIP3    H2 3286   3.253   5.419   2.899 -2.3303 -1.2490  2.5544
 1094TIP3   OH2 3287   0.816   2.989   4.218  0.0813 -0.6008 -0.1039
 1094TIP3    H1 3288   0.764   3.038   4.282  0.8640 -1.9102  1.6126
 1094TIP3    H2 3289   0.757   2.978   4.143 -1.1740  0.2219  0.7088
 1095TIP3   OH2 3290   3.164   3.950   2.418 -0.3099 -0.0180 -0.2161
 1095TIP3    H1 3291   3.148   4.032   2.466  1.9613  1.4324 -1.7362
 1095TIP3    H2 3292   3.234   3.972   2.356  0.3085 -3.1156 -0.7704
 1096TIP3   OH2 3293   2.484   0.702   1.867 -0.5772  0.3898 -0.1409
 1096TIP3    H1 3294   2.480   0.618   1.912 -1.2124  0.4856  0.0000
 1096TIP3    H2 3295   2.444   0.686   1.782  0.2764  0.3000 -0.5325
 1097TIP3   OH2 3296   1.293   0.444   5.017  0.0955 -0.1837  0.4262
 1097TIP3    H1 3297   1.245   0.466   4.938  1.8710 -1.0879 -0.9874
 1097TIP3    H2 3298   1.384   0.435   4.988  0.9523  0.2763  2.7365
 1098TIP3   OH2 3299   4.184   0.333   0.114  0.0167 -0.0373 -0.1807
 1098TIP3    H1 3300   4.216   0.330   0.023  0.7096  2.6265 -0.0957
 1098TIP3    H2 3301   4.090   0.319   0.106  0.1358 -0.3859 -1.2428
 1099TIP3   OH2 3302   4.673   1.656   4.311 -0.1135  0.0943 -0.3586
 1099TIP3    H1 3303   4.668   1.686   4.220 -0.2894  0.6187 -0.1751
 1099TIP3    H2 3304   4.687   1.735   4.362  0.3607 -0.2430  0.0410
 1100TIP3   OH2 3305   2.761   5.438   2.900  0.0874 -0.3092  0.1437
 1100TIP3    H1 3306   2.669   5.455   2.920 -0.6729 -2.1548 -1.3987
 1100TIP3    H2 3307   2.763   5.347   2.871  2.2565 -0.0742 -0.6781
 1101TIP3   OH2 3308   1.715   3.584   4.235  0.7557  0.0304  0.1285
 1101TIP3    H1 3309   1.642   3.546   4.187 -0.2240 -0.4741  1.9560
 1101TIP3    H2 3310   1.772   3.510   4.256  1.3150  0.2854 -0.4528
 1102TIP3   OH2 3311   4.528   1.525   3.133 -0.1853 -0.0772  0.0328
 1102TIP3    H1 3312   4.592   1.457   3.114  0.4759  0.2488  1.0591
 1102TIP3    H2 3313   4.509   1.516   3.226  1.2958  2.2500  0.6567
 1103TIP3   OH2 3314   0.674   0.591   4.392  0.1068  0.2045  0.8399
 1103TIP3    H1 3315   0.715   0.643   4.323  0.4965 -0.5211  0.5112
 1103TIP3    H2 3316   0.631   0.519   4.346 -0.4635  0.2495  1.2859
 1104TIP3   OH2 3317   5.914   5.386   2.911 -0.0356  0.1034  0.1585
 1104TIP3    H1 3318   6.001   5.396   2.873 -0.1660 -0.2978 -0.2555
 1104TIP3    H2 3319   5.856   5.435   2.854 -0.0963  0.3090  0.3927
 1105TIP3   OH2 3320   2.021   3.081   0.567  0.1725  0.3388 -0.4718
 1105TIP3    H1 3321   1.971   3.095   0.487  1.4322  0.1235 -1.3384
 1105TIP3    H2 3322   2.047   2.989   0.565  4.0660  1.2389 -2.2819
 1106TIP3   OH2 3323   1.650   3.856   3.781  0.3993  0.0030  0.1044
 1106TIP3    H1 3324   1.576   3.806   3.748  1.3858 -0.5103 -1.4585
 1106TIP3    H2 3325   1.652   3.934   3.726  0.5131  0.4315  0.7074
 1107TIP3   OH2 3326   2.840   2.635   4.150  0.1654 -0.1911 -0.2531
 1107TIP3    H1 3327   2.780   2.707   4.169  1.2352  0.3906  0.9946
 1107TIP3    H2 3328   2.927   2.675   4.149  0.5835 -1.0481 -1.8935
 1108TIP3   OH2 3329   3.120   4.415   2.814  0.4140  0.2713 -0.9069
 1108TIP3    H1 3330   3.215   4.420   2.825  0.5549 -1.0215 -1.3732
 1108TIP3    H2 3331   3.095   4.331   2.854 -0.6685  1.0127  0.0519
 1109TIP3   OH2 3332   0.461   1.849   4.068  0.2552  0.4823  0.1214
 1109TIP3    H1 3333   0.504   1.931   4.093 -0.1574  0.2522  1.6863
 1109TIP3    H2 3334   0.382   1.877   4.022 -0.4261  1.0405  1.5480
 1110TIP3   OH2 3335   0.758   1.097   0.200 -0.0610  0.0803 -0.7693
 1110TIP3    H1 3336   0.853   1.096   0.187 -0.0458 -1.2109 -0.6594
 1110TIP3    H2 3337   0.736   1.007   0.223 -1.6424 -0.2217 -3.1771
 1111TIP3   OH2 3338   2.612   3.202   2.880 -0.3303  0.0480 -0.0250
 1111TIP3    H1 3339   2.638   3.117   2.915  0.1693  0.5432  0.8400
 1111TIP3    H2 3340   2.517   3.197   2.875 -0.3046 -0.5663  0.0199
 1112TIP3   OH2 3341   2.042   1.563   5.023 -0.0085  0.0860 -0.6026
 1112TIP3    H1 3342   1.982   1.496   5.055 -0.0999  0.8423  0.9019
 1112TIP3    H2 3343   1.985   1.631   4.986  0.0876 -0.6718 -2.2249
 1113TIP3   OH2 3344   1.578   2.467   1.302  0.3625 -0.2741 -0.9690
 1113TIP3    H1 3345   1.606   2.379   1.275 -0.2294 -0.1585 -2.0117
 1113TIP3    H2 3346   1.577   2.517   1.221 -1.0481  0.2224 -0.6635
 1114TIP3   OH2 3347   6.274   4.789   3.506  0.5722  0.2013  0.2686
 1114TIP3    H1 3348   6.274   4.739   3.424  0.4757  2.5931 -1.2995
 1114TIP3    H2 3349   6.184   4.822   3.513  0.5650 -0.0381  1.4022
 1115TIP3   OH2 3350   0.519   2.050   4.235  0.2186 -0.0005  0.3590
 1115TIP3    H1 3351   0.453   2.118   4.228 -1.1838 -1.5028 -1.9657
 1115TIP3    H2 3352   0.602   2.097   4.229 -0.6955  1.5989 -0.3342
 1116TIP3   OH2 3353   1.874   5.475   3.481 -0.4434  0.0474 -0.4605
 1116TIP3    H1 3354   1.912   5.388   3.469  0.5561  0.3077  0.6648
 1116TIP3    H2 3355   1.786   5.459   3.514 -0.8478 -0.5473 -1.7739
 1117TIP3   OH2 3356   5.037   5.170   2.145 -0.0051  0.0156 -0.1635
 1117TIP3    H1 3357   5.121   5.141   2.178 -0.6156  0.9777  2.5227
 1117TIP3    H2 3358   5.024   5.120   2.064  2.4680 -1.1724  0.0805
 1118TIP3   OH2 3359   2.131   1.745   3.484  0.4258  0.7622  0.0622
 1118TIP3    H1 3360   2.188   1.673   3.458  0.8930  1.0247  0.3439
 1118TIP3    H2 3361   2.042   1.711   3.473  0.6439  0.1761  0.1087
 1119TIP3   OH2 3362   6.084   2.245   1.881 -0.3922  0.3445  0.2588
 1119TIP3    H1 3363   6.132   2.280   1.956 -1.4478 -0.4707  1.3561
 1119TIP3    H2 3364   6.145   2.185   1.839  0.6768  1.7976 -0.3650
 1120TIP3   OH2 3365   3.214   1.180   3.501 -0.1949 -0.6360 -0.1281
 1120TIP3    H1 3366   3.274   1.203   3.430  1.9465 -2.1502  1.0756
 1120TIP3    H2 3367   3.211   1.258   3.556  1.7223 -0.8948  0.4270
 1121TIP3   OH2 3368   3.271   4.514   0.214  0.0653 -0.1381 -0.2956
 1121TIP3    H1 3369   3.355   4.519   0.168 -0.5554  0.7950 -1.3900
 1121TIP3    H2 3370   3.285   4.562   0.295  0.3882  0.6840 -0.8211
 1122TIP3   OH2 3371   5.905   0.970   1.179  0.3702 -0.1382  0.6071
 1122TIP3    H1 3372   5.853   0.891   1.196  1.4321 -0.6115  1.8214
 1122TIP3    H2 3373   5.857   1.016   1.111  0.0804 -2.1619 -0.6254
 1123TIP3   OH2 3374   5.562   5.038   0.066 -0.0542 -0.3241  0.0230
 1123TIP3    H1 3375   5.522   5.120   0.036  0.8193  0.5077  1.0744
 1123TIP3    H2 3376   5.645   5.034   0.019  0.3868 -0.0583  0.7770
 1124TIP3   OH2 3377   3.096   1.151   2.882 -0.3545 -0.0721 -0.5091
 1124TIP3    H1 3378   3.182   1.156   2.841  1.5670 -1.7728  2.8509
 1124TIP3    H2 3379   3.041   1.106   2.818  1.3482  0.5835 -2.5504
 1125TIP3   OH2 3380   3.279   3.680   3.798 -0.1219  0.0140 -0.5018
 1125TIP3    H1 3381   3.333   3.754   3.829 -1.4951 -0.0397  2.3969
 1125TIP3    H2 3382   3.315   3.604   3.844 -0.7897 -0.5488 -0.8951
 1126TIP3   OH2 3383   5.342   4.063   1.372  0.0102  0.0034 -0.3613
 1126TIP3    H1 3384   5.313   4.153   1.358  0.6565 -0.1706 -3.7347
 1126TIP3    H2 3385   5.282   4.010   1.319  1.1701 -1.2635 -0.4804
 1127TIP3   OH2 3386   5.371   4.971   1.358 -0.0582 -0.0625 -0.4609
 1127TIP3    H1 3387   5.278   4.981   1.377 -0.3200 -2.6608 -0.0552
 1127TIP3    H2 3388   5.379   4.883   1.320  2.1898  0.2149 -0.7883
 1128TIP3   OH2 3389   6.139   4.989   4.552  0.1267 -0.0633 -0.1751
 1128TIP3    H1 3390   6.151   5.066   4.608  1.6049 -0.2029 -0.2400
 1128TIP3    H2 3391   6.208   4.929   4.580  0.2222 -0.5667 -1.4234
 1129TIP3   OH2 3392   0.159   2.301   4.397  0.3352 -0.1330 -0.1852
 1129TIP3    H1 3393   0.249   2.279   4.374  0.1215 -0.6880 -0.5217
 1129TIP3    H2 3394   0.109   2.287   4.317  0.0280  0.6992 -0.1512
 1130TIP3   OH2 3395   0.169   4.056   2.117 -0.2562  1.0183  0.0395
 1130TIP3    H1 3396   0.075   4.037   2.124  0.2075 -2.2321 -0.9107
 1130TIP3    H2 3397   0.212   3.984   2.162  1.8075  1.6079 -0.8611
 1131TIP3   OH2 3398   4.120   4.875   3.052  0.1457 -0.2105 -0.4822
 1131TIP3    H1 3399   4.214   4.869   3.069 -0.1802 -1.9096  1.1520
 1131TIP3    H2 3400   4.088   4.786   3.068 -1.8651  0.5349 -0.0741
 1132TIP3   OH2 3401   1.049   1.625   4.798 -0.5946 -0.1017  0.2516
 1132TIP3    H1 3402   0.975   1.667   4.843 -0.6734 -1.2427  1.2409
 1132TIP3    H2 3403   1.126   1.659   4.844 -0.5845  0.0053  0.1551
 1133TIP3   OH2 3404   0.462   3.708   5.115  0.0261  0.1254 -0.2261
 1133TIP3    H1 3405   0.415   3.677   5.192 -0.5317 -1.6202 -1.2283
 1133TIP3    H2 3406   0.551   3.725   5.146 -0.2209 -0.4277  0.8164
 1134TIP3   OH2 3407   3.034   5.611   4.294 -0.3454 -0.2952  0.5511
 1134TIP3    H1 3408   2.943   5.596   4.320 -0.6807 -1.1850 -1.0203
 1134TIP3    H2 3409   3.079   5.529   4.315 -0.4141 -0.6739 -0.6995
 1135TIP3   OH2 3410   1.051   2.208   4.635  0.0056  0.6755 -0.1173
 1135TIP3    H1 3411   0.960   2.220   4.664 -0.1726 -1.3098  0.2765
 1135TIP3    H2 3412   1.101   2.202   4.716 -0.0221 -1.5363 -0.2046
 1136TIP3   OH2 3413   6.102   5.204   0.823  0.3495 -0.2782 -0.1727
 1136TIP3    H1 3414   6.091   5.155   0.742 -1.4398 -1.6470  0.8112
 1136TIP3    H2 3415   6.013   5.212   0.858  0.3141  4.5616 -0.6904
 1137TIP3   OH2 3416   1.521   2.333   4.643 -0.2617 -0.0921  0.0032
 1137TIP3    H1 3417   1.440   2.321   4.592 -0.2587 -1.2937  0.2576
 1137TIP3    H2 3418   1.591   2.322   4.579 -0.2772  0.2552 -0.0790
 1138TIP3   OH2 3419   1.869   1.133   3.974 -0.2521  0.3685 -0.4675
 1138TIP3    H1 3420   1.959   1.164   3.967 -1.1197  2.7359 -2.3526
 1138TIP3    H2 3421   1.827   1.195   4.033 -0.9181 -0.0959 -0.4460
 1139TIP3   OH2 3422   2.938   3.701   0.399  0.3950 -0.0287  0.5921
 1139TIP3    H1 3423   2.942   3.671   0.309 -1.1023 -2.2325  1.1580
 1139TIP3    H2 3424   2.927   3.796   0.393 -1.5858 -0.3112 -1.6358
 1140TIP3   OH2 3425   4.495   3.396   1.570 -0.1837  0.2120 -0.0245
 1140TIP3    H1 3426   4.478   3.479   1.614 -0.4568  0.5485 -0.7478
 1140TIP3    H2 3427   4.520   3.421   1.481 -0.7938 -0.5027 -0.4050
 1141TIP3   OH2 3428   1.317   0.866   2.282 -0.3374  0.2872  0.2979
 1141TIP3    H1 3429   1.306   0.805   2.209  0.6717 -0.8974  1.0886
 1141TIP3    H2 3430   1.245   0.847   2.342  0.0239 -0.1962  0.5827
 1142TIP3   OH2 3431   1.291   0.836   2.672 -0.5165  0.0874  0.0485
 1142TIP3    H1 3432   1.224   0.814   2.607  0.0538 -1.2347 -0.1201
 1142TIP3    H2 3433   1.295   0.932   2.670 -0.0692  0.0805 -2.3390
 1143TIP3   OH2 3434   4.974   4.696   1.026 -0.0823 -0.4971  0.0755
 1143TIP3    H1 3435   5.054   4.746   1.007  0.2254 -0.8431  0.4186
 1143TIP3    H2 3436   4.904   4.761   1.025 -0.0377 -0.4249 -1.7526
 1144TIP3   OH2 3437   2.843   4.008   2.212  0.3852  0.1352  0.5712
 1144TIP3    H1 3438   2.777   4.050   2.157  0.1349 -0.7538  0.1719
 1144TIP3    H2 3439   2.856   4.069   2.284 -0.6346  0.4745  0.4846
 1145TIP3   OH2 3440   3.982   1.190   3.848  0.5837  0.0014  0.3102
 1145TIP3    H1 3441   4.005   1.183   3.940 -0.5283 -1.1257  0.5403
 1145TIP3    H2 3442   3.893   1.226   3.848  1.2137  1.6612 -0.4204
 1146TIP3   OH2 3443   4.132   0.435   0.768 -0.2105 -0.4997 -0.4472
 1146TIP3    H1 3444   4.179   0.412   0.688  0.3798  0.7634 -0.4871
 1146TIP3    H2 3445   4.074   0.361   0.784 -0.4139 -0.7375 -2.1084
 1147TIP3   OH2 3446   4.667   1.434   0.784 -0.0937  0.0005  0.0233
 1147TIP3    H1 3447   4.759   1.434   0.759 -0.0300 -1.3903  0.2037
 1147TIP3    H2 3448   4.624   1.488   0.718  0.7317  0.0448 -0.4927
 1148TIP3   OH2 3449   2.203   4.060   2.667  0.3958 -0.2139  0.9542
 1148TIP3    H1 3450   2.190   4.033   2.758  0.6990 -3.7669  0.0978
 1148TIP3    H2 3451   2.291   4.029   2.646  0.0603 -0.0839 -0.7424
 1149TIP3   OH2 3452   3.965   4.602   2.061  0.5344 -0.5085  0.0261
 1149TIP3    H1 3453   3.938   4.682   2.107  3.3976  0.3009  0.4501
 1149TIP3    H2 3454   3.882   4.559   2.038 -1.3294 -1.1436  6.0757
 1150TIP3   OH2 3455   6.185   4.156   5.181  0.3004 -1.0458 -0.0374
 1150TIP3    H1 3456   6.269   4.133   5.140 -0.1139  0.4101 -1.8413
 1150TIP3    H2 3457   6.205   4.235   5.232  0.2806 -1.4085  0.5335
 1151TIP3   OH2 3458   5.907   4.146   2.587 -0.5027 -0.0826  0.1296
 1151TIP3    H1 3459   5.970   4.110   2.649 -0.1928  2.4364  1.4103
 1151TIP3    H2 3460   5.957   4.163   2.508  0.1976  0.8383  0.7521
 1152TIP3   OH2 3461   1.924   2.881   3.831 -0.1801  0.1565 -0.3573
 1152TIP3    H1 3462   1.848   2.829   3.806 -1.1133  1.2000  0.2409
 1152TIP3    H2 3463   1.968   2.899   3.748 -1.0403  0.2282 -0.8104
 1153TIP3   OH2 3464   1.584   2.665   3.384  0.5400 -0.6287 -0.2388
 1153TIP3    H1 3465   1.676   2.649   3.401  0.6822  0.9344  0.5779
 1153TIP3    H2 3466   1.537   2.606   3.444  1.0205 -0.1453  0.6242
 1154TIP3   OH2 3467   4.914   4.999   4.815  0.1851 -0.5191 -0.2235
 1154TIP3    H1 3468   4.932   4.916   4.771 -1.4240 -0.7561 -0.5095
 1154TIP3    H2 3469   4.901   4.976   4.907 -0.0201 -0.5600 -0.2611
 1155TIP3   OH2 3470   2.357   3.098   3.463 -0.1998  0.9460 -0.2017
 1155TIP3    H1 3471   2.269   3.116   3.495  0.3920 -0.0393  2.2159
 1155TIP3    H2 3472   2.379   3.012   3.499  0.8808  0.0605 -2.7659
 1156TIP3   OH2 3473   1.876   4.972   2.117 -0.4098 -0.7203 -0.4805
 1156TIP3    H1 3474   1.804   5.036   2.120  0.0651 -0.1494 -0.9001
 1156TIP3    H2 3475   1.937   5.003   2.184  0.5916  0.2366 -1.7758
 1157TIP3   OH2 3476   2.000   4.684   3.993  0.3410  0.0538 -0.3287
 1157TIP3    H1 3477   1.940   4.755   4.017 -0.2306 -0.3315 -0.6021
 1157TIP3    H2 3478   2.080   4.729   3.966  1.3645  0.5244  3.0242
 1158TIP3   OH2 3479   1.888   0.212   4.361 -0.1206 -0.1574  0.1840
 1158TIP3    H1 3480   1.933   0.235   4.442  1.0277 -1.0742 -0.1738
 1158TIP3    H2 3481   1.802   0.180   4.390 -0.1064  0.4670  0.9531
 1159TIP3   OH2 3482   4.094   0.508   2.586  0.2019  0.6812 -0.1805
 1159TIP3    H1 3483   4.160   0.458   2.539 -0.5039 -0.2641 -0.1890
 1159TIP3    H2 3484   4.105   0.598   2.554  0.2566  0.2051 -1.5613
 1160TIP3   OH2 3485   3.277   3.238   1.346 -0.4069  0.4118  0.1991
 1160TIP3    H1 3486   3.283   3.250   1.441 -2.0741 -0.6338  0.4816
 1160TIP3    H2 3487   3.238   3.151   1.335  0.2215  0.2972 -1.4674
 1161TIP3   OH2 3488   3.402   2.174   1.912  0.0448 -0.0973 -0.0687
 1161TIP3    H1 3489   3.311   2.148   1.927 -0.6221  0.2716 -2.8275
 1161TIP3    H2 3490   3.396   2.265   1.881  1.5532  0.5560  1.4316
 1162TIP3   OH2 3491   5.489   4.683   4.057 -0.1592 -0.5027 -0.4199
 1162TIP3    H1 3492   5.545   4.605   4.066 -0.5623 -0.9368 -1.5793
 1162TIP3    H2 3493   5.410   4.651   4.015  0.1264  0.7310 -1.9607
 1163TIP3   OH2 3494   1.052   1.295   4.188  0.4071 -0.2877  0.1619
 1163TIP3    H1 3495   1.024   1.204   4.182  0.4254 -0.2947  0.1872
 1163TIP3    H2 3496   0.970   1.345   4.195  0.3189 -0.2058 -1.0987
 1164TIP3   OH2 3497   2.896   3.842   1.568  0.5659 -0.1521  0.0599
 1164TIP3    H1 3498   2.867   3.787   1.640  0.5879  0.4915  0.5757
 1164TIP3    H2 3499   2.839   3.819   1.495 -0.0010 -0.2265  0.5236
 1165TIP3   OH2 3500   1.573   1.351   3.981 -0.2659  0.0032 -0.6749
 1165TIP3    H1 3501   1.511   1.395   4.039  0.6530 -0.1019  0.4287
 1165TIP3    H2 3502   1.646   1.326   4.038 -0.6291 -2.7761 -1.3034
 1166TIP3   OH2 3503   1.705   2.106   1.747  0.1260 -0.3203 -0.0293
 1166TIP3    H1 3504   1.775   2.057   1.703 -1.0703 -0.6785 -1.6511
 1166TIP3    H2 3505   1.710   2.078   1.838  1.9945 -0.4298 -0.1236
 1167TIP3   OH2 3506   2.821   3.758   5.026  0.1547  0.1552  0.6184
 1167TIP3    H1 3507   2.889   3.707   5.068 -0.3946 -1.0841  0.0352
 1167TIP3    H2 3508   2.863   3.842   5.006  2.0365 -1.1575 -1.2669
 1168TIP3   OH2 3509   3.875   0.245   3.011  0.0586  0.3919 -0.6265
 1168TIP3    H1 3510   3.877   0.214   2.920  0.0488 -0.5783 -0.2972
 1168TIP3    H2 3511   3.950   0.203   3.053 -1.1985 -0.9470  0.3698
 1169TIP3   OH2 3512   3.430   0.256   2.869  0.1781  0.6416  0.2711
 1169TIP3    H1 3513   3.494   0.312   2.913  0.8272 -0.2319  0.4755
 1169TIP3    H2 3514   3.416   0.296   2.784 -1.0919  2.3674  1.2189
 1170TIP3   OH2 3515   2.456   4.623   2.013 -0.1750  0.7660  0.4460
 1170TIP3    H1 3516   2.516   4.586   2.077 -0.5780 -0.5494  0.0853
 1170TIP3    H2 3517   2.506   4.693   1.970  0.8874  0.0922  0.5615
 1171TIP3   OH2 3518   4.529   2.952   0.037  0.1556 -1.0755 -0.1868
 1171TIP3    H1 3519   4.624   2.946   0.044  0.2281  1.0239  1.6710
 1171TIP3    H2 3520   4.501   2.997   0.117 -2.1760  0.4140 -1.7144
 1172TIP3   OH2 3521   1.284   4.728   0.125 -0.4446 -0.7438  0.1166
 1172TIP3    H1 3522   1.316   4.708   0.213 -3.3439 -1.1555  1.2102
 1172TIP3    H2 3523   1.318   4.658   0.070  3.3618  0.7671  0.3032
 1173TIP3   OH2 3524   0.929   0.291   4.413  0.7059 -0.0707 -0.4669
 1173TIP3    H1 3525   0.880   0.333   4.484 -0.8696 -2.0598 -0.3149
 1173TIP3    H2 3526   0.884   0.318   4.333  0.8872  0.0674 -0.5247
 1174TIP3   OH2 3527   0.486   4.754   0.165 -0.1964 -0.2372 -0.3784
 1174TIP3    H1 3528   0.509   4.664   0.189  0.5664  0.3901  1.3684
 1174TIP3    H2 3529   0.433   4.786   0.238  3.1819  2.1331  1.2998
 1175TIP3   OH2 3530   5.009   1.503   4.638 -0.8734 -0.4040  0.2743
 1175TIP3    H1 3531   4.941   1.459   4.587 -2.3289  1.2595  0.7155
 1175TIP3    H2 3532   4.962   1.558   4.700  0.8369 -2.0073  3.2035
 1176TIP3   OH2 3533   6.289   5.866   3.310 -0.3780 -0.1428  0.7584
 1176TIP3    H1 3534   6.380   5.849   3.287 -0.2681  1.0650  0.2206
 1176TIP3    H2 3535   6.239   5.799   3.264 -0.0465  1.3097 -1.9069
 1177TIP3   OH2 3536   2.859   4.983   2.305  0.4390 -0.1749  0.0623
 1177TIP3    H1 3537   2.787   4.982   2.242  1.4365  0.1963 -1.1312
 1177TIP3    H2 3538   2.840   5.057   2.362 -0.1753 -0.1361 -0.1887
 1178TIP3   OH2 3539   1.064   3.685   2.113 -0.1530 -0.3069 -0.7386
 1178TIP3    H1 3540   1.140   3.662   2.166  0.6690 -0.1398 -1.7996
 1178TIP3    H2 3541   0.989   3.669   2.170  0.6650 -0.6305  0.2806
 1179TIP3   OH2 3542   2.424   3.562   2.511  0.4360 -0.1147  0.2497
 1179TIP3    H1 3543   2.380   3.617   2.446  0.5690  0.1186  0.3554
 1179TIP3    H2 3544   2.482   3.622   2.558  1.9400 -0.6490 -0.8278
 1180TIP3   OH2 3545   6.076   0.133   4.670 -0.5289 -0.0328 -0.2626
 1180TIP3    H1 3546   6.008   0.196   4.695 -0.2162  0.3613 -0.3805
 1180TIP3    H2 3547   6.046   0.050   4.706 -0.8399  0.2290  0.1007
 1181TIP3   OH2 3548   1.046   5.832   4.547  0.1728  0.5122  0.4727
 1181TIP3    H1 3549   0.993   5.793   4.477 -1.5567  2.9900  0.2869
 1181TIP3    H2 3550   1.130   5.853   4.504 -0.7599  1.7408 -0.8331
 1182TIP3   OH2 3551   2.216   5.045   3.432 -0.6080  0.0752 -0.2873
 1182TIP3    H1 3552   2.250   4.960   3.405  1.1799  0.7514 -0.3040
 1182TIP3    H2 3553   2.229   5.047   3.527 -0.3035  0.4803 -0.3376
 1183TIP3   OH2 3554   2.439   1.215   0.577 -0.1431 -0.0764 -0.2778
 1183TIP3    H1 3555   2.380   1.140   0.576 -0.6131  0.2497  1.0944
 1183TIP3    H2 3556   2.450   1.237   0.484 -0.0281 -1.7855 -0.7049
 1184TIP3   OH2 3557   1.021   1.180   2.680 -0.0478  0.3295  0.2791
 1184TIP3    H1 3558   1.021   1.235   2.758 -0.3155 -0.4904  0.8640
 1184TIP3    H2 3559   0.978   1.099   2.707  0.4204 -0.2091 -0.5377
 1185TIP3   OH2 3560   0.107   4.135   1.049 -0.2865 -0.2381 -0.1341
 1185TIP3    H1 3561   0.091   4.060   0.991 -2.4393  0.6844 -0.8279
 1185TIP3    H2 3562   0.081   4.211   0.997  1.1738  0.9562  0.8133
 1186TIP3   OH2 3563   3.240   2.486   0.719 -0.2488 -0.4595  0.1231
 1186TIP3    H1 3564   3.224   2.551   0.786  1.5991  0.4904 -0.2794
 1186TIP3    H2 3565   3.173   2.419   0.733 -0.3673  0.0675  2.4257
 1187TIP3   OH2 3566   5.655   5.289   1.407 -0.1213 -0.0960  0.0810
 1187TIP3    H1 3567   5.708   5.230   1.461  1.6926 -1.2190 -2.7195
 1187TIP3    H2 3568   5.674   5.377   1.442  2.6491 -0.5801 -0.0090
 1188TIP3   OH2 3569   4.882   2.916   1.549  0.3541  0.1467  0.1143
 1188TIP3    H1 3570   4.939   2.850   1.589 -0.0550 -1.3952 -1.6568
 1188TIP3    H2 3571   4.941   2.974   1.503  0.6334  0.0190  0.3053
 1189TIP3   OH2 3572   4.932   5.648   4.304  0.5038 -0.1422  0.8038
 1189TIP3    H1 3573   4.963   5.643   4.394 -1.3067  0.9802  1.5314
 1189TIP3    H2 3574   4.903   5.559   4.284  1.6123 -0.5754  1.0326
 1190TIP3   OH2 3575   3.551   3.364   2.009 -0.0523  0.6391 -0.3767
 1190TIP3    H1 3576   3.503   3.446   2.002 -0.0407  0.6099 -0.8096
 1190TIP3    H2 3577   3.525   3.314   1.932  0.0919  0.3152 -0.2194
 1191TIP3   OH2 3578   4.199   0.330   4.663  0.1075  0.8468 -0.4514
 1191TIP3    H1 3579   4.250   0.271   4.718  1.1504  2.3745  0.2920
 1191TIP3    H2 3580   4.259   0.357   4.594 -0.9782 -0.5021 -2.0131
 1192TIP3   OH2 3581   4.895   5.686   3.436 -0.2148  0.1574  0.0604
 1192TIP3    H1 3582   4.942   5.720   3.512  0.7542  0.1690 -0.5243
 1192TIP3    H2 3583   4.828   5.752   3.418  2.8445  2.9804 -2.2415
 1193TIP3   OH2 3584   4.037   2.388   1.449 -0.0053 -0.0946  0.5619
 1193TIP3    H1 3585   4.048   2.292   1.451 -3.0797 -0.5928 -0.8669
 1193TIP3    H2 3586   4.088   2.419   1.523  0.7789 -2.8851  1.3273
 1194TIP3   OH2 3587   1.010   2.776   4.886 -0.0366 -0.0346  0.5918
 1194TIP3    H1 3588   1.040   2.742   4.802  2.6184  0.7637  1.1206
 1194TIP3    H2 3589   1.020   2.702   4.947  0.8387  0.2138  0.7558
 1195TIP3   OH2 3590   4.146   5.873   0.849  0.3157  0.4636 -0.0445
 1195TIP3    H1 3591   4.183   5.960   0.863  2.2085  0.0268 -1.7326
 1195TIP3    H2 3592   4.115   5.874   0.759  1.3775 -0.8765 -0.4754
 1196TIP3   OH2 3593   6.241   5.183   1.969  0.3224 -0.4921 -0.2092
 1196TIP3    H1 3594   6.251   5.267   1.922  0.8507 -0.7971 -0.6485
 1196TIP3    H2 3595   6.188   5.205   2.046 -0.5433  0.0314 -0.9269
 1197TIP3   OH2 3596   3.590   2.432   3.362  0.0180  0.1488 -0.5643
 1197TIP3    H1 3597   3.640   2.507   3.331  2.3265 -1.5554 -1.2294
 1197TIP3    H2 3598   3.657   2.370   3.393 -1.8924 -0.4368  2.9120
 1198TIP3   OH2 3599   6.284   1.245   4.334  0.0073  0.0835  0.6139
 1198TIP3    H1 3600   6.304   1.317   4.394 -0.9515 -0.5317  1.7210
 1198TIP3    H2 3601   6.319   1.167   4.376  3.3342  0.1020 -1.7650
 1199TIP3   OH2 3602   1.557   5.725   0.051 -0.0963 -0.5502  0.5057
 1199TIP3    H1 3603   1.639   5.735   0.003 -0.4370 -0.6473 -0.1062
 1199TIP3    H2 3604   1.491   5.711  -0.016 -0.5183 -1.1430  1.0281
 1200TIP3   OH2 3605   2.055   2.211   2.321 -0.2212 -0.5565 -0.3533
 1200TIP3    H1 3606   1.999   2.134   2.324  1.2933 -1.7269 -0.7939
 1200TIP3    H2 3607   2.140   2.181   2.353  0.4017  0.9456 -0.4931
 1201TIP3   OH2 3608   0.757   4.959   0.109  0.5430 -0.4839 -0.3851
 1201TIP3    H1 3609   0.724   4.945   0.198 -1.3229  1.6386 -0.6676
 1201TIP3    H2 3610   0.734   5.050   0.089  2.6038 -0.3092 -2.3698
 1202TIP3   OH2 3611   1.087   5.336   4.364 -0.1858 -0.5538 -0.4439
 1202TIP3    H1 3612   1.149   5.390   4.413  0.7627 -1.5663 -0.4748
 1202TIP3    H2 3613   1.142   5.279   4.311 -1.1259 -1.7336 -0.2138
 1203TIP3   OH2 3614   5.159   0.077   0.762  0.1820  0.3628  0.0683
 1203TIP3    H1 3615   5.234   0.132   0.781  0.2606  0.0033  0.8340
 1203TIP3    H2 3616   5.152   0.078   0.666  1.1602  0.3887 -0.0127
 1204TIP3   OH2 3617   1.346   5.118   1.130 -0.5144  0.0455 -0.1104
 1204TIP3    H1 3618   1.407   5.168   1.185 -1.3398 -0.2455  1.1062
 1204TIP3    H2 3619   1.273   5.098   1.187 -0.3392 -2.3694 -0.6321
 1205TIP3   OH2 3620   2.328   1.633   1.009  0.4481  0.1442 -0.2821
 1205TIP3    H1 3621   2.393   1.700   1.030  1.0336 -0.5265  0.0836
 1205TIP3    H2 3622   2.358   1.555   1.055 -1.4841  0.2239  1.2437
 1206TIP3   OH2 3623   3.678   1.966   0.078  0.4823  0.3384 -0.2754
 1206TIP3    H1 3624   3.703   1.976   0.170 -0.2647  2.2769 -0.2368
 1206TIP3    H2 3625   3.725   2.036   0.032 -0.9657  0.9093 -0.9649
 1207TIP3   OH2 3626   4.280   3.322   0.279 -0.0969  0.5570  0.6695
 1207TIP3    H1 3627   4.219   3.287   0.214  0.4702  0.9557 -0.0856
 1207TIP3    H2 3628   4.302   3.246   0.334 -0.6965  0.2516  0.5082
 1208TIP3   OH2 3629   5.295   4.125   3.334  0.3228 -0.8831 -1.1401
 1208TIP3    H1 3630   5.232   4.073   3.284 -0.2292 -0.7309 -0.6220
 1208TIP3    H2 3631   5.302   4.208   3.286 -0.0126 -0.8338 -1.1056
 1209TIP3   OH2 3632   5.821   1.828   5.050  0.4511  0.3108  0.4160
 1209TIP3    H1 3633   5.854   1.880   4.977  0.6649 -1.1959 -0.6158
 1209TIP3    H2 3634   5.827   1.886   5.126  2.0705  1.2693 -0.3985
 1210TIP3   OH2 3635   4.534   4.430   0.537  0.1969 -0.5937  0.4018
 1210TIP3    H1 3636   4.455   4.382   0.564 -0.1849 -1.0473 -1.3640
 1210TIP3    H2 3637   4.603   4.395   0.593 -0.7061 -0.7625  1.4504
 1211TIP3   OH2 3638   5.930   1.542   1.541 -0.6064  0.3973 -0.0830
 1211TIP3    H1 3639   5.873   1.509   1.472 -0.5659  0.9022 -0.3623
 1211TIP3    H2 3640   5.904   1.633   1.551 -0.6709  0.3049  0.6302
 1212TIP3   OH2 3641   4.573   5.750   3.574  0.3195 -0.1149  0.6563
 1212TIP3    H1 3642   4.591   5.844   3.570 -1.1807  0.1392 -2.0894
 1212TIP3    H2 3643   4.480   5.742   3.556  0.3002 -2.1270  1.3926
 1213TIP3   OH2 3644   4.515   0.877   4.432 -0.2492  0.6402  0.8860
 1213TIP3    H1 3645   4.502   0.867   4.337  0.5629 -0.8910  0.9147
 1213TIP3    H2 3646   4.429   0.902   4.465 -1.3532 -1.8873  0.1312
 1214TIP3   OH2 3647   3.490   3.846   2.708  0.3242  0.6680  0.2889
 1214TIP3    H1 3648   3.396   3.827   2.716  0.3307 -0.5802 -1.7998
 1214TIP3    H2 3649   3.525   3.831   2.796 -1.0679 -1.1721  0.6068
 1215TIP3   OH2 3650   3.368   2.328   3.958 -0.2363  0.0053 -0.3686
 1215TIP3    H1 3651   3.289   2.383   3.959 -1.9813 -2.3050  1.5903
 1215TIP3    H2 3652   3.385   2.310   4.050  0.0839 -2.8544 -0.9068
 1216TIP3   OH2 3653   4.468   3.835   1.644  0.3068  0.1504 -0.0069
 1216TIP3    H1 3654   4.459   3.923   1.608  2.4615  1.0531  1.4170
 1216TIP3    H2 3655   4.429   3.841   1.731 -0.7950 -0.7366 -0.4190
 1217TIP3   OH2 3656   6.045   5.753   0.492 -0.4346 -0.0947  0.0898
 1217TIP3    H1 3657   6.063   5.659   0.500  0.1606 -0.0639 -0.7577
 1217TIP3    H2 3658   6.065   5.788   0.579  1.8238 -0.3647 -0.2693
 1218TIP3   OH2 3659   5.011   2.502   2.805 -0.3154 -0.2311 -0.3890
 1218TIP3    H1 3660   4.925   2.491   2.764 -0.3453 -0.5607 -0.2370
 1218TIP3    H2 3661   5.069   2.443   2.756 -0.3583 -0.6505  0.0690
 1219TIP3   OH2 3662   2.196   0.397   0.362 -0.4395 -0.3616  0.4336
 1219TIP3    H1 3663   2.132   0.334   0.395 -1.1591  1.0812  1.9622
 1219TIP3    H2 3664   2.145   0.476   0.346  0.5816  0.1153 -0.5724
 1220TIP3   OH2 3665   1.876   3.470   3.655 -0.1576  0.6465  0.4941
 1220TIP3    H1 3666   1.877   3.553   3.608 -0.2418  0.5863  0.3881
 1220TIP3    H2 3667   1.958   3.427   3.630 -0.2619  0.5587  0.3052
 1221TIP3   OH2 3668   5.116   2.463   0.668  0.2295  0.2501 -0.0142
 1221TIP3    H1 3669   5.207   2.455   0.641  0.3451  1.0108  0.1338
 1221TIP3    H2 3670   5.119   2.519   0.746 -0.4694  1.2091 -0.6657
 1222TIP3   OH2 3671   5.235   5.123   3.914  0.5738 -0.1530  0.0579
 1222TIP3    H1 3672   5.158   5.176   3.894  1.2861  0.4869 -1.1264
 1222TIP3    H2 3673   5.277   5.109   3.828  1.6825 -0.6143  0.6532
 1223TIP3   OH2 3674   3.288   3.676   1.243 -0.1287 -0.4822  0.1427
 1223TIP3    H1 3675   3.316   3.635   1.324  0.0252 -1.8891 -0.5883
 1223TIP3    H2 3676   3.275   3.603   1.182 -0.4178  0.5159 -1.0428
 1224TIP3   OH2 3677   0.690   1.359   4.820 -0.7117  0.5281 -0.3265
 1224TIP3    H1 3678   0.648   1.438   4.853 -0.6989  0.6469 -0.5953
 1224TIP3    H2 3679   0.783   1.373   4.834 -0.5194  1.4656 -2.2886
 1225TIP3   OH2 3680   4.845   0.821   1.609  0.4786  0.5706  0.3932
 1225TIP3    H1 3681   4.843   0.908   1.648 -0.2089  0.0318  1.6160
 1225TIP3    H2 3682   4.757   0.786   1.623  0.7837 -0.3700  0.0451
 1226TIP3   OH2 3683   1.519   4.654   5.110  0.2297  0.1109  0.1708
 1226TIP3    H1 3684   1.539   4.730   5.056  0.7547 -0.2232 -0.1158
 1226TIP3    H2 3685   1.470   4.689   5.185  1.1307  0.8362  0.4320
 1227TIP3   OH2 3686   1.389   5.052   1.422 -0.0519 -0.1495 -0.5031
 1227TIP3    H1 3687   1.314   5.042   1.481 -0.5250  0.1317 -1.0400
 1227TIP3    H2 3688   1.424   4.964   1.411 -0.0981 -0.2356  0.0133
 1228TIP3   OH2 3689   5.168   0.922   4.271 -0.4120 -0.1941  0.1008
 1228TIP3    H1 3690   5.202   0.952   4.355  0.0833  0.7024 -0.3898
 1228TIP3    H2 3691   5.247   0.907   4.218 -0.7113 -0.9641 -0.1287
 1229TIP3   OH2 3692   3.056   4.763   0.748  0.8543 -0.2599 -0.3132
 1229TIP3    H1 3693   3.034   4.830   0.683  1.0575  0.4337  0.3261
 1229TIP3    H2 3694   3.025   4.681   0.709  1.4157  0.0742 -1.5184
 1230TIP3   OH2 3695   3.581   4.814   0.319  0.3483  0.4282 -0.1559
 1230TIP3    H1 3696   3.555   4.746   0.381 -0.2301 -0.4549 -1.3205
 1230TIP3    H2 3697   3.567   4.896   0.365 -1.9620 -0.1215  0.2315
 1231TIP3   OH2 3698   0.939   1.071   1.313  0.3015  0.2704 -0.0374
 1231TIP3    H1 3699   0.923   1.106   1.225  0.3811  1.1325  0.2804
 1231TIP3    H2 3700   0.875   1.115   1.368 -0.9143 -1.5284  0.0835
 1232TIP3   OH2 3701   2.817   4.259   2.991  0.2590  0.0701  0.0858
 1232TIP3    H1 3702   2.894   4.203   2.980 -0.0760 -0.5691  0.8543
 1232TIP3    H2 3703   2.750   4.200   3.025 -1.5512 -0.0955 -3.3734
 1233TIP3   OH2 3704   1.599   1.197   1.477  0.1297  0.6065  0.2206
 1233TIP3    H1 3705   1.525   1.174   1.535 -0.2074  2.0579  0.4031
 1233TIP3    H2 3706   1.622   1.114   1.435 -0.3385 -0.2762  1.6054
 1234TIP3   OH2 3707   5.825   2.833   0.043  0.0524  0.1114 -0.7094
 1234TIP3    H1 3708   5.885   2.907   0.038 -0.8756  0.9413 -0.0074
 1234TIP3    H2 3709   5.741   2.872   0.068 -0.4986 -1.1572 -0.5021
 1235TIP3   OH2 3710   5.767   1.665   3.277  0.3059  0.2557 -0.3480
 1235TIP3    H1 3711   5.675   1.667   3.302  0.6422  1.5589  0.9297
 1235TIP3    H2 3712   5.779   1.741   3.221  0.7168  0.4066 -0.0647
 1236TIP3   OH2 3713   4.970   4.370   0.250  0.2719  0.2308 -0.0582
 1236TIP3    H1 3714   4.908   4.304   0.281  0.4980  0.0615  0.0403
 1236TIP3    H2 3715   5.056   4.328   0.259  0.3487  0.1856 -0.8792
 1237TIP3   OH2 3716   1.821   1.598   1.761  0.6802  0.1705  0.0285
 1237TIP3    H1 3717   1.742   1.545   1.772  0.4549  0.4419 -0.2481
 1237TIP3    H2 3718   1.850   1.618   1.850 -0.8883  2.0218  0.1724
 1238TIP3   OH2 3719   5.674   0.430   1.870 -0.2536  0.1279  0.0670
 1238TIP3    H1 3720   5.618   0.486   1.816 -0.6733  0.6911  1.0591
 1238TIP3    H2 3721   5.733   0.387   1.808 -2.0691 -0.8408 -1.0697
 1239TIP3   OH2 3722   5.408   2.383   1.172 -0.0524  0.1362  0.0253
 1239TIP3    H1 3723   5.323   2.423   1.153 -1.3284 -2.5260 -0.3911
 1239TIP3    H2 3724   5.410   2.375   1.267 -0.6905 -0.5712 -0.0108
 1240TIP3   OH2 3725   0.905   3.419   5.125  0.5263 -0.4162  0.2592
 1240TIP3    H1 3726   0.978   3.431   5.187  0.2994 -1.5399  0.7706
 1240TIP3    H2 3727   0.905   3.325   5.106 -0.9186 -0.4738  0.4407
 1241TIP3   OH2 3728   0.504   1.378   0.297 -0.1124  0.1195 -0.1861
 1241TIP3    H1 3729   0.599   1.391   0.291 -0.1720  1.6279  1.3967
 1241TIP3    H2 3730   0.466   1.444   0.239 -0.2285 -0.2152 -0.5010
 1242TIP3   OH2 3731   2.334   5.393   0.842  0.0769 -0.3446 -0.3583
 1242TIP3    H1 3732   2.250   5.438   0.832  0.5622  1.1171  1.4378
 1242TIP3    H2 3733   2.311   5.307   0.878 -0.6739  0.0404  0.1154
 1243TIP3   OH2 3734   4.521   2.069   3.694  0.9090 -0.2210  0.6519
 1243TIP3    H1 3735   4.572   2.144   3.725 -1.7364  1.8835  0.2914
 1243TIP3    H2 3736   4.442   2.070   3.748 -0.8931 -0.4006 -1.8301
 1244TIP3   OH2 3737   0.516   1.965   5.109  0.2049 -0.7526 -0.9971
 1244TIP3    H1 3738   0.497   2.003   5.195 -0.1939 -1.7704 -0.6200
 1244TIP3    H2 3739   0.607   1.988   5.092  0.3701 -0.7796 -0.1759
 1245TIP3   OH2 3740   1.500   3.497   1.770 -0.2458  0.0294  0.1775
 1245TIP3    H1 3741   1.460   3.488   1.856 -1.3791  0.7120 -0.2612
 1245TIP3    H2 3742   1.516   3.407   1.741 -1.3909 -0.2545  0.3998
 1246TIP3   OH2 3743   1.574   1.860   4.767  0.1207  0.0871 -0.6532
 1246TIP3    H1 3744   1.514   1.832   4.837 -0.1464  0.6086 -0.6645
 1246TIP3    H2 3745   1.633   1.921   4.811  0.4810 -0.2228 -0.7027
 1247TIP3   OH2 3746   5.546   4.760   4.651 -0.3079 -0.5728 -0.2596
 1247TIP3    H1 3747   5.535   4.798   4.738 -1.7237  3.2005 -1.8727
 1247TIP3    H2 3748   5.457   4.746   4.619  0.0269  1.2508 -2.2226
 1248TIP3   OH2 3749   1.182   3.080   3.775 -0.0900 -0.5289  0.2180
 1248TIP3    H1 3750   1.240   3.094   3.699  1.8037 -1.7257  1.3470
 1248TIP3    H2 3751   1.204   3.150   3.835 -0.4818 -0.4571  0.2768
 1249TIP3   OH2 3752   2.232   4.918   1.129  0.1454 -0.6364  0.2865
 1249TIP3    H1 3753   2.176   4.881   1.198  1.4255  0.8399  2.2326
 1249TIP3    H2 3754   2.319   4.884   1.150  0.7884  0.9512  0.2499
 1250TIP3   OH2 3755   3.739   1.018   2.463  0.2597 -0.4479 -0.6861
 1250TIP3    H1 3756   3.673   1.036   2.530 -1.8198 -1.7283 -2.2766
 1250TIP3    H2 3757   3.769   1.105   2.435 -2.9668  0.4255 -1.9394
 1251TIP3   OH2 3758   5.679   3.297   3.063 -0.6575 -0.8493 -0.6469
 1251TIP3    H1 3759   5.636   3.375   3.100 -0.5540 -0.5175 -1.2225
 1251TIP3    H2 3760   5.649   3.294   2.972  1.0880 -0.2040 -1.2727
 1252TIP3   OH2 3761   2.063   2.084   2.594 -0.3045 -0.0486 -0.3282
 1252TIP3    H1 3762   2.023   2.169   2.576  0.6419  0.5671  0.3377
 1252TIP3    H2 3763   2.155   2.104   2.612  0.4780 -1.4737 -2.3795
 1253TIP3   OH2 3764   6.233   2.482   0.793 -0.4229 -0.3866 -0.7268
 1253TIP3    H1 3765   6.179   2.403   0.793 -0.3506 -0.4377 -0.8779
 1253TIP3    H2 3766   6.318   2.453   0.759  0.1661 -0.6138  0.8324
 1254TIP3   OH2 3767   5.668   0.628   4.800 -0.1514 -0.4526 -0.6922
 1254TIP3    H1 3768   5.607   0.577   4.747 -1.6135  2.0507 -1.5662
 1254TIP3    H2 3769   5.726   0.670   4.736 -0.0882  0.3346 -0.1349
 1255TIP3   OH2 3770   0.572   1.032   0.879 -0.0673 -0.4035 -0.5843
 1255TIP3    H1 3771   0.634   0.974   0.922 -0.5730 -0.7490 -0.3093
 1255TIP3    H2 3772   0.619   1.115   0.868 -0.7698  0.7142  3.2373
 1256TIP3   OH2 3773   2.251   1.213   2.901  0.7128 -0.0958 -0.4442
 1256TIP3    H1 3774   2.181   1.271   2.930 -0.2031 -0.6177 -1.4981
 1256TIP3    H2 3775   2.285   1.254   2.821  0.0315 -0.9971 -1.2184
 1257TIP3   OH2 3776   4.100   1.229   1.110 -0.3649 -0.9407  0.6128
 1257TIP3    H1 3777   4.042   1.305   1.112 -0.8398 -1.2761  0.0394
 1257TIP3    H2 3778   4.188   1.265   1.112 -0.5697 -0.3215 -0.6124
 1258TIP3   OH2 3779   2.617   5.706   4.304 -0.3472  0.2877 -0.5865
 1258TIP3    H1 3780   2.692   5.675   4.356 -0.1616  0.9537 -0.4542
 1258TIP3    H2 3781   2.571   5.626   4.280 -1.7350 -0.0078  2.5011
 1259TIP3   OH2 3782   4.123   4.609   1.273  0.2808 -0.6475  0.0255
 1259TIP3    H1 3783   4.211   4.624   1.236  0.0159  1.3499  0.1097
 1259TIP3    H2 3784   4.064   4.615   1.198  0.0034  0.5703  0.3226
 1260TIP3   OH2 3785   3.973   1.115   3.378  0.0516 -0.0149  0.2954
 1260TIP3    H1 3786   3.996   1.207   3.392 -1.5459  0.3239  0.9158
 1260TIP3    H2 3787   3.999   1.071   3.459 -0.6264  0.2057  0.6445
 1261TIP3   OH2 3788   3.354   4.595   1.707 -0.1964  0.1397  0.3626
 1261TIP3    H1 3789   3.309   4.673   1.740 -0.6561  0.5600 -1.1737
 1261TIP3    H2 3790   3.442   4.626   1.685  0.6089 -0.4635  2.4399
 1262TIP3   OH2 3791   2.984   1.323   2.197  0.1765  0.0401 -0.1352
 1262TIP3    H1 3792   3.005   1.344   2.288 -1.3623  2.0881 -0.1956
 1262TIP3    H2 3793   2.908   1.265   2.202  1.4534 -1.7111 -0.1113
 1263TIP3   OH2 3794   1.799   5.433   0.182 -0.1496 -0.8633 -0.2227
 1263TIP3    H1 3795   1.766   5.466   0.265 -2.2935 -3.2627  0.0096
 1263TIP3    H2 3796   1.793   5.507   0.122  1.5882  0.9623  1.7236
 1264TIP3   OH2 3797   3.720   0.359   1.654  0.6385  0.2935  0.1351
 1264TIP3    H1 3798   3.683   0.361   1.566 -1.7123  0.9393  1.0687
 1264TIP3    H2 3799   3.743   0.450   1.672 -2.6059  0.9689  1.5616
 1265TIP3   OH2 3800   2.407   0.138   1.121  0.3121  0.1603  0.6367
 1265TIP3    H1 3801   2.498   0.136   1.151  0.9739  1.2342 -1.1106
 1265TIP3    H2 3802   2.378   0.227   1.140 -0.6375 -0.3728  1.8023
 1266TIP3   OH2 3803   3.471   3.943   1.287  0.0878  0.1923 -0.3877
 1266TIP3    H1 3804   3.542   3.885   1.314 -1.6110 -0.8047  2.2989
 1266TIP3    H2 3805   3.412   3.887   1.236 -0.7660 -0.1054  0.8780
 1267TIP3   OH2 3806   4.774   1.140   0.537 -0.3319  0.8086 -0.1788
 1267TIP3    H1 3807   4.785   1.129   0.631 -1.0529 -1.1957 -0.2711
 1267TIP3    H2 3808   4.863   1.134   0.501  0.1179  3.0490  0.4471
 1268TIP3   OH2 3809   0.452   1.488   0.562  0.0860 -0.0898  0.2619
 1268TIP3    H1 3810   0.358   1.488   0.579 -0.5534  1.0348 -2.5961
 1268TIP3    H2 3811   0.461   1.441   0.479  1.8938  0.9291 -0.1746
 1269TIP3   OH2 3812   3.423   3.588   1.490 -0.4351 -0.1769  0.5596
 1269TIP3    H1 3813   3.428   3.513   1.548 -0.1508 -0.2939  0.3838
 1269TIP3    H2 3814   3.502   3.639   1.509 -0.4528 -0.1007  0.4344
 1270TIP3   OH2 3815   1.668   1.716   4.518  0.3569  0.4444 -0.1775
 1270TIP3    H1 3816   1.658   1.752   4.606  0.5693  0.8870 -0.3366
 1270TIP3    H2 3817   1.635   1.783   4.460  1.4881  0.7303 -0.5251
 1271TIP3   OH2 3818   1.230   0.965   3.063  0.4988  0.4623 -0.8595
 1271TIP3    H1 3819   1.302   0.912   3.097 -0.4374 -1.3354 -1.5389
 1271TIP3    H2 3820   1.271   1.025   3.001  1.6213  0.7610  0.1269
 1272TIP3   OH2 3821   2.895   1.756   4.577 -0.4023 -0.1276  0.0158
 1272TIP3    H1 3822   2.945   1.692   4.527  0.6056  0.5882  0.0665
 1272TIP3    H2 3823   2.803   1.735   4.560 -0.0762 -0.5108 -1.3385
 1273TIP3   OH2 3824   3.122   0.540   0.026  0.5672 -0.5224  0.1158
 1273TIP3    H1 3825   3.076   0.584  -0.046 -0.6428 -1.8113  0.0544
 1273TIP3    H2 3826   3.150   0.611   0.083  0.5693  0.4561 -1.0653
 1274TIP3   OH2 3827   2.098   2.604   3.673  0.4789 -0.3285  0.3331
 1274TIP3    H1 3828   2.048   2.578   3.750 -1.5879 -0.4208 -0.9634
 1274TIP3    H2 3829   2.136   2.522   3.641  0.5748 -0.4395  0.7250
 1275TIP3   OH2 3830   4.382   4.973   2.680  0.2801 -0.4762  0.0865
 1275TIP3    H1 3831   4.426   4.889   2.664 -0.2142 -0.9373  1.0648
 1275TIP3    H2 3832   4.290   4.950   2.693  0.1050  0.2412  0.1737
 1276TIP3   OH2 3833   2.428   0.667   4.805  0.1798 -0.0211 -0.1048
 1276TIP3    H1 3834   2.467   0.619   4.731 -0.4000 -1.4168  0.4552
 1276TIP3    H2 3835   2.410   0.754   4.770 -0.5519 -0.7968 -1.7875
 1277TIP3   OH2 3836   1.040   5.081   3.172 -0.1849  0.6407  0.1803
 1277TIP3    H1 3837   1.072   4.991   3.163  1.1513  1.0444  0.7512
 1277TIP3    H2 3838   0.980   5.077   3.247 -0.6300  0.1050 -0.1929
 1278TIP3   OH2 3839   3.032   2.022   1.594 -0.1904 -0.0712  0.0201
 1278TIP3    H1 3840   2.973   2.075   1.647  0.4303  0.7707 -0.1120
 1278TIP3    H2 3841   3.118   2.064   1.604 -0.0872  0.2236 -1.7848
 1279TIP3   OH2 3842   4.158   4.812   2.021  0.0698 -0.4118  0.1230
 1279TIP3    H1 3843   4.090   4.746   2.028 -0.5245  0.2822  0.9171
 1279TIP3    H2 3844   4.240   4.762   2.026 -0.3669 -1.1599 -0.0419
 1280TIP3   OH2 3845   1.142   1.666   1.120  0.7125  0.1244 -0.4466
 1280TIP3    H1 3846   1.087   1.634   1.048  0.1241  2.7609 -1.2809
 1280TIP3    H2 3847   1.228   1.627   1.103  0.3852  0.0313 -2.1409
 1281TIP3   OH2 3848   5.925   4.057   4.026  0.3888 -0.1471 -0.1916
 1281TIP3    H1 3849   5.993   3.993   4.002  0.1943 -0.1009 -0.9094
 1281TIP3    H2 3850   5.951   4.137   3.979  0.0734 -0.0068 -0.1268
 1282TIP3   OH2 3851   4.633   5.003   4.348  0.2602  0.1833  0.0411
 1282TIP3    H1 3852   4.627   4.927   4.291 -0.5710  0.1798  0.1269
 1282TIP3    H2 3853   4.546   5.042   4.346  0.8832  1.6262 -0.6698
 1283TIP3   OH2 3854   2.302   0.580   4.221  0.5699  0.0667 -0.0873
 1283TIP3    H1 3855   2.302   0.485   4.212  3.0041 -0.1297  1.2315
 1283TIP3    H2 3856   2.351   0.611   4.145 -1.3435  0.4308 -1.2351
 1284TIP3   OH2 3857   1.002   2.832   2.863  0.5974 -0.3947 -0.2516
 1284TIP3    H1 3858   1.066   2.853   2.794 -0.0833  1.9451 -0.2465
 1284TIP3    H2 3859   1.054   2.825   2.943  0.9807  0.4711 -0.4169
 1285TIP3   OH2 3860   3.101   3.211   4.073 -0.6464  0.0886 -0.6865
 1285TIP3    H1 3861   3.106   3.124   4.033 -0.9360 -1.7216  2.8399
 1285TIP3    H2 3862   3.193   3.236   4.085 -0.5608 -0.1286 -0.8631
 1286TIP3   OH2 3863   3.807   1.200   1.099  0.1928 -0.3678  0.0767
 1286TIP3    H1 3864   3.902   1.213   1.094  0.3540 -0.9470  1.2346
 1286TIP3    H2 3865   3.771   1.268   1.043  1.3313 -1.0391 -1.5433
 1287TIP3   OH2 3866   3.566   1.250   0.322  0.3479  0.0117  0.2341
 1287TIP3    H1 3867   3.639   1.188   0.319 -1.4465 -2.1970 -1.3853
 1287TIP3    H2 3868   3.543   1.265   0.230  0.0279  2.3069  0.6336
 1288TIP3   OH2 3869   4.645   5.440   4.507  0.4184  0.3097 -0.3681
 1288TIP3    H1 3870   4.741   5.434   4.508  0.3271 -2.4784 -0.7326
 1288TIP3    H2 3871   4.623   5.487   4.587  2.0355 -1.1646  1.0334
 1289TIP3   OH2 3872   4.262   5.106   2.429  0.1090 -0.0796  0.2302
 1289TIP3    H1 3873   4.304   5.083   2.347 -0.7513 -4.5647  0.8335
 1289TIP3    H2 3874   4.334   5.140   2.484  1.3656 -0.3547 -1.1793
 1290TIP3   OH2 3875   5.463   3.291  -0.003 -1.2357  0.4896  0.3710
 1290TIP3    H1 3876   5.530   3.323   0.057 -0.6349 -1.2655  0.7063
 1290TIP3    H2 3877   5.393   3.259   0.053 -0.7135 -1.0690  0.1731
 1291TIP3   OH2 3878   6.260   1.027   0.056  0.2059 -0.0777 -0.3696
 1291TIP3    H1 3879   6.339   1.041   0.108 -0.0285  1.7593 -0.4715
 1291TIP3    H2 3880   6.192   1.077   0.101 -1.0553 -1.9978 -0.0234
 1292TIP3   OH2 3881   5.002   4.274   4.704  0.3027 -0.0606 -0.1337
 1292TIP3    H1 3882   5.032   4.184   4.709 -1.5169 -0.7274 -0.4842
 1292TIP3    H2 3883   4.967   4.284   4.616 -1.3806  0.3056  0.5157
 1293TIP3   OH2 3884   4.490   4.449   2.659  0.0040  0.0430  0.3482
 1293TIP3    H1 3885   4.404   4.436   2.619 -0.0738  1.6973 -0.1216
 1293TIP3    H2 3886   4.514   4.364   2.695 -0.6568 -1.1159 -1.8058
 1294TIP3   OH2 3887   1.400   1.919   0.474 -0.4742 -0.0676  0.2024
 1294TIP3    H1 3888   1.323   1.894   0.423  0.2682 -1.1427 -0.4238
 1294TIP3    H2 3889   1.463   1.848   0.459  0.3976  0.4647  1.2305
 1295TIP3   OH2 3890   4.844   5.554   2.066 -0.0310  0.1330 -0.2330
 1295TIP3    H1 3891   4.763   5.551   2.015 -0.0054 -0.5189 -0.2316
 1295TIP3    H2 3892   4.899   5.487   2.027  0.6271  0.7703 -0.4240
 1296TIP3   OH2 3893   3.524   0.672   2.146 -0.4558  0.4310  0.1508
 1296TIP3    H1 3894   3.535   0.643   2.237 -0.1622 -1.3586 -0.4143
 1296TIP3    H2 3895   3.590   0.741   2.135  0.3665 -0.1961  0.9518
 1297TIP3   OH2 3896   0.600   3.478   3.752  0.0542  0.0866 -0.7990
 1297TIP3    H1 3897   0.648   3.397   3.766 -0.2296 -0.2694 -1.8147
 1297TIP3    H2 3898   0.588   3.514   3.840 -0.7493 -1.4976 -0.2221
 1298TIP3   OH2 3899   3.953   0.600   0.203 -0.0925 -0.3208  0.3396
 1298TIP3    H1 3900   4.015   0.612   0.275 -0.6904 -1.8644  1.1455
 1298TIP3    H2 3901   3.899   0.679   0.204  0.6012  0.1498  0.8839
 1299TIP3   OH2 3902   2.466   1.389   1.062 -0.0015 -0.3449  0.0266
 1299TIP3    H1 3903   2.453   1.322   1.130 -0.8335 -1.8688 -1.5485
 1299TIP3    H2 3904   2.449   1.343   0.980 -0.9646  1.8939 -1.1252
 1300TIP3   OH2 3905   3.596   5.637   4.795 -0.1639  0.1393  0.8414
 1300TIP3    H1 3906   3.643   5.554   4.798  0.8833  0.7023  0.2403
 1300TIP3    H2 3907   3.522   5.624   4.855 -0.4450 -1.4811  0.1885
 1301TIP3   OH2 3908   2.324   3.270   2.197 -0.0098  0.1828  0.3366
 1301TIP3    H1 3909   2.406   3.287   2.151 -0.7345  1.5523 -0.5276
 1301TIP3    H2 3910   2.279   3.204   2.144  1.0253 -1.5106  1.4760
 1302TIP3   OH2 3911   2.472   4.409   3.019 -0.0084  0.3669 -0.7554
 1302TIP3    H1 3912   2.495   4.492   2.978 -1.4762  1.6811  0.9347
 1302TIP3    H2 3913   2.380   4.397   3.000 -0.0331 -0.3923 -0.1864
 1303TIP3   OH2 3914   3.177   4.250   0.441  0.0469 -0.0624 -0.2590
 1303TIP3    H1 3915   3.178   4.263   0.346 -0.2479  1.8377 -0.0444
 1303TIP3    H2 3916   3.267   4.267   0.469  0.0892 -0.4139 -0.1865
 1304TIP3   OH2 3917   3.000   5.230   3.692 -0.2026 -0.1246  0.6359
 1304TIP3    H1 3918   3.014   5.295   3.624  0.7402 -1.7031 -0.7581
 1304TIP3    H2 3919   3.076   5.172   3.687 -0.8279 -1.1423  2.0377
 1305TIP3   OH2 3920   0.230   5.674   4.257  0.3387 -0.5967 -0.1810
 1305TIP3    H1 3921   0.290   5.626   4.315  1.0296  0.0670 -0.3313
 1305TIP3    H2 3922   0.283   5.745   4.221 -1.5356  2.7750  2.9955
 1306TIP3   OH2 3923   5.585   4.988   3.620 -0.3091  0.4768  0.1470
 1306TIP3    H1 3924   5.652   5.022   3.680  0.1088 -0.8718  0.4908
 1306TIP3    H2 3925   5.633   4.925   3.565 -0.7052  1.5675 -1.5501
 1307TIP3   OH2 3926   4.795   3.169   2.636 -0.3159  0.1037 -0.0948
 1307TIP3    H1 3927   4.766   3.248   2.590 -0.0544  0.0058 -0.4334
 1307TIP3    H2 3928   4.859   3.200   2.699  1.5362 -0.0757 -1.7887
 1308TIP3   OH2 3929   2.813   2.809   1.769  0.1174 -0.1608  0.5680
 1308TIP3    H1 3930   2.877   2.744   1.739 -0.0394  0.1720 -0.5296
 1308TIP3    H2 3931   2.839   2.891   1.727 -2.0551 -0.3925 -1.4130
 1309TIP3   OH2 3932   2.874   3.423   3.638  0.5309  0.0456  0.2442
 1309TIP3    H1 3933   2.782   3.399   3.648 -0.0954  2.4912  0.9158
 1309TIP3    H2 3934   2.884   3.443   3.545  0.0815  0.8702  0.3690
 1310TIP3   OH2 3935   2.459   3.248   0.818 -0.0185  0.0025  0.3017
 1310TIP3    H1 3936   2.489   3.232   0.907 -0.6588  2.6017  1.0424
 1310TIP3    H2 3937   2.526   3.304   0.779 -1.0184  1.0538  0.0455
 1311TIP3   OH2 3938   5.005   5.724   0.584 -0.3219 -0.1290  0.2152
 1311TIP3    H1 3939   4.958   5.790   0.634  0.9432  1.2293 -0.3210
 1311TIP3    H2 3940   4.963   5.724   0.498 -0.3737 -0.0739  0.2402
 1312TIP3   OH2 3941   5.602   1.621   4.738 -0.6740 -0.5120  0.5016
 1312TIP3    H1 3942   5.544   1.581   4.802 -0.5721 -0.7415  0.4531
 1312TIP3    H2 3943   5.689   1.613   4.777 -0.8551  1.4567  1.4065
 1313TIP3   OH2 3944   0.279   4.865   1.752 -0.2140  0.8126 -0.0851
 1313TIP3    H1 3945   0.199   4.908   1.783 -0.8853  0.8145 -1.7199
 1313TIP3    H2 3946   0.263   4.849   1.659  0.8719 -1.0931  0.0172
 1314TIP3   OH2 3947   2.852   4.118   3.854  0.1489 -0.6150  0.1471
 1314TIP3    H1 3948   2.766   4.080   3.834 -0.2373  0.4622 -0.3208
 1314TIP3    H2 3949   2.835   4.211   3.865  1.1991 -0.4479  0.4789
 1315TIP3   OH2 3950   3.212   0.451   2.423  0.0830  0.4893  0.0318
 1315TIP3    H1 3951   3.205   0.517   2.354 -1.8442  0.1438 -0.1565
 1315TIP3    H2 3952   3.129   0.404   2.420  1.0771 -1.4290  0.6990
 1316TIP3   OH2 3953   0.604   2.466   1.722  0.5586  0.6189  0.5201
 1316TIP3    H1 3954   0.613   2.373   1.700  1.5418  0.6115  0.8877
 1316TIP3    H2 3955   0.521   2.492   1.683  0.8335 -0.1193 -0.6222
 1317TIP3   OH2 3956   3.664   0.109   2.476 -0.2426 -0.3303  0.4597
 1317TIP3    H1 3957   3.720   0.061   2.537 -0.7105 -0.8464  0.4946
 1317TIP3    H2 3958   3.687   0.201   2.489  0.3101 -0.5063  0.7549
 1318TIP3   OH2 3959   1.895   0.850   4.446  0.3468 -0.5922  0.0056
 1318TIP3    H1 3960   1.864   0.807   4.525  1.3752 -1.7870 -0.2146
 1318TIP3    H2 3961   1.815   0.875   4.399 -0.2684  0.1733  1.4114
 1319TIP3   OH2 3962   4.148   5.845   1.268  0.2964  0.5875  0.8592
 1319TIP3    H1 3963   4.220   5.828   1.329 -0.8905 -0.4114  2.0443
 1319TIP3    H2 3964   4.150   5.940   1.254  3.4360  0.3763 -1.2325
 1320TIP3   OH2 3965   2.085   1.252   1.579 -0.1825 -0.6419 -0.3550
 1320TIP3    H1 3966   2.001   1.277   1.540 -0.4396 -1.0571 -0.0744
 1320TIP3    H2 3967   2.112   1.174   1.531  0.9025  0.4783 -1.6202
 1321TIP3   OH2 3968   1.279   3.371   3.158 -0.3037  0.0660 -0.9315
 1321TIP3    H1 3969   1.365   3.330   3.158 -1.1625 -1.8602 -0.7256
 1321TIP3    H2 3970   1.286   3.443   3.096  2.0158  1.3006  0.6231
 1322TIP3   OH2 3971   3.947   0.914   2.650 -0.2832  0.2961 -0.3666
 1322TIP3    H1 3972   3.976   0.977   2.716 -3.4351  0.9307  0.6334
 1322TIP3    H2 3973   3.901   0.967   2.585  0.7126 -0.5917 -1.8424
 1323TIP3   OH2 3974   2.005   1.499   2.515 -0.1336 -0.4229  0.2351
 1323TIP3    H1 3975   1.987   1.467   2.426 -2.9007 -0.3977  0.7008
 1323TIP3    H2 3976   1.919   1.505   2.556  0.4723  4.1012  1.4243
 1324TIP3   OH2 3977   2.402   2.128   3.756 -0.2526 -0.6545  0.4815
 1324TIP3    H1 3978   2.448   2.197   3.805 -0.8604  0.9490 -1.1055
 1324TIP3    H2 3979   2.323   2.171   3.723 -0.3911 -1.9857 -1.0204
 1325TIP3   OH2 3980   4.304   2.295   0.349  0.5804  0.1009 -0.3030
 1325TIP3    H1 3981   4.228   2.263   0.301 -1.9612  0.0243  3.3064
 1325TIP3    H2 3982   4.367   2.224   0.347  0.3804 -0.0735 -2.9097
 1326TIP3   OH2 3983   3.625   5.805   0.804 -1.2669  0.4126  0.2373
 1326TIP3    H1 3984   3.607   5.889   0.847  1.0704  0.2518  1.7109
 1326TIP3    H2 3985   3.712   5.781   0.835 -1.7135 -2.3946 -0.4413
 1327TIP3   OH2 3986   5.179   6.005   2.208  0.5945 -0.1119 -0.0703
 1327TIP3    H1 3987   5.255   5.974   2.159  1.6620 -0.0192  1.4678
 1327TIP3    H2 3988   5.148   5.929   2.256 -0.6222 -0.2733 -1.0636
 1328TIP3   OH2 3989   1.991   2.185   1.923  0.3919  0.2336 -0.2496
 1328TIP3    H1 3990   1.995   2.276   1.895  0.1657  0.2708 -0.1665
 1328TIP3    H2 3991   1.904   2.176   1.962  0.0337 -0.2700 -1.1330
 1329TIP3   OH2 3992   1.253   5.310   2.629 -0.0528  0.0190  0.0392
 1329TIP3    H1 3993   1.226   5.227   2.668  0.4619 -0.4931 -0.6489
 1329TIP3    H2 3994   1.344   5.322   2.658  0.1325 -0.0643 -0.4865
 1330TIP3   OH2 3995   1.831   0.699   1.575  0.0155  0.3255 -0.2278
 1330TIP3    H1 3996   1.837   0.710   1.480 -0.5613 -2.2453 -0.6375
 1330TIP3    H2 3997   1.920   0.677   1.602  0.1835  1.0752 -0.1441
 1331TIP3   OH2 3998   3.292   1.534   1.748 -0.2217 -0.0827 -0.7148
 1331TIP3    H1 3999   3.302   1.538   1.843 -2.6924  0.3770 -0.4138
 1331TIP3    H2 4000   3.283   1.625   1.722  0.8113 -0.1809 -1.4822
 1332TIP3   OH2 4001   0.852   3.928   4.175 -0.3099 -0.1457 -0.2734
 1332TIP3    H1 4002   0.908   3.948   4.250  1.3849 -1.1391 -1.2079
 1332TIP3    H2 4003   0.863   4.004   4.117  0.4645 -0.5218 -0.6442
 1333TIP3   OH2 4004   3.414   3.617   4.577  0.6774 -0.6161 -0.1675
 1333TIP3    H1 4005   3.390   3.691   4.521  0.1964 -0.5046  0.1793
 1333TIP3    H2 4006   3.425   3.656   4.664 -1.5303 -1.2366  0.4401
 1334TIP3   OH2 4007   1.797   2.698   0.940 -0.4016 -0.1106 -0.0359
 1334TIP3    H1 4008   1.853   2.775   0.930 -1.1947  0.4248 -0.4723
 1334TIP3    H2 4009   1.838   2.631   0.886 -0.5706  0.5017 -0.9523
 1335TIP3   OH2 4010   6.160   1.253   0.915  0.5382 -0.7587 -0.1117
 1335TIP3    H1 4011   6.072   1.218   0.930  0.0876  0.3298 -0.1209
 1335TIP3    H2 4012   6.205   1.243   0.999  0.5058 -1.5602 -0.1794
 1336TIP3   OH2 4013   2.272   5.439   1.900 -0.2354  0.6101  0.3431
 1336TIP3    H1 4014   2.219   5.456   1.822 -0.6461 -0.2583  0.4180
 1336TIP3    H2 4015   2.217   5.381   1.954  0.7183 -0.1811  0.4921
 1337TIP3   OH2 4016   6.349   3.541   3.932 -0.0898  0.2016  0.0795
 1337TIP3    H1 4017   6.263   3.561   3.969  0.0002 -0.2986  0.5659
 1337TIP3    H2 4018   6.389   3.481   3.994 -0.3373 -1.5044 -1.3117
 1338TIP3   OH2 4019   4.812   4.303   1.562 -0.9600 -0.0509 -0.2458
 1338TIP3    H1 4020   4.823   4.372   1.629 -0.0167  0.4240 -0.8668
 1338TIP3    H2 4021   4.878   4.238   1.585 -1.0068 -0.1487 -0.3953
 1339TIP3   OH2 4022   4.453   0.294   2.647  0.3537 -0.6792 -0.4558
 1339TIP3    H1 4023   4.379   0.258   2.695 -0.9126  1.8351 -0.3911
 1339TIP3    H2 4024   4.501   0.346   2.711 -1.4723  2.8971 -1.7438
 1340TIP3   OH2 4025   5.020   0.656   3.282 -0.1528 -0.0591  0.4570
 1340TIP3    H1 4026   5.074   0.734   3.275 -0.9328  0.4444 -0.1000
 1340TIP3    H2 4027   5.077   0.585   3.251  0.3062  0.3976  0.2374
 1341TIP3   OH2 4028   0.580   2.671   3.335 -0.3108 -0.8285  0.3512
 1341TIP3    H1 4029   0.641   2.650   3.264 -1.3058 -1.1865 -0.4085
 1341TIP3    H2 4030   0.631   2.656   3.415  1.1303  0.4762 -0.2671
 1342TIP3   OH2 4031   2.031   4.791   3.439 -0.0906  0.1280  0.0512
 1342TIP3    H1 4032   2.126   4.783   3.449  0.0342 -0.2048 -1.2243
 1342TIP3    H2 4033   2.006   4.710   3.394 -1.0567 -0.0079  0.8092
 1343TIP3   OH2 4034   3.527   4.593   0.133  0.2672  0.2999  0.0447
 1343TIP3    H1 4035   3.589   4.633   0.194  2.9448 -1.4082 -1.3491
 1343TIP3    H2 4036   3.496   4.666   0.079  1.7422  1.1460  0.2692
 1344TIP3   OH2 4037   1.673   2.817   1.684  0.3978 -0.1029 -0.1478
 1344TIP3    H1 4038   1.583   2.834   1.655  0.3732  0.0695  0.0278
 1344TIP3    H2 4039   1.728   2.847   1.612  0.5138  3.3022  1.1366
 1345TIP3   OH2 4040   4.537   0.929   4.818  0.3852  0.1608 -0.1430
 1345TIP3    H1 4041   4.581   1.006   4.784  3.0664 -0.4340  1.7136
 1345TIP3    H2 4042   4.503   0.956   4.904  3.7938 -1.2365  1.8658
 1346TIP3   OH2 4043   3.456   2.879   3.201  0.2415 -0.8080  0.3126
 1346TIP3    H1 4044   3.386   2.820   3.173 -0.4683  0.5198 -0.8495
 1346TIP3    H2 4045   3.510   2.892   3.123  1.2303 -1.0513  0.9409
 1347TIP3   OH2 4046   0.030   3.246   1.806  0.3484 -0.5638  0.1656
 1347TIP3    H1 4047   0.032   3.173   1.744 -0.9218 -0.7445  0.3132
 1347TIP3    H2 4048  -0.030   3.309   1.767  1.5402  0.4861 -0.0245
 1348TIP3   OH2 4049   0.526   3.347   2.246 -0.2118 -0.0104 -0.1972
 1348TIP3    H1 4050   0.465   3.278   2.272  0.5893 -0.1939  1.3091
 1348TIP3    H2 4051   0.481   3.428   2.269 -0.3311 -0.1093 -0.0783
 1349TIP3   OH2 4052   3.164   5.176   0.672 -0.2454  0.7477 -0.3509
 1349TIP3    H1 4053   3.073   5.206   0.667 -0.9825 -0.9456  1.5292
 1349TIP3    H2 4054   3.183   5.174   0.766 -0.3328 -4.4154 -0.1577
 1350TIP3   OH2 4055   2.393   2.428   0.838 -0.2263  0.1355 -0.3321
 1350TIP3    H1 4056   2.453   2.501   0.856  0.4062 -0.4671  0.0860
 1350TIP3    H2 4057   2.416   2.362   0.903 -1.0179 -0.3078 -0.4906
 1351TIP3   OH2 4058   5.991   1.640   0.086 -0.3393  0.4090 -0.4995
 1351TIP3    H1 4059   5.957   1.603   0.168 -0.4118 -1.6872 -1.4111
 1351TIP3    H2 4060   5.924   1.620   0.021 -0.1258  1.7530 -1.1625
 1352TIP3   OH2 4061   1.124   5.125   5.102 -1.0913 -0.5169  0.5293
 1352TIP3    H1 4062   1.068   5.075   5.042 -0.0795 -0.8270 -0.1786
 1352TIP3    H2 4063   1.087   5.213   5.102 -2.2334 -0.9705  0.9300
 1353TIP3   OH2 4064   1.231   3.999   4.685  0.4955 -0.1791 -0.2995
 1353TIP3    H1 4065   1.279   4.081   4.697 -1.2777  1.2698 -2.2502
 1353TIP3    H2 4066   1.179   4.013   4.605 -0.2250 -3.0564 -0.4510
 1354TIP3   OH2 4067   3.009   5.784   4.514 -0.3851 -0.5490  0.4401
 1354TIP3    H1 4068   3.090   5.800   4.466 -0.2383 -2.1146  0.1025
 1354TIP3    H2 4069   2.940   5.797   4.449 -0.7482  3.6709  1.3744
 1355TIP3   OH2 4070   5.094   0.873   4.674 -0.2014  0.1112  0.3362
 1355TIP3    H1 4071   5.033   0.931   4.628  2.3945  2.3371 -0.5826
 1355TIP3    H2 4072   5.180   0.912   4.659  1.2118 -1.1158  4.0673
 1356TIP3   OH2 4073   0.168   1.114   2.733  0.6650  0.0337  0.5717
 1356TIP3    H1 4074   0.187   1.155   2.817 -1.2093 -0.1086  1.1095
 1356TIP3    H2 4075   0.130   1.029   2.756 -1.3628  0.6330 -0.3320
 1357TIP3   OH2 4076   1.259   5.537   1.966  0.3143  0.7834  0.3538
 1357TIP3    H1 4077   1.322   5.587   2.018  1.6370 -0.6624  0.2344
 1357TIP3    H2 4078   1.264   5.576   1.879  3.4508 -1.1540 -0.5033
 1358TIP3   OH2 4079   0.888   0.487   3.395 -0.7302 -0.1923  0.0843
 1358TIP3    H1 4080   0.833   0.533   3.459  0.0835 -0.1784  0.7882
 1358TIP3    H2 4081   0.930   0.417   3.445  0.3625  0.1742 -0.2985
 1359TIP3   OH2 4082   0.094   0.976   0.643  0.0950  0.1690  0.7548
 1359TIP3    H1 4083   0.003   1.006   0.636 -0.4702 -1.4868  0.6345
 1359TIP3    H2 4084   0.141   1.033   0.582 -1.0500  0.3691  0.0057
 1360TIP3   OH2 4085   3.387   0.340   2.609 -0.6248 -0.3711  0.4410
 1360TIP3    H1 4086   3.332   0.398   2.556 -1.3031  0.7987  2.3251
 1360TIP3    H2 4087   3.379   0.255   2.567  1.0609  0.9803 -2.9170
 1361TIP3   OH2 4088   5.498   1.094   4.677  0.0696  0.2665 -0.4535
 1361TIP3    H1 4089   5.424   1.104   4.738 -2.2140  0.1141 -2.9795
 1361TIP3    H2 4090   5.538   1.010   4.701 -1.2464 -0.1624  0.3514
 1362TIP3   OH2 4091   2.020   5.795   0.256 -0.3550  0.2292  0.0269
 1362TIP3    H1 4092   1.978   5.833   0.333  1.1333 -0.1362  1.0727
 1362TIP3    H2 4093   2.022   5.867   0.193 -0.2336  1.0137  0.8961
 1363TIP3   OH2 4094   5.452   2.480   4.828  0.1307 -0.1680 -0.0575
 1363TIP3    H1 4095   5.520   2.548   4.828  0.9332 -0.9506  0.6242
 1363TIP3    H2 4096   5.494   2.405   4.786  0.5151 -1.4406  2.4538
 1364TIP3   OH2 4097   3.839   5.321   1.921 -0.1516  0.1809 -0.4979
 1364TIP3    H1 4098   3.782   5.381   1.969  1.7192  0.8178  1.0354
 1364TIP3    H2 4099   3.798   5.315   1.834 -3.2263 -0.4107  0.8522
 1365TIP3   OH2 4100   2.834   2.246   0.271  0.1236  0.2159  0.1598
 1365TIP3    H1 4101   2.917   2.202   0.287  1.1639  2.1535  0.3172
 1365TIP3    H2 4102   2.771   2.199   0.326  1.7793  0.8301  2.7426
 1366TIP3   OH2 4103   1.891   4.558   3.372  0.0934 -0.3955 -0.0645
 1366TIP3    H1 4104   1.831   4.511   3.313 -1.4036  0.9474  0.3421
 1366TIP3    H2 4105   1.852   4.548   3.459  1.9060 -1.7483  0.6654
 1367TIP3   OH2 4106   2.642   3.307   3.223 -0.2419  0.0997 -0.3080
 1367TIP3    H1 4107   2.684   3.226   3.252 -1.5721 -0.4813  0.1181
 1367TIP3    H2 4108   2.551   3.281   3.205 -1.3327  1.9107  2.0161
 1368TIP3   OH2 4109   1.677   5.783   4.921 -0.1456  0.0215  0.2263
 1368TIP3    H1 4110   1.654   5.777   4.828 -0.1471 -2.9540  0.3132
 1368TIP3    H2 4111   1.593   5.792   4.966 -0.1160  1.8994 -0.0372
 1369TIP3   OH2 4112   5.115   3.068   2.629 -0.5949  0.1963  0.0110
 1369TIP3    H1 4113   5.101   3.075   2.535 -0.4298  1.8907  0.0811
 1369TIP3    H2 4114   5.084   3.151   2.665  0.4961  0.0926  1.3003
 1370TIP3   OH2 4115   2.602   4.978   4.410 -0.2517  0.0403 -0.2268
 1370TIP3    H1 4116   2.614   4.909   4.344 -1.2219  0.4174 -0.8191
 1370TIP3    H2 4117   2.581   4.930   4.490 -0.5522 -0.3684 -0.5430
 1371TIP3   OH2 4118   5.341   1.427   2.334 -0.0413  0.1852 -0.5954
 1371TIP3    H1 4119   5.406   1.436   2.264  0.7109 -0.4650  0.0022
 1371TIP3    H2 4120   5.359   1.341   2.372 -1.2499  0.0075 -0.4091
 1372TIP3   OH2 4121   4.082   4.251   1.829  0.1181  0.4430  0.0245
 1372TIP3    H1 4122   4.031   4.332   1.825 -1.1573 -0.3404  0.0203
 1372TIP3    H2 4123   4.108   4.234   1.739 -1.2550 -0.1531 -0.2809
 1373TIP3   OH2 4124   0.812   5.123   2.625 -0.0613 -0.4350 -0.2810
 1373TIP3    H1 4125   0.867   5.050   2.654  0.1296  0.6388  2.2838
 1373TIP3    H2 4126   0.724   5.086   2.618  0.0101 -0.9226  1.1047
 1374TIP3   OH2 4127   1.825   0.769   3.524 -0.0303 -0.0717 -0.1907
 1374TIP3    H1 4128   1.826   0.676   3.503 -1.1613  0.3376 -2.3031
 1374TIP3    H2 4129   1.732   0.792   3.525  0.2778  1.3711 -1.4324
 1375TIP3   OH2 4130   1.926   5.797   2.993 -0.4009  0.1711  0.1420
 1375TIP3    H1 4131   1.911   5.869   3.054 -0.5780  0.4324 -0.2080
 1375TIP3    H2 4132   1.926   5.838   2.906  2.0186  0.1454  0.0722
 1376TIP3   OH2 4133   5.873   1.349   0.982  0.2822  0.5234 -0.0559
 1376TIP3    H1 4134   5.816   1.278   0.953 -0.2354  0.6483  0.6335
 1376TIP3    H2 4135   5.859   1.419   0.918 -0.3749  0.5712  0.1429
 1377TIP3   OH2 4136   4.724   5.805   1.031  0.4989 -0.0763 -0.1786
 1377TIP3    H1 4137   4.680   5.766   1.106 -1.4210 -1.7667 -2.0457
 1377TIP3    H2 4138   4.672   5.883   1.010  1.3776  0.7298  0.5383
 1378TIP3   OH2 4139   2.662   0.283   0.911 -0.5770  0.5647  0.6238
 1378TIP3    H1 4140   2.589   0.222   0.896  0.0355 -0.3065  1.0868
 1378TIP3    H2 4141   2.692   0.263   0.999  0.9099  0.1483  0.0543
 1379TIP3   OH2 4142   1.598   3.228   2.587 -0.3660 -0.3205  0.5955
 1379TIP3    H1 4143   1.645   3.199   2.666  0.2888  2.2852  1.2609
 1379TIP3    H2 4144   1.596   3.324   2.594 -2.9286 -0.1556 -1.0898
 1380TIP3   OH2 4145   1.607   2.360   3.885 -0.2468  0.2407  0.6926
 1380TIP3    H1 4146   1.671   2.391   3.821 -1.0661  0.3920 -0.0775
 1380TIP3    H2 4147   1.525   2.355   3.836 -0.7243 -0.4175  1.5367
 1381TIP3   OH2 4148   3.748   0.126   1.409 -0.2402  0.0798  0.1173
 1381TIP3    H1 4149   3.669   0.164   1.448 -0.2167  0.1317  0.1138
 1381TIP3    H2 4150   3.727   0.033   1.400  0.6531 -0.4604  2.6348
 1382TIP3   OH2 4151   6.209   5.308   4.428  0.0847  0.8552  0.5084
 1382TIP3    H1 4152   6.239   5.282   4.341  1.7011 -0.9115  1.5225
 1382TIP3    H2 4153   6.133   5.252   4.445  0.7375  0.0608  0.8465
 1383TIP3   OH2 4154   2.329   3.188   2.868 -0.3573 -0.7009  0.0381
 1383TIP3    H1 4155   2.317   3.279   2.894  1.1278 -0.8126  1.2480
 1383TIP3    H2 4156   2.260   3.140   2.913  0.0677 -0.4276  0.9910
 1384TIP3   OH2 4157   4.783   3.333   1.532 -0.2715 -0.0180  0.4408
 1384TIP3    H1 4158   4.878   3.327   1.540 -0.1346 -1.6201 -1.5597
 1384TIP3    H2 4159   4.769   3.375   1.447 -1.3457 -0.1195  0.5562
 1385TIP3   OH2 4160   1.562   4.964   2.687  0.1133  0.1095  0.2185
 1385TIP3    H1 4161   1.467   4.952   2.691  0.0625 -0.1117 -1.1452
 1385TIP3    H2 4162   1.596   4.892   2.740 -0.4766  0.0476  0.5296
 1386TIP3   OH2 4163   3.425   5.193   3.040  0.1756  0.2808  0.0054
 1386TIP3    H1 4164   3.509   5.234   3.063 -0.4442  1.6784 -0.1396
 1386TIP3    H2 4165   3.390   5.161   3.123  1.2537 -1.1539 -0.0505
 1387TIP3   OH2 4166   1.830   3.791   4.126  0.1004 -0.5889  0.4989
 1387TIP3    H1 4167   1.762   3.804   4.060 -0.6364 -0.4666  1.2741
 1387TIP3    H2 4168   1.797   3.720   4.181  0.3296 -0.1308  1.2412
 1388TIP3   OH2 4169   0.540   0.535   3.232  0.3089 -0.1487 -0.3581
 1388TIP3    H1 4170   0.598   0.609   3.250  0.6936 -0.8498  1.4411
 1388TIP3    H2 4171   0.588   0.481   3.170  0.8913  0.0878 -0.1201
 1389TIP3   OH2 4172   4.712   3.605   0.432  0.6380 -0.5676 -0.2545
 1389TIP3    H1 4173   4.655   3.664   0.481  0.4036 -1.1732  0.2156
 1389TIP3    H2 4174   4.749   3.660   0.362  0.1180  0.0303 -0.0705
 1390TIP3   OH2 4175   4.793   2.597   1.602  0.4601  0.3884 -0.1208
 1390TIP3    H1 4176   4.806   2.643   1.685  0.5845 -1.9316  1.2322
 1390TIP3    H2 4177   4.704   2.619   1.575  0.1432  0.5682  1.0445
 1391TIP3   OH2 4178   1.318   1.482   2.644  0.1534  0.1995 -0.0896
 1391TIP3    H1 4179   1.327   1.511   2.553  1.2476  0.2818  0.0347
 1391TIP3    H2 4180   1.258   1.545   2.683 -0.9713 -0.3071 -0.9502
 1392TIP3   OH2 4181   4.658   5.530   3.088 -0.0658  0.2663 -0.3950
 1392TIP3    H1 4182   4.719   5.500   3.155 -0.3858 -1.2108 -0.7312
 1392TIP3    H2 4183   4.710   5.534   3.008 -0.1291  0.1998 -0.4391
 1393TIP3   OH2 4184   3.431   2.853   3.941  0.1199  0.1568  0.1688
 1393TIP3    H1 4185   3.459   2.777   3.992 -1.8289 -0.2864  0.6709
 1393TIP3    H2 4186   3.511   2.904   3.927  1.0541 -0.7564  1.8965
 1394TIP3   OH2 4187   2.304   1.161   2.283  0.3458 -0.0595 -0.7445
 1394TIP3    H1 4188   2.275   1.249   2.259 -0.4864  0.1129  0.7548
 1394TIP3    H2 4189   2.276   1.151   2.374  0.1842 -1.9827 -0.9699
 1395TIP3   OH2 4190   5.782   3.482   0.833 -0.2753 -0.4621  0.1725
 1395TIP3    H1 4191   5.871   3.508   0.855 -0.4801 -1.5200  2.6691
 1395TIP3    H2 4192   5.780   3.387   0.850 -1.4036 -0.8137 -1.6538
 1396TIP3   OH2 4193   2.934   4.959   1.833 -0.1403 -0.2342 -0.4169
 1396TIP3    H1 4194   2.917   5.048   1.864 -0.0004  0.0246 -1.0588
 1396TIP3    H2 4195   3.025   4.961   1.802 -0.1431 -0.5963 -0.4581
 1397TIP3   OH2 4196   4.450   1.596   1.570  0.5214  0.3682  0.1361
 1397TIP3    H1 4197   4.533   1.622   1.529  0.3066  1.5870  0.4269
 1397TIP3    H2 4198   4.386   1.602   1.500  0.1659  2.3868  0.5804
 1398TIP3   OH2 4199   1.410   1.991   0.720 -0.3659  0.0628 -0.0213
 1398TIP3    H1 4200   1.399   1.962   0.630  0.8178 -1.4168  0.2622
 1398TIP3    H2 4201   1.393   1.912   0.773  1.3853  0.2187  0.8786
 1399TIP3   OH2 4202   4.750   4.532   1.023  0.5914 -0.3559 -0.2877
 1399TIP3    H1 4203   4.695   4.585   0.965  0.9873  2.1690  1.4709
 1399TIP3    H2 4204   4.836   4.573   1.018  0.8467 -0.6418  1.3566
 1400TIP3   OH2 4205   0.315   1.176   4.970  0.1600 -0.3765  0.4427
 1400TIP3    H1 4206   0.332   1.246   5.033 -0.6844 -0.8477  1.2232
 1400TIP3    H2 4207   0.229   1.142   4.994 -0.3490 -0.3475 -1.2022
 1401TIP3   OH2 4208   5.894   4.441   4.927  0.0603  0.5132  0.4050
 1401TIP3    H1 4209   5.928   4.525   4.956  4.0592 -0.6805 -0.2573
 1401TIP3    H2 4210   5.843   4.461   4.849  0.1624  2.3870  0.7860
 1402TIP3   OH2 4211   5.608   1.469   1.839 -0.6043 -0.0498  0.5784
 1402TIP3    H1 4212   5.678   1.404   1.834 -1.2667 -0.8813  1.5673
 1402TIP3    H2 4213   5.580   1.482   1.749  0.8407  0.3421  0.1580
 1403TIP3   OH2 4214   3.702   2.050   4.384 -0.1373 -0.0399  0.4216
 1403TIP3    H1 4215   3.716   2.104   4.462  2.2972 -0.2887  0.2309
 1403TIP3    H2 4216   3.788   2.047   4.341 -1.3271 -0.1069 -2.1697
 1404TIP3   OH2 4217   6.202   5.693   4.650 -0.0395  0.0488  0.1541
 1404TIP3    H1 4218   6.127   5.634   4.641 -0.5033  0.8527 -2.3618
 1404TIP3    H2 4219   6.263   5.665   4.582  0.6587  1.1486  0.2939
 1405TIP3   OH2 4220   3.211   3.610   0.566  0.5251 -0.3616  0.5363
 1405TIP3    H1 4221   3.140   3.614   0.502 -0.8451 -2.4829  1.7958
 1405TIP3    H2 4222   3.206   3.694   0.613  1.3728  1.1030 -1.8277
 1406TIP3   OH2 4223   2.491   4.394   0.622 -0.3138  0.1737 -0.8451
 1406TIP3    H1 4224   2.568   4.347   0.654  0.1249  2.5002  1.9299
 1406TIP3    H2 4225   2.422   4.370   0.684 -0.2806  2.3810  0.1399
 1407TIP3   OH2 4226   5.413   3.055   0.311  0.6750  0.1435  0.0889
 1407TIP3    H1 4227   5.371   2.968   0.317  1.9281 -0.5095 -0.2763
 1407TIP3    H2 4228   5.355   3.112   0.363 -0.6878 -0.6894 -0.4401
 1408TIP3   OH2 4229   6.324   0.063   2.368  0.5920 -0.2667  0.2534
 1408TIP3    H1 4230   6.283   0.019   2.294  0.0152  1.3807 -0.4425
 1408TIP3    H2 4231   6.270   0.038   2.443 -1.6288  1.5856 -0.5932
 1409TIP3   OH2 4232   0.577   5.621   3.289  0.4086 -0.2231  0.1114
 1409TIP3    H1 4233   0.638   5.616   3.215  0.0828 -0.8636 -0.1266
 1409TIP3    H2 4234   0.621   5.573   3.359 -0.1741 -1.4377 -0.3278
 1410TIP3   OH2 4235   2.946   3.542   2.118 -0.3677  0.5404 -0.2886
 1410TIP3    H1 4236   2.885   3.495   2.176  0.4538 -0.1378  0.0576
 1410TIP3    H2 4237   2.962   3.626   2.162 -0.4164  0.3791  0.0384
 1411TIP3   OH2 4238   5.669   2.523   4.243 -0.0886  0.8671  0.7663
 1411TIP3    H1 4239   5.626   2.579   4.178 -0.2205 -0.1092 -0.0077
 1411TIP3    H2 4240   5.762   2.545   4.237  0.0968 -0.2298 -0.8010
 1412TIP3   OH2 4241   4.235   2.452   1.261  0.1945  0.9289  0.6535
 1412TIP3    H1 4242   4.295   2.378   1.270  0.2061  0.9233  0.5282
 1412TIP3    H2 4243   4.165   2.433   1.323 -1.7654 -1.0856 -1.9070
 1413TIP3   OH2 4244   5.872   0.757   0.866 -0.7708  0.0682 -0.0758
 1413TIP3    H1 4245   5.953   0.774   0.915 -0.5083  1.5526 -0.9449
 1413TIP3    H2 4246   5.827   0.690   0.917  0.5596 -0.1002  0.9482
 1414TIP3   OH2 4247   3.385   2.268   4.249 -0.6506  0.1052  0.3789
 1414TIP3    H1 4248   3.472   2.294   4.279  0.0780 -2.2717  0.4741
 1414TIP3    H2 4249   3.348   2.220   4.323 -2.3464  1.5762  0.5671
 1415TIP3   OH2 4250   0.618   3.615   0.069  0.7264 -0.5547  0.1539
 1415TIP3    H1 4251   0.593   3.539   0.123  1.1638 -0.9700 -0.2272
 1415TIP3    H2 4252   0.713   3.610   0.064  0.7676  0.1267  0.2754
 1416TIP3   OH2 4253   1.104   0.075   3.990 -0.1841 -0.5270  1.0461
 1416TIP3    H1 4254   1.147   0.160   3.983 -1.6502  0.0943 -2.1163
 1416TIP3    H2 4255   1.156   0.017   3.935 -1.8154 -0.3875 -0.7567
 1417TIP3   OH2 4256   4.273   3.879   3.918 -0.5307 -0.4056  0.2397
 1417TIP3    H1 4257   4.224   3.797   3.922  0.1911 -0.7957  1.9919
 1417TIP3    H2 4258   4.225   3.939   3.975  0.8017 -0.6955  1.7170
 1418TIP3   OH2 4259   2.142   0.130   3.297 -0.0509 -0.0666 -0.4028
 1418TIP3    H1 4260   2.098   0.045   3.301  1.3890 -0.9864 -2.2508
 1418TIP3    H2 4261   2.184   0.131   3.211  0.1818  2.4482 -0.3353
 1419TIP3   OH2 4262   1.152   2.381   0.783 -0.1783 -0.2837 -0.2777
 1419TIP3    H1 4263   1.107   2.320   0.841  0.7224 -0.1463  0.6011
 1419TIP3    H2 4264   1.244   2.355   0.787 -0.3340 -1.7142 -3.4543
 1420TIP3   OH2 4265   5.854   1.055   1.916 -0.1205  0.3147  0.3054
 1420TIP3    H1 4266   5.882   0.993   1.849  0.1098  1.8506 -1.1121
 1420TIP3    H2 4267   5.877   1.014   1.999 -0.7137 -1.7963 -0.5310
 1421TIP3   OH2 4268   5.866   5.637   4.805  0.3137 -0.1014 -0.4779
 1421TIP3    H1 4269   5.854   5.582   4.883  0.3945 -0.5045 -0.7477
 1421TIP3    H2 4270   5.778   5.652   4.772  0.3066 -0.2481 -0.5262
 1422TIP3   OH2 4271   2.452   5.498   1.087  0.1781 -0.2548 -0.3705
 1422TIP3    H1 4272   2.542   5.468   1.076 -0.3551 -1.2516 -2.4662
 1422TIP3    H2 4273   2.405   5.462   1.012 -0.8520  4.8282 -2.5953
 1423TIP3   OH2 4274   1.113   0.162   0.477 -0.3829  0.0338 -0.2941
 1423TIP3    H1 4275   1.118   0.239   0.420  0.0657 -0.4630 -0.9482
 1423TIP3    H2 4276   1.136   0.088   0.420 -1.5428 -0.6828  0.1386
 1424TIP3   OH2 4277   0.703   1.215   1.775 -0.0112  0.6010  0.1445
 1424TIP3    H1 4278   0.741   1.234   1.689 -0.6797  1.8629  0.0991
 1424TIP3    H2 4279   0.762   1.257   1.837 -0.1511  0.6838  0.2219
 1425TIP3   OH2 4280   2.842   2.447   3.621  0.3125 -0.1623  0.2389
 1425TIP3    H1 4281   2.865   2.357   3.644  2.3967  0.3433  0.3226
 1425TIP3    H2 4282   2.902   2.470   3.550 -0.4262  1.0504 -0.0245
 1426TIP3   OH2 4283   2.707   5.151   2.460  0.0697 -0.1008 -0.2504
 1426TIP3    H1 4284   2.636   5.180   2.403 -0.3856 -1.4995 -0.4453
 1426TIP3    H2 4285   2.730   5.228   2.512 -1.7917  0.3047  0.0371
 1427TIP3   OH2 4286   2.962   1.111   3.587  0.1624 -0.0641  0.2319
 1427TIP3    H1 4287   2.933   1.023   3.562  0.5880 -0.8682  2.3840
 1427TIP3    H2 4288   3.056   1.112   3.567 -0.1049  0.4081 -1.0706
 1428TIP3   OH2 4289   3.720   0.566   4.274 -0.1754 -0.4001  0.1691
 1428TIP3    H1 4290   3.673   0.491   4.310 -0.6937  0.7586  2.0349
 1428TIP3    H2 4291   3.778   0.594   4.345  0.7042  0.3997 -0.8328
 1429TIP3   OH2 4292   3.773   5.722   3.831 -0.0050  0.1332 -0.1343
 1429TIP3    H1 4293   3.746   5.654   3.893  3.0106  1.1123  2.4633
 1429TIP3    H2 4294   3.859   5.694   3.800 -1.2977 -0.2266 -3.9798
 1430TIP3   OH2 4295   3.626   2.610   0.163 -0.1711  0.6064 -0.0339
 1430TIP3    H1 4296   3.642   2.692   0.210  0.5342  2.0807 -2.6547
 1430TIP3    H2 4297   3.531   2.604   0.158 -0.2310  1.3376  0.1110
 1431TIP3   OH2 4298   0.611   0.249   3.624 -0.3809  0.2843 -0.2264
 1431TIP3    H1 4299   0.541   0.272   3.563  0.4819  0.9788 -0.9769
 1431TIP3    H2 4300   0.683   0.220   3.569 -0.1748 -0.7506  0.5531
 1432TIP3   OH2 4301   0.156   1.677   3.914  0.1723 -0.2828 -0.1373
 1432TIP3    H1 4302   0.212   1.626   3.973 -0.1104 -0.7120 -0.2340
 1432TIP3    H2 4303   0.132   1.754   3.965  0.1360 -0.5275  0.2238
 1433TIP3   OH2 4304   5.241   0.481   1.230 -0.6084  0.1631  0.5469
 1433TIP3    H1 4305   5.160   0.479   1.282 -0.8512 -0.3992  0.1574
 1433TIP3    H2 4306   5.211   0.482   1.139 -0.1848  1.2995  0.4056
 1434TIP3   OH2 4307   2.548   4.543   1.242  0.0114  0.6943  0.2764
 1434TIP3    H1 4308   2.553   4.492   1.161 -0.8033 -0.1511  0.7387
 1434TIP3    H2 4309   2.632   4.527   1.286  0.1601  0.5560 -0.0537
 1435TIP3   OH2 4310   4.860   0.556   3.995  0.0413  0.4439  0.9002
 1435TIP3    H1 4311   4.898   0.642   4.013 -0.8100  1.2391 -0.7670
 1435TIP3    H2 4312   4.914   0.494   4.043  0.6495  1.9205  2.1855
 1436TIP3   OH2 4313   2.471   3.445   1.222 -0.1415  0.2275  0.0856
 1436TIP3    H1 4314   2.486   3.356   1.191  0.6018  0.6385 -0.7737
 1436TIP3    H2 4315   2.523   3.500   1.164  1.0641  1.0712  1.8876
 1437TIP3   OH2 4316   4.718   0.771   5.077  0.0286 -0.2326 -0.2582
 1437TIP3    H1 4317   4.772   0.702   5.116 -0.3566  0.3126  1.2974
 1437TIP3    H2 4318   4.761   0.792   4.994  1.8705 -0.2020  0.6741
 1438TIP3   OH2 4319   4.908   1.535   0.384  0.4900 -0.7394  0.3267
 1438TIP3    H1 4320   5.003   1.539   0.374  0.4812 -0.6433  0.2800
 1438TIP3    H2 4321   4.877   1.619   0.351  0.3674 -0.8671  0.1137
 1439TIP3   OH2 4322   1.772   0.457   3.800  0.0015  0.2486 -0.7950
 1439TIP3    H1 4323   1.858   0.468   3.760  0.2001 -2.9655 -1.5188
 1439TIP3    H2 4324   1.714   0.436   3.727 -1.1870  1.2507 -0.1800
 1440TIP3   OH2 4325   5.667   3.506   2.718  0.1606 -0.4396  0.7504
 1440TIP3    H1 4326   5.617   3.511   2.636 -0.8060 -1.2869  1.2704
 1440TIP3    H2 4327   5.758   3.494   2.690  0.1286  1.2204 -0.2168
 1441TIP3   OH2 4328   0.391   0.504   2.694 -0.3181 -0.2561 -0.4831
 1441TIP3    H1 4329   0.334   0.468   2.762  0.2406 -0.2455 -0.0040
 1441TIP3    H2 4330   0.361   0.463   2.613 -1.5246  0.3486 -0.3600
 1442TIP3   OH2 4331   5.681   3.380   1.563 -0.0699  0.4049 -0.0522
 1442TIP3    H1 4332   5.649   3.467   1.540  0.3313  0.3464 -0.9083
 1442TIP3    H2 4333   5.763   3.372   1.514  0.1114 -0.2881  0.3586
 1443TIP3   OH2 4334   5.883   0.052   1.807  0.0659  0.0900 -0.2089
 1443TIP3    H1 4335   5.975   0.027   1.798 -0.8589 -3.5760 -1.1531
 1443TIP3    H2 4336   5.847  -0.010   1.870 -1.4686  2.5924  1.5505
 1444TIP3   OH2 4337   4.489   4.556   1.756  0.2148 -0.0834 -0.0763
 1444TIP3    H1 4338   4.452   4.559   1.668 -2.1787  1.3135  0.8889
 1444TIP3    H2 4339   4.522   4.644   1.772  3.6917 -1.0980 -0.6461
 1445TIP3   OH2 4340   4.302   0.260   3.140  0.0114 -0.2911 -0.5631
 1445TIP3    H1 4341   4.290   0.299   3.226  0.8396 -0.3974 -0.3880
 1445TIP3    H2 4342   4.347   0.328   3.089 -0.7075 -0.1285 -0.9968
 1446TIP3   OH2 4343   1.251   5.562   0.316 -0.0161  0.4407 -0.1611
 1446TIP3    H1 4344   1.207   5.499   0.259  2.1781 -0.6994 -0.7268
 1446TIP3    H2 4345   1.256   5.642   0.263  0.4517 -0.0782 -0.9351
 1447TIP3   OH2 4346   6.068   1.780   4.045  0.3405  0.4121  0.1271
 1447TIP3    H1 4347   6.043   1.765   3.954 -1.9700 -2.5564  1.0902
 1447TIP3    H2 4348   5.985   1.792   4.092  1.2407 -0.8158  2.2081
 1448TIP3   OH2 4349   3.739   1.513   0.415  0.1396  0.2692  0.2224
 1448TIP3    H1 4350   3.778   1.457   0.482  1.4943  0.0498 -0.7219
 1448TIP3    H2 4351   3.694   1.452   0.356  0.1760  0.3297  0.1314
 1449TIP3   OH2 4352   4.013   5.096   2.166 -0.0234  0.4653 -0.1352
 1449TIP3    H1 4353   4.019   5.005   2.196  0.5864 -0.0696 -1.7846
 1449TIP3    H2 4354   3.919   5.111   2.156 -0.2159  0.4911  1.4372
 1450TIP3   OH2 4355   0.778   0.421   4.598 -0.6028 -0.3855  0.5739
 1450TIP3    H1 4356   0.722   0.490   4.563 -0.5937 -0.1581  1.0059
 1450TIP3    H2 4357   0.763   0.423   4.692  0.6739  0.1640  0.7825
 1451TIP3   OH2 4358   4.956   4.648   5.011  0.0811  0.5157  0.1476
 1451TIP3    H1 4359   4.881   4.600   5.046 -0.0712 -0.7097 -1.7256
 1451TIP3    H2 4360   5.024   4.581   5.000  0.7059  1.1988 -0.2375
 1452TIP3   OH2 4361   2.762   2.345   4.988  0.2221 -0.2724  0.2108
 1452TIP3    H1 4362   2.851   2.344   5.023  0.7630 -0.1272 -1.0992
 1452TIP3    H2 4363   2.773   2.361   4.895 -1.1271 -1.1921 -0.1430
 1453TIP3   OH2 4364   2.157   4.408   2.002 -0.2002  0.2524  0.1570
 1453TIP3    H1 4365   2.127   4.330   2.048 -1.2505  1.8568  2.3765
 1453TIP3    H2 4366   2.078   4.440   1.957  0.2372  0.0658 -0.7800
 1454TIP3   OH2 4367   0.932   2.024   4.194  0.0890 -0.7994  0.2832
 1454TIP3    H1 4368   0.899   1.934   4.196  0.9501 -1.1211  0.9136
 1454TIP3    H2 4369   0.997   2.027   4.264  0.4069  0.1863 -0.0346
 1455TIP3   OH2 4370   4.374   2.239   4.548  0.2444 -0.4637 -0.2221
 1455TIP3    H1 4371   4.316   2.164   4.558  1.3963 -1.4990 -1.0232
 1455TIP3    H2 4372   4.341   2.285   4.471  0.9144 -1.4838 -1.1428
 1456TIP3   OH2 4373   0.258   5.829   1.136  0.7506 -0.3991 -0.0745
 1456TIP3    H1 4374   0.267   5.797   1.226  1.1356 -1.2996 -0.4175
 1456TIP3    H2 4375   0.268   5.924   1.143  1.2196 -0.4980  0.7728
 1457TIP3   OH2 4376   1.896   2.468   0.745 -0.1177 -0.1337 -0.4922
 1457TIP3    H1 4377   1.862   2.379   0.732  0.4820 -0.2861 -1.0789
 1457TIP3    H2 4378   1.960   2.460   0.815 -1.2069  0.1459  0.5848
 1458TIP3   OH2 4379   4.595   4.720   0.907  0.2067 -0.2119  0.4302
 1458TIP3    H1 4380   4.578   4.779   0.833 -1.8013 -1.3366 -0.1014
 1458TIP3    H2 4381   4.571   4.771   0.984  1.9402  0.8377  0.3244
 1459TIP3   OH2 4382   4.912   5.663   3.737 -0.6281  0.6794 -0.5756
 1459TIP3    H1 4383   4.907   5.678   3.831 -1.0572  1.8704 -0.7647
 1459TIP3    H2 4384   4.837   5.607   3.717  0.3159 -0.8387 -0.0115
 1460TIP3   OH2 4385   5.522   2.832   1.673  0.1592  0.4731  0.1878
 1460TIP3    H1 4386   5.496   2.922   1.653  0.0654  0.6366  1.0412
 1460TIP3    H2 4387   5.497   2.819   1.764  0.3006 -0.3744  0.1108
 1461TIP3   OH2 4388   2.219   1.742   3.742 -0.2569 -0.8120 -0.3483
 1461TIP3    H1 4389   2.176   1.757   3.658  0.5953 -0.9709 -0.8184
 1461TIP3    H2 4390   2.278   1.668   3.726  0.3137 -0.4936  0.2396
 1462TIP3   OH2 4391   5.470   5.159   5.151  0.1299 -0.3583 -0.5934
 1462TIP3    H1 4392   5.562   5.182   5.166  0.3309 -0.9156 -0.9252
 1462TIP3    H2 4393   5.463   5.152   5.056 -0.4666  0.5002 -0.6162
 1463TIP3   OH2 4394   5.868   0.841   1.728  0.5471  0.1610  0.4778
 1463TIP3    H1 4395   5.800   0.838   1.661  0.3289 -0.7021  0.7254
 1463TIP3    H2 4396   5.927   0.768   1.706  1.4849  0.9894  0.1738
 1464TIP3   OH2 4397   1.861   3.356   1.813  0.0503 -0.0831  0.1584
 1464TIP3    H1 4398   1.894   3.434   1.769  0.4321  0.7319  1.8138
 1464TIP3    H2 4399   1.802   3.315   1.749 -0.2024  1.5755 -0.7226
 1465TIP3   OH2 4400   0.137   0.882   3.175  0.0191  0.2067  0.6266
 1465TIP3    H1 4401   0.101   0.819   3.113 -0.4206  0.4607  0.6235
 1465TIP3    H2 4402   0.196   0.936   3.123  1.0701 -0.7270  0.7877
 1466TIP3   OH2 4403   5.159   2.609   3.030  0.9223 -0.5824 -0.0613
 1466TIP3    H1 4404   5.083   2.632   2.976 -0.2748 -2.2231  0.8205
 1466TIP3    H2 4405   5.135   2.525   3.070  2.6886 -0.5100  1.2638
 1467TIP3   OH2 4406   4.158   3.929   2.934 -0.3733 -0.4019 -0.3633
 1467TIP3    H1 4407   4.242   3.884   2.945 -0.7970 -1.1750 -0.2095
 1467TIP3    H2 4408   4.125   3.939   3.023  0.4826  1.7744 -0.2255
 1468TIP3   OH2 4409   0.061   0.352   4.332 -0.1534  0.1955  0.3570
 1468TIP3    H1 4410   0.049   0.351   4.427  1.7381 -0.0886  0.6374
 1468TIP3    H2 4411  -0.027   0.345   4.297 -0.9370  0.7705  2.0873
 1469TIP3   OH2 4412   4.416   3.189   0.789 -0.8591  0.2208 -0.2423
 1469TIP3    H1 4413   4.457   3.272   0.763 -0.2025 -0.5105 -1.6788
 1469TIP3    H2 4414   4.323   3.207   0.791 -0.6290  1.9398  3.0871
 1470TIP3   OH2 4415   3.302   0.772   2.981  0.5496  0.0791 -0.3062
 1470TIP3    H1 4416   3.218   0.734   2.957 -0.1846  0.0951  2.0338
 1470TIP3    H2 4417   3.366   0.726   2.927 -0.7298 -1.5495 -0.5007
 1471TIP3   OH2 4418   0.886   1.437   5.076 -0.5544 -0.2520 -0.7599
 1471TIP3    H1 4419   0.943   1.395   5.011 -0.5252 -0.3702 -0.6580
 1471TIP3    H2 4420   0.884   1.529   5.050  1.7260  0.2851  0.6884
 1472TIP3   OH2 4421   1.187   4.594   4.939  0.2351 -0.1838 -0.5383
 1472TIP3    H1 4422   1.271   4.558   4.969  0.7610  1.4635  0.1183
 1472TIP3    H2 4423   1.122   4.529   4.964  1.3199 -1.5509 -1.1627
 1473TIP3   OH2 4424   1.043   4.531   0.789 -0.0887  0.0371  0.5120
 1473TIP3    H1 4425   1.024   4.501   0.699 -2.9544  0.5711  0.8311
 1473TIP3    H2 4426   1.091   4.458   0.828  0.6203 -0.5017 -1.2263
 1474TIP3   OH2 4427   2.962   0.796   3.022  0.1191  0.9125 -0.3987
 1474TIP3    H1 4428   3.041   0.755   2.988 -1.3493 -2.1367 -0.5020
 1474TIP3    H2 4429   2.903   0.802   2.946 -0.8045  0.2163  0.2264
 1475TIP3   OH2 4430   2.485   0.957   3.147 -0.6857 -0.1348  0.1371
 1475TIP3    H1 4431   2.446   1.032   3.191 -1.3194 -0.3536 -0.0438
 1475TIP3    H2 4432   2.530   0.909   3.216 -2.4293 -0.9697  0.7431
 1476TIP3   OH2 4433   0.528   0.287   0.803  0.1999  0.1058  0.0463
 1476TIP3    H1 4434   0.601   0.247   0.755  1.6867  2.7353 -0.1215
 1476TIP3    H2 4435   0.560   0.294   0.893 -0.1924  0.5005  0.1592
 1477TIP3   OH2 4436   5.347   0.212   3.381  0.5478 -0.1045 -0.7593
 1477TIP3    H1 4437   5.423   0.269   3.369 -0.6893  1.9638  0.6491
 1477TIP3    H2 4438   5.274   0.272   3.394 -0.6334 -1.9586  2.0278
 1478TIP3   OH2 4439   4.365   3.888   1.890 -0.2012  0.1201  0.2101
 1478TIP3    H1 4440   4.274   3.919   1.884 -0.3159 -0.4449 -1.3131
 1478TIP3    H2 4441   4.360   3.808   1.942 -0.1740  1.4804  2.4415
 1479TIP3   OH2 4442   6.193   3.698   5.111  0.0741  0.2704  0.0104
 1479TIP3    H1 4443   6.160   3.682   5.199 -0.3747  0.0120 -0.2050
 1479TIP3    H2 4444   6.156   3.783   5.086  0.7757  0.6834  0.3422
 1480TIP3   OH2 4445   3.082   5.339   4.410  0.6985  0.5234  0.1785
 1480TIP3    H1 4446   3.172   5.367   4.429 -0.4019  2.8480  2.7093
 1480TIP3    H2 4447   3.074   5.254   4.452  1.6256  0.4276  0.1843
 1481TIP3   OH2 4448   3.771   1.007   3.972 -0.1212 -0.5624  0.2976
 1481TIP3    H1 4449   3.740   1.021   3.882  0.5303 -1.2165 -0.0363
 1481TIP3    H2 4450   3.759   0.913   3.987  1.2673 -0.7580  0.3112
 1482TIP3   OH2 4451   3.362   0.786   4.284 -0.5027  0.3171  0.3194
 1482TIP3    H1 4452   3.268   0.799   4.281 -0.8245 -1.6532  0.3972
 1482TIP3    H2 4453   3.393   0.845   4.352 -1.7440  0.6862  0.5729
 1483TIP3   OH2 4454   2.216   4.796   4.723  0.4494  0.0806  0.2403
 1483TIP3    H1 4455   2.278   4.758   4.785  1.0100 -0.0846 -0.4090
 1483TIP3    H2 4456   2.168   4.721   4.689 -0.2790  0.2290  0.9083
 1484TIP3   OH2 4457   1.741   5.066   1.389  0.2408  0.2420  0.4303
 1484TIP3    H1 4458   1.787   5.137   1.343  0.1887  0.5386  0.8320
 1484TIP3    H2 4459   1.696   5.018   1.319  1.0372  0.0326  0.0443
 1485TIP3   OH2 4460   1.693   0.074   0.761  0.1567 -0.0740  0.0380
 1485TIP3    H1 4461   1.716   0.151   0.707 -0.1114  0.2726  0.4173
 1485TIP3    H2 4462   1.624   0.105   0.819  0.2980 -0.5106  0.4404
 1486TIP3   OH2 4463   4.129   5.850   0.330 -0.2278  0.0838 -0.3997
 1486TIP3    H1 4464   4.220   5.846   0.300 -0.0083  1.7686 -0.0740
 1486TIP3    H2 4465   4.085   5.901   0.263 -0.4225  1.1889  0.5419
 1487TIP3   OH2 4466   2.989   0.106   4.562  0.1775  0.4616 -0.3141
 1487TIP3    H1 4467   2.977   0.027   4.510  0.0510 -0.0707  0.5038
 1487TIP3    H2 4468   2.950   0.086   4.647 -0.4637  1.6428 -0.3042
 1488TIP3   OH2 4469   1.906   3.507   5.194  1.0579  0.0452  0.2794
 1488TIP3    H1 4470   1.911   3.597   5.227  0.3226  0.3200 -0.3329
 1488TIP3    H2 4471   1.905   3.516   5.099  0.8165 -0.6017  0.2128
 1489TIP3   OH2 4472   3.788   5.315   3.831  0.3023  0.2203 -0.5270
 1489TIP3    H1 4473   3.875   5.297   3.796 -0.0113  0.4859 -1.4790
 1489TIP3    H2 4474   3.796   5.300   3.925  1.4368  0.4715 -0.5716
 1490TIP3   OH2 4475   3.502   1.640   3.351  0.1004  0.2373 -0.2685
 1490TIP3    H1 4476   3.416   1.676   3.373  0.3943  0.9076 -0.1830
 1490TIP3    H2 4477   3.513   1.566   3.410 -1.5773 -1.6033 -2.1117
 1491TIP3   OH2 4478  -0.012   3.064   4.151 -0.1501  0.3506  0.0329
 1491TIP3    H1 4479   0.066   3.104   4.190  1.0781 -0.4023 -1.5150
 1491TIP3    H2 4480   0.001   3.073   4.056 -0.2414 -2.7483 -0.4000
 1492TIP3   OH2 4481   5.591   3.360   1.176  0.0962 -0.4927  0.1940
 1492TIP3    H1 4482   5.637   3.428   1.225 -0.0157 -1.3417  1.5335
 1492TIP3    H2 4483   5.657   3.323   1.118  0.1351  0.7961 -0.6117
 1493TIP3   OH2 4484   4.671   4.034   1.379 -0.1341  0.3388 -0.1011
 1493TIP3    H1 4485   4.688   4.124   1.407 -2.1037  1.0484 -1.0233
 1493TIP3    H2 4486   4.617   3.997   1.448 -0.4895  0.3296 -0.3808
 1494TIP3   OH2 4487   2.285   4.308   4.338  0.1038  0.1416  0.6579
 1494TIP3    H1 4488   2.311   4.370   4.407 -0.7749  0.9686  0.2668
 1494TIP3    H2 4489   2.221   4.356   4.286  0.7807 -0.4624 -0.7722
 1495TIP3   OH2 4490   0.847   2.435   2.938 -0.1099 -0.0967  0.1841
 1495TIP3    H1 4491   0.823   2.438   3.030 -1.6587 -0.1815 -0.1849
 1495TIP3    H2 4492   0.799   2.360   2.903 -0.9511  0.9531 -1.0350
 1496TIP3   OH2 4493   1.870   3.345   4.012  0.4198 -0.6898  0.1205
 1496TIP3    H1 4494   1.845   3.424   3.963 -0.9115 -0.7479  0.6572
 1496TIP3    H2 4495   1.884   3.376   4.102  3.2715 -0.5095 -0.3088
 1497TIP3   OH2 4496   4.140   3.219   0.072 -0.7108  0.3039 -0.1274
 1497TIP3    H1 4497   4.164   3.223  -0.020 -0.9605 -0.8272 -0.2599
 1497TIP3    H2 4498   4.045   3.233   0.073 -1.2955 -2.8882 -0.4271
 1498TIP3   OH2 4499   1.490   3.103   4.532  0.3912 -0.0458 -0.0939
 1498TIP3    H1 4500   1.530   3.190   4.521  0.9011 -0.2217  0.3218
 1498TIP3    H2 4501   1.499   3.062   4.446  0.9554 -0.0152 -0.0554
 1499TIP3   OH2 4502   2.232   4.265   1.531 -0.2984  0.3640  0.5354
 1499TIP3    H1 4503   2.241   4.301   1.619  0.6306  0.2899  0.4732
 1499TIP3    H2 4504   2.295   4.314   1.478 -0.9430  0.5057 -0.1310
 1500TIP3   OH2 4505   4.353   4.536   1.041  0.1945  0.1873  0.1257
 1500TIP3    H1 4506   4.274   4.481   1.047  0.8393 -0.7768 -0.0410
 1500TIP3    H2 4507   4.410   4.489   0.981  0.6574  1.2015 -0.2542
 1501TIP3   OH2 4508   2.916   3.704   4.433  0.3279  0.0800 -0.7846
 1501TIP3    H1 4509   2.948   3.675   4.348 -0.1457  1.0742 -1.3173
 1501TIP3    H2 4510   2.906   3.623   4.484  1.9308 -0.4094 -1.1907
 1502TIP3   OH2 4511   3.555   1.430   4.703 -0.6973 -0.6967  0.1779
 1502TIP3    H1 4512   3.541   1.470   4.789  0.5018 -1.9197  0.9742
 1502TIP3    H2 4513   3.564   1.336   4.721 -2.7887 -1.3173 -1.5580
 1503TIP3   OH2 4514   3.229   2.916   3.521 -0.6026  0.2540  0.0646
 1503TIP3    H1 4515   3.183   2.981   3.574 -1.8250 -0.6975  0.2363
 1503TIP3    H2 4516   3.256   2.849   3.584 -0.6230 -0.0958 -0.2944
 1504TIP3   OH2 4517   3.692   3.444   3.124  0.7058 -0.3437  0.1729
 1504TIP3    H1 4518   3.679   3.384   3.051  0.7171  0.8499 -0.8464
 1504TIP3    H2 4519   3.782   3.475   3.114  1.4012 -1.6363  1.8626
 1505TIP3   OH2 4520   1.703   4.781   4.455 -0.5259 -0.2165  0.1678
 1505TIP3    H1 4521   1.627   4.834   4.481  0.3941  1.8981 -1.1639
 1505TIP3    H2 4522   1.778   4.840   4.466  0.9095 -2.0551  0.8779
 1506TIP3   OH2 4523   6.261   4.663   1.404 -0.4721  0.0385 -0.4611
 1506TIP3    H1 4524   6.278   4.672   1.310  1.0722  0.5508 -0.1608
 1506TIP3    H2 4525   6.181   4.713   1.419  0.5120  1.9523 -1.1568
 1507TIP3   OH2 4526   1.687   2.099   3.990 -0.0913  0.5029 -0.5048
 1507TIP3    H1 4527   1.725   2.032   4.046 -0.2716  0.2097 -0.7301
 1507TIP3    H2 4528   1.615   2.135   4.041 -0.8898 -0.4467 -0.9191
 1508TIP3   OH2 4529   2.779   1.651   5.174  0.2892  0.2607  0.0867
 1508TIP3    H1 4530   2.773   1.735   5.129 -0.2224  0.2705  0.1742
 1508TIP3    H2 4531   2.689   1.629   5.196  0.1303 -1.3066 -1.7965
 1509TIP3   OH2 4532   5.234   3.491   3.720  0.2253 -0.0054 -0.5448
 1509TIP3    H1 4533   5.304   3.470   3.783 -0.5649  1.3524  0.8357
 1509TIP3    H2 4534   5.171   3.419   3.730  0.0568  0.2490  0.3116
 1510TIP3   OH2 4535   0.978   1.365   4.832  0.3011  0.0168  0.2276
 1510TIP3    H1 4536   1.008   1.452   4.808 -2.0748  1.0593  0.7479
 1510TIP3    H2 4537   0.969   1.319   4.748  1.5226  0.2598 -0.0548
 1511TIP3   OH2 4538   3.544   2.024   0.951 -0.0772  0.3062  0.7039
 1511TIP3    H1 4539   3.469   2.083   0.945 -1.0402 -0.8449  0.8633
 1511TIP3    H2 4540   3.506   1.940   0.979  1.2814 -0.2956  0.8374
 1512TIP3   OH2 4541   3.060   4.245   3.202 -0.3373  0.3414 -0.4238
 1512TIP3    H1 4542   3.089   4.330   3.170 -0.7051  0.3490 -0.7454
 1512TIP3    H2 4543   3.141   4.196   3.216 -0.1234  0.7443 -0.2257
 1513TIP3   OH2 4544   5.161   1.984   3.911  0.6409 -0.3366 -0.4239
 1513TIP3    H1 4545   5.078   2.030   3.901  1.1700  0.6149 -0.5604
 1513TIP3    H2 4546   5.163   1.921   3.839  0.1385 -0.2101 -0.5519
 1514TIP3   OH2 4547   1.733   0.232   5.166  0.5115  0.6188  0.4232
 1514TIP3    H1 4548   1.696   0.145   5.151  2.2026  0.1601 -1.5249
 1514TIP3    H2 4549   1.764   0.261   5.080 -1.6015  3.9952  0.6234
 1515TIP3   OH2 4550   1.977   2.387   1.359 -0.1213 -0.0342 -0.6035
 1515TIP3    H1 4551   1.940   2.346   1.437 -1.4026  0.2381 -1.0392
 1515TIP3    H2 4552   1.940   2.476   1.358  0.9618  0.4328 -0.7915
 1516TIP3   OH2 4553   3.567   3.098   1.015 -0.7760 -0.6370  0.5118
 1516TIP3    H1 4554   3.566   3.181   1.064  0.7080 -0.0929 -0.2884
 1516TIP3    H2 4555   3.661   3.080   1.003 -1.1030 -1.5038 -0.8732
 1517TIP3   OH2 4556   3.698   1.446   1.030  0.1539  0.2631  0.4256
 1517TIP3    H1 4557   3.729   1.512   1.092 -2.1295  0.9052  0.9669
 1517TIP3    H2 4558   3.648   1.496   0.966  1.2440 -0.5817 -1.1411
 1518TIP3   OH2 4559   1.098   4.808   0.700 -0.0513 -0.5923 -0.3142
 1518TIP3    H1 4560   1.088   4.889   0.752  0.3261 -1.7739  1.7267
 1518TIP3    H2 4561   1.123   4.742   0.765  1.0766 -2.0490 -2.1550
 1519TIP3   OH2 4562   6.118   1.277   1.815  0.3224 -0.5475 -0.4714
 1519TIP3    H1 4563   6.024   1.279   1.794  0.0020  0.3988  0.8684
 1519TIP3    H2 4564   6.121   1.253   1.908  1.5090 -1.9368 -0.8375
 1520TIP3   OH2 4565   6.323   4.619   2.384  0.1666  0.4585  0.3702
 1520TIP3    H1 4566   6.366   4.633   2.468  0.3186  0.7069  0.2523
 1520TIP3    H2 4567   6.307   4.708   2.351  0.5955  0.3621 -0.1102
 1521TIP3   OH2 4568   3.177   4.985   3.642  0.4158 -0.1983 -0.1947
 1521TIP3    H1 4569   3.266   4.986   3.678 -0.3140  0.3278  1.7062
 1521TIP3    H2 4570   3.174   4.907   3.587  2.1384 -0.0467 -0.5643
 1522TIP3   OH2 4571   5.869   1.474   4.574 -0.4878  0.2863  0.0478
 1522TIP3    H1 4572   5.813   1.401   4.601  3.2804 -2.2991  1.7841
 1522TIP3    H2 4573   5.893   1.517   4.656  0.7087  0.7879 -0.5420
 1523TIP3   OH2 4574   4.106   2.627   2.394  0.4173 -0.3440 -0.3728
 1523TIP3    H1 4575   4.073   2.546   2.433  2.4535 -2.0078 -1.7979
 1523TIP3    H2 4576   4.177   2.654   2.452 -0.7730  0.9357  0.5358
 1524TIP3   OH2 4577   0.899   2.825   2.184  0.0380 -0.2386 -0.2063
 1524TIP3    H1 4578   0.973   2.794   2.132  0.4856 -0.6723  0.6832
 1524TIP3    H2 4579   0.939   2.863   2.262 -0.5645  1.4134 -0.6531
 1525TIP3   OH2 4580   6.181   5.386   3.731  0.1761  0.4627 -0.2656
 1525TIP3    H1 4581   6.273   5.363   3.738 -0.6354 -3.1253  0.4776
 1525TIP3    H2 4582   6.170   5.461   3.789  2.3071 -0.1083  0.9594
 1526TIP3   OH2 4583   4.147   5.314   1.510  0.7792 -0.5246 -0.2815
 1526TIP3    H1 4584   4.104   5.232   1.535 -0.1872 -0.5634 -1.9005
 1526TIP3    H2 4585   4.183   5.296   1.423  1.8317  0.3330 -0.0415
 1527TIP3   OH2 4586   2.808   0.832   1.329  0.0425  1.3381 -0.7505
 1527TIP3    H1 4587   2.760   0.789   1.259  1.4462  1.1957 -1.6609
 1527TIP3    H2 4588   2.766   0.800   1.410 -0.0450 -0.4084 -1.4474
 1528TIP3   OH2 4589   1.896   3.248   2.097  0.9539 -0.5366 -0.1456
 1528TIP3    H1 4590   1.808   3.210   2.104 -0.0184  1.5687  0.0416
 1528TIP3    H2 4591   1.907   3.268   2.004  1.4325 -1.1898 -0.2356
 1529TIP3   OH2 4592   3.576   0.497   3.932 -0.0513  0.2665  0.1586
 1529TIP3    H1 4593   3.512   0.475   3.864 -0.0303 -0.7285  0.4475
 1529TIP3    H2 4594   3.523   0.530   4.004 -0.1054  0.9438 -0.1809
 1530TIP3   OH2 4595   0.001   5.972   1.301 -0.0194 -0.2587  0.3879
 1530TIP3    H1 4596  -0.004   5.877   1.295 -0.6884 -0.1742 -0.8310
 1530TIP3    H2 4597   0.076   5.989   1.358  0.1088 -1.5112  0.6168
 1531TIP3   OH2 4598   3.735   3.367   3.507  0.3402  0.4770  0.0660
 1531TIP3    H1 4599   3.804   3.391   3.445 -0.7756  2.3160 -0.5235
 1531TIP3    H2 4600   3.654   3.396   3.466 -0.8104 -1.4347  0.8405
 1532TIP3   OH2 4601   2.140   2.651   4.566 -0.1397 -0.0731 -0.1283
 1532TIP3    H1 4602   2.192   2.723   4.602 -0.6561  0.7002 -0.8875
 1532TIP3    H2 4603   2.203   2.601   4.514  0.4604 -0.8119  1.2499
 1533TIP3   OH2 4604   2.142   4.675   3.082 -0.2953  0.2642 -0.2297
 1533TIP3    H1 4605   2.150   4.648   3.174 -0.5978  0.3208 -0.1871
 1533TIP3    H2 4606   2.052   4.705   3.073 -0.1924  0.5016 -0.4837
 1534TIP3   OH2 4607   5.596   1.100   0.569 -0.1492 -0.3230 -0.5837
 1534TIP3    H1 4608   5.521   1.121   0.625  2.1777  2.4481  1.8672
 1534TIP3    H2 4609   5.664   1.071   0.630  1.0931 -1.8716 -2.5951
 1535TIP3   OH2 4610   0.900   4.679   3.848  0.0017 -0.0854 -0.2148
 1535TIP3    H1 4611   0.823   4.631   3.817 -1.4184  0.6867  1.8243
 1535TIP3    H2 4612   0.969   4.613   3.852 -0.7955 -1.0279 -1.2614
 1536TIP3   OH2 4613   2.306   1.542   4.543  0.4275 -0.5855 -0.4929
 1536TIP3    H1 4614   2.393   1.514   4.572  1.0937 -0.3364 -2.1245
 1536TIP3    H2 4615   2.322   1.622   4.494 -1.0256  0.7432  1.0710
 1537TIP3   OH2 4616   3.644   1.315   3.784  0.4746 -0.3411  0.4576
 1537TIP3    H1 4617   3.705   1.352   3.847  0.1826 -0.0459  0.5695
 1537TIP3    H2 4618   3.570   1.284   3.837  1.0723 -1.8429  0.4593
 1538TIP3   OH2 4619   5.995   4.527   1.624 -0.1647 -0.4351  0.2151
 1538TIP3    H1 4620   5.934   4.558   1.691 -2.9951 -1.2158 -1.8152
 1538TIP3    H2 4621   6.001   4.432   1.638  2.9377 -0.1120  2.0743
 1539TIP3   OH2 4622   5.379   0.890   0.533 -0.1465  0.1206  0.5076
 1539TIP3    H1 4623   5.326   0.870   0.456 -0.1982 -0.3910  0.6730
 1539TIP3    H2 4624   5.455   0.938   0.498  1.0699 -2.1603 -0.2093
 1540TIP3   OH2 4625   2.284   2.331   1.824  0.4934  0.1301  0.4178
 1540TIP3    H1 4626   2.350   2.362   1.887  2.1359 -0.7668 -0.7780
 1540TIP3    H2 4627   2.201   2.363   1.859  1.0990 -1.7246  3.9555
 1541TIP3   OH2 4628   0.051   4.057   3.943  0.0318  0.1934 -0.0449
 1541TIP3    H1 4629   0.123   4.005   3.909 -0.1101  0.3158 -0.5304
 1541TIP3    H2 4630   0.014   4.101   3.867 -1.2658 -0.7377  0.0095
 1542TIP3   OH2 4631   5.508   0.949   1.952  0.3245  0.1277 -0.1049
 1542TIP3    H1 4632   5.588   0.902   1.931 -0.1592 -0.7502 -0.0000
 1542TIP3    H2 4633   5.480   0.914   2.037  0.1415  0.8469  0.1422
 1543TIP3   OH2 4634   5.588   2.004   4.413  0.0339 -0.0167  0.2146
 1543TIP3    H1 4635   5.666   1.953   4.389 -0.2605  0.0355 -0.9159
 1543TIP3    H2 4636   5.514   1.952   4.382 -0.3454  0.3244  0.5270
 1544TIP3   OH2 4637   2.785   2.499   4.757  0.0987  0.5225  0.5107
 1544TIP3    H1 4638   2.867   2.548   4.749 -0.8011  1.9984 -0.0132
 1544TIP3    H2 4639   2.726   2.558   4.802 -0.5376 -0.7413  1.4015
 1545TIP3   OH2 4640   6.074   0.233   3.488  0.6120  0.0502  0.4536
 1545TIP3    H1 4641   6.118   0.313   3.458  0.0405 -0.1233 -0.9036
 1545TIP3    H2 4642   5.995   0.265   3.531  0.3518  0.2312 -0.1416
 1546TIP3   OH2 4643   2.875   2.443   0.476 -0.0465  0.0747  0.5185
 1546TIP3    H1 4644   2.909   2.532   0.463  0.1295 -0.2101 -1.0659
 1546TIP3    H2 4645   2.866   2.407   0.388 -1.3065 -1.0529  1.0758
 1547TIP3   OH2 4646   1.180   3.142   4.602 -0.0513  0.0975 -0.2411
 1547TIP3    H1 4647   1.242   3.123   4.673 -0.0630 -0.3910 -0.3569
 1547TIP3    H2 4648   1.236   3.152   4.524  0.0135  1.2436 -0.0521
 1548TIP3   OH2 4649   6.274   1.632   0.195 -0.0445 -0.6610 -0.3666
 1548TIP3    H1 4650   6.185   1.636   0.162  0.0786  0.0440 -0.6188
 1548TIP3    H2 4651   6.329   1.625   0.117  0.1158 -1.3685 -0.2038
 1549TIP3   OH2 4652   2.478   1.242   1.893 -0.4523  0.0702  0.2457
 1549TIP3    H1 4653   2.551   1.302   1.875  0.1651 -0.5605  0.6343
 1549TIP3    H2 4654   2.401   1.300   1.898 -0.1439  0.6330 -1.1318
 1550TIP3   OH2 4655   4.250   5.101   3.288 -0.4562  0.2918 -0.3091
 1550TIP3    H1 4656   4.191   5.137   3.354 -0.8616  1.7936 -1.4233
 1550TIP3    H2 4657   4.207   5.119   3.204  0.8563  0.0342 -1.0782
 1551TIP3   OH2 4658   1.380   1.085   3.391 -0.9154  0.1009  0.0307
 1551TIP3    H1 4659   1.415   0.998   3.372 -2.1367 -0.4116 -0.0294
 1551TIP3    H2 4660   1.384   1.132   3.307 -2.5814 -0.7872 -0.6027
 1552TIP3   OH2 4661   3.203   3.063   3.296  0.6199 -0.3658 -0.7712
 1552TIP3    H1 4662   3.124   3.107   3.329 -0.6819 -2.0181 -1.4876
 1552TIP3    H2 4663   3.227   3.002   3.366  1.7309  0.6552 -0.2472
 1553TIP3   OH2 4664   5.637   4.961   1.336 -0.3486  0.0277  0.3666
 1553TIP3    H1 4665   5.546   4.971   1.307 -1.0156  0.2991  2.3595
 1553TIP3    H2 4666   5.659   5.045   1.376 -0.2685 -0.9345  2.4816
 1554TIP3   OH2 4667   0.333   3.743   2.670  0.2104  0.4739  0.1376
 1554TIP3    H1 4668   0.298   3.665   2.712 -1.1403  0.7733 -0.3711
 1554TIP3    H2 4669   0.256   3.792   2.642  1.0260  0.6344 -2.0375
 1555TIP3   OH2 4670   5.341   5.359   0.404  0.2890  0.0064 -0.4174
 1555TIP3    H1 4671   5.248   5.366   0.427  0.3570 -1.5739  0.4847
 1555TIP3    H2 4672   5.386   5.361   0.489  0.9166 -1.1361 -0.7033
 1556TIP3   OH2 4673   2.343   0.215   4.470 -0.0963 -0.4753  0.0340
 1556TIP3    H1 4674   2.324   0.121   4.476 -1.0022 -0.2885  0.3965
 1556TIP3    H2 4675   2.347   0.244   4.561  0.5073 -0.2218 -0.0724
 1557TIP3   OH2 4676   0.454   1.749   0.341  0.4676 -0.2419  0.3241
 1557TIP3    H1 4677   0.434   1.715   0.428  1.9119  3.1153  2.1718
 1557TIP3    H2 4678   0.547   1.732   0.329  0.4107 -0.1443 -0.3081
 1558TIP3   OH2 4679   6.260   4.457   4.360  0.3038 -0.0951 -0.1964
 1558TIP3    H1 4680   6.254   4.545   4.325  0.9702 -0.0086 -0.1162
 1558TIP3    H2 4681   6.321   4.465   4.434  1.3878 -0.8543 -0.9902
 1559TIP3   OH2 4682   2.941   1.971   0.619  0.1934  0.0042  0.6994
 1559TIP3    H1 4683   2.954   2.014   0.704 -0.6886  0.5407  0.5783
 1559TIP3    H2 4684   3.030   1.954   0.587  0.5424  0.2849  1.4835
 1560TIP3   OH2 4685   0.751   1.217   2.898  0.2053 -0.4816  0.6332
 1560TIP3    H1 4686   0.837   1.233   2.858 -0.2456  1.2941  0.2873
 1560TIP3    H2 4687   0.771   1.206   2.991  0.9723 -1.8953  0.3327
 1561TIP3   OH2 4688   1.077   0.155   2.900  0.3420 -0.8095  0.0253
 1561TIP3    H1 4689   1.054   0.100   2.974 -1.6048  0.1498  0.2063
 1561TIP3    H2 4690   1.001   0.211   2.887  1.5042  0.5727 -1.3072
 1562TIP3   OH2 4691   3.055   0.632   0.950 -0.0755  0.6395 -0.2185
 1562TIP3    H1 4692   3.119   0.697   0.979 -0.3154  0.6933  0.2064
 1562TIP3    H2 4693   3.050   0.570   1.023  0.1454  0.1491 -0.6170
 1563TIP3   OH2 4694   4.008   3.330   3.429  0.3052  0.0070  0.2574
 1563TIP3    H1 4695   4.002   3.296   3.340 -1.6122  0.5966  0.1246
 1563TIP3    H2 4696   4.050   3.259   3.479  3.0906  0.3416 -1.3961
 1564TIP3   OH2 4697   1.307   0.647   2.849 -0.0784  0.1803 -0.4543
 1564TIP3    H1 4698   1.231   0.646   2.907 -0.2162 -1.0736 -0.6136
 1564TIP3    H2 4699   1.286   0.711   2.781 -1.0760 -0.2823 -0.5967
 1565TIP3   OH2 4700   1.033   2.600   1.238 -0.3595  0.4250 -0.9812
 1565TIP3    H1 4701   1.110   2.547   1.215  0.0023 -0.1622  1.3835
 1565TIP3    H2 4702   0.967   2.575   1.173  0.4699 -1.3700 -1.2027
 1566TIP3   OH2 4703   3.435   3.425   0.543  0.9459 -0.0425 -0.5393
 1566TIP3    H1 4704   3.356   3.470   0.573  0.8911  0.2067 -1.0514
 1566TIP3    H2 4705   3.501   3.494   0.536  0.9731 -0.1069 -0.9379
 1567TIP3   OH2 4706   5.674   1.748   3.903 -0.1418 -0.2552  0.4480
 1567TIP3    H1 4707   5.648   1.714   3.988 -0.4233  0.4550  0.6482
 1567TIP3    H2 4708   5.714   1.833   3.922  1.4692 -0.8790  0.0607
 1568TIP3   OH2 4709   1.224   3.711   0.306  0.3158  0.5916  0.1832
 1568TIP3    H1 4710   1.293   3.645   0.310  2.1577  2.4594  1.0148
 1568TIP3    H2 4711   1.174   3.699   0.387 -0.7135 -1.0716 -0.6400
 1569TIP3   OH2 4712   1.186   4.021   2.919 -0.4057 -0.0091  0.7422
 1569TIP3    H1 4713   1.110   3.983   2.875 -0.2757 -1.4908  1.7281
 1569TIP3    H2 4714   1.246   4.044   2.848 -0.8473 -0.8908  0.0602
 1570TIP3   OH2 4715   1.981   1.165   4.922 -0.2041  0.3471 -0.1295
 1570TIP3    H1 4716   1.982   1.129   4.834  1.8491  1.3184 -0.5558
 1570TIP3    H2 4717   2.071   1.156   4.953 -0.6357  1.0638  1.4263
 1571TIP3   OH2 4718   3.866   3.569   0.050  0.3215 -0.1552 -0.4672
 1571TIP3    H1 4719   3.785   3.590   0.097  0.0341  0.6470 -1.3026
 1571TIP3    H2 4720   3.912   3.510   0.109 -0.3415  0.2890  0.5320
 1572TIP3   OH2 4721   5.184   2.049   2.640 -0.2698 -0.6830 -0.7189
 1572TIP3    H1 4722   5.124   2.054   2.565 -0.3941 -0.6244 -0.6162
 1572TIP3    H2 4723   5.128   2.062   2.716 -0.2191 -1.2262 -0.5871
 1573TIP3   OH2 4724   2.095   5.511   3.956 -0.1597 -0.4528 -0.3793
 1573TIP3    H1 4725   2.119   5.499   3.864 -1.2946 -0.7344 -0.6462
 1573TIP3    H2 4726   2.004   5.483   3.961  0.2126 -1.4785  1.0668
 1574TIP3   OH2 4727   1.078   5.669   3.089  0.0696  0.4401 -0.7579
 1574TIP3    H1 4728   1.084   5.764   3.084  2.1278  0.4268  0.4295
 1574TIP3    H2 4729   1.162   5.637   3.055 -0.8955 -1.0169 -1.9377
 1575TIP3   OH2 4730   5.816   2.018   1.738 -0.1612 -0.8132 -0.3913
 1575TIP3    H1 4731   5.872   1.949   1.700  0.7597 -0.5109  0.3823
 1575TIP3    H2 4732   5.801   1.989   1.828  0.8094  0.3281  0.1551
 1576TIP3   OH2 4733   3.983   2.261   4.981  0.5962  0.1601 -0.5427
 1576TIP3    H1 4734   4.026   2.345   4.991 -0.6648  0.8361 -0.6654
 1576TIP3    H2 4735   3.941   2.245   5.066  0.4724 -0.1515 -0.6608
 1577TIP3   OH2 4736   3.380   3.989   2.254 -0.0965  0.6800 -0.4015
 1577TIP3    H1 4737   3.434   4.001   2.175 -0.2033  0.7930 -0.4571
 1577TIP3    H2 4738   3.369   4.077   2.289  0.1521  0.6043 -0.1259
 1578TIP3   OH2 4739   4.255   1.863   1.072  0.7339 -0.1250 -0.0602
 1578TIP3    H1 4740   4.266   1.769   1.085  0.9352 -0.1322 -0.2717
 1578TIP3    H2 4741   4.345   1.896   1.060  0.6111 -0.0402 -0.8509
 1579TIP3   OH2 4742   4.592   3.717   2.681 -0.0008 -0.4628 -0.0652
 1579TIP3    H1 4743   4.544   3.778   2.737  0.2584 -3.1438  3.4271
 1579TIP3    H2 4744   4.525   3.655   2.650 -0.0979  0.8550 -2.6985
 1580TIP3   OH2 4745   4.725   5.031   0.353  0.8256  0.0144 -0.1968
 1580TIP3    H1 4746   4.713   4.937   0.369  1.2965  0.1740  1.2048
 1580TIP3    H2 4747   4.638   5.063   0.332 -0.0414 -0.1280  2.7686
 1581TIP3   OH2 4748   1.114   0.572   0.993 -0.3707 -0.7188  0.7735
 1581TIP3    H1 4749   1.120   0.477   0.979  1.6788 -0.4763 -0.3864
 1581TIP3    H2 4750   1.091   0.580   1.086  1.0671 -2.3653  1.3349
 1582TIP3   OH2 4751   4.930   2.784   3.815 -0.0577 -0.1457 -0.4355
 1582TIP3    H1 4752   4.886   2.852   3.766  0.4733  1.6268  1.3960
 1582TIP3    H2 4753   5.016   2.775   3.773  0.3307  1.2264  0.0266
 1583TIP3   OH2 4754   0.763   4.336   4.189  0.4566 -0.0045 -0.3906
 1583TIP3    H1 4755   0.671   4.342   4.215  0.7216  0.2414  0.5403
 1583TIP3    H2 4756   0.762   4.333   4.093 -0.6136 -1.7169 -0.3513
 1584TIP3   OH2 4757   5.132   0.165   2.331  0.2735 -0.0362 -0.1125
 1584TIP3    H1 4758   5.101   0.107   2.262  0.9352  0.7516 -1.0978
 1584TIP3    H2 4759   5.094   0.129   2.411 -0.9220 -0.6805 -0.9367
 1585TIP3   OH2 4760   4.881   5.482   3.240  0.0060  0.0639 -0.5456
 1585TIP3    H1 4761   4.820   5.421   3.281 -2.7836  1.4831 -2.2685
 1585TIP3    H2 4762   4.883   5.557   3.300  0.7633 -0.3297 -0.0711
 1586TIP3   OH2 4763   3.120   4.155   2.600 -0.1955 -0.3335 -0.1032
 1586TIP3    H1 4764   3.105   4.249   2.590  0.8246 -0.1965 -0.4667
 1586TIP3    H2 4765   3.035   4.120   2.626 -0.5055  0.7369  0.3919
 1587TIP3   OH2 4766   3.608   3.105   4.498  0.3007  0.1513  0.4853
 1587TIP3    H1 4767   3.557   3.166   4.551 -1.0730 -0.8418  0.3387
 1587TIP3    H2 4768   3.687   3.089   4.549 -0.3981  0.2355  1.6114
 1588TIP3   OH2 4769   3.456   4.439   4.948 -0.2821  0.1505  0.3696
 1588TIP3    H1 4770   3.530   4.448   4.888  0.3157  0.7989  1.1837
 1588TIP3    H2 4771   3.439   4.344   4.950  0.0260  0.0679 -0.4083
 1589TIP3   OH2 4772   6.155   1.760   1.151  0.3177  0.0877  0.9723
 1589TIP3    H1 4773   6.207   1.753   1.070  0.4911 -1.0954  1.1694
 1589TIP3    H2 4774   6.216   1.793   1.216  0.0057  1.7125  0.4821
 1590TIP3   OH2 4775   5.190   5.188   1.763 -0.5056 -0.5246 -0.4701
 1590TIP3    H1 4776   5.155   5.263   1.715  2.6650  1.3035 -0.1647
 1590TIP3    H2 4777   5.276   5.172   1.725  0.7499 -1.1554  2.3548
 1591TIP3   OH2 4778   5.537   0.954   5.112  0.1923 -0.3140 -0.1943
 1591TIP3    H1 4779   5.473   1.021   5.088  1.3018  0.5548 -0.8235
 1591TIP3    H2 4780   5.588   0.994   5.182 -0.4728 -1.3343  0.9165
 1592TIP3   OH2 4781   4.548   1.406   2.585 -0.3961 -0.2248  0.2202
 1592TIP3    H1 4782   4.457   1.413   2.558 -0.5015  0.4550  0.7245
 1592TIP3    H2 4783   4.593   1.476   2.537 -0.7458  1.6064  2.3878
 1593TIP3   OH2 4784   5.726   1.759   2.875 -0.3588 -0.7837  0.1774
 1593TIP3    H1 4785   5.755   1.803   2.796  1.4577  0.8157  1.6572
 1593TIP3    H2 4786   5.770   1.674   2.873 -0.6233 -0.9145 -0.6609
 1594TIP3   OH2 4787   2.447   1.738   0.358  0.0604 -0.0062 -0.3232
 1594TIP3    H1 4788   2.504   1.813   0.343  0.9513 -0.8131 -1.1899
 1594TIP3    H2 4789   2.507   1.663   0.365 -0.7269 -0.5326  1.4819
 1595TIP3   OH2 4790   2.569   4.414   0.994 -0.1331  0.9871 -0.0571
 1595TIP3    H1 4791   2.508   4.347   0.963  1.5639 -0.4178 -0.4632
 1595TIP3    H2 4792   2.532   4.496   0.960 -2.3725  0.3510  0.6477
 1596TIP3   OH2 4793   5.283   1.587   2.578 -0.2084 -0.2055 -0.0257
 1596TIP3    H1 4794   5.285   1.554   2.489 -1.0615  2.6343 -1.2115
 1596TIP3    H2 4795   5.371   1.571   2.612  0.5271 -0.1974 -1.8399
 1597TIP3   OH2 4796   5.377   5.688   0.652  0.1051 -0.0092 -0.1017
 1597TIP3    H1 4797   5.451   5.699   0.592  0.9810  1.7412  1.2209
 1597TIP3    H2 4798   5.323   5.621   0.610  0.9424  0.7426 -2.5613
 1598TIP3   OH2 4799   6.199   2.741   0.431  0.1931  0.5830  0.1821
 1598TIP3    H1 4800   6.273   2.698   0.474  0.6580  0.5157 -0.6549
 1598TIP3    H2 4801   6.239   2.816   0.387 -0.4034  1.1192  0.5462
 1599TIP3   OH2 4802   4.051   3.430   4.046 -0.1709  0.4168 -0.5959
 1599TIP3    H1 4803   4.022   3.415   4.136  2.3379  1.2951  0.4479
 1599TIP3    H2 4804   4.112   3.358   4.028  0.2402  0.8947 -1.1615
 1600TIP3   OH2 4805   2.734   5.813   2.051  0.3060  0.0113 -0.0620
 1600TIP3    H1 4806   2.725   5.821   1.956  0.3098  0.7729  0.0023
 1600TIP3    H2 4807   2.678   5.738   2.074  1.1417 -0.8621 -0.7893
 1601TIP3   OH2 4808   0.164   2.654   4.223  0.4706  0.0259  0.5199
 1601TIP3    H1 4809   0.222   2.609   4.161  1.1058  0.6155  0.6825
 1601TIP3    H2 4810   0.203   2.638   4.309 -1.3610 -2.3107  1.0387
 1602TIP3   OH2 4811   2.465   2.831   2.310 -0.7989 -0.0430 -0.1903
 1602TIP3    H1 4812   2.497   2.914   2.345  0.6078 -0.5057 -0.3525
 1602TIP3    H2 4813   2.480   2.768   2.380 -1.8678 -0.1923 -0.0661
 1603TIP3   OH2 4814   3.872   4.685   0.816  0.4178  0.0022  0.4562
 1603TIP3    H1 4815   3.798   4.740   0.790 -0.2640 -1.3019 -0.5042
 1603TIP3    H2 4816   3.846   4.596   0.789  1.8605 -0.6526  1.1249
 1604TIP3   OH2 4817   1.011   3.848   1.092  0.3721  0.6031 -1.2440
 1604TIP3    H1 4818   0.924   3.829   1.056 -0.8241 -3.1613  2.7002
 1604TIP3    H2 4819   1.063   3.770   1.073  0.7224 -0.0280  1.8426
 1605TIP3   OH2 4820   3.015   1.895   4.334  0.0993 -0.0941 -0.2634
 1605TIP3    H1 4821   3.038   1.970   4.279 -0.0252 -0.1379 -0.3735
 1605TIP3    H2 4822   2.922   1.904   4.351  0.3944  0.6730  1.0776
 1606TIP3   OH2 4823   0.663   3.316   4.632 -0.2241  0.5676 -0.0489
 1606TIP3    H1 4824   0.626   3.297   4.718 -2.0446 -0.1993 -0.9419
 1606TIP3    H2 4825   0.750   3.275   4.634 -1.3264 -1.9426  0.4910
 1607TIP3   OH2 4826   5.712   0.033   0.993  0.1516 -0.3506  0.0313
 1607TIP3    H1 4827   5.708   0.068   1.082 -0.2265  1.6271 -0.7150
 1607TIP3    H2 4828   5.744   0.106   0.940 -1.6613 -0.7708 -1.7828
 1608TIP3   OH2 4829   4.923   2.293   0.613  0.2965 -0.6317 -0.0119
 1608TIP3    H1 4830   4.889   2.269   0.700 -2.0190 -0.8888 -0.9245
 1608TIP3    H2 4831   4.993   2.356   0.632 -0.2212 -0.5842  2.0334
 1609TIP3   OH2 4832   1.888   3.814   0.462 -0.0451  0.3641 -0.0376
 1609TIP3    H1 4833   1.931   3.861   0.390  1.0725 -0.7379 -0.1161
 1609TIP3    H2 4834   1.902   3.870   0.538  1.3673  0.1463 -0.1062
 1610TIP3   OH2 4835   5.541   4.466   3.739  0.0360 -0.5528  0.4405
 1610TIP3    H1 4836   5.511   4.437   3.825 -1.8084 -1.2046 -0.3830
 1610TIP3    H2 4837   5.495   4.411   3.676  1.8721 -0.5708 -0.9921
 1611TIP3   OH2 4838   3.931   2.770   0.676  0.2772  0.6717  0.3820
 1611TIP3    H1 4839   3.978   2.761   0.759  3.4010 -0.0372 -1.3248
 1611TIP3    H2 4840   3.894   2.683   0.659 -0.6674  0.9063  1.1197
 1612TIP3   OH2 4841   0.306   0.320   0.654  0.2470  0.2305 -0.0281
 1612TIP3    H1 4842   0.399   0.310   0.676 -0.2500 -1.1557  1.6521
 1612TIP3    H2 4843   0.260   0.305   0.737 -1.6563 -2.7895 -1.4431
 1613TIP3   OH2 4844   2.590   3.642   3.732  0.4177 -0.4882  0.2408
 1613TIP3    H1 4845   2.592   3.586   3.655 -0.0868  0.7558 -0.7258
 1613TIP3    H2 4846   2.649   3.714   3.710 -1.2279  0.8963  0.1557
 1614TIP3   OH2 4847   6.097   0.097   1.476 -0.0290 -0.1490 -0.4302
 1614TIP3    H1 4848   6.108   0.124   1.567 -2.5435  0.8716 -0.3630
 1614TIP3    H2 4849   6.038   0.021   1.480  0.1891 -0.3735 -1.1993
 1615TIP3   OH2 4850   0.232   3.071   3.014  0.2649  0.1518 -0.1433
 1615TIP3    H1 4851   0.292   3.138   2.980 -1.3091  1.4273 -0.5253
 1615TIP3    H2 4852   0.174   3.119   3.073 -1.5655 -0.6263 -1.2154
 1616TIP3   OH2 4853   4.771   2.889   4.014  0.6561 -0.3771 -0.3301
 1616TIP3    H1 4854   4.830   2.823   3.977  2.3166  1.0412 -0.3435
 1616TIP3    H2 4855   4.731   2.931   3.938 -1.4942 -2.1970 -0.3184
 1617TIP3   OH2 4856   5.559   2.458   0.422  0.6378  0.2031 -0.3516
 1617TIP3    H1 4857   5.592   2.460   0.512 -0.5948 -0.1294  0.1280
 1617TIP3    H2 4858   5.558   2.550   0.395 -3.1955  0.9266  1.6251
 1618TIP3   OH2 4859   3.814   3.412   1.180 -0.3985  0.0281 -0.0075
 1618TIP3    H1 4860   3.805   3.443   1.089 -1.0446  1.3084  0.4627
 1618TIP3    H2 4861   3.880   3.469   1.218 -0.4138 -0.2494  0.4385
 1619TIP3   OH2 4862   2.223   1.730   1.266 -0.0637 -0.0840 -0.4457
 1619TIP3    H1 4863   2.148   1.786   1.245  1.9555  2.6779 -0.8363
 1619TIP3    H2 4864   2.259   1.767   1.346  2.8638  0.9519 -2.0809
 1620TIP3   OH2 4865   4.475   1.019   3.702  0.1435  0.8039 -0.0196
 1620TIP3    H1 4866   4.389   1.034   3.743 -0.5764  0.7485 -1.4411
 1620TIP3    H2 4867   4.531   1.087   3.739 -0.9981  1.9885 -0.3969
 1621TIP3   OH2 4868   3.449   5.799   4.440 -0.3203 -0.1684 -0.1332
 1621TIP3    H1 4869   3.520   5.842   4.393 -1.6884  1.5578 -0.7383
 1621TIP3    H2 4870   3.369   5.832   4.398 -1.6541  1.5526  3.3460
 1622TIP3   OH2 4871   1.354   5.349   1.675 -0.0046 -0.4618  0.5015
 1622TIP3    H1 4872   1.430   5.405   1.663 -0.5058  0.1811  0.2900
 1622TIP3    H2 4873   1.338   5.350   1.769 -0.5236  0.4449  0.4122
 1623TIP3   OH2 4874   4.178   2.123   4.836  0.2403  0.4870 -0.5500
 1623TIP3    H1 4875   4.120   2.169   4.897 -0.1807  1.2663 -1.5128
 1623TIP3    H2 4876   4.133   2.128   4.752  0.8245 -0.5521 -0.9435
 1624TIP3   OH2 4877   1.559   1.163   4.381 -0.1403  0.0312 -0.0961
 1624TIP3    H1 4878   1.473   1.129   4.356 -0.1104  0.2490 -0.5042
 1624TIP3    H2 4879   1.544   1.204   4.467 -0.6362  0.7716 -0.5169
 1625TIP3   OH2 4880   6.010   5.934   3.204 -0.1428  0.5030 -0.1980
 1625TIP3    H1 4881   6.041   5.958   3.291 -1.0861  0.6227  0.1196
 1625TIP3    H2 4882   5.972   6.014   3.169 -1.3106  0.0551 -0.0164
 1626TIP3   OH2 4883   4.858   3.223   1.986 -0.8212 -0.3066  0.0810
 1626TIP3    H1 4884   4.820   3.220   2.074  0.0508 -1.9491  0.4403
 1626TIP3    H2 4885   4.854   3.316   1.961  0.1288  0.4196  2.3991
 1627TIP3   OH2 4886   2.237   2.745   0.887  0.4213  0.7127  0.4574
 1627TIP3    H1 4887   2.200   2.744   0.976 -0.3341  1.1296  0.1601
 1627TIP3    H2 4888   2.196   2.671   0.843 -0.5951  1.5602 -0.0713
 1628TIP3   OH2 4889   1.958   3.664   4.745  0.6057  0.3875 -0.3337
 1628TIP3    H1 4890   1.930   3.755   4.736 -1.1670 -0.3112 -2.7700
 1628TIP3    H2 4891   2.054   3.668   4.740  0.5710  2.1240 -0.0952
 1629TIP3   OH2 4892   5.923   3.711   1.657 -0.5184 -0.3351  0.0892
 1629TIP3    H1 4893   5.907   3.737   1.748 -0.6676 -0.7254  0.1742
 1629TIP3    H2 4894   5.840   3.729   1.612 -0.5177 -0.3583  0.0787
 1630TIP3   OH2 4895   2.923   3.446   0.549  0.1497 -0.8767  0.1126
 1630TIP3    H1 4896   2.911   3.501   0.473  0.0975 -0.4650  0.4161
 1630TIP3    H2 4897   2.919   3.356   0.515 -0.4288 -0.7039 -0.2864
 1631TIP3   OH2 4898   4.801   3.773   4.879 -0.1860 -0.4164 -0.7184
 1631TIP3    H1 4899   4.811   3.838   4.809 -1.0453  0.6153  0.0786
 1631TIP3    H2 4900   4.818   3.689   4.837  2.1792  0.3816 -1.5246
 1632TIP3   OH2 4901   2.566   5.053   0.673  0.0879  0.0589 -0.4012
 1632TIP3    H1 4902   2.637   4.993   0.697  1.2631  1.3015 -0.6922
 1632TIP3    H2 4903   2.587   5.135   0.716 -1.2084  0.4535 -0.4672
 1633TIP3   OH2 4904   1.140   5.348   2.283 -0.2638 -0.1528 -0.0411
 1633TIP3    H1 4905   1.069   5.347   2.348  0.5483 -1.2249  0.8591
 1633TIP3    H2 4906   1.101   5.307   2.206 -0.2651 -2.0511  0.8928
 1634TIP3   OH2 4907   6.189   5.686   3.141 -0.6195  0.3057  0.1890
 1634TIP3    H1 4908   6.244   5.617   3.104 -0.8876  0.7760 -1.1155
 1634TIP3    H2 4909   6.106   5.644   3.160 -0.8114  0.2830 -0.6871
 1635TIP3   OH2 4910   1.419   2.055   4.996 -0.4119 -0.3440  0.0938
 1635TIP3    H1 4911   1.457   1.995   5.060 -0.1474 -1.5238 -1.1312
 1635TIP3    H2 4912   1.394   2.132   5.048  1.2802 -0.5682  1.3497
 1636TIP3   OH2 4913   5.037   3.020   0.456  0.2024 -0.6251  0.2782
 1636TIP3    H1 4914   5.007   3.040   0.545 -0.5689 -0.2041 -0.0723
 1636TIP3    H2 4915   4.977   2.953   0.424  0.3343 -0.6089 -0.0067
 1637TIP3   OH2 4916   1.319   5.027   0.875 -0.0321 -0.3640 -0.0666
 1637TIP3    H1 4917   1.226   5.022   0.854 -0.1307 -0.5099  0.3803
 1637TIP3    H2 4918   1.320   5.051   0.968  0.3782 -0.1677 -0.1215
 1638TIP3   OH2 4919   2.841   1.426   0.344  1.0782  0.1256 -0.3045
 1638TIP3    H1 4920   2.908   1.375   0.390  0.7198  1.4010  1.7905
 1638TIP3    H2 4921   2.889   1.493   0.297  1.3475  0.6914  0.7402
 1639TIP3   OH2 4922   2.606   0.086   1.896  0.6994 -0.4021 -0.3063
 1639TIP3    H1 4923   2.625  -0.007   1.906 -0.8519 -0.6413  0.8084
 1639TIP3    H2 4924   2.609   0.121   1.985 -1.9864 -0.1265 -0.2330
 1640TIP3   OH2 4925   4.345   5.930   3.533 -0.3344  0.2180  0.3682
 1640TIP3    H1 4926   4.362   5.965   3.446  0.2307 -2.0890 -0.5204
 1640TIP3    H2 4927   4.274   5.867   3.521  1.9642 -2.6466  0.8292
 1641TIP3   OH2 4928   2.124   2.463   0.934  0.0025  0.3908 -0.6016
 1641TIP3    H1 4929   2.211   2.470   0.895  0.5255 -0.5174  0.3512
 1641TIP3    H2 4930   2.140   2.433   1.023 -1.3640 -1.5984 -0.9535
 1642TIP3   OH2 4931   1.132   4.707   3.122  0.0249 -0.3785  0.1078
 1642TIP3    H1 4932   1.045   4.745   3.136 -0.5682 -1.6438 -0.0528
 1642TIP3    H2 4933   1.115   4.622   3.083  1.3639 -0.4738 -0.3055
 1643TIP3   OH2 4934   0.200   0.829   1.725 -0.8256 -0.3265  0.0577
 1643TIP3    H1 4935   0.163   0.847   1.638 -0.3749  0.7957  0.0817
 1643TIP3    H2 4936   0.139   0.870   1.786 -0.6720 -0.3342  0.2176
 1644TIP3   OH2 4937   3.497   5.713   2.162  0.1163  0.7019 -0.2933
 1644TIP3    H1 4938   3.479   5.627   2.122  0.1390  1.7020 -2.6337
 1644TIP3    H2 4939   3.530   5.692   2.249  2.2625 -1.7887 -1.5618
 1645TIP3   OH2 4940   2.924   1.609   1.193  0.0962 -0.3189 -0.5810
 1645TIP3    H1 4941   2.867   1.682   1.168  0.9323  0.3573 -0.5836
 1645TIP3    H2 4942   2.873   1.531   1.174 -1.7273  0.2690  1.5311
 1646TIP3   OH2 4943   2.728   1.803   0.590 -0.5213  0.1280  0.3966
 1646TIP3    H1 4944   2.745   1.738   0.659 -0.8721 -2.1848 -1.5297
 1646TIP3    H2 4945   2.811   1.850   0.580 -0.4489  0.4803  2.2958
 1647TIP3   OH2 4946   3.928   1.060   3.117  0.4821  0.2105  0.2823
 1647TIP3    H1 4947   3.961   1.078   3.205 -0.4449 -0.0454  0.6972
 1647TIP3    H2 4948   3.859   0.996   3.130 -0.5585  1.1353 -0.4751
 1648TIP3   OH2 4949   3.515   1.774   1.292 -0.6659 -0.4940  0.0496
 1648TIP3    H1 4950   3.536   1.855   1.338 -1.6221 -0.1228 -0.1266
 1648TIP3    H2 4951   3.597   1.725   1.289 -0.4287 -0.2290  1.5430
 1649TIP3   OH2 4952   1.196   5.108   1.621 -0.0272 -0.3161  0.0845
 1649TIP3    H1 4953   1.221   5.200   1.625  0.1429 -0.3542 -0.0499
 1649TIP3    H2 4954   1.236   5.069   1.699  1.1970 -0.5722 -0.6362
 1650TIP3   OH2 4955   2.876   4.240   1.962  0.0710 -0.4452 -0.1745
 1650TIP3    H1 4956   2.807   4.296   1.928 -0.2015 -0.2462  0.6854
 1650TIP3    H2 4957   2.857   4.154   1.924 -0.6606 -0.4000  0.0702
 1651TIP3   OH2 4958   2.385   0.645   3.058 -0.1809 -0.6480  0.1403
 1651TIP3    H1 4959   2.475   0.637   3.026 -0.5845 -1.9510 -0.7328
 1651TIP3    H2 4960   2.330   0.624   2.983 -1.1807 -1.9197  1.1628
 1652TIP3   OH2 4961   0.811   0.768   1.460 -0.4459 -0.0829 -0.1794
 1652TIP3    H1 4962   0.882   0.772   1.525 -0.6408  0.9406 -0.0125
 1652TIP3    H2 4963   0.855   0.782   1.376 -0.3721 -0.0442 -0.1349
 1653TIP3   OH2 4964   1.875   4.367   5.147 -0.2467  0.7024  0.1713
 1653TIP3    H1 4965   1.905   4.364   5.056  0.7891  2.0398  0.4260
 1653TIP3    H2 4966   1.819   4.444   5.152  0.0809  0.9103  0.7696
 1654TIP3   OH2 4967   5.107   5.380   1.577 -0.0813 -0.0110  0.1394
 1654TIP3    H1 4968   5.110   5.466   1.534 -1.2467  0.2830  0.6082
 1654TIP3    H2 4969   5.049   5.327   1.523  0.3151 -0.3838  0.0749
 1655TIP3   OH2 4970   6.236   1.532   1.796  0.3352  0.0682  0.5490
 1655TIP3    H1 4971   6.323   1.491   1.802  0.6014  0.6851  1.0329
 1655TIP3    H2 4972   6.176   1.459   1.783  1.1910 -0.2223 -2.9058
 1656TIP3   OH2 4973   3.440   5.016   3.741  0.0999  0.8396 -0.0050
 1656TIP3    H1 4974   3.495   5.093   3.724 -0.4187  1.7065  1.9504
 1656TIP3    H2 4975   3.500   4.953   3.782  0.1683  0.8240 -0.1274
 1657TIP3   OH2 4976   3.387   1.742   1.998 -0.1940 -0.7357  0.0843
 1657TIP3    H1 4977   3.396   1.789   1.914 -2.0679  0.4406  0.4798
 1657TIP3    H2 4978   3.449   1.786   2.056 -0.8967  0.3522  0.0490
 1658TIP3   OH2 4979   2.203   4.414   3.563 -0.0110 -0.1844 -0.3590
 1658TIP3    H1 4980   2.225   4.407   3.656  1.2269 -0.9438 -0.6766
 1658TIP3    H2 4981   2.129   4.354   3.551 -1.2449  1.1360  0.4211
 1659TIP3   OH2 4982   3.838   5.598   2.878  0.2441 -0.4181 -0.2426
 1659TIP3    H1 4983   3.832   5.673   2.938  0.1136 -1.9027  1.7084
 1659TIP3    H2 4984   3.932   5.589   2.860  0.2881  0.0191 -0.2468
 1660TIP3   OH2 4985   6.023   0.812   5.123  0.9916 -0.5015  0.1750
 1660TIP3    H1 4986   6.017   0.868   5.046 -0.2363 -1.0044 -0.1190
 1660TIP3    H2 4987   5.990   0.865   5.195 -0.0993 -0.8020 -0.0900
 1661TIP3   OH2 4988   4.687   3.602   4.097 -0.1386 -0.0621 -0.1593
 1661TIP3    H1 4989   4.656   3.556   4.175  0.8165  0.3724  0.4954
 1661TIP3    H2 4990   4.642   3.559   4.024 -1.2891 -0.2678  0.6481
 1662TIP3   OH2 4991   0.803   0.075   0.047  0.4059  0.2457 -0.2439
 1662TIP3    H1 4992   0.899   0.073   0.045  0.4087 -0.3414  0.1524
 1662TIP3    H2 4993   0.781   0.097   0.137  0.1725 -0.6692 -0.0624
 1663TIP3   OH2 4994   3.197   1.187   4.867 -0.2048 -0.2816 -0.1615
 1663TIP3    H1 4995   3.256   1.261   4.879 -1.5283  0.6412  0.9676
 1663TIP3    H2 4996   3.134   1.217   4.801 -1.5566  0.1651  1.2801
 1664TIP3   OH2 4997   0.653   5.634   2.950  0.1079  0.1577  0.1470
 1664TIP3    H1 4998   0.725   5.619   3.011  0.5856  0.9175 -0.2245
 1664TIP3    H2 4999   0.606   5.550   2.949  0.3427 -0.0055  1.2137
 1665TIP3   OH2 5000   5.604   2.428   0.060 -0.1006 -0.2247  0.2215
 1665TIP3    H1 5001   5.556   2.507   0.086 -1.4140 -1.6786  2.5460
 1665TIP3    H2 5002   5.691   2.439   0.099  1.5756  2.1318 -3.4967
 1666TIP3   OH2 5003   0.660   0.174   0.621  0.3638  0.4521 -0.1170
 1666TIP3    H1 5004   0.656   0.172   0.525  0.8315 -1.9402 -0.1657
 1666TIP3    H2 5005   0.747   0.140   0.641 -0.1672 -0.2254  1.1504
 1667TIP3   OH2 5006   2.620   5.421   4.311 -0.2317  0.2766  0.1589
 1667TIP3    H1 5007   2.695   5.379   4.352 -0.5359  0.0269  0.4667
 1667TIP3    H2 5008   2.551   5.417   4.378  0.0581  2.2413  0.6377
 1668TIP3   OH2 5009   1.628   5.863   4.665  0.1485  0.0519  0.3876
 1668TIP3    H1 5010   1.583   5.908   4.593  0.4049 -0.5868 -0.1792
 1668TIP3    H2 5011   1.718   5.854   4.636 -0.1405 -1.8998 -0.0617
 1669TIP3   OH2 5012   0.672   0.924   4.949 -0.3040 -0.3636 -0.0185
 1669TIP3    H1 5013   0.590   0.935   4.899  0.4010 -0.1584 -1.1727
 1669TIP3    H2 5014   0.676   1.001   5.005 -0.5079  0.0435 -0.5511
 1670TIP3   OH2 5015   3.688   2.186   2.859  0.0974 -0.0127 -0.0745
 1670TIP3    H1 5016   3.647   2.165   2.943 -0.0948  1.5720  0.2567
 1670TIP3    H2 5017   3.615   2.201   2.799  0.1955  0.7670 -0.0129
 1671TIP3   OH2 5018   5.252   2.335   4.047  0.2908  0.0701  0.2345
 1671TIP3    H1 5019   5.207   2.417   4.026 -0.4273 -0.8556 -2.1351
 1671TIP3    H2 5020   5.333   2.362   4.089 -0.3119  1.9542  0.2733
 1672TIP3   OH2 5021   2.543   3.754   2.297 -0.2240  0.3618  0.3891
 1672TIP3    H1 5022   2.509   3.835   2.258  1.0788  0.6955 -0.0862
 1672TIP3    H2 5023   2.619   3.781   2.348  0.0620 -0.5297  0.4549
 1673TIP3   OH2 5024   1.753   2.194   3.236  0.3517  0.3601  0.2642
 1673TIP3    H1 5025   1.741   2.185   3.331 -2.0458 -2.6769 -0.1829
 1673TIP3    H2 5026   1.829   2.139   3.217 -0.7618 -1.2269  0.1967
 1674TIP3   OH2 5027   6.339   3.985   4.470 -0.1324  0.2971 -0.6590
 1674TIP3    H1 5028   6.271   3.932   4.511  1.5555 -1.3653  0.1785
 1674TIP3    H2 5029   6.311   3.994   4.378 -1.2238 -0.7441 -0.4497
 1675TIP3   OH2 5030   3.414   4.421   4.174  0.5100 -0.0544 -0.1568
 1675TIP3    H1 5031   3.347   4.436   4.108 -0.7077 -0.1898  1.0195
 1675TIP3    H2 5032   3.374   4.362   4.237  1.7759 -0.2254  0.5251
 1676TIP3   OH2 5033   0.341   4.177   0.731  0.1301  0.1711 -0.4849
 1676TIP3    H1 5034   0.377   4.265   0.717 -1.7396  0.9364 -0.9007
 1676TIP3    H2 5035   0.254   4.193   0.766  0.4183 -1.5924  1.1623
 1677TIP3   OH2 5036   4.977   4.342   3.341  0.4293  0.7075 -0.0869
 1677TIP3    H1 5037   5.049   4.322   3.401  1.1903  2.5257 -0.3225
 1677TIP3    H2 5038   5.019   4.386   3.267 -0.5703 -0.9127 -1.6788
 1678TIP3   OH2 5039   1.303   0.142   1.144  0.3678  0.3664 -0.2589
 1678TIP3    H1 5040   1.241   0.073   1.172 -1.0995  0.9130 -1.9858
 1678TIP3    H2 5041   1.266   0.223   1.180  0.3725  0.6311 -0.8436
 1679TIP3   OH2 5042   1.944   1.113   2.662 -0.2142 -0.3591 -0.2459
 1679TIP3    H1 5043   1.934   1.130   2.755 -0.5420 -0.7463 -0.2077
 1679TIP3    H2 5044   1.856   1.088   2.632 -0.2546  0.3901 -0.7919
 1680TIP3   OH2 5045   0.115   0.372   3.149  0.1879 -0.3373 -0.3585
 1680TIP3    H1 5046   0.032   0.344   3.189  0.0885  0.1917 -0.1894
 1680TIP3    H2 5047   0.127   0.462   3.179 -0.1310  0.2584 -1.8942
 1681TIP3   OH2 5048   4.945   3.125   4.468 -0.7184  0.9162  0.9039
 1681TIP3    H1 5049   4.970   3.033   4.467 -0.8038  0.8810 -0.6796
 1681TIP3    H2 5050   5.026   3.172   4.486 -0.4239  0.5962  0.4180
 1682TIP3   OH2 5051   5.679   1.985   3.534 -0.2719 -0.4101  0.1395
 1682TIP3    H1 5052   5.592   1.954   3.513 -0.7878  0.1708  1.3211
 1682TIP3    H2 5053   5.724   1.909   3.571  0.2800 -1.1352 -1.9039
 1683TIP3   OH2 5054   0.009   0.423   4.761  0.0160  0.2199 -0.4958
 1683TIP3    H1 5055  -0.071   0.475   4.755  1.2619  2.2028 -0.9255
 1683TIP3    H2 5056   0.078   0.487   4.775  1.3819 -1.5663  1.4682
 1684TIP3   OH2 5057   1.016   1.418   2.814  0.5663  0.5501  0.3299
 1684TIP3    H1 5058   1.034   1.500   2.770 -2.6755  0.9380 -0.5159
 1684TIP3    H2 5059   1.027   1.438   2.907  1.9461  1.2600  0.0493
 1685TIP3   OH2 5060   4.761   5.301   3.958  0.5643 -0.2539  0.0286
 1685TIP3    H1 5061   4.704   5.245   3.905 -2.9418  1.6919  1.4063
 1685TIP3    H2 5062   4.725   5.389   3.946  2.0583  0.8033  2.5870
 1686TIP3   OH2 5063   5.908   4.975   3.976  0.5255  0.3706 -0.2685
 1686TIP3    H1 5064   5.965   4.902   4.001  0.8343  1.2032  1.5613
 1686TIP3    H2 5065   5.820   4.936   3.973  0.4086  0.2200  2.4746
 1687TIP3   OH2 5066   2.100   5.708   2.537  0.2240  0.1523  0.4097
 1687TIP3    H1 5067   2.177   5.760   2.515  1.6445 -1.8892  0.2112
 1687TIP3    H2 5068   2.081   5.658   2.458  1.8962 -3.0955  1.8709
 1688TIP3   OH2 5069   0.893   4.262   1.804  0.1297 -0.0080 -0.3129
 1688TIP3    H1 5070   0.928   4.261   1.715 -1.3880 -2.4997 -1.0011
 1688TIP3    H2 5071   0.964   4.228   1.858 -0.1319 -2.1715 -1.2209
 1689TIP3   OH2 5072   0.266   3.864   2.294  0.4263 -0.1874 -0.1583
 1689TIP3    H1 5073   0.224   3.810   2.360  0.0975  0.8159  0.4779
 1689TIP3    H2 5074   0.263   3.812   2.214 -0.2693 -0.9152  0.3330
 1690TIP3   OH2 5075   0.842   1.513   0.555 -0.0893 -0.5714  0.5468
 1690TIP3    H1 5076   0.918   1.512   0.613 -0.5701 -1.1824  1.1850
 1690TIP3    H2 5077   0.830   1.422   0.529 -1.5611 -0.7594  1.7602
 1691TIP3   OH2 5078   5.281   2.551   3.493 -0.2210 -0.3866 -0.4004
 1691TIP3    H1 5079   5.298   2.466   3.532  1.2590 -0.1046 -0.3808
 1691TIP3    H2 5080   5.357   2.604   3.516 -1.5419  1.2568  0.4033
 1692TIP3   OH2 5081   4.287   4.307   1.326 -0.8069 -0.0108 -0.2545
 1692TIP3    H1 5082   4.326   4.394   1.321 -1.9427  0.4682 -1.0358
 1692TIP3    H2 5083   4.217   4.308   1.261  0.7497 -2.3163 -2.1256
 1693TIP3   OH2 5084   5.262   2.755   0.943 -0.4486  0.2179 -0.0190
 1693TIP3    H1 5085   5.280   2.841   0.905  0.8140  0.6072  1.3406
 1693TIP3    H2 5086   5.229   2.775   1.031  2.1758 -0.6312  1.2708
 1694TIP3   OH2 5087   2.514   5.779   1.095 -0.3660  0.0118  0.3773
 1694TIP3    H1 5088   2.474   5.693   1.111  1.4574 -0.6698  1.5870
 1694TIP3    H2 5089   2.477   5.807   1.011 -2.7478 -0.8841  1.0272
 1695TIP3   OH2 5090   3.066   4.554   0.574  0.5676  0.4581 -0.7806
 1695TIP3    H1 5091   3.149   4.559   0.526  1.1883  1.3292  0.3156
 1695TIP3    H2 5092   3.004   4.519   0.511  1.6010  0.4923 -1.8638
 1696TIP3   OH2 5093   2.897   0.801   3.708 -0.7420 -0.5160 -0.0379
 1696TIP3    H1 5094   2.921   0.809   3.801  2.0276  2.0852 -0.8365
 1696TIP3    H2 5095   2.941   0.720   3.680 -2.7824 -2.1381  1.1129
 1697TIP3   OH2 5096   0.570   5.518   0.878 -0.1704  0.6302  0.4933
 1697TIP3    H1 5097   0.503   5.515   0.810 -1.1242  1.5363  1.3740
 1697TIP3    H2 5098   0.528   5.480   0.955  0.9972 -0.6764  0.5328
 1698TIP3   OH2 5099   2.521   2.280   5.102 -0.1458 -0.2324  0.4442
 1698TIP3    H1 5100   2.613   2.277   5.074  0.6461  2.2104  2.3992
 1698TIP3    H2 5101   2.481   2.347   5.047 -0.1757  0.1930  0.9686
 1699TIP3   OH2 5102   5.159   3.249   4.565 -0.0005 -0.2800 -0.4518
 1699TIP3    H1 5103   5.159   3.233   4.659 -1.6417 -0.9910 -0.5384
 1699TIP3    H2 5104   5.156   3.344   4.557 -3.0049 -0.2313  0.3011
 1700TIP3   OH2 5105   3.208   4.259   1.591  0.1043  0.0798  0.1259
 1700TIP3    H1 5106   3.221   4.354   1.588  1.6946 -0.0838  0.7114
 1700TIP3    H2 5107   3.206   4.232   1.499  0.3793  0.5991 -0.0344
 1701TIP3   OH2 5108   3.569   2.166   3.753  0.1702  0.2747  0.4184
 1701TIP3    H1 5109   3.536   2.116   3.679  0.2217  1.2607 -0.2832
 1701TIP3    H2 5110   3.498   2.163   3.817  0.6127 -1.6703  0.8898
 1702TIP3   OH2 5111   3.762   4.868   0.086  0.2752 -0.0766 -0.2078
 1702TIP3    H1 5112   3.695   4.884   0.153 -0.0616 -0.4995 -0.4343
 1702TIP3    H2 5113   3.814   4.796   0.121 -0.1956 -0.6212 -0.5987
 1703TIP3   OH2 5114   0.516   1.860   4.859  0.2153  0.2433 -0.2430
 1703TIP3    H1 5115   0.601   1.839   4.897 -1.0734 -1.1128  2.1114
 1703TIP3    H2 5116   0.472   1.912   4.926 -0.1058  2.7824 -2.2778
 1704TIP3   OH2 5117   3.844   0.089   3.867 -0.1889  0.4955  0.3501
 1704TIP3    H1 5118   3.791   0.010   3.862 -0.7042  0.8918 -1.8301
 1704TIP3    H2 5119   3.915   0.075   3.804  0.1859  1.4202  0.5426
 1705TIP3   OH2 5120   4.885   0.722   3.673 -0.4823 -0.1894  0.5076
 1705TIP3    H1 5121   4.789   0.728   3.679 -0.6651 -1.4924 -0.5098
 1705TIP3    H2 5122   4.913   0.811   3.654 -1.7316 -0.1675 -1.5508
 1706TIP3   OH2 5123   2.541   4.927   1.074  0.2644 -0.1423  0.1067
 1706TIP3    H1 5124   2.590   4.903   0.995 -0.8024 -0.3571 -0.5094
 1706TIP3    H2 5125   2.540   4.846   1.126 -0.7055 -0.5825 -0.5704
 1707TIP3   OH2 5126   1.653   0.077   2.675  0.3502  0.3885  0.1294
 1707TIP3    H1 5127   1.628   0.158   2.720  0.5229  0.2345  0.5124
 1707TIP3    H2 5128   1.728   0.102   2.621 -0.8392  0.9374 -1.3269
 1708TIP3   OH2 5129   2.457   0.554   1.603  0.4927  0.4356  0.1143
 1708TIP3    H1 5130   2.493   0.639   1.580  1.8330  0.1542  1.0441
 1708TIP3    H2 5131   2.514   0.491   1.560 -0.9777 -0.0280 -1.2632
 1709TIP3   OH2 5132   5.178   1.781   4.090 -0.5440 -0.0964 -0.2839
 1709TIP3    H1 5133   5.199   1.864   4.046 -1.1014  0.8971  1.2531
 1709TIP3    H2 5134   5.103   1.746   4.040 -1.7730  1.4755  0.3671
 1710TIP3   OH2 5135   4.468   2.071   1.340  0.1804 -0.3743  0.4335
 1710TIP3    H1 5136   4.491   2.071   1.248  1.2611 -1.8248  0.6749
 1710TIP3    H2 5137   4.513   2.148   1.376 -1.2394  0.9188 -0.4279
 1711TIP3   OH2 5138   1.704   2.407   1.696  0.3753  0.3640 -0.2455
 1711TIP3    H1 5139   1.706   2.320   1.737  2.1228  0.8117  0.7686
 1711TIP3    H2 5140   1.612   2.423   1.676  0.0314 -1.7440 -0.5267
 1712TIP3   OH2 5141   6.133   1.552   5.050 -0.1378  0.3100  0.2323
 1712TIP3    H1 5142   6.073   1.583   5.118 -1.0809 -1.0845  0.0960
 1712TIP3    H2 5143   6.194   1.495   5.097 -1.3765 -1.4387 -0.1423
 1713TIP3   OH2 5144   3.916   4.826   4.218 -0.1382  0.1701 -0.3562
 1713TIP3    H1 5145   3.914   4.883   4.141  1.2278  1.2158  0.3429
 1713TIP3    H2 5146   3.919   4.737   4.182 -0.7402  0.5877 -1.4811
 1714TIP3   OH2 5147   3.156   4.074   1.189 -0.9472 -0.9833 -0.2584
 1714TIP3    H1 5148   3.102   4.114   1.121 -0.8250  0.0099  0.2080
 1714TIP3    H2 5149   3.099   4.073   1.267 -0.4231 -0.2311  0.1484
 1715TIP3   OH2 5150   0.560   0.064   1.356  0.3244 -0.5885 -0.3684
 1715TIP3    H1 5151   0.539   0.082   1.264  0.6239  3.0630  0.1141
 1715TIP3    H2 5152   0.481   0.089   1.404  0.5580 -1.3642  0.4507
 1716TIP3   OH2 5153   4.479   2.339   3.544 -0.1150 -0.1262  0.3891
 1716TIP3    H1 5154   4.522   2.295   3.471  0.0875 -0.8552  0.9337
 1716TIP3    H2 5155   4.544   2.338   3.614 -0.3113  0.5542  0.5893
 1717TIP3   OH2 5156   3.567   4.090   2.046  0.0571  0.3233  0.1490
 1717TIP3    H1 5157   3.556   4.167   1.991 -1.4549  1.3059  1.7219
 1717TIP3    H2 5158   3.615   4.120   2.122  0.3798 -0.5459  0.3067
 1718TIP3   OH2 5159   4.514   1.160   4.045  0.1750 -0.2847  0.5120
 1718TIP3    H1 5160   4.508   1.148   3.951  0.8310 -2.1476  0.6678
 1718TIP3    H2 5161   4.502   1.254   4.058 -0.0991 -0.0182 -1.3951
 1719TIP3   OH2 5162   4.339   3.623   4.506  0.7856 -0.0366  0.1844
 1719TIP3    H1 5163   4.393   3.693   4.543  1.7327 -0.8828  0.4746
 1719TIP3    H2 5164   4.328   3.646   4.414  0.1092  1.0668  0.5258
 1720TIP3   OH2 5165   6.085   3.870   2.364  0.3393  0.0747 -0.0730
 1720TIP3    H1 5166   6.084   3.814   2.287 -1.0200  0.3876 -0.2996
 1720TIP3    H2 5167   6.019   3.834   2.422 -0.7133  1.5296 -0.3078
 1721TIP3   OH2 5168   3.787   1.353   4.330 -0.2436  0.4766 -0.3815
 1721TIP3    H1 5169   3.797   1.259   4.319  1.4197  0.5475  0.2496
 1721TIP3    H2 5170   3.776   1.386   4.241  0.4220 -0.1968 -0.7253
 1722TIP3   OH2 5171   1.887   3.089   4.284 -0.5494 -0.3217 -0.3936
 1722TIP3    H1 5172   1.954   3.075   4.351 -0.2750  1.1578 -0.3168
 1722TIP3    H2 5173   1.927   3.055   4.203 -0.0265 -0.1880 -0.1983
 1723TIP3   OH2 5174   3.192   4.194   3.458  0.3680 -0.6241 -0.3233
 1723TIP3    H1 5175   3.113   4.170   3.506  2.0231 -1.7054  2.0365
 1723TIP3    H2 5176   3.192   4.289   3.458 -1.5906 -0.5508 -1.6454
 1724TIP3   OH2 5177   1.562   0.981   0.802  0.0709  0.0550 -0.0866
 1724TIP3    H1 5178   1.498   0.914   0.825  0.0200 -0.3400 -1.2843
 1724TIP3    H2 5179   1.578   0.968   0.708  2.8244 -0.6483  0.3750
 1725TIP3   OH2 5180   0.982   4.730   2.520  0.1053  0.6539  0.2775
 1725TIP3    H1 5181   0.975   4.799   2.586 -0.0986  1.2634 -0.3680
 1725TIP3    H2 5182   1.070   4.739   2.484  0.2898  0.1903  0.5993
 1726TIP3   OH2 5183   3.066   3.960   0.042  0.3406 -0.2458  0.7091
 1726TIP3    H1 5184   2.996   3.951   0.107 -1.9635  1.9552 -1.2648
 1726TIP3    H2 5185   3.065   4.052   0.018  1.0155 -0.9587 -2.5075
 1727TIP3   OH2 5186   2.887   3.856   1.973  0.3229 -0.1689  0.8134
 1727TIP3    H1 5187   2.833   3.915   2.025  0.6511  3.2768 -2.3453
 1727TIP3    H2 5188   2.826   3.793   1.936 -0.9307  1.2068  0.4583
 1728TIP3   OH2 5189   0.488   0.765   0.862  0.0507  0.2916  0.0973
 1728TIP3    H1 5190   0.503   0.691   0.922 -0.8506  0.0358  0.0141
 1728TIP3    H2 5191   0.563   0.823   0.878  0.9695 -0.7999 -0.0818
 1729TIP3   OH2 5192   4.475   4.916   1.164 -0.2068  0.2169  0.6756
 1729TIP3    H1 5193   4.399   4.930   1.220 -0.8792  0.5922 -0.2925
 1729TIP3    H2 5194   4.520   4.841   1.202 -1.7594 -0.8088  0.5625
 1730TIP3   OH2 5195   5.891   3.503   0.562 -0.0235 -0.6741 -0.1445
 1730TIP3    H1 5196   5.844   3.503   0.646 -0.8891  0.8374 -0.5923
 1730TIP3    H2 5197   5.835   3.451   0.504 -0.4073 -0.0955 -0.2938
 1731TIP3   OH2 5198   0.602   0.822   1.154 -0.2335 -0.1679 -0.4463
 1731TIP3    H1 5199   0.683   0.816   1.104 -1.0032 -0.7255 -1.6812
 1731TIP3    H2 5200   0.592   0.916   1.173 -0.0895  0.1010 -1.6380
 1732TIP3   OH2 5201   0.131   2.475   0.957  1.1526  1.1444  0.4415
 1732TIP3    H1 5202   0.111   2.540   0.889  2.7957  0.7507 -0.4901
 1732TIP3    H2 5203   0.079   2.502   1.032 -0.8820  1.5044 -1.0109
 1733TIP3   OH2 5204   4.271   5.740   1.694  0.0077 -0.4063 -0.0742
 1733TIP3    H1 5205   4.300   5.815   1.642  0.2391  0.2730  0.9982
 1733TIP3    H2 5206   4.230   5.681   1.631 -1.1638  1.1141 -0.7806
 1734TIP3   OH2 5207   3.051   4.983   2.758  0.5039  0.0864 -0.2211
 1734TIP3    H1 5208   3.095   4.903   2.786  0.4319  0.4583  0.9876
 1734TIP3    H2 5209   3.036   4.970   2.664 -0.2120 -1.6514  0.0980
 1735TIP3   OH2 5210   2.926   4.224   0.569  0.2380 -0.0376  0.0059
 1735TIP3    H1 5211   2.905   4.308   0.527 -0.1647 -0.4508 -0.6241
 1735TIP3    H2 5212   3.015   4.205   0.540 -0.0837 -0.3847 -0.7814
 1736TIP3   OH2 5213   1.683   4.851   1.940 -0.5318  0.2051  0.5521
 1736TIP3    H1 5214   1.759   4.894   1.978 -0.2793  0.5859 -0.3535
 1736TIP3    H2 5215   1.630   4.922   1.904 -1.0462 -0.1020  0.6903
 1737TIP3   OH2 5216   3.297   5.771   0.084 -0.5298 -0.2702  0.1638
 1737TIP3    H1 5217   3.360   5.841   0.066 -0.3125 -0.3376  0.6465
 1737TIP3    H2 5218   3.216   5.817   0.104 -0.0564 -0.0927  1.8077
 1738TIP3   OH2 5219   5.810   5.915   1.077 -0.1931 -0.5586  0.6077
 1738TIP3    H1 5220   5.739   5.853   1.098 -2.8214  2.1047  0.1913
 1738TIP3    H2 5221   5.830   5.958   1.159 -1.4090  0.9252  0.1701
 1739TIP3   OH2 5222   6.151   3.298   2.565 -0.1457  0.0206  0.1526
 1739TIP3    H1 5223   6.228   3.265   2.519  0.4823  0.4553  0.8657
 1739TIP3    H2 5224   6.154   3.255   2.651 -1.6540 -1.2854 -0.3949
 1740TIP3   OH2 5225   3.423   1.275   0.554  0.4882 -0.1705  0.3261
 1740TIP3    H1 5226   3.471   1.286   0.472  0.6783  1.1777  0.5810
 1740TIP3    H2 5227   3.432   1.360   0.598 -1.7039 -0.0062  0.6099
 1741TIP3   OH2 5228   0.617   5.143   2.334 -0.1452 -0.4561 -0.1658
 1741TIP3    H1 5229   0.654   5.187   2.258 -1.3465 -0.5980 -0.8714
 1741TIP3    H2 5230   0.640   5.050   2.322  0.6115 -0.3261  0.2352
 1742TIP3   OH2 5231   4.055   5.197   3.448  0.3878 -0.1479 -0.2238
 1742TIP3    H1 5232   3.995   5.269   3.464 -1.9245 -2.5308  3.0355
 1742TIP3    H2 5233   4.001   5.129   3.407  1.8612 -1.0105 -0.8374
 1743TIP3   OH2 5234   0.884   4.107   1.173  0.4721 -0.2031 -0.1245
 1743TIP3    H1 5235   0.948   4.143   1.234  1.2508 -0.2330 -0.9000
 1743TIP3    H2 5236   0.909   4.015   1.164  1.5453  0.1966 -1.8717
 1744TIP3   OH2 5237   0.316   4.622   0.874  0.3019  0.0894  0.0232
 1744TIP3    H1 5238   0.232   4.643   0.833  0.2714 -1.0546 -0.5512
 1744TIP3    H2 5239   0.370   4.700   0.860 -0.5126  0.6490 -0.0256
 1745TIP3   OH2 5240   3.994   0.228   1.312 -0.3547  0.4941  0.5718
 1745TIP3    H1 5241   3.934   0.208   1.383  0.3433 -0.5608  0.8818
 1745TIP3    H2 5242   3.960   0.309   1.273 -2.3899 -0.4768  0.2376
 1746TIP3   OH2 5243   1.568   2.097   3.067 -0.8574  0.3269  0.1542
 1746TIP3    H1 5244   1.582   2.005   3.086 -0.5676  0.4162  0.3725
 1746TIP3    H2 5245   1.640   2.142   3.111  0.2163  0.4912 -1.6937
 1747TIP3   OH2 5246   5.505   5.904   4.491 -0.2841  0.3427 -0.5842
 1747TIP3    H1 5247   5.450   5.921   4.567 -0.0928  0.0418 -0.3766
 1747TIP3    H2 5248   5.446   5.913   4.416 -1.2918 -2.5507 -0.2638
 1748TIP3   OH2 5249   6.129   5.936   4.787 -0.0933 -0.0240 -0.1007
 1748TIP3    H1 5250   6.173   5.952   4.871 -0.2744 -1.5396  0.3057
 1748TIP3    H2 5251   6.185   5.872   4.743 -0.3305  0.2993 -0.8769
 1749TIP3   OH2 5252   0.578   4.855   3.627  0.0841 -0.1474 -0.4660
 1749TIP3    H1 5253   0.618   4.933   3.590  2.1629  0.1362  2.0651
 1749TIP3    H2 5254   0.539   4.884   3.709 -0.2837 -1.5272 -0.1216
 1750TIP3   OH2 5255   2.632   0.811   1.565 -0.4545 -0.0765  0.5270
 1750TIP3    H1 5256   2.586   0.890   1.594  0.2295  0.4396  0.2268
 1750TIP3    H2 5257   2.661   0.770   1.646 -1.1565 -0.2414  0.7052
 1751TIP3   OH2 5258   6.150   1.410   3.146  0.0238  0.1031  0.1925
 1751TIP3    H1 5259   6.174   1.458   3.067 -0.5114 -0.4024 -0.2899
 1751TIP3    H2 5260   6.219   1.344   3.156  1.6000  1.8507  1.7024
 1752TIP3   OH2 5261   2.730   5.486   3.287  0.1660 -0.2363 -0.2429
 1752TIP3    H1 5262   2.786   5.509   3.212  0.8515  0.6343  0.5166
 1752TIP3    H2 5263   2.771   5.407   3.323  0.1093 -0.3836 -0.4948
 1753TIP3   OH2 5264   0.509   2.934   4.921 -0.0681  0.1846 -0.1730
 1753TIP3    H1 5265   0.596   2.960   4.953 -0.1776  2.1114 -1.2556
 1753TIP3    H2 5266   0.526   2.862   4.861  0.6399 -0.2684  0.5481
 1754TIP3   OH2 5267   2.089   3.898   2.081  0.1102 -0.5494  0.3516
 1754TIP3    H1 5268   2.071   3.804   2.079 -1.5647 -0.2419  0.1323
 1754TIP3    H2 5269   2.008   3.938   2.113 -0.0097  1.0133 -1.7272
 1755TIP3   OH2 5270   5.715   5.713   2.417  0.1851 -0.2822  0.4938
 1755TIP3    H1 5271   5.717   5.749   2.328 -1.9607  0.1549  0.5560
 1755TIP3    H2 5272   5.722   5.618   2.405 -2.2146 -0.4293 -0.3985
 1756TIP3   OH2 5273   6.267   3.570   0.751  0.1613 -0.5425 -0.2498
 1756TIP3    H1 5274   6.301   3.658   0.734 -0.2659 -0.5998 -1.5075
 1756TIP3    H2 5275   6.341   3.511   0.734 -0.1709 -0.5740 -1.6567
 1757TIP3   OH2 5276   0.810   4.639   1.368  0.1369  0.0531  0.0096
 1757TIP3    H1 5277   0.802   4.545   1.387 -0.4051  0.1916  0.4808
 1757TIP3    H2 5278   0.824   4.680   1.453  0.3688  0.4085 -0.1959
 1758TIP3   OH2 5279   0.569   0.086   4.702 -0.3905  0.1785 -0.3697
 1758TIP3    H1 5280   0.479   0.105   4.674  0.0592  0.5051 -1.6644
 1758TIP3    H2 5281   0.560   0.054   4.792 -1.5735  2.6750  0.4849
 1759TIP3   OH2 5282   4.423   4.548   3.268  0.0621 -0.3486  0.1687
 1759TIP3    H1 5283   4.376   4.578   3.190 -0.9028 -0.7658  0.5845
 1759TIP3    H2 5284   4.399   4.456   3.278  0.0415 -0.2584  1.0534
 1760TIP3   OH2 5285   5.426   5.950   0.292  0.0925  0.3662  0.5312
 1760TIP3    H1 5286   5.502   5.908   0.251  0.2985  1.4042 -0.1872
 1760TIP3    H2 5287   5.369   5.877   0.315  1.1506 -0.4114  0.7781
 1761TIP3   OH2 5288   3.253   3.288   2.261  0.3684 -0.3037 -0.4436
 1761TIP3    H1 5289   3.199   3.245   2.326  0.3709  1.1590  0.5873
 1761TIP3    H2 5290   3.342   3.281   2.295  0.3250  0.8100 -0.0568
 1762TIP3   OH2 5291   4.197   3.833   1.411 -0.1993  0.3294 -0.0930
 1762TIP3    H1 5292   4.190   3.825   1.506  0.2565 -0.2721 -0.0988
 1762TIP3    H2 5293   4.159   3.918   1.391  0.7057  0.9676  0.7490
 1763TIP3   OH2 5294   3.829   5.838   0.022  0.0404  0.0235  0.1155
 1763TIP3    H1 5295   3.881   5.881   0.090 -0.1901  0.2064  0.1753
 1763TIP3    H2 5296   3.829   5.746   0.047  1.6112 -0.2219 -0.7018
 1764TIP3   OH2 5297   3.409   3.220   2.625 -0.4462 -0.5358 -0.6251
 1764TIP3    H1 5298   3.384   3.309   2.648 -0.5326 -1.0799  1.5777
 1764TIP3    H2 5299   3.499   3.211   2.654 -0.4846 -1.2188 -0.6920
 1765TIP3   OH2 5300   3.912   0.516   4.745 -0.1015 -0.5414  0.1143
 1765TIP3    H1 5301   3.892   0.424   4.762  1.4899 -1.2554 -1.5100
 1765TIP3    H2 5302   4.000   0.529   4.780  0.1695  0.0174 -0.7450
 1766TIP3   OH2 5303   0.615   3.793   2.719 -0.2343 -0.2412  0.2360
 1766TIP3    H1 5304   0.609   3.798   2.814  0.2595  1.2323  0.2144
 1766TIP3    H2 5305   0.533   3.751   2.692 -0.6461 -0.1402  1.2674
 1767TIP3   OH2 5306   1.186   3.350   0.995  0.3217 -0.6201  0.2163
 1767TIP3    H1 5307   1.233   3.371   0.914 -0.3172  1.1397  0.2732
 1767TIP3    H2 5308   1.156   3.260   0.982  2.6606 -1.4038 -0.3005
 1768TIP3   OH2 5309   0.268   5.377   1.583  0.0112 -0.8276  0.5197
 1768TIP3    H1 5310   0.350   5.339   1.614 -0.0715 -0.5200  1.1302
 1768TIP3    H2 5311   0.245   5.442   1.649 -0.1063 -0.0585 -0.2625
 1769TIP3   OH2 5312   4.010   3.339   2.377 -0.3802 -0.6555  0.4998
 1769TIP3    H1 5313   3.981   3.425   2.345  1.0121 -0.6419 -0.7777
 1769TIP3    H2 5314   4.091   3.357   2.425  1.1533 -1.4644 -1.6451
 1770TIP3   OH2 5315   0.286   4.546   4.132  0.2938 -0.4547  0.2256
 1770TIP3    H1 5316   0.227   4.472   4.146 -2.5887  1.2061 -2.0987
 1770TIP3    H2 5317   0.272   4.603   4.208 -1.3478 -0.0066 -0.3691
 1771TIP3   OH2 5318   3.657   5.270   2.441  0.4175  0.0636  0.0795
 1771TIP3    H1 5319   3.733   5.231   2.483  0.1429  0.7298  1.2821
 1771TIP3    H2 5320   3.600   5.295   2.515 -0.4430  0.5894 -0.7364
 1772TIP3   OH2 5321   3.420   0.149   2.230 -0.2528 -0.2289 -0.0153
 1772TIP3    H1 5322   3.437   0.225   2.174  1.7808  0.7559  1.8095
 1772TIP3    H2 5323   3.447   0.074   2.177  0.4920  0.5787 -0.8140
 1773TIP3   OH2 5324   0.225   0.171   2.006  0.3777  0.6215  0.2321
 1773TIP3    H1 5325   0.203   0.198   2.095 -1.3772 -1.2882  0.4426
 1773TIP3    H2 5326   0.303   0.117   2.015  0.6974  1.1112  0.4736
 1774TIP3   OH2 5327   5.851   3.096   4.917  0.4174 -0.2783  0.2492
 1774TIP3    H1 5328   5.831   3.166   4.855 -0.1630  0.5060  1.2863
 1774TIP3    H2 5329   5.886   3.025   4.863  1.2262  0.8834 -0.8012
 1775TIP3   OH2 5330   1.380   5.708   4.977 -0.0533 -0.2275  0.1746
 1775TIP3    H1 5331   1.346   5.721   5.065  0.6936  1.9435  0.1926
 1775TIP3    H2 5332   1.396   5.613   4.971 -1.7201 -0.6499  1.7299
 1776TIP3   OH2 5333   0.522   5.409   2.985  0.1851  0.1320 -0.2390
 1776TIP3    H1 5334   0.529   5.368   3.072 -0.4985  0.0814 -0.2007
 1776TIP3    H2 5335   0.436   5.381   2.953 -0.6929  2.2541  0.1494
 1777TIP3   OH2 5336   6.075   4.919   4.264 -0.3816 -0.3980 -0.2234
 1777TIP3    H1 5337   6.034   4.991   4.312  1.2236  0.3113  0.1631
 1777TIP3    H2 5338   6.011   4.848   4.268 -1.7671  0.7925 -0.1054
 1778TIP3   OH2 5339   2.663   4.382   1.837  0.3118  1.0912  0.8285
 1778TIP3    H1 5340   2.631   4.423   1.757 -1.4656  1.2681  1.6008
 1778TIP3    H2 5341   2.657   4.450   1.904 -1.0500  0.1297  1.7444
 1779TIP3   OH2 5342   5.515   1.200   1.319 -0.2297  0.4034 -0.4151
 1779TIP3    H1 5343   5.582   1.168   1.258 -0.7995 -0.9480 -0.3632
 1779TIP3    H2 5344   5.441   1.142   1.305 -1.0126  1.2074  0.3074
 1780TIP3   OH2 5345   4.141   3.667   4.012 -0.5989  0.7003 -0.4417
 1780TIP3    H1 5346   4.055   3.698   4.041 -0.7946  1.4921 -1.7878
 1780TIP3    H2 5347   4.125   3.576   3.985 -0.7236  0.4360  0.4869
 1781TIP3   OH2 5348   1.792   4.596   4.952  0.0185  0.2286 -0.1819
 1781TIP3    H1 5349   1.842   4.531   4.903  0.0345 -0.6248  0.9180
 1781TIP3    H2 5350   1.701   4.578   4.929 -0.0907 -1.1075  1.1181
 1782TIP3   OH2 5351   4.346   4.111   3.426  0.1065  0.2869  0.1868
 1782TIP3    H1 5352   4.321   4.100   3.518  0.0233 -1.3756 -0.0042
 1782TIP3    H2 5353   4.386   4.028   3.402 -2.9503 -0.6507 -2.2377
 1783TIP3   OH2 5354   3.168   2.147   4.100 -0.3596  0.7167  0.5530
 1783TIP3    H1 5355   3.250   2.175   4.140  0.4376 -1.0711  0.2611
 1783TIP3    H2 5356   3.145   2.218   4.040  1.7322  0.6251 -0.4389
 1784TIP3   OH2 5357   5.171   5.802   3.935  0.7168 -0.4769  0.1833
 1784TIP3    H1 5358   5.166   5.857   4.014 -2.3575 -1.4634  0.8370
 1784TIP3    H2 5359   5.251   5.830   3.891  1.8003  1.1229  2.9059
 1785TIP3   OH2 5360   1.467   2.598   3.638 -0.0555  0.1784 -0.4737
 1785TIP3    H1 5361   1.387   2.650   3.639  0.4540  1.0226  1.8996
 1785TIP3    H2 5362   1.440   2.511   3.667 -0.1937  0.3453 -0.0915
 1786TIP3   OH2 5363   4.959   1.542   1.059 -0.6832 -0.2907  0.0327
 1786TIP3    H1 5364   5.008   1.498   1.128 -1.8637 -0.0080  1.0937
 1786TIP3    H2 5365   4.948   1.632   1.091 -1.3238 -0.1796 -0.4648
 1787TIP3   OH2 5366   4.753   0.980   3.920  0.2468  0.7122 -0.5068
 1787TIP3    H1 5367   4.755   1.017   3.832  1.6796  0.5106 -0.5805
 1787TIP3    H2 5368   4.727   0.889   3.907  1.2806  0.4517 -0.8278
 1788TIP3   OH2 5369   0.180   3.604   0.406  0.0577 -0.3709  0.0602
 1788TIP3    H1 5370   0.207   3.695   0.394 -0.1789  0.1618  2.8829
 1788TIP3    H2 5371   0.085   3.609   0.416  0.0524 -0.9094  0.3095
 1789TIP3   OH2 5372   1.541   2.349   0.561  0.1345  0.1024 -0.0403
 1789TIP3    H1 5373   1.624   2.394   0.549 -0.8684  1.7027 -1.2606
 1789TIP3    H2 5374   1.476   2.403   0.517 -1.7762 -0.4830  1.8344
 1790TIP3   OH2 5375   0.581   0.288   2.515 -0.4822  0.3850 -0.1867
 1790TIP3    H1 5376   0.577   0.376   2.553 -0.9735  0.6236 -0.7629
 1790TIP3    H2 5377   0.643   0.240   2.570 -0.9614  0.7983  0.7297
 1791TIP3   OH2 5378   1.351   1.467   4.107 -0.0439 -0.1953  0.5271
 1791TIP3    H1 5379   1.298   1.531   4.061  1.0705 -0.5284 -1.3498
 1791TIP3    H2 5380   1.386   1.514   4.183  0.2970  1.2728 -0.4919
 1792TIP3   OH2 5381   0.859   3.877   4.492  0.3682  0.4557  0.5445
 1792TIP3    H1 5382   0.854   3.824   4.572 -1.6142 -0.5497 -0.1845
 1792TIP3    H2 5383   0.772   3.915   4.482 -0.2677 -1.3788 -2.3290
 1793TIP3   OH2 5384   2.101   5.508   2.933  0.3463 -0.1778  0.0110
 1793TIP3    H1 5385   2.148   5.554   3.003  1.1335 -0.6834 -0.1746
 1793TIP3    H2 5386   2.041   5.449   2.978 -1.3853  1.6717  0.2720
 1794TIP3   OH2 5387   5.745   0.602   1.486 -0.4626 -0.1867  0.1051
 1794TIP3    H1 5388   5.781   0.515   1.503  0.6827  0.3351  0.4763
 1794TIP3    H2 5389   5.666   0.606   1.540  0.2221 -0.5057  1.1632
 1795TIP3   OH2 5390   4.201   1.876   4.016 -0.1678 -0.1457  0.9632
 1795TIP3    H1 5391   4.147   1.805   3.981  0.0582  0.2820 -0.2826
 1795TIP3    H2 5392   4.138   1.933   4.060 -0.4629 -0.6570  1.2195
 1796TIP3   OH2 5393   4.410   4.742   3.998  0.3545 -0.3480 -0.5723
 1796TIP3    H1 5394   4.429   4.672   3.936 -1.8511 -1.0362 -0.5869
 1796TIP3    H2 5395   4.477   4.808   3.982  1.4162 -1.6605 -1.8205
 1797TIP3   OH2 5396   4.897   5.296   1.427 -0.0522 -0.3338  0.0928
 1797TIP3    H1 5397   4.840   5.219   1.432  0.4799 -0.8182 -0.9883
 1797TIP3    H2 5398   4.838   5.368   1.403 -0.3127 -0.6920 -0.3457
 1798TIP3   OH2 5399   0.948   1.440   2.108 -0.4019  0.1837 -0.0096
 1798TIP3    H1 5400   0.897   1.373   2.153 -0.5338 -0.5734 -1.2590
 1798TIP3    H2 5401   0.886   1.512   2.094 -0.0403  0.9773  2.1078
 1799TIP3   OH2 5402   1.762   5.664   2.237 -0.1722 -0.3955 -0.5114
 1799TIP3    H1 5403   1.764   5.569   2.224  0.6340 -0.5461  0.6279
 1799TIP3    H2 5404   1.776   5.676   2.331 -3.7986  0.7175  0.0266
 1800TIP3   OH2 5405   6.170   1.222   3.358  0.1434 -0.0349  0.1522
 1800TIP3    H1 5406   6.164   1.316   3.376  0.7451  0.0856 -0.2527
 1800TIP3    H2 5407   6.248   1.193   3.407  0.7018 -0.0685 -0.7305
 1801TIP3   OH2 5408   6.089   3.724   2.147 -0.3544 -0.0741  0.0335
 1801TIP3    H1 5409   6.133   3.664   2.208 -0.1302 -0.2575 -0.3029
 1801TIP3    H2 5410   6.109   3.688   2.060 -1.4310 -0.3456 -0.1124
 1802TIP3   OH2 5411   1.370   1.821   4.468  0.3223 -0.1817 -0.2824
 1802TIP3    H1 5412   1.280   1.789   4.476 -0.7753  2.5848 -0.4578
 1802TIP3    H2 5413   1.377   1.890   4.535  1.5499  1.1922 -1.7481
 1803TIP3   OH2 5414   3.873   2.811   2.353  0.7374 -0.2252 -0.3682
 1803TIP3    H1 5415   3.908   2.899   2.339  1.3094 -0.3269  0.3603
 1803TIP3    H2 5416   3.950   2.755   2.364  0.3892 -0.9057 -1.2534
 1804TIP3   OH2 5417   1.745   1.827   0.008  0.6018  0.3962 -0.5836
 1804TIP3    H1 5418   1.729   1.877   0.088  1.3436  0.0209 -0.1930
 1804TIP3    H2 5419   1.729   1.736   0.032 -0.6659  0.4112 -1.2705
 1805TIP3   OH2 5420   4.229   2.930   1.101 -0.0201 -0.7945  0.2773
 1805TIP3    H1 5421   4.307   2.931   1.046  1.5255 -0.4474  2.3285
 1805TIP3    H2 5422   4.253   2.872   1.174 -0.4958  1.5744  2.4645
 1806TIP3   OH2 5423   1.540   0.492   3.968  0.2485 -0.4943 -0.0456
 1806TIP3    H1 5424   1.623   0.489   3.920  1.3065  0.6433  1.5816
 1806TIP3    H2 5425   1.557   0.443   4.048 -0.7724 -0.5344  0.1608
 1807TIP3   OH2 5426   2.129   2.659   2.026 -0.2156  0.2650 -0.0738
 1807TIP3    H1 5427   2.058   2.723   2.021 -0.9810 -0.5067  0.6718
 1807TIP3    H2 5428   2.093   2.586   2.076 -0.3312 -2.0091 -3.1982
 1808TIP3   OH2 5429   5.315   5.537   1.273 -0.2999 -0.0361 -0.1223
 1808TIP3    H1 5430   5.246   5.596   1.242 -0.8935 -0.3175  0.6472
 1808TIP3    H2 5431   5.387   5.553   1.213 -1.2452 -0.1958 -1.3466
 1809TIP3   OH2 5432   4.494   3.853   0.096 -0.5405  0.0737  0.3982
 1809TIP3    H1 5433   4.435   3.812   0.033 -0.1359  0.2565 -0.1107
 1809TIP3    H2 5434   4.480   3.947   0.083 -0.3239  0.1136  0.4554
 1810TIP3   OH2 5435   2.616   3.919   4.572 -0.2934 -0.8229  0.6822
 1810TIP3    H1 5436   2.524   3.905   4.549 -0.2796 -4.6410  2.1596
 1810TIP3    H2 5437   2.617   3.921   4.668  1.1292 -0.8606  0.6979
 1811TIP3   OH2 5438   5.272   2.219   3.225  0.1812  0.4287  0.2644
 1811TIP3    H1 5439   5.252   2.166   3.148 -0.1033  1.0638 -0.1114
 1811TIP3    H2 5440   5.204   2.287   3.226 -0.1582  0.0861  1.4119
 1812TIP3   OH2 5441   1.826   3.499   4.530  0.8344  1.0022  0.9027
 1812TIP3    H1 5442   1.860   3.486   4.442 -0.6463  1.1005  0.2830
 1812TIP3    H2 5443   1.895   3.546   4.576  1.5531  1.1257 -0.2676
 1813TIP3   OH2 5444   0.261   3.951   1.862  0.0784  0.8115 -0.0889
 1813TIP3    H1 5445   0.214   4.013   1.918  1.2235  2.4376 -0.8436
 1813TIP3    H2 5446   0.244   3.981   1.773 -1.6906 -1.7190 -0.6881
 1814TIP3   OH2 5447   3.178   1.159   3.828 -0.1474  0.8229  0.1396
 1814TIP3    H1 5448   3.116   1.230   3.808 -0.5936  0.1580 -0.8821
 1814TIP3    H2 5449   3.126   1.079   3.820  0.6851  0.2982 -0.0809
 1815TIP3   OH2 5450   5.017   3.296   2.752  0.1464 -0.1235  0.3395
 1815TIP3    H1 5451   5.083   3.320   2.687 -0.3682  1.4434  0.3407
 1815TIP3    H2 5452   4.999   3.378   2.798 -0.3368 -0.9601  1.6886
 1816TIP3   OH2 5453   4.799   0.032   3.609  0.5495  0.0190  0.0277
 1816TIP3    H1 5454   4.712   0.070   3.604 -0.7564 -2.8493 -1.3111
 1816TIP3    H2 5455   4.814  -0.006   3.522  2.9824  0.0856  0.3403
 1817TIP3   OH2 5456   2.869   3.274   2.217  0.5367 -0.1202  0.0176
 1817TIP3    H1 5457   2.937   3.263   2.284  0.3763 -0.9401  0.0539
 1817TIP3    H2 5458   2.790   3.294   2.267  0.0941 -2.1573  0.2016
 1818TIP3   OH2 5459   5.307   3.224   1.991 -0.1793 -0.0366 -0.6903
 1818TIP3    H1 5460   5.273   3.146   1.946 -1.1818  0.1305 -0.2464
 1818TIP3    H2 5461   5.233   3.254   2.044  0.3412  0.9697 -0.5323
 1819TIP3   OH2 5462   2.998   4.839   4.748 -0.7612  0.2138  0.1277
 1819TIP3    H1 5463   3.040   4.762   4.786 -0.3110 -0.8345 -2.2629
 1819TIP3    H2 5464   3.007   4.907   4.814  3.0895 -0.4792  0.5464
 1820TIP3   OH2 5465   3.057   4.720   4.479  0.1252  0.4160  0.3436
 1820TIP3    H1 5466   2.973   4.684   4.452  0.0909  0.0335  0.9578
 1820TIP3    H2 5467   3.038   4.775   4.554  0.3365  0.8604  0.0809
 1821TIP3   OH2 5468   3.806   1.039   4.461  0.3827 -0.6406  0.0624
 1821TIP3    H1 5469   3.742   1.008   4.397  1.4919 -2.1376 -0.3919
 1821TIP3    H2 5470   3.770   1.013   4.546  0.1362 -0.9900 -0.1478
 1822TIP3   OH2 5471   3.650   5.971   4.347  0.3250  0.1448  0.4933
 1822TIP3    H1 5472   3.729   6.024   4.346  0.0122  0.7410 -2.1542
 1822TIP3    H2 5473   3.675   5.888   4.305 -0.0961 -0.2881  1.0724
 1823TIP3   OH2 5474   5.865   2.542   0.894 -0.0635  0.2148 -0.7641
 1823TIP3    H1 5475   5.887   2.608   0.960 -0.5644  0.4697 -0.8485
 1823TIP3    H2 5476   5.909   2.572   0.814 -0.1306  0.3418 -0.7531
 1824TIP3   OH2 5477   0.137   1.573   0.662 -0.2009  0.3932  0.3490
 1824TIP3    H1 5478   0.115   1.487   0.698  0.0431  0.7039  1.2610
 1824TIP3    H2 5479   0.135   1.560   0.567 -0.7900 -0.4597  0.4614
 1825TIP3   OH2 5480   1.868   0.689   1.869 -0.2952 -0.3443 -0.4830
 1825TIP3    H1 5481   1.917   0.769   1.855 -0.1789  0.0279  1.7008
 1825TIP3    H2 5482   1.853   0.654   1.781  2.1445  0.5374 -1.3397
 1826TIP3   OH2 5483   4.667   3.925   4.342 -0.1252  0.1971 -0.4837
 1826TIP3    H1 5484   4.753   3.944   4.306 -0.5771  2.2502 -0.6220
 1826TIP3    H2 5485   4.630   4.011   4.362 -1.9849 -0.6458 -0.0631
 1827TIP3   OH2 5486   5.336   5.598   3.258  0.0649  0.1725  0.3698
 1827TIP3    H1 5487   5.330   5.560   3.171  1.6180 -1.0351  0.7398
 1827TIP3    H2 5488   5.260   5.564   3.305  0.1635 -0.6039 -0.0150
 1828TIP3   OH2 5489   5.900   3.054   2.792  0.2322 -0.0247 -0.5290
 1828TIP3    H1 5490   5.865   3.066   2.703 -0.7801  0.9567 -0.0298
 1828TIP3    H2 5491   5.989   3.022   2.779  0.0984  0.0982 -1.8995
 1829TIP3   OH2 5492   1.456   5.395   2.793 -0.4321 -0.0128  1.2588
 1829TIP3    H1 5493   1.444   5.480   2.751 -2.7290 -0.5842  0.6040
 1829TIP3    H2 5494   1.450   5.414   2.887  1.5485  0.8271  1.2732
 1830TIP3   OH2 5495   3.433   1.445   2.600 -0.0955  0.5832  0.2084
 1830TIP3    H1 5496   3.475   1.484   2.677  0.3992  1.1443 -0.3431
 1830TIP3    H2 5497   3.504   1.428   2.539 -0.6565  1.5361 -0.7369
 1831TIP3   OH2 5498   3.999   2.953   2.960  0.0239 -0.0138 -0.0117
 1831TIP3    H1 5499   3.928   2.991   2.907 -1.0980  0.4523  1.7334
 1831TIP3    H2 5500   4.063   2.922   2.896 -0.6416  1.7017 -1.6007
 1832TIP3   OH2 5501   0.592   5.557   3.765 -0.0512 -0.1900 -0.2009
 1832TIP3    H1 5502   0.534   5.620   3.808  0.2671 -0.4967  0.6982
 1832TIP3    H2 5503   0.668   5.551   3.823  0.6002 -0.2588 -1.0515
 1833TIP3   OH2 5504   2.021   4.196   2.048 -0.1074 -0.1132  0.0424
 1833TIP3    H1 5505   1.948   4.148   2.007 -0.6832  0.0386  0.8673
 1833TIP3    H2 5506   2.020   4.169   2.139  2.0111 -1.4620 -0.2736
 1834TIP3   OH2 5507   6.216   2.579   3.937  0.0185 -0.5397 -0.6848
 1834TIP3    H1 5508   6.152   2.508   3.942 -0.3369 -0.1573  1.0480
 1834TIP3    H2 5509   6.245   2.591   4.028  2.0334 -0.2149 -1.3256
 1835TIP3   OH2 5510   1.502   5.263   1.294 -0.2491  0.1546 -0.2775
 1835TIP3    H1 5511   1.534   5.326   1.359  2.6828 -1.6225  0.1932
 1835TIP3    H2 5512   1.451   5.200   1.345  2.3715 -1.4594  0.5253
 1836TIP3   OH2 5513   0.378   1.355   1.356  0.2132  0.4162 -0.4344
 1836TIP3    H1 5514   0.345   1.441   1.381  2.4304  1.7305 -1.6955
 1836TIP3    H2 5515   0.404   1.314   1.439 -2.5546  0.1361  0.3676
 1837TIP3   OH2 5516   2.840   1.286   0.096 -0.2024  0.3441 -0.1559
 1837TIP3    H1 5517   2.929   1.271   0.065 -0.7242 -1.0308 -1.0865
 1837TIP3    H2 5518   2.851   1.335   0.178  1.3548  0.9232 -0.6677
 1838TIP3   OH2 5519   0.423   2.305   2.263 -0.3402 -0.6983  0.2233
 1838TIP3    H1 5520   0.504   2.342   2.297 -0.9236  1.0427 -0.1466
 1838TIP3    H2 5521   0.359   2.376   2.272 -1.7791 -1.9561  0.3222
 1839TIP3   OH2 5522   1.685   1.253   1.175  0.4514  0.3321  0.1197
 1839TIP3    H1 5523   1.775   1.244   1.207 -0.6307  1.4541  4.1662
 1839TIP3    H2 5524   1.635   1.196   1.233 -1.5768  0.5685 -1.3289
 1840TIP3   OH2 5525   0.452   3.485   1.471  0.5878 -0.2037 -0.1277
 1840TIP3    H1 5526   0.507   3.413   1.440  0.6982 -0.6424  1.0341
 1840TIP3    H2 5527   0.429   3.534   1.392 -0.5127 -2.2089 -1.1404
 1841TIP3   OH2 5528   5.065   5.880   2.740  0.2344 -0.1065 -0.4902
 1841TIP3    H1 5529   5.145   5.884   2.687  0.7993 -0.4960  0.3142
 1841TIP3    H2 5530   5.018   5.804   2.705  0.1827  0.1579 -1.0054
 1842TIP3   OH2 5531   4.454   0.386   1.174  0.0678  0.4009  0.0098
 1842TIP3    H1 5532   4.375   0.417   1.130  0.8483  2.2562 -0.2177
 1842TIP3    H2 5533   4.489   0.319   1.115 -0.5816  0.5932 -0.6145
 1843TIP3   OH2 5534   2.389   2.247   4.751 -0.1799 -0.2274 -0.3253
 1843TIP3    H1 5535   2.338   2.317   4.793  0.9539  0.8166 -0.6176
 1843TIP3    H2 5536   2.369   2.255   4.658  0.0056 -0.2280 -0.3664
 1844TIP3   OH2 5537   4.321   1.811   0.331 -0.3491 -0.2786 -0.5729
 1844TIP3    H1 5538   4.308   1.824   0.425  1.5180 -0.6871 -0.2342
 1844TIP3    H2 5539   4.236   1.834   0.293 -0.4037  2.4308  0.9470
 1845TIP3   OH2 5540   6.179   0.209   1.954 -0.0777 -0.4820 -0.2951
 1845TIP3    H1 5541   6.251   0.147   1.938  1.3041  1.1944 -0.8612
 1845TIP3    H2 5542   6.128   0.169   2.024  2.2340 -1.0876  1.1662
 1846TIP3   OH2 5543   4.077   3.504   4.463 -0.0171  0.6567  0.4420
 1846TIP3    H1 5544   4.165   3.510   4.426  0.2889  0.7741  1.1580
 1846TIP3    H2 5545   4.032   3.583   4.432  0.5373  1.2395  1.0711
 1847TIP3   OH2 5546   0.785   4.432   4.818  0.2953  0.0354 -0.4550
 1847TIP3    H1 5547   0.719   4.495   4.790  0.7589 -0.1247 -2.0170
 1847TIP3    H2 5548   0.790   4.443   4.913 -1.0694  0.9182 -0.4592
 1848TIP3   OH2 5549   0.422   2.336   3.670 -0.2967  0.1431 -0.5077
 1848TIP3    H1 5550   0.372   2.351   3.590 -0.2272 -0.1461 -0.6059
 1848TIP3    H2 5551   0.476   2.259   3.651 -0.6389 -0.2259 -0.0195
 1849TIP3   OH2 5552   1.845   5.901   2.026  0.0963  0.2079 -0.3447
 1849TIP3    H1 5553   1.781   5.866   2.088  0.1179  1.7207  0.5851
 1849TIP3    H2 5554   1.930   5.873   2.061  0.0368 -0.2826 -0.5850
 1850TIP3   OH2 5555   5.772   1.114   3.259 -0.4979 -0.2749 -0.0957
 1850TIP3    H1 5556   5.786   1.198   3.216 -1.3314  0.1930  0.5303
 1850TIP3    H2 5557   5.830   1.116   3.335 -0.8671 -0.0644  0.1828
 1851TIP3   OH2 5558   5.807   0.343   2.499 -0.2366  0.0074  0.3116
 1851TIP3    H1 5559   5.779   0.420   2.548 -1.1969  0.5152 -0.9808
 1851TIP3    H2 5560   5.805   0.272   2.563 -0.9060  0.7472  1.1396
 1852TIP3   OH2 5561   3.211   3.169   4.862  0.0251  0.3129 -0.5415
 1852TIP3    H1 5562   3.223   3.116   4.783 -1.1150 -0.5901 -0.1370
 1852TIP3    H2 5563   3.274   3.133   4.925 -1.4031 -1.2935  0.0548
 1853TIP3   OH2 5564   3.154   2.376  -0.024 -0.6257  0.3007  0.1220
 1853TIP3    H1 5565   3.196   2.304   0.024 -0.6454  0.3867  0.2689
 1853TIP3    H2 5566   3.174   2.454   0.028  0.1904  0.5405 -0.5299
 1854TIP3   OH2 5567   5.562   2.241   3.205 -0.2280  0.3676  0.2341
 1854TIP3    H1 5568   5.592   2.152   3.187 -2.4259 -0.6289  1.1648
 1854TIP3    H2 5569   5.467   2.233   3.213 -0.4301  2.7153  0.8778
 1855TIP3   OH2 5570   6.062   4.462   2.443  0.3169  0.2612 -0.1264
 1855TIP3    H1 5571   6.005   4.529   2.482 -0.1862 -0.4705  0.4070
 1855TIP3    H2 5572   6.151   4.494   2.460  0.1896 -0.6745  2.8522
 1856TIP3   OH2 5573   1.157   1.980   3.694  0.4213  0.1676 -0.0430
 1856TIP3    H1 5574   1.116   2.059   3.729  0.8403  0.7702 -0.8894
 1856TIP3    H2 5575   1.115   1.966   3.609  0.3577 -0.5209  0.0932
 1857TIP3   OH2 5576   1.641   1.520   4.982  0.2903  0.3243  0.2671
 1857TIP3    H1 5577   1.716   1.470   5.015 -0.7538 -1.2430  0.3320
 1857TIP3    H2 5578   1.583   1.455   4.944 -0.7897  1.5766 -0.3078
 1858TIP3   OH2 5579   0.073   0.560   0.355  0.0051  0.1722 -0.3536
 1858TIP3    H1 5580   0.058   0.616   0.279  0.9909 -0.5655 -1.1275
 1858TIP3    H2 5581   0.099   0.619   0.425  0.2110  0.7496 -0.9179
 1859TIP3   OH2 5582   2.110   5.099   0.346  0.4467 -0.4724 -0.5765
 1859TIP3    H1 5583   2.100   5.193   0.332 -0.8747 -0.6260 -0.7050
 1859TIP3    H2 5584   2.024   5.062   0.328  1.1719 -1.8271 -1.4015
 1860TIP3   OH2 5585   0.658   2.528   3.899  0.1162 -0.2295  0.3801
 1860TIP3    H1 5586   0.707   2.466   3.844  1.2155 -0.3139  1.4087
 1860TIP3    H2 5587   0.601   2.575   3.838  1.7808  0.1575 -0.9363
 1861TIP3   OH2 5588   5.157   3.622   2.339 -0.0522 -0.6584  0.7542
 1861TIP3    H1 5589   5.219   3.610   2.411  0.0933 -0.6226  0.6348
 1861TIP3    H2 5590   5.145   3.535   2.301  2.7147 -0.1845 -1.5336
 1862TIP3   OH2 5591   5.020   3.845   2.419  0.0511 -0.1747  0.8510
 1862TIP3    H1 5592   5.067   3.770   2.381  1.1625 -0.3121  2.4311
 1862TIP3    H2 5593   4.956   3.806   2.478 -1.7377  0.0379 -0.8489
 1863TIP3   OH2 5594   5.140   5.532   3.456 -0.5358 -0.2191 -0.3106
 1863TIP3    H1 5595   5.069   5.575   3.408  1.7916  1.5557 -2.4528
 1863TIP3    H2 5596   5.187   5.604   3.498 -1.5465 -1.5888  3.5550
 1864TIP3   OH2 5597   0.115   2.831   2.557 -0.0286 -0.5177  0.4705
 1864TIP3    H1 5598   0.145   2.867   2.641 -0.1823 -0.7958  0.6438
 1864TIP3    H2 5599   0.108   2.737   2.572 -2.7166 -0.2989  0.9877
 1865TIP3   OH2 5600   3.201   3.463   4.502  0.5686 -0.3230  0.0551
 1865TIP3    H1 5601   3.181   3.473   4.596 -1.0805  2.0140 -0.4426
 1865TIP3    H2 5602   3.285   3.508   4.491  0.6855 -0.4525  0.3920
 1866TIP3   OH2 5603   4.258   2.849   2.891 -0.3413 -0.4900 -0.5444
 1866TIP3    H1 5604   4.283   2.872   2.802 -0.7298 -0.5729 -0.6767
 1866TIP3    H2 5605   4.340   2.853   2.941 -0.4961  2.0562 -0.3512
 1867TIP3   OH2 5606   5.295   0.826   0.035 -0.3139  0.5097  0.1453
 1867TIP3    H1 5607   5.212   0.782   0.016  0.6306 -0.5565 -1.7454
 1867TIP3    H2 5608   5.334   0.843  -0.050  2.6494 -1.4802  0.9298
 1868TIP3   OH2 5609   5.527   3.680   3.550  0.1017  0.1106  0.3466
 1868TIP3    H1 5610   5.525   3.765   3.507  1.4416 -0.4000 -0.8039
 1868TIP3    H2 5611   5.452   3.633   3.513 -0.2303  0.5548  0.4567
 1869TIP3   OH2 5612   5.681   2.514   4.512  0.0872  0.2065  0.2317
 1869TIP3    H1 5613   5.672   2.538   4.419 -0.7589 -0.3897  0.1440
 1869TIP3    H2 5614   5.619   2.442   4.524  1.2822 -0.7278  0.9118
 1870TIP3   OH2 5615   1.356   4.829   2.970 -0.1003  0.3697 -0.3570
 1870TIP3    H1 5616   1.283   4.787   3.015  0.6698 -1.5501 -0.7974
 1870TIP3    H2 5617   1.315   4.877   2.897 -0.9834  0.0333 -0.0918
 1871TIP3   OH2 5618   4.274   1.230   4.436  0.3435 -0.3231  0.4956
 1871TIP3    H1 5619   4.188   1.203   4.469 -0.0543  0.4811  0.1523
 1871TIP3    H2 5620   4.309   1.152   4.392 -0.5861 -0.4203 -0.1081
 1872TIP3   OH2 5621   3.948   1.651   3.697 -0.4129 -0.2565  0.3298
 1872TIP3    H1 5622   3.999   1.589   3.749  2.2515 -2.0987 -3.9515
 1872TIP3    H2 5623   4.001   1.731   3.697  1.1386 -1.1964 -1.6602
 1873TIP3   OH2 5624   4.542   1.448   3.414  0.3988 -0.1009  0.2116
 1873TIP3    H1 5625   4.484   1.495   3.474 -1.4277 -0.6400 -1.0419
 1873TIP3    H2 5626   4.512   1.357   3.419  1.1874 -0.4002 -0.4171
 1874TIP3   OH2 5627   4.901   0.585   0.742  0.5043 -0.1500  0.1625
 1874TIP3    H1 5628   4.957   0.507   0.734  0.1165 -0.6486  1.9586
 1874TIP3    H2 5629   4.953   0.647   0.793  0.3423  0.3235 -0.2404
 1875TIP3   OH2 5630   6.340   0.657   3.004  0.3824 -0.4130 -0.1638
 1875TIP3    H1 5631   6.258   0.706   3.000  1.2274  1.1161  0.5446
 1875TIP3    H2 5632   6.314   0.566   2.991 -1.5315 -0.0722  0.9976
 1876TIP3   OH2 5633   0.189   4.298   3.614 -0.5191 -0.0033  0.1994
 1876TIP3    H1 5634   0.125   4.230   3.596 -0.9211  0.3176  0.4019
 1876TIP3    H2 5635   0.145   4.380   3.589  1.3567 -0.0230 -4.1653
 1877TIP3   OH2 5636   0.008   0.051   1.850  0.1626 -0.0342 -0.2712
 1877TIP3    H1 5637   0.033   0.044   1.757  0.5160  0.2313 -0.1949
 1877TIP3    H2 5638   0.090   0.067   1.896  0.0383 -0.5453  0.1344
 1878TIP3   OH2 5639   3.370   0.476   3.714  0.5665  0.8681 -0.1689
 1878TIP3    H1 5640   3.379   0.403   3.653 -0.8085 -1.5273  2.2871
 1878TIP3    H2 5641   3.285   0.463   3.755  1.5431  2.1165  2.5035
 1879TIP3   OH2 5642   3.058   0.079   0.524 -0.0298 -0.2218  1.0286
 1879TIP3    H1 5643   3.030   0.033   0.604 -2.6131 -1.8190 -0.6360
 1879TIP3    H2 5644   3.014   0.032   0.453 -0.1823  2.9106 -1.1311
 1880TIP3   OH2 5645   3.221   4.689   4.237 -0.4487  0.1081  0.2131
 1880TIP3    H1 5646   3.194   4.699   4.328  1.1964 -1.3092  0.9060
 1880TIP3    H2 5647   3.171   4.614   4.205  0.7126 -0.9187  0.7246
 1881TIP3   OH2 5648   0.836   0.121   1.914  0.7042  0.3764 -0.3643
 1881TIP3    H1 5649   0.885   0.038   1.921 -2.1701 -1.4373 -0.0303
 1881TIP3    H2 5650   0.853   0.166   1.997  0.5718 -0.9539  0.4157
 1882TIP3   OH2 5651   4.863   2.352   2.983 -0.5530 -1.2556 -0.0243
 1882TIP3    H1 5652   4.913   2.380   3.060 -1.8315  0.0873  0.3525
 1882TIP3    H2 5653   4.894   2.409   2.913 -0.4016 -1.5429 -0.1980
 1883TIP3   OH2 5654   5.540   1.877   3.056  0.2023 -0.5346 -0.2848
 1883TIP3    H1 5655   5.592   1.901   3.133  0.0534  1.9276 -0.8740
 1883TIP3    H2 5656   5.604   1.845   2.993  0.7627  0.6308 -0.3151
 1884TIP3   OH2 5657   1.353   5.721   1.461  0.4088 -0.1134  0.0965
 1884TIP3    H1 5658   1.324   5.785   1.526  1.6332  0.6708 -0.0913
 1884TIP3    H2 5659   1.378   5.774   1.385  0.1173 -0.9332 -0.5895
 1885TIP3   OH2 5660   5.485   4.374   1.537 -0.0893 -0.6435  0.1408
 1885TIP3    H1 5661   5.509   4.406   1.624  1.3641 -0.2600 -0.3831
 1885TIP3    H2 5662   5.394   4.400   1.527 -0.0109  0.1130  1.1870
 1886TIP3   OH2 5663   3.108   3.349   3.753  1.0762 -0.0031  1.0131
 1886TIP3    H1 5664   3.029   3.391   3.718  2.1791  2.1318  0.8921
 1886TIP3    H2 5665   3.099   3.357   3.848  0.4488 -1.1682  1.0616
 1887TIP3   OH2 5666   2.323   4.610   4.184 -0.1002  0.7087  0.2669
 1887TIP3    H1 5667   2.272   4.686   4.156  0.4403  1.6353  1.6767
 1887TIP3    H2 5668   2.258   4.550   4.221 -0.4831  0.6376 -0.4947
 1888TIP3   OH2 5669   3.533   3.327   1.166  0.0106 -0.1314  0.1697
 1888TIP3    H1 5670   3.606   3.315   1.227  0.2283  1.6696  0.3195
 1888TIP3    H2 5671   3.455   3.309   1.218  0.2718 -0.4145  0.4680
 1889TIP3   OH2 5672   5.778   0.186   2.262  0.0694 -0.0340  0.1729
 1889TIP3    H1 5673   5.782   0.224   2.350  0.3459  0.0891  0.1088
 1889TIP3    H2 5674   5.784   0.262   2.203  0.0466 -0.1297  0.0467
 1890TIP3   OH2 5675   6.088   2.249   0.792  0.3818  0.4836  0.1440
 1890TIP3    H1 5676   5.995   2.257   0.814 -0.0185  0.5463 -1.4160
 1890TIP3    H2 5677   6.127   2.205   0.867 -1.3984 -1.9795 -0.2489
 1891TIP3   OH2 5678   5.728   2.241   3.643  0.8399  0.4244 -0.0711
 1891TIP3    H1 5679   5.717   2.164   3.588  0.4661 -0.2717  0.9513
 1891TIP3    H2 5680   5.683   2.220   3.724  1.4902  1.3705  0.5691
 1892TIP3   OH2 5681   0.310   0.642   3.826  0.4485  0.1218  0.0189
 1892TIP3    H1 5682   0.404   0.627   3.814  0.1964 -2.3204  0.5288
 1892TIP3    H2 5683   0.284   0.576   3.890 -1.4459  1.4055  0.6266
 1893TIP3   OH2 5684   5.075   2.014   1.495 -0.4874 -0.1181  0.8644
 1893TIP3    H1 5685   4.994   2.053   1.462 -1.3276  0.0421  2.9341
 1893TIP3    H2 5686   5.093   1.942   1.435 -1.0400  1.0579 -0.7862
 1894TIP3   OH2 5687   5.535   2.884   4.502  0.0637  0.2439 -0.1630
 1894TIP3    H1 5688   5.462   2.894   4.440 -0.0106  1.3199  0.0817
 1894TIP3    H2 5689   5.601   2.835   4.453  0.6627  2.4187 -1.7047
 1895TIP3   OH2 5690   6.194   0.648   3.977  0.3297  0.0043  0.6335
 1895TIP3    H1 5691   6.159   0.623   4.063 -0.5811  1.0499  0.6016
 1895TIP3    H2 5692   6.253   0.578   3.954 -0.8320 -1.2434  1.2873
 1896TIP3   OH2 5693   2.530   5.083   1.870  0.5084  0.5284 -0.1758
 1896TIP3    H1 5694   2.504   5.063   1.780 -0.7046 -0.1175  0.2895
 1896TIP3    H2 5695   2.455   5.056   1.923  0.3772  2.6938  0.8733
 1897TIP3   OH2 5696   1.382   2.321   3.690 -0.0339  0.0174  0.2459
 1897TIP3    H1 5697   1.314   2.323   3.623  0.5640 -0.8258 -0.4065
 1897TIP3    H2 5698   1.425   2.237   3.677  0.5496  0.1517  1.2406
 1898TIP3   OH2 5699   5.817   5.412   2.071 -0.2392  0.3856  0.5526
 1898TIP3    H1 5700   5.863   5.429   1.989  0.6157 -1.1931  0.6654
 1898TIP3    H2 5701   5.735   5.461   2.064 -0.6994 -0.5845 -1.7397
 1899TIP3   OH2 5702   0.547   0.214   3.888 -0.0622 -0.1867  0.0560
 1899TIP3    H1 5703   0.578   0.263   3.811  2.0341 -1.3839  0.0660
 1899TIP3    H2 5704   0.539   0.124   3.857 -0.1261 -0.5143  1.0108
 1900TIP3   OH2 5705   2.121   0.384   2.922  0.2207 -0.2120  0.0109
 1900TIP3    H1 5706   2.128   0.295   2.888 -1.3600  0.7051 -3.1607
 1900TIP3    H2 5707   2.205   0.425   2.900  0.5319 -0.6119  0.4503
 1901TIP3   OH2 5708   1.242   2.262   3.452  0.3573 -0.1744 -0.2767
 1901TIP3    H1 5709   1.213   2.324   3.385 -2.5714 -1.4797 -0.3687
 1901TIP3    H2 5710   1.330   2.237   3.425 -0.0128  0.7487 -2.5725
 1902TIP3   OH2 5711   1.263   1.326   4.472  0.0919  0.0478  0.0313
 1902TIP3    H1 5712   1.294   1.278   4.395 -0.8581  1.6036 -1.3713
 1902TIP3    H2 5713   1.334   1.388   4.491  2.1423 -2.8502  2.9287
 1903TIP3   OH2 5714   1.364   4.815   4.912  0.0610 -0.2419 -0.2500
 1903TIP3    H1 5715   1.299   4.754   4.946  1.3239 -0.8674  1.0956
 1903TIP3    H2 5716   1.312   4.889   4.880 -1.3068 -0.7141  0.8035
 1904TIP3   OH2 5717   4.996   2.711   4.892 -0.4632  0.3426  0.1959
 1904TIP3    H1 5718   5.062   2.643   4.877 -0.0575  0.5860  0.8586
 1904TIP3    H2 5719   5.028   2.787   4.843 -1.4124 -0.2178 -1.3654
 1905TIP3   OH2 5720   5.975   1.857   1.568 -0.5645  0.1063 -0.0219
 1905TIP3    H1 5721   5.928   1.876   1.486  0.4550  0.3377 -0.5734
 1905TIP3    H2 5722   6.045   1.797   1.541  1.2588  2.0271  0.2298
 1906TIP3   OH2 5723   5.313   0.086   0.237  0.2793  0.3533 -0.0897
 1906TIP3    H1 5724   5.310  -0.000   0.195 -0.4362  0.3042  0.0498
 1906TIP3    H2 5725   5.387   0.130   0.196  2.0763 -1.1174  1.4100
 1907TIP3   OH2 5726   5.963   0.620   3.771 -0.3553 -0.3527 -0.0673
 1907TIP3    H1 5727   6.040   0.586   3.817 -1.1339 -1.1561  0.6807
 1907TIP3    H2 5728   5.952   0.709   3.804  1.2551  0.4222 -1.4736
 1908TIP3   OH2 5729   5.792   1.962   1.384 -0.3502  0.2137 -1.3883
 1908TIP3    H1 5730   5.841   2.005   1.314 -2.0527 -0.1843 -2.9317
 1908TIP3    H2 5731   5.722   1.915   1.338 -0.0196 -2.2234  0.3970
 1909TIP3   OH2 5732   1.033   4.251   2.974 -0.0333  0.5602 -0.2309
 1909TIP3    H1 5733   1.079   4.168   2.965 -0.7738  0.0762  0.3085
 1909TIP3    H2 5734   0.951   4.239   2.926  0.5539  1.5575 -1.5443
 1910TIP3   OH2 5735   4.870   3.847   1.142 -0.8079  0.3744 -0.2917
 1910TIP3    H1 5736   4.775   3.842   1.142 -1.0074  2.9683 -0.3439
 1910TIP3    H2 5737   4.895   3.845   1.049 -0.8619  0.6177 -0.3094
 1911TIP3   OH2 5738   3.116   2.073   1.925  0.1435  0.2329  0.0683
 1911TIP3    H1 5739   3.096   1.981   1.943  1.4694  0.1230  1.1473
 1911TIP3    H2 5740   3.125   2.112   2.012  0.2057  1.2397 -0.3852
 1912TIP3   OH2 5741   3.869   0.723   4.525 -0.0343 -0.0270  0.3462
 1912TIP3    H1 5742   3.904   0.651   4.577  0.7140  1.9652  2.8153
 1912TIP3    H2 5743   3.775   0.721   4.542 -0.0592 -0.5837  0.1593
 1913TIP3   OH2 5744   6.133   2.915   3.654 -0.2815 -0.0916 -0.2423
 1913TIP3    H1 5745   6.108   2.939   3.564  1.2162  1.2922 -0.3422
 1913TIP3    H2 5746   6.210   2.859   3.643  0.2877  0.5879  0.1618
 1914TIP3   OH2 5747   4.943   4.158   1.163  0.5291 -0.1426  0.2286
 1914TIP3    H1 5748   4.989   4.113   1.092 -1.2957 -0.2716 -0.9594
 1914TIP3    H2 5749   4.886   4.091   1.201 -0.3339  0.5266  0.1529
 1915TIP3   OH2 5750   2.624   5.799   1.362  0.2598  0.0861  0.0244
 1915TIP3    H1 5751   2.610   5.790   1.268 -1.4424 -1.0668  0.3472
 1915TIP3    H2 5752   2.698   5.860   1.370  0.4216  0.2106 -2.0359
 1916TIP3   OH2 5753   5.704   2.179   2.759 -0.1340 -0.1249  0.0829
 1916TIP3    H1 5754   5.736   2.250   2.704  1.8650  0.7283  2.1705
 1916TIP3    H2 5755   5.613   2.165   2.731 -0.2608  2.5321 -1.0720
 1917TIP3   OH2 5756   5.158   5.419   0.911  0.5381 -0.2488  0.3993
 1917TIP3    H1 5757   5.159   5.457   0.999  1.5309 -1.2248  0.8198
 1917TIP3    H2 5758   5.083   5.360   0.911  0.0158  0.3983  0.2936
 1918TIP3   OH2 5759   3.888   2.448   0.182 -0.4474 -0.2385  0.1768
 1918TIP3    H1 5760   3.891   2.457   0.277 -1.8665  2.2616  0.0616
 1918TIP3    H2 5761   3.795   2.456   0.160 -0.0275  0.5530 -1.4942
 1919TIP3   OH2 5762   5.656   2.504   1.497  0.4838  0.0234  0.0334
 1919TIP3    H1 5763   5.647   2.492   1.592 -3.4485 -1.8092 -0.3475
 1919TIP3    H2 5764   5.686   2.419   1.465 -1.3404 -0.4513 -0.5381
 1920TIP3   OH2 5765   6.230   5.445   1.879 -0.3850 -0.4352 -0.2201
 1920TIP3    H1 5766   6.259   5.412   1.794  0.9953  0.5886 -0.1711
 1920TIP3    H2 5767   6.167   5.515   1.858  0.5187  0.3283 -0.4324
 1921TIP3   OH2 5768   1.687   0.298   4.147  0.1123 -0.5116  0.5418
 1921TIP3    H1 5769   1.704   0.227   4.209  0.1898 -1.4723 -0.5364
 1921TIP3    H2 5770   1.774   0.331   4.124  0.0870 -0.2027  0.8764
 1922TIP3   OH2 5771   5.146   4.496   2.424 -0.0935  0.0024  0.1826
 1922TIP3    H1 5772   5.186   4.540   2.349 -1.0020 -0.3890 -0.5560
 1922TIP3    H2 5773   5.142   4.563   2.492 -0.3103  0.7130 -0.5108
 1923TIP3   OH2 5774   4.752   0.683   3.230  0.4937  0.3220 -0.3223
 1923TIP3    H1 5775   4.845   0.669   3.245  0.1786  0.8213  2.8873
 1923TIP3    H2 5776   4.746   0.773   3.198  1.1050  0.3551 -0.3485
 1924TIP3   OH2 5777   4.043   0.801   4.903 -0.1228  0.3887  0.0060
 1924TIP3    H1 5778   3.993   0.778   4.824  2.1093 -0.7131 -1.1657
 1924TIP3    H2 5779   4.072   0.717   4.938 -0.4455  0.9164  1.6250
 1925TIP3   OH2 5780   2.739   3.320   2.641  1.1247 -0.1436 -0.0153
 1925TIP3    H1 5781   2.680   3.295   2.712 -0.0437 -2.2017 -1.6103
 1925TIP3    H2 5782   2.816   3.265   2.653  1.1066 -0.1873 -0.0975
 1926TIP3   OH2 5783   4.358   5.361   3.378 -0.0773 -0.2345 -0.1007
 1926TIP3    H1 5784   4.403   5.377   3.295 -0.1814 -0.1220 -0.1345
 1926TIP3    H2 5785   4.331   5.269   3.373  1.4403 -0.7357  0.5338
 1927TIP3   OH2 5786   1.328   5.448   3.046  0.2268  0.0426 -0.1017
 1927TIP3    H1 5787   1.401   5.447   3.108  1.4290 -0.9995 -1.4583
 1927TIP3    H2 5788   1.301   5.356   3.040 -0.6147  0.2946 -0.2972
 1928TIP3   OH2 5789   5.376   4.669   1.313 -0.3922  0.2710 -0.0228
 1928TIP3    H1 5790   5.361   4.588   1.265  4.2655 -1.4130  0.8439
 1928TIP3    H2 5791   5.356   4.647   1.404 -0.2632  0.4621  0.0519
 1929TIP3   OH2 5792   0.329   2.480   3.892 -0.2449 -0.4582  0.2906
 1929TIP3    H1 5793   0.261   2.412   3.899 -1.4411  0.5684 -0.7075
 1929TIP3    H2 5794   0.380   2.455   3.815  0.6280 -1.3047  1.1198
 1930TIP3   OH2 5795   3.679   1.368   3.041 -0.5292  0.4729  0.2370
 1930TIP3    H1 5796   3.765   1.368   3.082 -0.0836  0.8363 -0.6555
 1930TIP3    H2 5797   3.653   1.276   3.040  0.6989  0.0918 -1.1433
 1931TIP3   OH2 5798   1.808   2.272   4.513 -0.0992 -0.4367 -0.0161
 1931TIP3    H1 5799   1.841   2.235   4.595 -0.5926 -0.6575  0.0853
 1931TIP3    H2 5800   1.844   2.361   4.511 -0.5751 -0.2220  0.7338
 1932TIP3   OH2 5801   0.595   0.404   1.256  0.2387 -0.4596  0.0036
 1932TIP3    H1 5802   0.636   0.352   1.327  0.9109  0.3119  0.1986
 1932TIP3    H2 5803   0.502   0.406   1.279  0.3581 -0.7289  0.5470
 1933TIP3   OH2 5804   4.355   0.473   0.285 -0.0029 -0.6482  0.1773
 1933TIP3    H1 5805   4.420   0.499   0.219  0.3888 -0.6780  0.5456
 1933TIP3    H2 5806   4.285   0.432   0.235 -0.1521  0.1773 -0.3158
 1934TIP3   OH2 5807   4.878   5.295   0.109  0.0068 -0.0698  0.4282
 1934TIP3    H1 5808   4.799   5.244   0.090  0.0632  0.1490 -0.4680
 1934TIP3    H2 5809   4.938   5.232   0.150 -0.1314 -0.5963 -0.1468
 1935TIP3   OH2 5810   4.541   2.830   2.117 -0.7888  0.9997 -0.3774
 1935TIP3    H1 5811   4.446   2.820   2.124 -1.0367  2.3230 -1.4114
 1935TIP3    H2 5812   4.558   2.824   2.023  0.3024 -0.2703 -0.1201
 1936TIP3   OH2 5813   0.666   3.580   1.954 -0.8174  0.0668  0.2336
 1936TIP3    H1 5814   0.622   3.496   1.963 -0.3035 -0.3970 -1.3386
 1936TIP3    H2 5815   0.759   3.559   1.956 -0.5632  1.0013  3.1702
 1937TIP3   OH2 5816   5.986   1.913   0.921  0.7544 -0.6785  0.0555
 1937TIP3    H1 5817   6.080   1.930   0.917  0.7448 -0.0823  1.5852
 1937TIP3    H2 5818   5.970   1.845   0.856  2.1200 -0.2792 -0.7250
 1938TIP3   OH2 5819   3.775   2.753   0.990 -0.0828 -0.9493  0.3228
 1938TIP3    H1 5820   3.784   2.811   1.066  3.1683  0.6098 -1.0271
 1938TIP3    H2 5821   3.795   2.666   1.024  2.2041 -0.1595  1.2515
 1939TIP3   OH2 5822   1.296   1.711   3.056 -0.5777 -0.5255 -0.6106
 1939TIP3    H1 5823   1.349   1.790   3.042  0.7706 -1.4549 -0.9445
 1939TIP3    H2 5824   1.250   1.728   3.138 -0.2202  0.5634 -0.6114
 1940TIP3   OH2 5825   5.877   2.707   1.112  0.2218 -0.3188  0.0641
 1940TIP3    H1 5826   5.925   2.752   1.182  0.5492  0.7786 -0.8501
 1940TIP3    H2 5827   5.787   2.738   1.121 -0.2308 -1.8436  1.3352
 1941TIP3   OH2 5828   4.583   0.812   0.763  0.2121  0.5585 -0.3080
 1941TIP3    H1 5829   4.612   0.896   0.800  1.1042  0.8029 -1.4849
 1941TIP3    H2 5830   4.503   0.834   0.716  1.4463  1.2131 -2.2377
 1942TIP3   OH2 5831   0.574   4.087   2.925  0.0141  0.5748  0.9483
 1942TIP3    H1 5832   0.660   4.117   2.896  0.2268 -0.5949  0.2853
 1942TIP3    H2 5833   0.529   4.063   2.844 -1.4013  2.2891  1.1709
 1943TIP3   OH2 5834   2.162   2.086   5.149  0.9112 -0.0256 -0.0731
 1943TIP3    H1 5835   2.175   2.180   5.162  0.7841  0.0791 -0.6629
 1943TIP3    H2 5836   2.077   2.068   5.188  0.2786  0.3906 -1.2205
 1944TIP3   OH2 5837   6.301   3.509   2.932  0.3502  0.4876 -0.4140
 1944TIP3    H1 5838   6.216   3.519   2.889 -0.0872 -0.6110  0.1665
 1944TIP3    H2 5839   6.287   3.441   2.997  1.2449  1.4390  0.8282
 1945TIP3   OH2 5840   4.720   2.611   5.119 -0.1710  0.0828  0.9159
 1945TIP3    H1 5841   4.813   2.619   5.138  0.2439 -2.6543  0.4915
 1945TIP3    H2 5842   4.679   2.593   5.204 -0.1417  0.2271  0.9593
 1946TIP3   OH2 5843   0.806   4.207   2.104 -0.2309  0.4333 -0.1516
 1946TIP3    H1 5844   0.866   4.147   2.058 -0.2022 -0.0832  0.5462
 1946TIP3    H2 5845   0.860   4.283   2.125  0.1544  0.0314  0.3456
 1947TIP3   OH2 5846   0.851   3.471   2.950 -0.0258 -0.1407 -0.0021
 1947TIP3    H1 5847   0.784   3.406   2.971 -0.8344  0.7972  0.4479
 1947TIP3    H2 5848   0.837   3.541   3.015  2.4872 -0.6513  1.2227
 1948TIP3   OH2 5849   5.820   1.968   3.898  0.5530  0.3818 -0.1895
 1948TIP3    H1 5850   5.760   2.043   3.898 -1.5006 -1.0577 -2.9495
 1948TIP3    H2 5851   5.872   1.980   3.818  0.8022 -0.6824 -0.1991
 1949TIP3   OH2 5852   3.454   2.864   1.157 -0.0069 -0.1879  0.1928
 1949TIP3    H1 5853   3.428   2.792   1.100  1.8481 -1.3800  0.7842
 1949TIP3    H2 5854   3.479   2.934   1.097 -0.6784 -0.4354 -0.3955
 1950TIP3   OH2 5855   4.964   2.159   2.811  0.3273 -0.3622  0.3908
 1950TIP3    H1 5856   4.928   2.219   2.876 -1.2407  0.8897 -1.5271
 1950TIP3    H2 5857   4.892   2.142   2.751  2.2725  0.5277 -2.4251
 1951TIP3   OH2 5858   1.264   2.999   2.320 -0.2127  0.0210  0.1985
 1951TIP3    H1 5859   1.258   3.039   2.233 -1.3574 -0.6531 -0.0640
 1951TIP3    H2 5860   1.258   2.905   2.303  2.3420 -0.3201  0.8018
 1952TIP3   OH2 5861   4.679   4.729   4.952 -0.8676 -0.0806 -0.5043
 1952TIP3    H1 5862   4.643   4.787   4.885  0.4574  1.1580 -0.1942
 1952TIP3    H2 5863   4.739   4.784   5.001  0.0394 -1.5962  0.1487
 1953TIP3   OH2 5864   4.909   5.473   2.335 -0.5333  0.2645  0.1200
 1953TIP3    H1 5865   4.905   5.506   2.245  0.4817 -0.9779 -0.4166
 1953TIP3    H2 5866   5.003   5.467   2.354 -0.5906 -3.1182 -0.1617
 1954TIP3   OH2 5867   2.087   0.667   2.580  0.0095 -0.4826 -0.3386
 1954TIP3    H1 5868   2.126   0.745   2.541  1.2522 -1.0137 -0.2152
 1954TIP3    H2 5869   2.033   0.629   2.510 -1.1826  0.8416 -0.1731
 1955TIP3   OH2 5870   6.155   3.224   2.827  0.2323  0.3283 -0.5135
 1955TIP3    H1 5871   6.221   3.157   2.844 -1.4144 -1.4555 -0.7753
 1955TIP3    H2 5872   6.134   3.260   2.913 -0.2883 -0.9524 -0.0768
 1956TIP3   OH2 5873   0.976   5.487   1.977  0.1828  0.3632 -0.2888
 1956TIP3    H1 5874   0.974   5.448   1.890  1.4955  0.3573 -0.3444
 1956TIP3    H2 5875   1.070   5.494   1.998 -0.1065  0.2510  1.1654
 1957TIP3   OH2 5876   2.346   2.186   1.342 -0.1729 -0.6873  0.1868
 1957TIP3    H1 5877   2.288   2.212   1.414 -1.9013  1.2559 -1.7607
 1957TIP3    H2 5878   2.433   2.184   1.380 -0.9328  0.9066  2.1889
 1958TIP3   OH2 5879   5.758   0.484   5.028  0.2953 -0.1283  0.4797
 1958TIP3    H1 5880   5.742   0.534   4.948 -0.9513  0.3680  1.0232
 1958TIP3    H2 5881   5.795   0.547   5.089  1.1556 -0.4857  0.3390
 1959TIP3   OH2 5882   2.608   1.382   4.728 -0.2120 -0.0566  0.1164
 1959TIP3    H1 5883   2.534   1.350   4.779 -1.4042 -1.7172 -2.4250
 1959TIP3    H2 5884   2.599   1.477   4.729 -1.0801 -0.1237  1.6157
 1960TIP3   OH2 5885   4.414   1.684   4.379 -0.0027  0.2689 -0.4846
 1960TIP3    H1 5886   4.374   1.654   4.297  1.3720 -0.6830 -0.8434
 1960TIP3    H2 5887   4.508   1.670   4.366  0.1414 -1.6671  1.9336
 1961TIP3   OH2 5888   5.464   4.880   1.680  0.3333 -0.1571  0.0975
 1961TIP3    H1 5889   5.505   4.814   1.625  0.8876  0.9878 -0.8994
 1961TIP3    H2 5890   5.397   4.921   1.625  0.5066  0.6249  0.4452
 1962TIP3   OH2 5891   3.096   2.621   3.805 -0.1798  0.3701 -0.4846
 1962TIP3    H1 5892   3.023   2.672   3.771 -0.2154  1.4035  1.0442
 1962TIP3    H2 5893   3.174   2.664   3.769 -0.2628 -0.5153 -1.8209
 1963TIP3   OH2 5894   4.033   1.480   4.401  0.2115 -0.2105 -0.2547
 1963TIP3    H1 5895   3.938   1.487   4.393  0.2524 -1.4193 -2.4471
 1963TIP3    H2 5896   4.047   1.394   4.443  0.3567 -0.0559  0.0195
 1964TIP3   OH2 5897   4.495   1.295   0.067 -0.3603  0.1224  0.5115
 1964TIP3    H1 5898   4.527   1.385   0.057 -0.3799 -0.0340 -1.1497
 1964TIP3    H2 5899   4.444   1.278  -0.012 -3.7227 -0.0354  2.5507
 1965TIP3   OH2 5900   4.405   3.385   5.117  0.0593  0.6091 -0.0506
 1965TIP3    H1 5901   4.393   3.297   5.082 -1.6472 -0.5061  2.9808
 1965TIP3    H2 5902   4.461   3.429   5.052 -1.3398 -1.7222 -3.1069
 1966TIP3   OH2 5903   5.246   4.077   2.898 -0.6829 -0.9157  0.1963
 1966TIP3    H1 5904   5.180   4.118   2.841 -1.0080  0.0206  1.2012
 1966TIP3    H2 5905   5.317   4.053   2.839 -2.3140 -2.9047 -1.0838
 1967TIP3   OH2 5906   3.720   5.400   4.398 -0.1784  0.0124 -0.0662
 1967TIP3    H1 5907   3.658   5.468   4.425  0.9814  0.8533  0.5806
 1967TIP3    H2 5908   3.667   5.320   4.392 -1.6054  0.9744 -0.9631
 1968TIP3   OH2 5909   5.453   2.680   2.176 -0.3241  0.2926  0.2132
 1968TIP3    H1 5910   5.396   2.711   2.106  1.0120  1.9835 -0.1807
 1968TIP3    H2 5911   5.535   2.658   2.134  0.0976  0.1281  1.0862
 1969TIP3   OH2 5912   3.077   5.909   0.045 -0.0912  0.3632 -0.1991
 1969TIP3    H1 5913   3.103   5.937  -0.042  0.3419 -0.4546 -0.3411
 1969TIP3    H2 5914   2.995   5.956   0.062 -1.0362 -0.6838 -1.6994
 1970TIP3   OH2 5915   3.099   1.324   1.011  0.0781 -0.4126 -0.7179
 1970TIP3    H1 5916   3.155   1.389   1.052  0.7432  0.4795 -2.8609
 1970TIP3    H2 5917   3.048   1.286   1.082 -1.0949  3.1663  0.5510
 1971TIP3   OH2 5918   5.425   3.752   0.047 -0.1537 -0.4236  0.2816
 1971TIP3    H1 5919   5.466   3.718   0.127  0.7696 -0.9992 -0.4103
 1971TIP3    H2 5920   5.493   3.741  -0.021 -0.9487 -0.0333 -0.5961
 1972TIP3   OH2 5921   5.476   2.334   2.951  0.3879  0.3819  0.0124
 1972TIP3    H1 5922   5.474   2.272   3.023 -1.7087  0.1888 -0.1410
 1972TIP3    H2 5923   5.445   2.284   2.875  0.8291  1.0447 -0.6193
 1973TIP3   OH2 5924   3.934   4.583   4.115  0.3070  0.2298 -0.4108
 1973TIP3    H1 5925   4.000   4.570   4.048  0.6420 -0.3420  0.0160
 1973TIP3    H2 5926   3.851   4.566   4.070  0.6484 -2.5078 -0.1788
 1974TIP3   OH2 5927   4.320   5.049   0.773 -0.1256  0.6758  0.3591
 1974TIP3    H1 5928   4.409   5.072   0.802 -0.9297  3.4616  0.8992
 1974TIP3    H2 5929   4.299   4.970   0.823  1.1456  1.3887  2.1414
 1975TIP3   OH2 5930   5.898   5.166   5.115  0.2114 -0.0592 -0.2400
 1975TIP3    H1 5931   5.962   5.235   5.131  0.5901  0.3888 -3.0749
 1975TIP3    H2 5932   5.813   5.207   5.133  0.5860 -0.0022  1.5145
 1976TIP3   OH2 5933   4.758   4.515   4.435 -0.4626  0.4799  0.2939
 1976TIP3    H1 5934   4.714   4.455   4.496 -0.8354  0.1497 -0.2911
 1976TIP3    H2 5935   4.744   4.602   4.473  0.1966  0.1952  1.2200
 1977TIP3   OH2 5936   4.657   4.708   1.920  0.1252  0.3050  0.4923
 1977TIP3    H1 5937   4.684   4.617   1.939  2.0563  0.4855 -1.0316
 1977TIP3    H2 5938   4.716   4.761   1.973  0.1758  0.6859  0.0561
 1978TIP3   OH2 5939   4.208   1.045   2.246  0.8058 -0.3811 -0.3488
 1978TIP3    H1 5940   4.227   1.004   2.162  1.5060 -0.7409 -0.0228
 1978TIP3    H2 5941   4.162   1.126   2.224 -0.0193 -1.0146 -1.0281
 1979TIP3   OH2 5942   0.175   5.433   1.105 -0.3850 -0.4366 -0.2352
 1979TIP3    H1 5943   0.122   5.360   1.073 -0.8008 -0.1114 -0.3140
 1979TIP3    H2 5944   0.157   5.504   1.042 -0.5141 -0.0658  0.2111
 1980TIP3   OH2 5945   1.554   1.325   3.395  0.5295 -0.0196 -0.1726
 1980TIP3    H1 5946   1.526   1.401   3.445 -0.7305  0.1424 -1.0563
 1980TIP3    H2 5947   1.520   1.250   3.444  2.6226 -0.1307  1.2337
 1981TIP3   OH2 5948   5.499   4.602   2.212 -0.7546  0.0287  0.1352
 1981TIP3    H1 5949   5.590   4.608   2.242 -0.5112 -0.6956 -0.4439
 1981TIP3    H2 5950   5.458   4.680   2.247  0.1313  0.4485  0.2708
 1982TIP3   OH2 5951   5.957   3.735   3.171  0.0473  0.0808  0.4696
 1982TIP3    H1 5952   5.958   3.829   3.154  2.1098 -0.0304 -0.1799
 1982TIP3    H2 5953   5.888   3.724   3.237  0.2401  2.1408  1.0796
 1983TIP3   OH2 5954   3.704   3.060   0.643  0.3080 -0.0260 -0.3245
 1983TIP3    H1 5955   3.742   3.140   0.605  1.3276 -1.4080 -2.4192
 1983TIP3    H2 5956   3.648   3.025   0.574 -1.7504 -0.1486  1.2879
 1984TIP3   OH2 5957   2.298   3.326   1.783 -0.7632  0.2512  0.1129
 1984TIP3    H1 5958   2.392   3.314   1.774 -0.6140  1.4087 -0.1480
 1984TIP3    H2 5959   2.289   3.399   1.845 -1.5270 -0.6702  1.1163
 1985TIP3   OH2 5960   1.377   3.818   4.036  0.6767  0.1472 -0.0689
 1985TIP3    H1 5961   1.351   3.806   4.128  1.6712 -3.0177 -0.0883
 1985TIP3    H2 5962   1.298   3.800   3.986  0.4876  0.5000  0.0925
 1986TIP3   OH2 5963   3.101   2.365   3.908 -0.1224 -0.5294 -0.2416
 1986TIP3    H1 5964   3.105   2.452   3.868  0.5761 -0.6112 -0.3606
 1986TIP3    H2 5965   3.037   2.317   3.854 -1.4832  0.2875  0.6005
 1987TIP3   OH2 5966   3.264   1.051   0.655 -0.0634  0.1099  0.5984
 1987TIP3    H1 5967   3.269   1.095   0.740  1.2581 -0.9167  1.0863
 1987TIP3    H2 5968   3.287   1.119   0.591 -0.5924  0.7669  1.0977
 1988TIP3   OH2 5969   1.820   5.601   3.158 -0.3991 -0.5972  0.1676
 1988TIP3    H1 5970   1.869   5.664   3.106  1.0908 -0.6821  1.3988
 1988TIP3    H2 5971   1.883   5.531   3.177 -1.5036 -1.5779  0.3356
 1989TIP3   OH2 5972   5.869   4.436   0.543  0.5921 -0.1577 -0.3214
 1989TIP3    H1 5973   5.928   4.456   0.615 -0.4766 -0.4939  0.6667
 1989TIP3    H2 5974   5.812   4.513   0.535 -1.2912 -1.3080  1.2500
 1990TIP3   OH2 5975   0.603   3.120   1.686  0.5378  0.0181  0.3341
 1990TIP3    H1 5976   0.598   3.077   1.771 -1.0512  1.3312  0.9720
 1990TIP3    H2 5977   0.548   3.067   1.628  0.0121  0.1971  0.6594
 1991TIP3   OH2 5978   0.890   3.982   4.926 -0.1038  0.3638  0.2863
 1991TIP3    H1 5979   0.984   3.962   4.932 -0.0955 -0.1094 -1.0796
 1991TIP3    H2 5980   0.856   3.920   4.862 -1.5085  0.0571  1.2827
 1992TIP3   OH2 5981   2.537   0.155   3.076  0.0438  0.1159  0.0360
 1992TIP3    H1 5982   2.554   0.181   3.167 -1.6278  0.6056  0.2263
 1992TIP3    H2 5983   2.623   0.129   3.043  1.2899  2.8264  0.8120
 1993TIP3   OH2 5984   4.199   4.467   2.245 -0.4156 -0.1140 -0.3149
 1993TIP3    H1 5985   4.172   4.556   2.221 -0.6144 -0.4774 -1.5184
 1993TIP3    H2 5986   4.294   4.468   2.238 -0.4113  0.0437 -0.2198
 1994TIP3   OH2 5987   4.787   0.123   2.046 -0.2862  0.0612 -0.6903
 1994TIP3    H1 5988   4.695   0.127   2.020 -0.5417  2.7718  0.2391
 1994TIP3    H2 5989   4.833   0.098   1.966 -1.5478  2.1815 -2.1930
 1995TIP3   OH2 5990   4.345   2.147   3.021 -0.0534  0.1152 -0.1096
 1995TIP3    H1 5991   4.282   2.143   3.093 -0.3711 -0.2108 -0.4014
 1995TIP3    H2 5992   4.430   2.156   3.063 -0.4884  4.0639  0.3060
 1996TIP3   OH2 5993   5.290   1.480   3.318 -0.5283 -0.7536  0.0926
 1996TIP3    H1 5994   5.360   1.543   3.307 -1.8387  0.7432 -0.0626
 1996TIP3    H2 5995   5.321   1.401   3.272  0.2436  0.5052 -1.6495
 1997TIP3   OH2 5996   3.513   0.010   0.008 -0.6816 -0.0681 -0.1299
 1997TIP3    H1 5997   3.604   0.029  -0.014 -0.9125  0.8106 -0.3679
 1997TIP3    H2 5998   3.499   0.055   0.092 -0.6468 -0.9424  0.3528
 1998TIP3   OH2 5999   2.780   3.572   3.133  0.2291  0.4592 -0.9602
 1998TIP3    H1 6000   2.829   3.624   3.198 -0.5310 -1.1644  1.0053
 1998TIP3    H2 6001   2.692   3.609   3.135 -0.1425 -0.4334 -0.0368
 1999TIP3   OH2 6002   2.581   0.751   5.069  0.4565  0.2774  0.7332
 1999TIP3    H1 6003   2.567   0.674   5.013  1.6962  1.5906 -1.5340
 1999TIP3    H2 6004   2.494   0.773   5.102 -0.2291 -0.9664 -0.1465
 2000TIP3   OH2 6005   3.358   1.569   4.532  0.1830  0.1333 -0.0671
 2000TIP3    H1 6006   3.330   1.516   4.457 -0.2823  0.2905 -0.0069
 2000TIP3    H2 6007   3.428   1.518   4.573 -0.8473 -0.8553  0.5111
 2001TIP3   OH2 6008   0.232   2.530   2.255 -0.1836 -0.2106  0.1286
 2001TIP3    H1 6009   0.254   2.613   2.297  2.5924 -0.4146 -0.6801
 2001TIP3    H2 6010   0.137   2.531   2.245 -0.5006  1.6574  2.5415
 2002TIP3   OH2 6011   6.111   2.088   2.792 -0.1791  0.7724 -0.7452
 2002TIP3    H1 6012   6.150   2.174   2.777  0.4848  0.6805  0.3641
 2002TIP3    H2 6013   6.043   2.102   2.858  0.2280  0.3910 -0.2295
 2003TIP3   OH2 6014   1.532   1.382   2.778  0.5528  0.3138 -0.0963
 2003TIP3    H1 6015   1.467   1.384   2.707  1.0391  0.1506 -0.5550
 2003TIP3    H2 6016   1.484   1.412   2.855  0.3698  1.8922 -0.7847
 2004TIP3   OH2 6017   1.183   0.211   4.652  0.0467 -0.2758  0.6797
 2004TIP3    H1 6018   1.177   0.200   4.557  1.5009 -1.5979  0.7086
 2004TIP3    H2 6019   1.169   0.124   4.687  0.8536 -0.0454  1.6013
 2005TIP3   OH2 6020   5.264   4.856   4.628  0.1482  0.3203  0.2682
 2005TIP3    H1 6021   5.222   4.854   4.542  0.0043 -1.2840  0.3592
 2005TIP3    H2 6022   5.195   4.836   4.690  0.5957 -0.2448  0.5992
 2006TIP3   OH2 6023   2.578   1.568   2.544 -0.1861  0.2880  0.0719
 2006TIP3    H1 6024   2.522   1.590   2.618  0.7353  3.3928  0.0011
 2006TIP3    H2 6025   2.518   1.547   2.473 -1.1154 -4.0036  1.8161
 2007TIP3   OH2 6026   4.172   4.345   3.484 -0.2542  0.0406 -0.7091
 2007TIP3    H1 6027   4.161   4.400   3.561 -0.7619  1.3432 -1.6734
 2007TIP3    H2 6028   4.266   4.347   3.466 -0.3850  1.4870 -1.3408
 2008TIP3   OH2 6029   1.657   4.911   5.094 -0.4455  0.0120 -0.3649
 2008TIP3    H1 6030   1.616   4.966   5.161 -0.1953  0.0250 -0.2222
 2008TIP3    H2 6031   1.723   4.860   5.141  1.8427  2.1539 -1.0540
 2009TIP3   OH2 6032   5.510   2.676   3.578 -0.4402  0.4689  0.0758
 2009TIP3    H1 6033   5.533   2.752   3.523 -1.9147  0.9180  0.0521
 2009TIP3    H2 6034   5.581   2.614   3.562  0.4511  1.5702 -0.4282
 2010TIP3   OH2 6035   1.712   0.591   1.091 -0.3949 -0.0484 -0.3335
 2010TIP3    H1 6036   1.645   0.621   1.029  0.1219 -0.5426 -1.1490
 2010TIP3    H2 6037   1.741   0.507   1.057  0.9121  0.3246 -0.2161
 2011TIP3   OH2 6038   4.845   3.590   2.080  0.2755 -0.4492 -0.7973
 2011TIP3    H1 6039   4.914   3.640   2.035  1.8547 -0.8392  1.0508
 2011TIP3    H2 6040   4.775   3.654   2.095  1.4110  0.7083 -0.2588
 2012TIP3   OH2 6041   1.393   5.165   3.268 -0.1255 -0.7823 -0.2429
 2012TIP3    H1 6042   1.416   5.221   3.193  1.2689 -1.1742 -0.1239
 2012TIP3    H2 6043   1.336   5.098   3.231 -0.2125 -0.4309 -0.7643
 2013TIP3   OH2 6044   3.510   5.800   0.322 -0.4446  0.5255  1.1372
 2013TIP3    H1 6045   3.589   5.746   0.325 -1.9509 -1.9009  0.3637
 2013TIP3    H2 6046   3.519   5.852   0.243 -0.0524 -0.5019  0.4810
 2014TIP3   OH2 6047   2.569   4.646   2.933  0.2914  0.5959  0.2965
 2014TIP3    H1 6048   2.630   4.695   2.878  1.2310  1.0554  1.6918
 2014TIP3    H2 6049   2.491   4.701   2.937  0.3142  0.6790 -0.3592
 2015TIP3   OH2 6050   3.478   5.757   1.706  0.3800  0.5756  0.3339
 2015TIP3    H1 6051   3.487   5.663   1.696  1.4685  0.1908  3.6117
 2015TIP3    H2 6052   3.384   5.774   1.691  0.3167 -0.8650 -1.0554
 2016TIP3   OH2 6053   3.641   4.891   1.230 -0.3147 -0.0550 -0.1859
 2016TIP3    H1 6054   3.724   4.931   1.204  0.0834 -1.2066 -0.7170
 2016TIP3    H2 6055   3.579   4.920   1.163 -0.9578  2.7339  1.4441
 2017TIP3   OH2 6056   2.620   4.052   2.096  0.2450  0.2385  0.1716
 2017TIP3    H1 6057   2.555   4.057   2.166 -0.6210 -1.9649 -0.3741
 2017TIP3    H2 6058   2.577   4.095   2.021  0.3234  0.7367  0.4102
 2018TIP3   OH2 6059   5.469   5.417   2.762  0.2319 -0.6555  0.1094
 2018TIP3    H1 6060   5.414   5.441   2.836  0.6902  1.2866 -0.1145
 2018TIP3    H2 6061   5.409   5.414   2.687  0.1021 -0.5195  0.2072
 2019TIP3   OH2 6062   3.717   4.018   2.697 -0.6764 -0.1597  0.0058
 2019TIP3    H1 6063   3.764   3.984   2.772 -0.1651 -3.6463 -1.7023
 2019TIP3    H2 6064   3.632   3.973   2.699 -1.9555  2.1014  0.1620
 2020TIP3   OH2 6065   4.888   3.716   2.615  0.3800  0.0087 -0.1153
 2020TIP3    H1 6066   4.865   3.652   2.547  0.2636  0.6452 -0.6900
 2020TIP3    H2 6067   4.804   3.742   2.653  0.4876 -0.7282  0.6278
 2021TIP3   OH2 6068   4.839   5.912   4.915 -0.1647 -0.1662  0.0908
 2021TIP3    H1 6069   4.933   5.902   4.928 -0.0617 -0.8749 -1.1319
 2021TIP3    H2 6070   4.808   5.824   4.897 -0.8870  0.2257 -0.6268
 2022TIP3   OH2 6071   0.105   5.020   4.958  0.2412  0.8516 -0.3535
 2022TIP3    H1 6072   0.061   5.041   4.876 -2.3105 -0.8266  0.4657
 2022TIP3    H2 6073   0.197   5.007   4.933 -0.5768 -0.4052 -3.1310
 2023TIP3   OH2 6074   0.071   5.550   2.820 -0.0188  0.0819 -0.0291
 2023TIP3    H1 6075   0.028   5.589   2.743 -1.4962 -1.7998 -0.2160
 2023TIP3    H2 6076   0.116   5.473   2.785 -0.1727 -0.4357  0.9066
 2024TIP3   OH2 6077   0.423   1.007   0.635 -0.3835 -0.0057  0.0707
 2024TIP3    H1 6078   0.451   0.999   0.727 -0.0143  1.7537  0.1581
 2024TIP3    H2 6079   0.398   0.919   0.610  0.3453 -0.7004  1.6058
 2025TIP3   OH2 6080   4.336   5.235   3.649 -0.0040 -0.0693 -0.0922
 2025TIP3    H1 6081   4.319   5.289   3.572  2.2920  0.2611 -0.4566
 2025TIP3    H2 6082   4.347   5.298   3.720 -0.3136 -0.2540  0.1193
 2026TIP3   OH2 6083   1.615   3.583   3.406  0.1430 -0.8252  0.0279
 2026TIP3    H1 6084   1.521   3.591   3.389  0.3869  1.5260 -0.5286
 2026TIP3    H2 6085   1.635   3.492   3.383 -1.5763 -0.7689 -2.0932
 2027TIP3   OH2 6086   5.163   4.563   4.730 -0.2735 -0.3404  0.5900
 2027TIP3    H1 6087   5.254   4.535   4.718 -0.0243 -0.4031  2.3677
 2027TIP3    H2 6088   5.113   4.482   4.728 -0.4052 -0.2632 -0.9534
 2028TIP3   OH2 6089   0.354   0.177   1.475  0.3635 -0.1892 -0.1118
 2028TIP3    H1 6090   0.366   0.269   1.500  0.2819 -0.1775 -0.1142
 2028TIP3    H2 6091   0.308   0.138   1.550 -0.6482  0.0438 -0.5979
 2029TIP3   OH2 6092   5.494   4.883   0.527 -0.0325  0.0243 -0.2618
 2029TIP3    H1 6093   5.413   4.883   0.578  0.6685  1.8802  0.9198
 2029TIP3    H2 6094   5.465   4.897   0.436 -0.9869  1.8482  0.2844
 2030TIP3   OH2 6095   2.490   0.228   2.622 -0.4149  0.2164 -0.3947
 2030TIP3    H1 6096   2.505   0.271   2.538  0.2747  0.1915 -0.2920
 2030TIP3    H2 6097   2.536   0.144   2.615 -0.6785  0.0482 -0.1349
 2031TIP3   OH2 6098   3.464   0.189   3.862 -1.0706 -0.3772  0.1664
 2031TIP3    H1 6099   3.519   0.249   3.813 -0.7622 -1.3723 -0.7471
 2031TIP3    H2 6100   3.401   0.245   3.907  0.0834  0.7080  0.4839
 2032TIP3   OH2 6101   0.301   0.637   2.024 -0.0534  0.2546 -0.3045
 2032TIP3    H1 6102   0.302   0.629   2.119 -1.4946 -1.1691 -0.3661
 2032TIP3    H2 6103   0.222   0.688   2.005 -1.0029 -1.3471 -0.8049
 2033TIP3   OH2 6104   1.884   4.678   2.375 -0.6652 -0.1784  0.6222
 2033TIP3    H1 6105   1.844   4.757   2.412  0.2366  0.7793 -0.3398
 2033TIP3    H2 6106   1.966   4.668   2.424 -1.0841 -0.9379  1.1974
 2034TIP3   OH2 6107   2.162   1.696   3.151  0.8240 -0.0708  0.3158
 2034TIP3    H1 6108   2.070   1.693   3.175  0.2570 -1.1833 -1.7930
 2034TIP3    H2 6109   2.194   1.778   3.189 -1.0414  0.4138  0.9535
 2035TIP3   OH2 6110   1.101   5.983   0.182 -0.2488 -0.0494 -0.2227
 2035TIP3    H1 6111   1.058   5.959   0.264 -0.6597  1.7693  0.1388
 2035TIP3    H2 6112   1.033   5.972   0.115 -0.4856  0.2358 -0.0337
 2036TIP3   OH2 6113   4.624   3.452   4.620 -0.0381 -0.1777  0.2983
 2036TIP3    H1 6114   4.641   3.510   4.546 -0.0921 -0.0691  0.3711
 2036TIP3    H2 6115   4.543   3.405   4.597 -0.1491 -0.0191  0.3644
 2037TIP3   OH2 6116   5.221   5.879   1.919  0.1717  0.6110  0.2724
 2037TIP3    H1 6117   5.229   5.786   1.897 -0.4001  0.4652  0.6595
 2037TIP3    H2 6118   5.309   5.914   1.906  0.2966  0.1087 -0.2906
 2038TIP3   OH2 6119   5.256   1.948   1.752  0.4476  0.4715  0.6915
 2038TIP3    H1 6120   5.341   1.992   1.751  0.2435  0.9181 -1.0242
 2038TIP3    H2 6121   5.212   1.980   1.673 -0.4209 -1.4693  0.3411
 2039TIP3   OH2 6122   3.435   1.281   3.276 -0.1911 -0.3718  0.5332
 2039TIP3    H1 6123   3.389   1.203   3.243  0.7705 -0.8060  0.1800
 2039TIP3    H2 6124   3.525   1.251   3.292  0.7156  1.0916 -1.3811
 2040TIP3   OH2 6125   2.238   4.883   4.448 -0.2838 -0.1151 -0.0490
 2040TIP3    H1 6126   2.333   4.888   4.436 -0.4803 -0.7474 -2.3236
 2040TIP3    H2 6127   2.227   4.850   4.537  1.7020 -2.1697 -0.4551
 2041TIP3   OH2 6128   1.539   5.229   3.948 -0.1507 -0.1403 -0.4815
 2041TIP3    H1 6129   1.462   5.177   3.971 -0.2243  0.0266 -0.3540
 2041TIP3    H2 6130   1.554   5.210   3.855  0.0331 -0.6665 -0.3524
 2042TIP3   OH2 6131   3.011   0.362   0.435  0.5515 -0.1305 -0.4445
 2042TIP3    H1 6132   2.946   0.411   0.484 -0.1288 -0.7818 -0.6775
 2042TIP3    H2 6133   3.014   0.276   0.479  2.4894  0.4164  0.6278
 2043TIP3   OH2 6134   5.914   0.041   2.916  0.5393  0.2079  0.4971
 2043TIP3    H1 6135   5.901   0.080   3.002  0.6856 -0.4395  0.8203
 2043TIP3    H2 6136   6.009   0.045   2.902  0.4740  0.6728  0.1940
 2044TIP3   OH2 6137   4.135   1.916   3.608 -0.0261  0.3192  0.6951
 2044TIP3    H1 6138   4.053   1.944   3.566  1.1265 -0.2217 -2.1577
 2044TIP3    H2 6139   4.193   1.992   3.601  1.0596 -0.6176 -1.3188
 2045TIP3   OH2 6140   4.800   1.791   2.201 -0.0153  0.5775  0.2589
 2045TIP3    H1 6141   4.743   1.724   2.164 -0.0366  1.2439 -0.9927
 2045TIP3    H2 6142   4.790   1.783   2.296  1.0195 -2.0639  0.2138
 2046TIP3   OH2 6143   3.434   4.232   1.254  0.7307  0.1923  0.1074
 2046TIP3    H1 6144   3.342   4.248   1.232  0.9185  0.4008 -0.5329
 2046TIP3    H2 6145   3.437   4.139   1.277 -0.1843  0.7433  2.9414
 2047TIP3   OH2 6146   2.316   3.957   3.753 -0.3035  0.0083  0.1960
 2047TIP3    H1 6147   2.260   4.029   3.784 -0.9531  0.3331 -1.6214
 2047TIP3    H2 6148   2.279   3.933   3.668 -0.0635 -2.4551  0.7306
 2048TIP3   OH2 6149   4.633   3.987   5.159  0.0016 -0.4640  0.6926
 2048TIP3    H1 6150   4.687   3.992   5.238  0.0091 -2.2243  0.8374
 2048TIP3    H2 6151   4.652   4.067   5.111 -0.2765  0.8320  2.6376
 2049TIP3   OH2 6152   2.651   5.943   3.890 -0.0252 -0.3045 -0.1833
 2049TIP3    H1 6153   2.652   5.956   3.795 -0.7646  2.7467  0.1093
 2049TIP3    H2 6154   2.727   5.992   3.922  0.0896 -1.1161  0.8371
 2050TIP3   OH2 6155   4.188   5.709   4.725 -0.5287 -0.0443  0.0747
 2050TIP3    H1 6156   4.268   5.741   4.684 -0.0245 -0.9180  0.3473
 2050TIP3    H2 6157   4.194   5.614   4.718  0.1170 -0.3308  3.0976
 2051TIP3   OH2 6158   1.285   3.188   2.530 -0.2493 -0.1119 -1.1354
 2051TIP3    H1 6159   1.372   3.228   2.536 -0.0367 -0.5640 -1.1767
 2051TIP3    H2 6160   1.293   3.125   2.458 -0.3083 -0.9011 -0.4582
 2052TIP3   OH2 6161   3.820   5.806   2.376 -0.4184  0.4629  0.1015
 2052TIP3    H1 6162   3.817   5.761   2.461  0.6604 -0.1131 -0.1399
 2052TIP3    H2 6163   3.846   5.738   2.314 -2.2839  0.6222 -0.9087
 2053TIP3   OH2 6164   4.518   0.437   2.959 -0.3390  0.2028 -0.3048
 2053TIP3    H1 6165   4.450   0.496   2.924  1.4819  1.8918 -1.1877
 2053TIP3    H2 6166   4.530   0.466   3.049  0.4099  1.1093 -0.6764
 2054TIP3   OH2 6167   3.455   3.350   4.624  0.0522  0.2627  0.5416
 2054TIP3    H1 6168   3.454   3.443   4.603  0.7238  0.3528  0.9023
 2054TIP3    H2 6169   3.368   3.334   4.661 -0.9622  0.2150 -1.6762
 2055TIP3   OH2 6170   0.997   3.020   0.716  0.1781  0.1131 -0.5955
 2055TIP3    H1 6171   0.903   3.030   0.731  0.1496 -1.3183  0.2834
 2055TIP3    H2 6172   1.003   2.995   0.623 -0.3026  0.1675 -0.6477
 2056TIP3   OH2 6173   1.571  -0.025   0.484  0.5234 -0.5342 -0.1225
 2056TIP3    H1 6174   1.636   0.007   0.546 -0.2585  0.8678  0.0195
 2056TIP3    H2 6175   1.574   0.038   0.411 -0.8518 -0.2682  0.0231
 2057TIP3   OH2 6176   4.950   0.028   2.522 -0.1915 -0.2646  0.5567
 2057TIP3    H1 6177   4.920   0.023   2.612  0.9800 -2.2541  0.8931
 2057TIP3    H2 6178   4.874   0.001   2.470 -1.2744  2.0851  0.7736
 2058TIP3   OH2 6179   3.944   0.718   3.663  0.6342 -0.3551  0.3627
 2058TIP3    H1 6180   4.019   0.674   3.702  0.6832 -0.8488 -0.2798
 2058TIP3    H2 6181   3.880   0.725   3.734  1.8826  1.5165  1.3671
 2059TIP3   OH2 6182   3.815   0.583   2.670 -0.3964 -0.4691 -0.0869
 2059TIP3    H1 6183   3.807   0.646   2.598 -0.9095 -1.6052 -1.0506
 2059TIP3    H2 6184   3.905   0.551   2.665 -0.4505 -0.5929 -0.2636
 2060TIP3   OH2 6185   0.577   1.914   0.053 -0.6147 -0.5330  0.3067
 2060TIP3    H1 6186   0.526   1.834   0.052  0.7386 -1.4257  0.1861
 2060TIP3    H2 6187   0.565   1.951  -0.035 -0.6817 -0.9878  0.1207
 2061TIP3   OH2 6188   4.583   1.680   2.497  0.0416 -0.2863 -0.3545
 2061TIP3    H1 6189   4.654   1.743   2.484 -0.0985 -0.3150 -1.2993
 2061TIP3    H2 6190   4.563   1.686   2.591  3.2502 -2.3620  0.6207
 2062TIP3   OH2 6191   4.301   0.358   2.407 -0.2340 -0.0774 -0.5454
 2062TIP3    H1 6192   4.277   0.282   2.355 -0.4575  0.5114 -1.3274
 2062TIP3    H2 6193   4.382   0.333   2.451  0.6400 -0.1796 -2.1382
 2063TIP3   OH2 6194   5.474   3.680   1.879  0.1331 -0.3869  0.3951
 2063TIP3    H1 6195   5.456   3.597   1.836  3.3135 -0.5892 -0.8453
 2063TIP3    H2 6196   5.567   3.677   1.900  0.6965  3.2435 -0.7366
 2064TIP3   OH2 6197   4.929   3.960   4.354  0.0836 -0.1826 -0.5392
 2064TIP3    H1 6198   5.019   3.933   4.374  1.0727  1.9733 -1.6566
 2064TIP3    H2 6199   4.923   3.954   4.258 -0.2776  1.5197 -0.6512
 2065TIP3   OH2 6200   5.463   4.341   2.307  0.1405 -0.1641 -0.3482
 2065TIP3    H1 6201   5.472   4.429   2.269 -0.5684  0.2325  0.3593
 2065TIP3    H2 6202   5.382   4.307   2.268  0.7045 -0.7448 -1.0496
 2066TIP3   OH2 6203   4.783   5.224   1.013 -0.3151 -0.0799  0.4298
 2066TIP3    H1 6204   4.754   5.303   1.058  1.7784  1.1594 -0.2568
 2066TIP3    H2 6205   4.834   5.256   0.939  1.0094 -2.0706  0.4133
 2067TIP3   OH2 6206   4.552   1.316   0.499  0.8644 -0.1534  0.4124
 2067TIP3    H1 6207   4.617   1.246   0.510  0.6244 -0.5934 -0.8596
 2067TIP3    H2 6208   4.488   1.280   0.438  0.4589  1.0025  0.1403
 2068TIP3   OH2 6209   0.639   2.762   2.587  0.3441  0.2916 -0.5162
 2068TIP3    H1 6210   0.642   2.856   2.599 -0.0536  0.1097  1.3301
 2068TIP3    H2 6211   0.700   2.727   2.653 -0.0794 -0.7616 -0.6571
 2069TIP3   OH2 6212   0.039   2.850   2.174  0.4791 -0.6561  0.0541
 2069TIP3    H1 6213  -0.044   2.836   2.221  0.1019  0.6905 -0.1766
 2069TIP3    H2 6214   0.048   2.772   2.119 -1.1959 -0.3641 -0.7157
 2070TIP3   OH2 6215   1.327   5.900   2.027  0.6814  0.0135 -0.3952
 2070TIP3    H1 6216   1.389   5.943   1.969  1.1751 -0.3235 -0.1262
 2070TIP3    H2 6217   1.379   5.835   2.074 -0.1201 -1.2093 -1.1210
 2071TIP3   OH2 6218   2.257   4.404   2.277  0.5441 -0.0491  0.0788
 2071TIP3    H1 6219   2.245   4.409   2.182  0.3881 -1.7369 -0.0324
 2071TIP3    H2 6220   2.212   4.323   2.302  3.0843 -1.2464  1.1326
 2072TIP3   OH2 6221   2.792   0.481   0.279  0.0697  0.0549  0.2596
 2072TIP3    H1 6222   2.730   0.458   0.210  0.4760  1.0299 -0.4644
 2072TIP3    H2 6223   2.862   0.416   0.272 -1.8126 -2.4157  2.4973
 2073TIP3   OH2 6224   3.117   5.435   0.247 -0.4391 -0.1132  0.0707
 2073TIP3    H1 6225   3.085   5.431   0.157  2.4928  0.2784 -1.1010
 2073TIP3    H2 6226   3.206   5.470   0.240 -0.3355  0.6332  3.2119
 2074TIP3   OH2 6227   3.171   5.760   1.806  0.4484  0.0885 -0.3160
 2074TIP3    H1 6228   3.177   5.812   1.725  1.8306 -0.1077 -0.3617
 2074TIP3    H2 6229   3.124   5.817   1.867  0.2380  0.6283 -0.9574
 2075TIP3   OH2 6230   6.243   3.526   4.433  0.2872  0.3305 -0.2463
 2075TIP3    H1 6231   6.287   3.611   4.425 -0.1074  0.4885 -0.8262
 2075TIP3    H2 6232   6.285   3.484   4.508  0.5586  0.9962 -0.0161
 2076TIP3   OH2 6233   2.870   3.245   1.033  0.5502  0.8472 -0.4846
 2076TIP3    H1 6234   2.842   3.181   1.099  0.3275  1.0926 -0.3428
 2076TIP3    H2 6235   2.963   3.228   1.021  0.2268 -0.4567 -1.4773
 2077TIP3   OH2 6236   2.105   0.680   1.609 -0.4754  0.2104  0.0055
 2077TIP3    H1 6237   2.171   0.746   1.589 -1.3529  1.8412  2.0911
 2077TIP3    H2 6238   2.133   0.644   1.693 -1.4604 -0.1239  0.1957
 2078TIP3   OH2 6239   5.887   4.192   3.519  0.1424  0.7658 -0.3026
 2078TIP3    H1 6240   5.836   4.113   3.534 -0.2656  1.0269 -0.2765
 2078TIP3    H2 6241   5.841   4.237   3.447  0.8743  0.5476 -0.9207
 2079TIP3   OH2 6242   3.427   4.172   5.032 -0.2082  0.1426 -0.0266
 2079TIP3    H1 6243   3.336   4.183   5.060 -0.1192 -0.3768  0.4682
 2079TIP3    H2 6244   3.420   4.134   4.944 -0.4877  1.9854 -0.8464
 2080TIP3   OH2 6245   3.932   3.666   2.598 -0.1943  0.1027  0.0787
 2080TIP3    H1 6246   3.922   3.605   2.671 -0.4057 -0.7725 -0.6613
 2080TIP3    H2 6247   3.843   3.693   2.576 -0.0660  1.2355  0.8322
 2081TIP3   OH2 6248   3.304   2.990   4.646  0.2191  0.3229 -0.0099
 2081TIP3    H1 6249   3.297   2.993   4.551 -1.0656 -2.5868 -0.1066
 2081TIP3    H2 6250   3.396   2.968   4.663 -0.4941 -4.4942 -0.9926
 2082TIP3   OH2 6251   2.047   4.162   4.986  0.0093  0.2720 -0.2131
 2082TIP3    H1 6252   2.128   4.113   4.970 -0.9539 -1.5251  0.1005
 2082TIP3    H2 6253   2.017   4.131   5.071 -0.7316  1.3330 -0.0676
 2083TIP3   OH2 6254   5.525   2.184   4.998  0.4212 -0.2537 -0.0276
 2083TIP3    H1 6255   5.504   2.091   5.008  0.7543 -0.3497 -0.2011
 2083TIP3    H2 6256   5.566   2.209   5.081 -0.8322  0.0665  0.5175
 2084TIP3   OH2 6257   3.557   3.660   3.608 -0.1706 -0.2005 -0.2176
 2084TIP3    H1 6258   3.499   3.584   3.603  0.4250 -0.6460 -0.4783
 2084TIP3    H2 6259   3.600   3.653   3.693 -3.1450  2.1215  1.6763
 2085TIP3   OH2 6260   1.818   5.736   3.508  0.0725 -0.8352 -0.5615
 2085TIP3    H1 6261   1.867   5.656   3.489  1.7757  0.6758 -3.1033
 2085TIP3    H2 6262   1.726   5.709   3.506  0.6178 -2.8546 -0.5952
 2086TIP3   OH2 6263   6.101   1.362   4.172 -0.6755  0.1771  0.3263
 2086TIP3    H1 6264   6.059   1.439   4.210 -0.9423  0.0955  0.1991
 2086TIP3    H2 6265   6.165   1.335   4.238 -0.6405  0.4559  0.4089
 2087TIP3   OH2 6266   3.690   0.343   4.433  0.5385  0.2744  0.5363
 2087TIP3    H1 6267   3.657   0.345   4.522  1.9643 -0.3805  1.1104
 2087TIP3    H2 6268   3.785   0.345   4.442  0.6990  1.0130 -1.0033
 2088TIP3   OH2 6269   4.800   1.096   1.674 -0.6539  0.4129  0.3025
 2088TIP3    H1 6270   4.887   1.105   1.713  0.1865  0.0123 -1.3724
 2088TIP3    H2 6271   4.752   1.172   1.706  0.2820  0.5824  1.3592
 2089TIP3   OH2 6272   5.121   5.073   1.370  0.2527 -0.2192 -0.0009
 2089TIP3    H1 6273   5.081   5.154   1.338  0.3561 -0.3471 -0.4642
 2089TIP3    H2 6274   5.055   5.033   1.426 -2.2910 -2.8095 -4.2777
 2090TIP3   OH2 6275   0.759   5.671   1.464  0.1728  0.6669  0.3507
 2090TIP3    H1 6276   0.709   5.729   1.522 -0.0758 -1.2426  2.2011
 2090TIP3    H2 6277   0.764   5.588   1.512  0.5407 -0.8555 -2.1237
 2091TIP3   OH2 6278   1.624   0.288   1.217  0.1238 -1.0849 -0.1905
 2091TIP3    H1 6279   1.634   0.297   1.122  2.5177  2.0325  0.2010
 2091TIP3    H2 6280   1.569   0.362   1.243  2.0045 -0.0593  1.0959
 2092TIP3   OH2 6281   0.953   3.657   0.803  0.1724 -0.1468  0.2486
 2092TIP3    H1 6282   1.016   3.651   0.875  0.6092 -0.3353 -0.1465
 2092TIP3    H2 6283   0.894   3.583   0.818  2.1438 -2.1929 -1.3476
 2093TIP3   OH2 6284   2.455   0.940   0.881  0.9571 -0.4066 -0.3331
 2093TIP3    H1 6285   2.369   0.926   0.841  0.2828  0.5433  0.7192
 2093TIP3    H2 6286   2.495   0.853   0.882  0.7729 -0.5705 -2.4678
 2094TIP3   OH2 6287   4.520   3.484   1.290  0.8333 -0.1908 -0.1728
 2094TIP3    H1 6288   4.479   3.508   1.207 -0.5843 -1.5845  0.0632
 2094TIP3    H2 6289   4.491   3.552   1.352 -1.1746 -1.1213 -0.0251
 2095TIP3   OH2 6290   4.431   4.704   5.070  0.3481 -0.0825  0.4824
 2095TIP3    H1 6291   4.518   4.706   5.031  0.1296 -1.5675 -0.1610
 2095TIP3    H2 6292   4.389   4.784   5.040 -0.4514 -1.8862 -3.9796
 2096TIP3   OH2 6293   0.297   2.012   4.621  0.2956 -0.2715 -0.4551
 2096TIP3    H1 6294   0.259   2.022   4.534 -0.5795  1.5987  0.0798
 2096TIP3    H2 6295   0.381   2.057   4.616  0.7060 -1.0306 -0.5787
 2097TIP3   OH2 6296   3.875   3.977   5.081  0.4455  0.0039  0.0380
 2097TIP3    H1 6297   3.954   3.965   5.029 -0.7546 -1.2634 -1.5759
 2097TIP3    H2 6298   3.809   3.923   5.039 -1.3203  1.0207  1.3295
 2098TIP3   OH2 6299   3.163   0.151   2.875 -0.2368  0.1627 -0.2979
 2098TIP3    H1 6300   3.173   0.114   2.787  2.8711 -1.5648  0.6274
 2098TIP3    H2 6301   3.226   0.222   2.879 -1.1344  0.9589  0.2328
 2099TIP3   OH2 6302   0.725   3.836   3.948  0.0135  0.0504  0.3098
 2099TIP3    H1 6303   0.793   3.875   4.003  0.7812 -0.4911 -0.2414
 2099TIP3    H2 6304   0.665   3.909   3.929 -0.9524  0.0242  2.8142
 2100TIP3   OH2 6305   2.785   0.692   4.206 -0.4257  0.2287 -0.2058
 2100TIP3    H1 6306   2.720   0.646   4.259  0.8319 -0.9782  0.3382
 2100TIP3    H2 6307   2.771   0.660   4.117  0.1302 -0.8887  0.0933
 2101TIP3   OH2 6308   5.399   3.162   1.119 -0.5094 -0.1841  0.0063
 2101TIP3    H1 6309   5.403   3.117   1.203  0.2285 -1.0110 -0.4590
 2101TIP3    H2 6310   5.459   3.236   1.128  1.5676 -1.7187 -0.6107
 2102TIP3   OH2 6311   1.866   3.943   4.781 -0.1410  0.8283 -0.2982
 2102TIP3    H1 6312   1.920   4.014   4.816 -0.7786  0.5431  1.3114
 2102TIP3    H2 6313   1.877   3.950   4.686  2.9963  0.5545 -0.0382
 2103TIP3   OH2 6314   2.409   4.767   1.254  0.6215 -0.0513 -0.0885
 2103TIP3    H1 6315   2.446   4.688   1.215  0.0153 -0.5879  0.4001
 2103TIP3    H2 6316   2.401   4.746   1.347 -0.5748  0.1706 -0.1263
 2104TIP3   OH2 6317   6.111   0.486   4.568  0.0813 -0.0734 -0.0622
 2104TIP3    H1 6318   6.024   0.511   4.538  0.1468 -0.6453 -0.7568
 2104TIP3    H2 6319   6.168   0.555   4.534  0.1969 -0.8696 -1.5746
 2105TIP3   OH2 6320   0.625   1.375   3.595 -0.4551  0.5580 -0.2835
 2105TIP3    H1 6321   0.713   1.408   3.576 -0.3057  0.3820  0.0921
 2105TIP3    H2 6322   0.589   1.438   3.658 -0.2012  0.0654  0.3715
 2106TIP3   OH2 6323   4.095   5.811   3.469 -0.3863 -0.5896  1.0085
 2106TIP3    H1 6324   4.078   5.769   3.385 -0.6644  1.4475 -0.0191
 2106TIP3    H2 6325   4.066   5.747   3.534 -2.8569 -1.1280 -0.4834
 2107TIP3   OH2 6326   2.422   1.967   3.525 -0.0458  0.0263 -0.2953
 2107TIP3    H1 6327   2.473   1.891   3.554  2.5719  1.8170  0.1981
 2107TIP3    H2 6328   2.417   2.023   3.602  0.1359  1.3723 -1.2292
 2108TIP3   OH2 6329   4.466   0.370   2.128  0.2662  0.2788 -0.0482
 2108TIP3    H1 6330   4.380   0.348   2.092 -0.0325  1.1503  0.1100
 2108TIP3    H2 6331   4.496   0.288   2.168 -0.4825 -0.0438 -0.1128
 2109TIP3   OH2 6332   2.378   3.553   0.324  0.1297  0.4396  0.3753
 2109TIP3    H1 6333   2.332   3.469   0.331 -0.8490  0.9792  0.5960
 2109TIP3    H2 6334   2.418   3.565   0.410 -0.9167  0.8506  0.8262
 2110TIP3   OH2 6335   4.362   2.966   3.392  0.0638 -0.2862 -0.4209
 2110TIP3    H1 6336   4.409   2.992   3.471 -1.0250  0.6631 -0.0648
 2110TIP3    H2 6337   4.378   2.872   3.385  0.7334 -0.2592  0.5357
 2111TIP3   OH2 6338   5.926   3.187   4.229  0.0321  0.0366 -0.8475
 2111TIP3    H1 6339   5.965   3.273   4.211 -0.1837  0.0896 -1.0535
 2111TIP3    H2 6340   5.984   3.125   4.184 -0.3619  0.1485 -1.5112
 2112TIP3   OH2 6341   5.396   3.401   0.292 -0.2328 -0.0080  0.2446
 2112TIP3    H1 6342   5.333   3.352   0.345 -0.1467  1.9702  2.3008
 2112TIP3    H2 6343   5.343   3.464   0.244  0.0860  2.1426  2.5124
 2113TIP3   OH2 6344   0.833   0.652   2.244 -0.2900 -0.4370  0.8288
 2113TIP3    H1 6345   0.919   0.614   2.264 -0.4293 -2.2764 -1.6583
 2113TIP3    H2 6346   0.853   0.729   2.190 -0.1944 -0.2115  1.1797
 2114TIP3   OH2 6347   4.628   3.418   2.339  0.3434  0.3631 -0.6246
 2114TIP3    H1 6348   4.573   3.421   2.418  1.5519  1.0207  0.2318
 2114TIP3    H2 6349   4.567   3.402   2.267 -0.6666 -1.6221  0.5815
 2115TIP3   OH2 6350   2.554   3.898   0.191  0.3781  0.4606 -0.2991
 2115TIP3    H1 6351   2.554   3.835   0.119  1.5200 -2.8229  2.2983
 2115TIP3    H2 6352   2.471   3.882   0.236  0.8832  0.4483  0.6465
 2116TIP3   OH2 6353   3.151   4.550   2.350  0.5077 -0.3575 -0.3195
 2116TIP3    H1 6354   3.120   4.463   2.322  0.0522 -0.8457  1.5666
 2116TIP3    H2 6355   3.244   4.538   2.369  0.1429 -0.8618  1.3512
 2117TIP3   OH2 6356   3.164   3.306   0.217  0.2412 -0.0005  0.3381
 2117TIP3    H1 6357   3.251   3.265   0.213  1.0924  1.5880  1.6288
 2117TIP3    H2 6358   3.144   3.311   0.310 -0.5173  1.1007  0.1308
 2118TIP3   OH2 6359   2.911   4.848   0.374 -0.3265  0.6305  0.0606
 2118TIP3    H1 6360   2.847   4.810   0.313 -1.5322  1.8355  0.5169
 2118TIP3    H2 6361   2.983   4.878   0.318  1.1458 -2.9733 -0.2628
 2119TIP3   OH2 6362   0.906   3.281   1.694 -0.1526  0.1897  0.3203
 2119TIP3    H1 6363   0.838   3.235   1.744 -0.8844  0.4457 -0.4170
 2119TIP3    H2 6364   0.878   3.372   1.694 -0.2302  0.1764 -0.6413
 2120TIP3   OH2 6365   2.950   5.946   4.097  0.3321  0.4213  0.0368
 2120TIP3    H1 6366   2.942   6.015   4.031 -0.6073  0.6734  0.4007
 2120TIP3    H2 6367   2.949   5.865   4.047 -0.0905  0.6205 -0.2772
 2121TIP3   OH2 6368   2.880   2.773   3.661 -0.1074  0.3463 -0.1914
 2121TIP3    H1 6369   2.846   2.858   3.634  0.0451  1.1980  2.0737
 2121TIP3    H2 6370   2.820   2.742   3.728  0.7390 -0.5555  0.1902
 2122TIP3   OH2 6371   3.541   5.085   0.960 -0.2505  0.4062 -0.0599
 2122TIP3    H1 6372   3.463   5.140   0.967  0.0472  0.6166  2.6728
 2122TIP3    H2 6373   3.608   5.132   1.011  0.2107 -2.1079  1.8338
 2123TIP3   OH2 6374   1.828   2.276   0.182  0.1487 -0.1203 -0.3553
 2123TIP3    H1 6375   1.749   2.325   0.161  0.1763  0.5382  0.9771
 2123TIP3    H2 6376   1.802   2.217   0.252  0.8780  0.2980  0.2919
 2124TIP3   OH2 6377   1.197   1.574   2.129 -0.3196  0.2788 -0.3731
 2124TIP3    H1 6378   1.119   1.521   2.113 -0.3370  0.4829 -1.0120
 2124TIP3    H2 6379   1.211   1.569   2.223 -1.8279  1.2502 -0.0666
 2125TIP3   OH2 6380   0.901   0.870   0.078  0.0194 -0.8075  0.5927
 2125TIP3    H1 6381   0.873   0.923   0.004 -0.1041 -0.5636  0.8114
 2125TIP3    H2 6382   0.898   0.780   0.046 -0.7542 -0.7629  0.5303
 2126TIP3   OH2 6383   5.921   3.471   2.035 -0.2541  0.2470  0.2096
 2126TIP3    H1 6384   5.858   3.404   2.008 -1.1184  0.8182  0.7305
 2126TIP3    H2 6385   6.005   3.426   2.039 -1.0320 -1.1329  1.8448
 2127TIP3   OH2 6386   3.023   1.803   0.327 -0.4344  0.0276  0.3735
 2127TIP3    H1 6387   3.058   1.765   0.247 -0.4177  1.5813 -0.3864
 2127TIP3    H2 6388   2.934   1.769   0.333  0.3266 -2.0189  1.0346
 2128TIP3   OH2 6389   1.158   5.956   1.404  0.2027 -0.2569  0.4494
 2128TIP3    H1 6390   1.101   5.897   1.354 -0.3325 -0.0479  0.8023
 2128TIP3    H2 6391   1.244   5.947   1.363  0.1212 -1.2519  0.4727
 2129TIP3   OH2 6392   4.654   1.161   2.470 -0.0917 -0.2869  0.5610
 2129TIP3    H1 6393   4.621   1.238   2.516 -1.0144 -0.2639 -0.1069
 2129TIP3    H2 6394   4.577   1.105   2.458  0.5104 -1.1844  0.7759
 2130TIP3   OH2 6395   2.241   0.953   3.685  0.0198 -0.0641  0.7255
 2130TIP3    H1 6396   2.287   0.965   3.768 -0.9487  0.3818  1.2030
 2130TIP3    H2 6397   2.281   1.019   3.627 -0.9098  1.2387  1.5244
 2131TIP3   OH2 6398   1.502   2.055   2.220  0.1680 -0.2113 -0.1016
 2131TIP3    H1 6399   1.465   2.138   2.248  2.5940  0.4396  1.6026
 2131TIP3    H2 6400   1.470   2.042   2.131 -1.7936  1.5765  0.2787
 2132TIP3   OH2 6401   4.184   2.889   0.118 -1.2705  0.5042  0.0989
 2132TIP3    H1 6402   4.262   2.924   0.160 -0.3948 -2.4622  1.2002
 2132TIP3    H2 6403   4.116   2.894   0.186 -0.4989 -1.9923  1.1707
 2133TIP3   OH2 6404   3.693   1.165   3.289  0.2270 -0.4157  0.0032
 2133TIP3    H1 6405   3.704   1.127   3.201  0.2999  0.7524 -0.5050
 2133TIP3    H2 6406   3.777   1.147   3.332  1.3336  1.5185 -1.1788
 2134TIP3   OH2 6407   2.382   0.552   2.608 -0.5096 -0.1245  0.2575
 2134TIP3    H1 6408   2.365   0.475   2.662 -1.1853  0.0151  0.2435
 2134TIP3    H2 6409   2.356   0.626   2.663 -2.7699 -0.0431 -0.8212
 2135TIP3   OH2 6410   2.997   1.507   2.901 -0.3247  0.3138  0.2817
 2135TIP3    H1 6411   2.934   1.473   2.838 -0.6231  0.1586  0.6581
 2135TIP3    H2 6412   2.999   1.441   2.970 -1.2248  1.2536  1.2377
 2136TIP3   OH2 6413   3.981   0.217   1.675  0.2292 -0.2765  0.7239
 2136TIP3    H1 6414   3.897   0.248   1.642  1.1616 -0.1638 -1.6803
 2136TIP3    H2 6415   3.986   0.252   1.764 -1.5157  1.1431  0.3051
 2137TIP3   OH2 6416   5.023   1.694   4.903  0.2362 -0.3529 -0.1685
 2137TIP3    H1 6417   5.033   1.600   4.893  1.2137 -0.4097  1.1283
 2137TIP3    H2 6418   4.941   1.705   4.952  0.4236 -0.5670  0.1957
 2138TIP3   OH2 6419   4.717   3.161   5.105 -0.2145  0.2582 -0.2949
 2138TIP3    H1 6420   4.624   3.141   5.094 -0.1500 -0.1166 -0.1451
 2138TIP3    H2 6421   4.760   3.113   5.035 -0.0511 -0.1985  0.1215
 2139TIP3   OH2 6422   3.830   0.519   3.084  0.2276 -0.1003  0.1334
 2139TIP3    H1 6423   3.788   0.517   3.170  1.2238 -1.5270  0.6218
 2139TIP3    H2 6424   3.870   0.433   3.075  1.3549  0.5254 -1.1584
 2140TIP3   OH2 6425   1.558   0.845   3.615 -0.0387 -0.4702  0.2470
 2140TIP3    H1 6426   1.533   0.840   3.708  0.0610 -2.7225  0.2149
 2140TIP3    H2 6427   1.478   0.824   3.568  0.5805 -2.3820 -0.0345
 2141TIP3   OH2 6428   1.198   0.260   4.361  0.0605 -0.0275  0.2856
 2141TIP3    H1 6429   1.213   0.241   4.268 -0.5312 -1.1084  0.3843
 2141TIP3    H2 6430   1.125   0.322   4.361  1.2588  1.4155 -0.0186
 2142TIP3   OH2 6431   1.146   0.377   4.104 -0.1058 -0.6967  0.2836
 2142TIP3    H1 6432   1.100   0.426   4.036 -0.7698 -1.5863  0.0762
 2142TIP3    H2 6433   1.214   0.438   4.136  1.4359 -0.8440 -2.4184
 2143TIP3   OH2 6434   5.917   0.394   0.643 -0.4939  0.2649 -1.2168
 2143TIP3    H1 6435   5.976   0.353   0.706 -1.0223  2.0782  0.5694
 2143TIP3    H2 6436   5.975   0.429   0.575  0.5422  1.7082  0.3209
 2144TIP3   OH2 6437   5.050   5.881   4.185  0.4851  0.4194 -0.4782
 2144TIP3    H1 6438   5.000   5.813   4.230  0.4377 -0.5809 -1.9579
 2144TIP3    H2 6439   4.989   5.954   4.177 -0.4115 -0.3862 -1.2841
 2145TIP3   OH2 6440   4.787   5.548   1.482 -0.1920  0.8896 -0.2458
 2145TIP3    H1 6441   4.863   5.572   1.535  1.8072 -0.5763 -2.2658
 2145TIP3    H2 6442   4.799   5.596   1.400 -0.8749 -0.1751 -0.9981
 2146TIP3   OH2 6443   0.304   5.257   3.125 -0.5189 -0.3960 -0.5301
 2146TIP3    H1 6444   0.325   5.184   3.183 -0.6577  0.3080  0.4406
 2146TIP3    H2 6445   0.244   5.220   3.060  0.3021 -1.3991 -0.7374
 2147TIP3   OH2 6446   5.994   3.374   4.504  0.0486  0.2659 -0.2719
 2147TIP3    H1 6447   5.920   3.411   4.456  0.5250 -0.2109 -1.4242
 2147TIP3    H2 6448   6.066   3.435   4.488  0.0515  0.4402  0.3861
 2148TIP3   OH2 6449   3.881   2.473   0.462  0.3462  0.3906 -0.5899
 2148TIP3    H1 6450   3.846   2.520   0.538  0.6643  1.3293 -1.0035
 2148TIP3    H2 6451   3.871   2.380   0.484 -0.4753  0.6451  0.1731
 2149TIP3   OH2 6452   4.273   1.776   0.608 -0.2532 -0.2652 -0.3533
 2149TIP3    H1 6453   4.341   1.732   0.659 -0.4627  0.0388  0.2088
 2149TIP3    H2 6454   4.272   1.865   0.643 -0.8769 -0.2421 -0.4193
 2150TIP3   OH2 6455   1.737   0.896   1.068  0.4849  0.7068  0.3635
 2150TIP3    H1 6456   1.774   0.874   0.983  0.3592 -0.0025  0.4803
 2150TIP3    H2 6457   1.759   0.821   1.124 -1.6117 -0.0564  0.2871
 2151TIP3   OH2 6458   5.811   4.156   0.358  0.3103 -0.0646 -0.5006
 2151TIP3    H1 6459   5.886   4.104   0.387 -1.0582 -2.0142 -0.2666
 2151TIP3    H2 6460   5.846   4.243   0.343  2.7988 -1.1363 -1.2967
 2152TIP3   OH2 6461   1.645   3.143   2.112 -0.5368  0.4303 -0.1302
 2152TIP3    H1 6462   1.583   3.132   2.184 -0.5538  0.2477 -0.1718
 2152TIP3    H2 6463   1.631   3.066   2.056  0.3028 -0.0378  0.2897
 2153TIP3   OH2 6464   0.185   2.719   3.185 -0.9720  0.0852 -0.1831
 2153TIP3    H1 6465   0.212   2.652   3.122  0.1414  0.3143  0.0274
 2153TIP3    H2 6466   0.264   2.736   3.237 -1.6376  0.5177  0.7118
 2154TIP3   OH2 6467   3.448   5.609   5.023  0.2020 -0.5498  0.5076
 2154TIP3    H1 6468   3.446   5.526   5.071 -1.6468 -1.0906 -0.4242
 2154TIP3    H2 6469   3.506   5.665   5.075  1.2094 -2.2836  1.3510
 2155TIP3   OH2 6470   0.760   5.750   3.973  0.4578 -0.0787 -0.2252
 2155TIP3    H1 6471   0.779   5.793   3.889  0.3425  0.8707  0.2295
 2155TIP3    H2 6472   0.665   5.748   3.978  0.4129  2.1945  1.0228
 2156TIP3   OH2 6473   5.171   1.038   2.397  0.0728  0.3124 -0.4837
 2156TIP3    H1 6474   5.211   0.963   2.353 -0.9048 -0.0593 -0.7552
 2156TIP3    H2 6475   5.091   1.056   2.347 -0.7460  0.2678  0.7737
 2157TIP3   OH2 6476   5.439   1.710   3.767 -0.0068  0.5756  0.1875
 2157TIP3    H1 6477   5.529   1.727   3.796  0.6926 -1.1395 -0.7799
 2157TIP3    H2 6478   5.450   1.660   3.686 -1.8559  1.0218 -0.3729
 2158TIP3   OH2 6479   3.816   3.154   1.308  0.4183 -0.3175 -0.0186
 2158TIP3    H1 6480   3.826   3.225   1.243  1.0659 -1.5412 -1.3253
 2158TIP3    H2 6481   3.905   3.139   1.339  0.3245 -0.7175  0.0572
 2159TIP3   OH2 6482   5.586   3.402   0.514  0.3801  0.2233  0.0446
 2159TIP3    H1 6483   5.574   3.337   0.583 -2.4226 -0.2896 -0.7985
 2159TIP3    H2 6484   5.540   3.365   0.439 -0.5053  2.7728 -0.7469
 2160TIP3   OH2 6485   3.052   2.091   2.891  0.2134 -0.6210  0.4410
 2160TIP3    H1 6486   3.063   2.174   2.937 -0.4286  0.1763 -0.7826
 2160TIP3    H2 6487   3.094   2.105   2.806 -1.0063 -1.0857 -0.2733
 2161TIP3   OH2 6488   4.094   1.661   1.374  0.5850 -0.2926 -0.0674
 2161TIP3    H1 6489   4.016   1.658   1.319 -0.1459 -1.4565  0.9658
 2161TIP3    H2 6490   4.160   1.703   1.320 -0.9291  1.3873 -0.7369
 2162TIP3   OH2 6491   2.076   4.759   0.871  0.5688 -0.2388 -0.0193
 2162TIP3    H1 6492   2.011   4.829   0.861  0.7620 -0.1048 -0.3922
 2162TIP3    H2 6493   2.159   4.806   0.879  0.5531 -0.3857  1.1392
 2163TIP3   OH2 6494   4.364   0.678   0.015  0.1269 -0.2185  0.0842
 2163TIP3    H1 6495   4.273   0.659  -0.008  0.4178 -0.9570 -0.4935
 2163TIP3    H2 6496   4.404   0.592   0.030  1.5482 -0.2144 -2.8710
 2164TIP3   OH2 6497   4.025   5.692   4.138 -0.0349  0.0148  0.0024
 2164TIP3    H1 6498   4.035   5.704   4.044 -0.4831 -0.5566 -0.1217
 2164TIP3    H2 6499   3.991   5.776   4.169 -2.8910 -0.7429 -0.8236
 2165TIP3   OH2 6500   3.483   0.144   1.507  0.1731  0.0325  0.1451
 2165TIP3    H1 6501   3.489   0.239   1.516 -0.2630 -0.0085  0.9507
 2165TIP3    H2 6502   3.396   0.129   1.468  0.7845  0.0235 -1.2978
 2166TIP3   OH2 6503   0.337   5.335   2.399  0.0467  0.1760  0.3099
 2166TIP3    H1 6504   0.286   5.299   2.327  0.0010  2.5000 -0.9055
 2166TIP3    H2 6505   0.416   5.369   2.357 -0.1762  1.9543  1.2511
 2167TIP3   OH2 6506   5.141   1.347   1.936 -0.4751 -0.1620 -0.0694
 2167TIP3    H1 6507   5.129   1.363   2.030  0.8460 -0.3850  0.1609
 2167TIP3    H2 6508   5.195   1.421   1.907 -0.9628 -0.0424 -0.6904
 2168TIP3   OH2 6509   4.016   5.402   3.177 -0.4968 -0.2141  0.2314
 2168TIP3    H1 6510   3.956   5.393   3.103 -0.3124 -1.3444  0.2020
 2168TIP3    H2 6511   4.070   5.323   3.174  1.4917  1.0752 -0.1674
 2169TIP3   OH2 6512   2.876   4.052   2.633  0.2120 -0.1148 -0.4785
 2169TIP3    H1 6513   2.800   4.077   2.685 -0.0786  0.4201 -1.1306
 2169TIP3    H2 6514   2.841   3.994   2.566  0.4216 -0.0908 -0.6108
 2170TIP3   OH2 6515   0.147   0.209   4.871 -0.2739 -0.1668 -0.0203
 2170TIP3    H1 6516   0.160   0.262   4.949  0.3747  0.2831 -0.4270
 2170TIP3    H2 6517   0.091   0.262   4.814 -1.3144 -0.7791  0.4125
 2171TIP3   OH2 6518   5.069   0.374   4.611 -0.1237  0.0596 -0.2562
 2171TIP3    H1 6519   5.158   0.409   4.620  0.3005 -1.2458  1.1252
 2171TIP3    H2 6520   5.064   0.344   4.521  1.1596 -0.5972 -0.1384
 2172TIP3   OH2 6521   3.016   2.688   0.085  0.2665  0.2294 -0.9828
 2172TIP3    H1 6522   3.014   2.706   0.179  2.7718 -1.7375 -0.4511
 2172TIP3    H2 6523   2.924   2.679   0.060 -0.5678  2.6479  0.8274
 2173TIP3   OH2 6524   1.942   0.773   2.931 -0.3529 -0.1176 -0.4632
 2173TIP3    H1 6525   1.902   0.729   3.007  0.4818 -0.8281 -0.4223
 2173TIP3    H2 6526   1.943   0.706   2.863 -0.0231  0.1624 -0.7350
 2174TIP3   OH2 6527   2.312   0.109   5.020 -0.3184  0.3266 -0.2573
 2174TIP3    H1 6528   2.326   0.075   5.108 -1.4737 -0.4886 -0.3686
 2174TIP3    H2 6529   2.259   0.188   5.032 -1.6705 -0.5474 -0.2844
 2175TIP3   OH2 6530   2.767   3.819   2.459 -0.2479  0.8097  0.9325
 2175TIP3    H1 6531   2.787   3.741   2.511 -2.2145  0.0585  0.6443
 2175TIP3    H2 6532   2.833   3.819   2.390 -2.0030 -2.4843 -0.9807
 2176TIP3   OH2 6533   4.601   1.977   3.431 -0.6096 -0.0200  0.2656
 2176TIP3    H1 6534   4.518   1.940   3.401  0.3513 -2.0823 -0.0150
 2176TIP3    H2 6535   4.582   2.012   3.518 -1.9645  0.3550 -0.1614
 2177TIP3   OH2 6536   0.207   5.832   2.397  0.0535  0.5240 -0.3518
 2177TIP3    H1 6537   0.288   5.881   2.404 -0.3064  1.1272 -0.3905
 2177TIP3    H2 6538   0.227   5.747   2.438  0.4937  0.9239  0.2738
 2178TIP3   OH2 6539   2.569   2.073   2.434 -0.1822 -0.2141 -0.8564
 2178TIP3    H1 6540   2.565   1.984   2.399  1.0913  0.2253 -2.1624
 2178TIP3    H2 6541   2.620   2.123   2.371 -1.1042  1.5408 -0.2995
 2179TIP3   OH2 6542   4.611   0.077   3.211 -0.0342  0.1396 -0.3262
 2179TIP3    H1 6543   4.568   0.077   3.296 -0.9630 -3.2241 -0.6396
 2179TIP3    H2 6544   4.684   0.139   3.220  0.1587 -0.4049  3.0363
 2180TIP3   OH2 6545   3.558   2.846   0.751  0.2173  0.8251  0.0239
 2180TIP3    H1 6546   3.569   2.823   0.843 -1.4097  0.3269  0.1150
 2180TIP3    H2 6547   3.631   2.906   0.732  1.9068 -0.8180  1.0000
 2181TIP3   OH2 6548   3.549   1.201   4.833 -0.3493 -0.3160 -0.4119
 2181TIP3    H1 6549   3.503   1.119   4.851 -0.1357 -0.5062 -0.7185
 2181TIP3    H2 6550   3.632   1.194   4.879 -0.3923 -0.2077 -0.3163
 2182TIP3   OH2 6551   6.269   4.760   1.713  0.6236 -0.0517  0.0455
 2182TIP3    H1 6552   6.197   4.818   1.736  0.6306  0.1556 -0.4322
 2182TIP3    H2 6553   6.241   4.720   1.630  1.2222  0.3279 -0.3477
 2183TIP3   OH2 6554   0.820   5.992   3.815 -0.3485  0.6189 -0.2031
 2183TIP3    H1 6555   0.779   5.943   3.744  1.8270  1.7665 -2.4098
 2183TIP3    H2 6556   0.899   5.942   3.836  0.4154  1.6765 -0.4949
 2184TIP3   OH2 6557   4.440   4.432   5.158 -0.3434  0.2351  0.4506
 2184TIP3    H1 6558   4.398   4.409   5.242  0.8623  0.0699  1.0235
 2184TIP3    H2 6559   4.430   4.527   5.152 -1.8643  0.0783 -0.0240
 2185TIP3   OH2 6560   2.902   1.662   2.163  0.2255  0.3271 -0.2175
 2185TIP3    H1 6561   2.856   1.654   2.247 -0.9225  0.3894 -0.8252
 2185TIP3    H2 6562   2.897   1.755   2.142  0.8793  0.3818 -0.1719
 2186TIP3   OH2 6563   2.123   0.067   2.404  0.1025  0.8973 -0.1345
 2186TIP3    H1 6564   2.194   0.005   2.421  1.1655  1.4060 -2.3461
 2186TIP3    H2 6565   2.167   0.145   2.370 -1.4315  1.7299 -0.2918
 2187TIP3   OH2 6566   2.693   4.883   1.482  0.2248 -0.3340 -0.0363
 2187TIP3    H1 6567   2.694   4.956   1.421 -0.4700  0.7265  1.1617
 2187TIP3    H2 6568   2.755   4.820   1.446 -0.9639 -0.2524 -2.3825
 2188TIP3   OH2 6569   2.770   2.406   2.056 -0.0868 -0.0326  0.4354
 2188TIP3    H1 6570   2.713   2.429   1.983 -0.4728  0.0737  0.7664
 2188TIP3    H2 6571   2.845   2.466   2.047  1.1473 -1.7210 -1.3652
 2189TIP3   OH2 6572   2.666   1.607   4.501  0.4637  0.2261 -0.0104
 2189TIP3    H1 6573   2.621   1.536   4.455  3.7346 -1.4130 -0.9403
 2189TIP3    H2 6574   2.628   1.607   4.589 -2.2044 -0.1142 -1.0804
 2190TIP3   OH2 6575   5.019   3.349   5.134 -0.5847 -0.2429  0.0302
 2190TIP3    H1 6576   5.069   3.430   5.127 -0.4207 -0.0922  2.2226
 2190TIP3    H2 6577   4.928   3.375   5.117 -0.4538  0.2736  0.1137
 2191TIP3   OH2 6578   0.157   5.563   4.703 -0.6231 -0.1049 -0.0455
 2191TIP3    H1 6579   0.217   5.554   4.628  0.3243  0.0089  0.6795
 2191TIP3    H2 6580   0.094   5.492   4.692  0.4372 -1.0603 -0.1210
 2192TIP3   OH2 6581   2.971   4.703   2.992 -0.5637  0.2355 -0.3491
 2192TIP3    H1 6582   2.914   4.629   3.010 -1.1846  0.3230 -1.8316
 2192TIP3    H2 6583   2.994   4.694   2.899  2.5543 -0.2838  0.3459
 2193TIP3   OH2 6584   0.985   1.591   0.874 -0.2406 -0.1969  0.4211
 2193TIP3    H1 6585   1.051   1.615   0.809  0.9329 -0.8097  1.3381
 2193TIP3    H2 6586   0.964   1.500   0.854 -2.4108  0.5765 -1.1582
 2194TIP3   OH2 6587   5.792   4.620   1.788 -0.2042  0.1389  0.4692
 2194TIP3    H1 6588   5.716   4.565   1.768 -0.5784  0.9483 -0.4253
 2194TIP3    H2 6589   5.790   4.630   1.883 -0.3316 -1.0936  0.6110
 2195TIP3   OH2 6590   5.752   0.586   3.426 -0.0652 -0.3037  0.1164
 2195TIP3    H1 6591   5.723   0.665   3.471  0.5707  0.1319 -0.2089
 2195TIP3    H2 6592   5.788   0.530   3.495  0.8821  0.3502  0.1685
 2196TIP3   OH2 6593   5.359   2.160   3.839 -0.3527  0.3305 -0.5268
 2196TIP3    H1 6594   5.308   2.230   3.879  0.2919 -0.4414  1.8115
 2196TIP3    H2 6595   5.307   2.081   3.854  1.5313 -0.5371  2.2895
 2197TIP3   OH2 6596   3.015   3.159   4.558 -0.2597  0.3106  0.0793
 2197TIP3    H1 6597   3.063   3.104   4.495  2.0844  3.1999 -0.8869
 2197TIP3    H2 6598   2.923   3.145   4.536  0.3904 -0.4333 -2.5829
 2198TIP3   OH2 6599   4.381   5.373   3.868  0.0144 -0.7791  0.5538
 2198TIP3    H1 6600   4.421   5.318   3.935  0.7796  0.7230  1.3844
 2198TIP3    H2 6601   4.440   5.449   3.860  0.4580 -1.2994 -2.4795
 2199TIP3   OH2 6602   6.109   4.614   0.026 -0.0014 -0.2547  0.0966
 2199TIP3    H1 6603   6.033   4.621   0.083 -0.8310 -1.1736 -0.8729
 2199TIP3    H2 6604   6.090   4.673  -0.047 -0.5813 -1.7186 -0.9838
 2200TIP3   OH2 6605   4.096   5.445   1.745 -0.2634  0.0291  0.1613
 2200TIP3    H1 6606   4.143   5.404   1.817  1.0904 -0.0293 -0.7120
 2200TIP3    H2 6607   4.103   5.383   1.673 -0.3733  0.6897 -0.4333
 2201TIP3   OH2 6608   4.878   2.554   2.103  0.4283 -0.0101 -0.2528
 2201TIP3    H1 6609   4.901   2.636   2.147  0.8550 -0.2115 -0.0911
 2201TIP3    H2 6610   4.857   2.494   2.175  0.0562 -0.0229 -0.3731
 2202TIP3   OH2 6611   5.332   2.638   1.611 -0.3173 -0.0627  0.3189
 2202TIP3    H1 6612   5.391   2.563   1.615  0.0954  0.2356 -0.1217
 2202TIP3    H2 6613   5.388   2.714   1.628 -0.1460  0.4285 -2.0839
 2203TIP3   OH2 6614   2.132   3.446   3.545 -0.0368 -1.0413  0.8916
 2203TIP3    H1 6615   2.174   3.504   3.608 -1.2741  2.2111 -1.0513
 2203TIP3    H2 6616   2.174   3.466   3.462 -1.7791 -1.5457 -0.1684
 2204TIP3   OH2 6617   5.117   0.877   3.730  0.0763 -0.2877 -0.0827
 2204TIP3    H1 6618   5.209   0.849   3.730  0.8191  1.9394  0.2793
 2204TIP3    H2 6619   5.082   0.844   3.813  0.0435 -2.4860 -0.9015
 2205TIP3   OH2 6620   1.332   5.344   3.711 -0.2174  0.2355  0.4920
 2205TIP3    H1 6621   1.315   5.249   3.707 -0.5637  0.1554  2.8671
 2205TIP3    H2 6622   1.348   5.368   3.619 -0.6733 -2.0038 -0.2570
 2206TIP3   OH2 6623   0.379   1.052   3.488  0.1095 -0.0003  0.1856
 2206TIP3    H1 6624   0.340   0.971   3.522  0.3994 -0.9382 -1.5610
 2206TIP3    H2 6625   0.446   1.075   3.552 -1.7784  0.4473  2.1318
 2207TIP3   OH2 6626   2.191   2.942   0.326 -0.3967 -0.8104  0.0429
 2207TIP3    H1 6627   2.222   2.891   0.251 -0.4206 -0.4439 -0.2189
 2207TIP3    H2 6628   2.269   2.954   0.381  0.3198  1.3428 -1.3168
 2208TIP3   OH2 6629   5.583   5.865   1.355 -0.0369  0.0094 -0.3058
 2208TIP3    H1 6630   5.586   5.824   1.268  1.1726  0.6119 -0.5711
 2208TIP3    H2 6631   5.661   5.920   1.358 -0.1577  0.1391  1.1083
 2209TIP3   OH2 6632   0.580   1.786   4.370 -0.4109  0.5861  0.4854
 2209TIP3    H1 6633   0.641   1.808   4.300  0.7962  0.0039  1.3295
 2209TIP3    H2 6634   0.507   1.847   4.358  0.3751  1.3654 -0.4876
 2210TIP3   OH2 6635   4.223   2.404   3.406  0.0224 -0.2065  0.3574
 2210TIP3    H1 6636   4.202   2.436   3.494 -0.0946  2.8576 -0.6735
 2210TIP3    H2 6637   4.318   2.405   3.402  0.0685  3.3514 -0.6360
 2211TIP3   OH2 6638   2.763   5.109   0.136  0.2110 -0.0054 -0.1566
 2211TIP3    H1 6639   2.841   5.055   0.123  0.2295 -0.3727  1.3731
 2211TIP3    H2 6640   2.740   5.097   0.228 -1.0055  0.9773 -0.3083
 2212TIP3   OH2 6641   1.561   0.620   0.111  0.0702  0.2738 -0.1127
 2212TIP3    H1 6642   1.619   0.616   0.036 -2.0101 -0.3686 -1.7856
 2212TIP3    H2 6643   1.487   0.563   0.088 -0.4405 -0.3631  2.6322
 2213TIP3   OH2 6644   6.068   0.037   0.178  0.4609  0.1380 -0.0520
 2213TIP3    H1 6645   6.010   0.065   0.249  2.2524  0.6733  1.2723
 2213TIP3    H2 6646   6.071   0.112   0.119  3.6582  2.2765  2.4702
 2214TIP3   OH2 6647   3.238   3.645   0.207  0.4762 -0.7967  0.0404
 2214TIP3    H1 6648   3.293   3.572   0.178  0.1371 -0.8478 -0.4850
 2214TIP3    H2 6649   3.296   3.700   0.259  0.7678 -1.3784  0.3367
 2215TIP3   OH2 6650   1.239   1.762   4.171 -0.4710 -0.4727  0.1241
 2215TIP3    H1 6651   1.169   1.824   4.191  1.7826  1.7602  1.5963
 2215TIP3    H2 6652   1.248   1.709   4.251  0.7607  0.5655  0.6997
 2216TIP3   OH2 6653   0.758   5.451   0.667  0.0218 -0.5537  0.3674
 2216TIP3    H1 6654   0.722   5.482   0.750 -1.4224  0.8661 -0.7168
 2216TIP3    H2 6655   0.753   5.356   0.671  0.5805 -0.5417  2.1301
 2217TIP3   OH2 6656   5.252   5.645   4.213 -0.4397 -0.6399 -0.2046
 2217TIP3    H1 6657   5.183   5.711   4.203 -0.6504 -0.8879 -0.3751
 2217TIP3    H2 6658   5.229   5.598   4.292 -0.1197 -0.3100  0.0923
 2218TIP3   OH2 6659   0.847   0.202   2.644  0.1707  0.3369  0.5713
 2218TIP3    H1 6660   0.935   0.190   2.607  0.4559 -3.8865  1.9889
 2218TIP3    H2 6661   0.851   0.284   2.693  2.5762  1.3718 -1.1907
 2219TIP3   OH2 6662   4.376   2.269   0.617 -0.2863  0.4768  0.4154
 2219TIP3    H1 6663   4.466   2.236   0.614 -0.5092 -0.0834 -2.1915
 2219TIP3    H2 6664   4.359   2.302   0.529 -2.5693  0.7838  0.9095
 2220TIP3   OH2 6665   0.253   3.260   0.614 -0.5699 -0.7012  0.4132
 2220TIP3    H1 6666   0.164   3.292   0.632  0.7260  4.6059 -0.7956
 2220TIP3    H2 6667   0.293   3.249   0.701 -0.8730  2.5817  1.0888
 2221TIP3   OH2 6668   1.572   5.818   0.562  0.0682  0.3450  0.3291
 2221TIP3    H1 6669   1.520   5.899   0.560  1.4543  1.2911  1.2669
 2221TIP3    H2 6670   1.590   5.803   0.654  1.1344 -0.1842  0.0469
 2222TIP3   OH2 6671   5.363   3.159   3.509  0.1326  0.4295 -0.0995
 2222TIP3    H1 6672   5.392   3.092   3.572  1.1612  1.0389  0.1111
 2222TIP3    H2 6673   5.414   3.141   3.430  1.1978  1.5519  0.2911
 2223TIP3   OH2 6674   1.416   0.682   5.108  0.0749  0.1222 -0.4396
 2223TIP3    H1 6675   1.374   0.607   5.149 -2.8291  1.8636  0.0877
 2223TIP3    H2 6676   1.347   0.722   5.054  1.6149  2.1215 -1.0612
 2224TIP3   OH2 6677   2.229   3.826   0.830  0.2226  0.1331  0.0222
 2224TIP3    H1 6678   2.218   3.836   0.925 -0.9521 -0.6656 -0.0016
 2224TIP3    H2 6679   2.315   3.862   0.812  0.5637  0.0998  1.4335
 2225TIP3   OH2 6680   4.857   5.670   4.021  0.4365 -0.0814 -0.2161
 2225TIP3    H1 6681   4.936   5.682   4.073  0.3648 -0.2739 -0.0572
 2225TIP3    H2 6682   4.793   5.730   4.060  0.1335 -0.8203  0.4578
 2226TIP3   OH2 6683   3.521   2.347   1.324  0.1877 -0.2514  0.6286
 2226TIP3    H1 6684   3.608   2.381   1.303 -0.9013  2.4149 -0.0138
 2226TIP3    H2 6685   3.504   2.379   1.413  0.0532 -1.1755  0.9378
 2227TIP3   OH2 6686   1.108   0.793   2.464  0.6734  0.8515  0.0010
 2227TIP3    H1 6687   1.129   0.707   2.426  1.0327  1.0647 -0.2934
 2227TIP3    H2 6688   1.020   0.782   2.500  1.2473 -0.0390  1.2042
 2228TIP3   OH2 6689   1.422   4.442   4.341  0.5288  0.1292 -0.5655
 2228TIP3    H1 6690   1.366   4.403   4.408 -0.4950  2.0088 -0.2487
 2228TIP3    H2 6691   1.510   4.438   4.378 -0.0257  1.1485  0.9373
 2229TIP3   OH2 6692   5.522   1.393   5.094  0.5611  0.0465  0.2687
 2229TIP3    H1 6693   5.450   1.451   5.120 -1.2080 -1.9927  0.2470
 2229TIP3    H2 6694   5.515   1.318   5.154  1.6521 -0.9377 -0.7742
 2230TIP3   OH2 6695   6.204   5.499   1.113 -0.3279 -0.5987 -0.0490
 2230TIP3    H1 6696   6.204   5.591   1.087 -2.1013 -0.8677 -1.1467
 2230TIP3    H2 6697   6.261   5.456   1.049  0.0418 -0.3791  0.1243
 2231TIP3   OH2 6698   1.736   4.012   2.871  0.0913 -0.4165 -0.5355
 2231TIP3    H1 6699   1.762   3.987   2.782 -0.9917 -0.2282 -0.9215
 2231TIP3    H2 6700   1.816   4.004   2.923  0.5059 -1.5490 -1.3088
 2232TIP3   OH2 6701   0.264   0.618   3.237 -0.5577  0.0720  0.1540
 2232TIP3    H1 6702   0.350   0.578   3.224 -0.9600 -1.3941  1.6877
 2232TIP3    H2 6703   0.269   0.701   3.189  1.1802 -0.6632 -1.0381
 2233TIP3   OH2 6704   0.521   4.163   2.412 -0.1926  0.2114  0.2330
 2233TIP3    H1 6705   0.615   4.147   2.412 -0.1128  0.6182 -0.6859
 2233TIP3    H2 6706   0.496   4.161   2.319 -0.9417  0.9116  0.4046
 2234TIP3   OH2 6707   6.308   1.386   5.161  0.4882  0.1408 -0.3546
 2234TIP3    H1 6708   6.364   1.385   5.083  2.9254  1.4176  1.2352
 2234TIP3    H2 6709   6.368   1.367   5.233 -1.2742  0.9581  1.4160
 2235TIP3   OH2 6710   5.423   4.015   3.923 -0.6234  0.2092 -0.0326
 2235TIP3    H1 6711   5.449   4.107   3.932 -2.1906  0.8036 -1.2308
 2235TIP3    H2 6712   5.327   4.017   3.924 -0.6792 -1.4290 -0.0077
 2236TIP3   OH2 6713   2.902   0.503   4.591 -0.3146 -0.0829  0.3907
 2236TIP3    H1 6714   2.997   0.492   4.593 -0.2357  0.5922  1.2171
 2236TIP3    H2 6715   2.889   0.594   4.566 -0.7398 -0.1433  0.3844
 2237TIP3   OH2 6716   6.080   2.510   1.210  0.1259  0.0788  0.4606
 2237TIP3    H1 6717   6.036   2.467   1.283  0.6921  0.9317  1.3374
 2237TIP3    H2 6718   6.013   2.566   1.171  0.0174  0.2165  0.8353
 2238TIP3   OH2 6719   3.979   2.573   1.834 -0.1467  0.1571  0.0470
 2238TIP3    H1 6720   3.914   2.577   1.905  0.7675 -1.6097  1.0810
 2238TIP3    H2 6721   4.054   2.620   1.869  1.4283 -3.1656  1.6990
 2239TIP3   OH2 6722   2.152   1.130   0.595  0.3529  0.2432  0.4302
 2239TIP3    H1 6723   2.129   1.147   0.503  0.8123 -0.5251  0.1712
 2239TIP3    H2 6724   2.078   1.167   0.644  0.0251  0.5228 -0.2498
 2240TIP3   OH2 6725   5.221   4.821   4.334  0.0314  0.1454  0.6071
 2240TIP3    H1 6726   5.250   4.833   4.244 -2.1641 -0.7767 -0.2922
 2240TIP3    H2 6727   5.286   4.763   4.373  0.7980  0.2270 -0.4981
 2241TIP3   OH2 6728   5.035   5.198   4.327  0.3135 -0.1058  0.0610
 2241TIP3    H1 6729   5.129   5.186   4.341  0.1689 -1.8153 -0.2661
 2241TIP3    H2 6730   4.995   5.173   4.411 -0.0540 -3.1258 -0.8980
 2242TIP3   OH2 6731   1.206   1.790   2.532  0.2036  0.1778  0.2236
 2242TIP3    H1 6732   1.140   1.827   2.591  0.4723  0.6297  0.2426
 2242TIP3    H2 6733   1.289   1.827   2.563  0.3285  0.5506 -0.5389
 2243TIP3   OH2 6734   1.535   0.363   4.928 -0.1040 -0.0140  0.4382
 2243TIP3    H1 6735   1.526   0.268   4.923  0.5161 -0.0602 -0.0056
 2243TIP3    H2 6736   1.534   0.391   4.837  3.2498  0.0209  0.2656
 2244TIP3   OH2 6737   0.524   2.680   3.666 -0.1103  0.0558  0.0522
 2244TIP3    H1 6738   0.443   2.650   3.626 -0.8404  1.7323  0.1766
 2244TIP3    H2 6739   0.504   2.769   3.696  1.8322  0.5841 -0.0955
 2245TIP3   OH2 6740   2.035   5.521   1.791 -0.1098 -0.6550 -0.0297
 2245TIP3    H1 6741   2.012   5.519   1.698 -2.1797 -1.3681  0.4473
 2245TIP3    H2 6742   2.078   5.607   1.803 -3.0374  1.0781 -0.9759
 2246TIP3   OH2 6743   4.841   5.594   5.198  0.6000  0.2795  0.3039
 2246TIP3    H1 6744   4.789   5.619   5.122  1.8852  0.1957 -0.6390
 2246TIP3    H2 6745   4.869   5.505   5.180 -0.4342 -0.3724  1.6760
 2247TIP3   OH2 6746   4.027   3.247   3.179 -0.2690 -0.0809 -0.4956
 2247TIP3    H1 6747   4.008   3.155   3.198 -0.2812 -0.1825 -0.9899
 2247TIP3    H2 6748   4.115   3.248   3.143 -0.0408  0.1762  0.0429
 2248TIP3   OH2 6749   5.540   1.537   2.756 -0.3196 -0.2058 -0.0595
 2248TIP3    H1 6750   5.562   1.513   2.846 -0.8709 -1.4076 -0.2308
 2248TIP3    H2 6751   5.491   1.462   2.722  0.0183  0.1530 -1.4181
 2249TIP3   OH2 6752   2.216   5.730   1.700 -0.1607 -0.3639 -0.2268
 2249TIP3    H1 6753   2.159   5.806   1.682 -0.3930 -0.5113 -0.1165
 2249TIP3    H2 6754   2.289   5.741   1.640 -0.5483 -0.4381 -0.7169
 2250TIP3   OH2 6755   5.317   1.511   1.242  0.5050 -0.0367  0.1037
 2250TIP3    H1 6756   5.252   1.444   1.262 -1.0125  1.4538  0.4007
 2250TIP3    H2 6757   5.356   1.533   1.327  1.6375 -1.1143 -0.1079
 2251TIP3   OH2 6758   0.768   1.463   1.003 -0.1395  0.2025 -0.6187
 2251TIP3    H1 6759   0.712   1.500   1.071  0.4631 -0.7037  0.3974
 2251TIP3    H2 6760   0.847   1.518   1.004  0.6076 -0.8519  0.6486
 2252TIP3   OH2 6761   3.294   2.760   2.974  0.4111  0.1707 -0.1228
 2252TIP3    H1 6762   3.341   2.760   2.891 -0.4233 -1.6501 -0.6560
 2252TIP3    H2 6763   3.222   2.822   2.962 -1.4247 -2.0996 -1.8986
 2253TIP3   OH2 6764   3.176   1.568   2.270 -0.2143  0.0311  0.1099
 2253TIP3    H1 6765   3.094   1.571   2.220 -0.8941  0.7251  1.2311
 2253TIP3    H2 6766   3.174   1.483   2.313  0.5834 -0.7556 -1.3551
 2254TIP3   OH2 6767   6.331   3.298   0.630 -0.3433 -0.6444 -0.1450
 2254TIP3    H1 6768   6.261   3.346   0.585 -0.9935 -0.3946  1.1033
 2254TIP3    H2 6769   6.303   3.207   0.628 -0.7459 -0.5370  0.4068
 2255TIP3   OH2 6770   1.731   2.069   2.049  0.1720  0.0622  0.0888
 2255TIP3    H1 6771   1.645   2.062   2.090  0.6039 -1.3236  0.8231
 2255TIP3    H2 6772   1.789   2.015   2.103  1.0756 -0.6517 -1.4979
 2256TIP3   OH2 6773   2.043   2.482   2.242 -0.1783  0.4143 -0.5077
 2256TIP3    H1 6774   2.083   2.397   2.259 -1.0433 -0.0725 -0.8697
 2256TIP3    H2 6775   2.098   2.544   2.290  0.8901 -0.2557 -0.8296
 2257TIP3   OH2 6776   2.942   5.134   4.572 -0.2868 -0.8343 -0.5030
 2257TIP3    H1 6777   3.030   5.110   4.601  0.2349  0.9909 -0.4628
 2257TIP3    H2 6778   2.885   5.069   4.613  0.6353  0.2006  2.7413
 2258TIP3   OH2 6779   3.735   0.721   0.406 -0.0652 -0.0286 -0.4231
 2258TIP3    H1 6780   3.656   0.728   0.352 -0.1369  0.8432 -0.2070
 2258TIP3    H2 6781   3.762   0.629   0.396 -1.0770 -0.3239 -0.5321
 2259TIP3   OH2 6782   1.987   4.014   3.435  0.3381 -0.2649  0.3891
 2259TIP3    H1 6783   2.038   3.956   3.491 -0.8747 -1.4433  0.3259
 2259TIP3    H2 6784   1.899   3.975   3.434  0.2566 -0.1670 -2.1390
 2260TIP3   OH2 6785   1.074   4.206   2.014  0.2826  0.0618  0.1479
 2260TIP3    H1 6786   1.148   4.262   2.038  0.1492  0.8820 -1.2505
 2260TIP3    H2 6787   1.100   4.119   2.044  1.0388  0.6458  1.2599
 2261TIP3   OH2 6788   4.158   3.717   4.688  0.1739 -0.1343 -0.4800
 2261TIP3    H1 6789   4.090   3.651   4.704  0.7944 -0.3921  1.2473
 2261TIP3    H2 6790   4.231   3.668   4.650 -0.2749  0.0130 -1.5832
 2262TIP3   OH2 6791   2.920   4.048   4.750  0.1673 -0.1708  0.0781
 2262TIP3    H1 6792   2.997   4.030   4.695 -0.5869  0.4220 -1.2035
 2262TIP3    H2 6793   2.863   4.102   4.695 -1.3428 -0.9027  0.8709
 2263TIP3   OH2 6794   4.027   1.168   4.555 -0.2015  0.0659  0.7931
 2263TIP3    H1 6795   4.036   1.102   4.625 -2.0809  1.1453  2.1663
 2263TIP3    H2 6796   3.944   1.145   4.512  0.0716  0.4509  0.0493
 2264TIP3   OH2 6797   1.738   2.907   4.573 -0.4792 -0.1615  0.0917
 2264TIP3    H1 6798   1.695   2.986   4.540  0.3756  0.3347  0.1213
 2264TIP3    H2 6799   1.815   2.897   4.517 -0.7369 -1.1446 -0.0972
 2265TIP3   OH2 6800   4.638   0.398   1.469 -0.0275  0.2245 -0.5791
 2265TIP3    H1 6801   4.617   0.309   1.443 -1.8459  0.3886  0.1521
 2265TIP3    H2 6802   4.630   0.450   1.389  1.0399 -0.2486 -1.0067
 2266TIP3   OH2 6803   5.953   1.374   0.313 -0.0487 -0.1360  0.0175
 2266TIP3    H1 6804   5.929   1.412   0.228 -1.3676  1.8555  1.1956
 2266TIP3    H2 6805   5.880   1.317   0.336  0.2595 -0.5926 -0.1178
 2267TIP3   OH2 6806   5.223   3.957   2.586 -0.0202  0.0754  0.2892
 2267TIP3    H1 6807   5.133   3.967   2.617  0.2951  1.9864  0.7193
 2267TIP3    H2 6808   5.220   3.983   2.494 -0.4743 -3.1152 -0.7021
 2268TIP3   OH2 6809   0.723   5.607   1.776  0.8164  0.7999 -0.1218
 2268TIP3    H1 6810   0.742   5.639   1.864 -2.2134 -1.4221  1.5520
 2268TIP3    H2 6811   0.648   5.659   1.747 -1.7607 -1.9342  1.0965
 2269TIP3   OH2 6812   2.257   5.285   0.571 -0.0031  0.4640 -0.2286
 2269TIP3    H1 6813   2.296   5.312   0.654  1.3229 -0.6558 -0.4506
 2269TIP3    H2 6814   2.237   5.368   0.526 -0.6380  1.0800  1.1253
 2270TIP3   OH2 6815   0.669   4.630   3.538 -0.0201 -0.2823  0.1937
 2270TIP3    H1 6816   0.588   4.612   3.585 -1.5776 -1.1822 -2.5786
 2270TIP3    H2 6817   0.676   4.725   3.538 -1.6774 -0.1307 -0.3795
 2271TIP3   OH2 6818   3.640   2.439   3.828  0.5758 -0.2629 -0.5347
 2271TIP3    H1 6819   3.588   2.360   3.811  0.3791 -0.4001  0.6121
 2271TIP3    H2 6820   3.726   2.406   3.855  0.9912 -0.0500 -1.5638
 2272TIP3   OH2 6821   0.870   4.507   5.083 -0.1963  0.9777 -0.1113
 2272TIP3    H1 6822   0.827   4.590   5.063 -0.6187  0.2861 -2.4115
 2272TIP3    H2 6823   0.806   4.459   5.135 -1.5654  0.6732 -1.9723
 2273TIP3   OH2 6824   3.583   5.932   2.363 -0.3511 -0.1987 -0.4600
 2273TIP3    H1 6825   3.619   6.020   2.351 -0.9962  0.1246 -0.0706
 2273TIP3    H2 6826   3.655   5.873   2.340  0.0697  0.4291 -0.7651
 2274TIP3   OH2 6827   1.720   0.996   1.343 -0.2503  0.3572 -0.7320
 2274TIP3    H1 6828   1.767   0.985   1.260  1.5424  2.2698 -0.0554
 2274TIP3    H2 6829   1.788   0.988   1.410 -2.1086 -4.5763  0.9603
 2275TIP3   OH2 6830   2.446   0.208   0.790 -0.5824  0.4446  0.1600
 2275TIP3    H1 6831   2.371   0.242   0.839 -1.6305  0.1697 -1.1757
 2275TIP3    H2 6832   2.425   0.229   0.698  0.8240  0.0617 -0.2669
 2276TIP3   OH2 6833   5.378   0.098   3.851  0.2536 -0.0340  0.1175
 2276TIP3    H1 6834   5.299   0.153   3.855  1.4076  1.7370 -0.2352
 2276TIP3    H2 6835   5.436   0.143   3.789  1.4711 -1.4066  0.1964
 2277TIP3   OH2 6836   5.174   3.004   1.844 -0.3471 -0.1751 -0.3453
 2277TIP3    H1 6837   5.124   3.073   1.801 -0.3298  1.0135  1.4400
 2277TIP3    H2 6838   5.117   2.975   1.915  0.4740 -0.5765  0.1597
 2278TIP3   OH2 6839   5.535   0.970   3.277 -0.3483 -0.4624 -0.0384
 2278TIP3    H1 6840   5.629   0.986   3.282 -0.1952 -1.2221 -0.2730
 2278TIP3    H2 6841   5.514   0.979   3.184 -0.7468  0.9128  0.1710
 2279TIP3   OH2 6842   0.226   2.719   1.243  0.5196 -0.7712  0.1680
 2279TIP3    H1 6843   0.194   2.747   1.328  1.7437 -0.0217  0.4135
 2279TIP3    H2 6844   0.163   2.754   1.180  0.7768  0.5966  0.6405
 2280TIP3   OH2 6845   4.263   2.736   1.569 -0.0717 -0.3640  0.1531
 2280TIP3    H1 6846   4.216   2.791   1.632  0.6027  0.7458 -0.2833
 2280TIP3    H2 6847   4.230   2.647   1.585 -0.4807  0.0139  1.5305
 2281TIP3   OH2 6848   0.714   3.344   3.364 -0.5414  0.1844 -0.4703
 2281TIP3    H1 6849   0.789   3.306   3.318  0.7484 -2.1368  3.1863
 2281TIP3    H2 6850   0.743   3.432   3.390  0.6546 -0.4030  0.2330
 2282TIP3   OH2 6851   1.569   3.346   4.934  0.1271  0.5961 -0.4641
 2282TIP3    H1 6852   1.603   3.258   4.919  0.6031  1.1352 -2.9286
 2282TIP3    H2 6853   1.647   3.399   4.950 -0.2269  0.4464  2.2039
 2283TIP3   OH2 6854   2.572   5.821   0.217  0.0149 -0.1246 -0.1277
 2283TIP3    H1 6855   2.640   5.771   0.263  1.3461 -0.7660 -2.6486
 2283TIP3    H2 6856   2.597   5.913   0.229  0.4563 -0.2890  0.2366
 2284TIP3   OH2 6857   1.118   4.611   1.115 -0.7987 -0.0235 -0.0984
 2284TIP3    H1 6858   1.124   4.522   1.081  0.5608  0.9687 -2.7357
 2284TIP3    H2 6859   1.167   4.664   1.052 -2.0475  2.6920  1.0495
 2285TIP3   OH2 6860   1.098   1.775   3.833  0.2779  0.4812  0.3107
 2285TIP3    H1 6861   1.125   1.855   3.788  0.7810  0.3959  0.4529
 2285TIP3    H2 6862   1.164   1.710   3.809  0.4559  0.3881  1.0298
 2286TIP3   OH2 6863   2.489   4.333   5.095  0.0953 -0.6904 -0.1686
 2286TIP3    H1 6864   2.457   4.243   5.097 -0.3905 -0.5640  2.8396
 2286TIP3    H2 6865   2.571   4.330   5.145  1.1061  0.2289 -1.7176
 2287TIP3   OH2 6866   6.124   2.415   3.076  0.2650 -0.2099  0.0830
 2287TIP3    H1 6867   6.084   2.492   3.034 -0.2054 -0.8738 -0.7091
 2287TIP3    H2 6868   6.056   2.381   3.133  0.6379  0.2246  0.8089
 2288TIP3   OH2 6869   4.567   3.401   0.698  0.0674 -0.1722  0.2820
 2288TIP3    H1 6870   4.539   3.458   0.626 -0.5118 -0.5208  0.2251
 2288TIP3    H2 6871   4.638   3.348   0.661  2.3665  2.1740  1.0203
 2289TIP3   OH2 6872   1.790   2.629   1.830  0.0997  0.0791 -0.4246
 2289TIP3    H1 6873   1.760   2.706   1.781 -0.5324  0.3091  0.3067
 2289TIP3    H2 6874   1.751   2.554   1.783  0.0749  0.2551 -0.6839
 2290TIP3   OH2 6875   5.027   3.415   1.424  0.0765 -0.5472 -0.2054
 2290TIP3    H1 6876   5.111   3.403   1.380 -0.4297 -0.3315 -1.2738
 2290TIP3    H2 6877   4.963   3.421   1.352 -0.8478 -0.7040  0.5826
 2291TIP3   OH2 6878   5.746   5.268   0.487 -1.0288  0.0637  0.1269
 2291TIP3    H1 6879   5.730   5.361   0.471 -0.7689  0.5486  2.3496
 2291TIP3    H2 6880   5.672   5.240   0.541 -0.5903 -0.7382  0.3250
 2292TIP3   OH2 6881   0.202   3.530   0.896 -0.0527 -0.7502  0.5635
 2292TIP3    H1 6882   0.226   3.437   0.897  1.9199 -0.3653 -1.7059
 2292TIP3    H2 6883   0.285   3.576   0.899 -0.6612  0.8121 -2.4847
 2293TIP3   OH2 6884   5.235   2.144   4.243 -0.0075  0.0862 -0.0570
 2293TIP3    H1 6885   5.233   2.209   4.312 -1.7145  0.2326 -0.2020
 2293TIP3    H2 6886   5.198   2.188   4.167 -2.8542 -1.4787  0.2966
 2294TIP3   OH2 6887   3.556   0.799   3.651  0.0428 -0.6648 -0.1388
 2294TIP3    H1 6888   3.618   0.871   3.659 -0.3061 -0.2848 -0.7579
 2294TIP3    H2 6889   3.484   0.835   3.599 -1.2970 -0.7203  1.6060
 2295TIP3   OH2 6890   1.676   0.233   0.237  0.6593  0.2417 -0.0922
 2295TIP3    H1 6891   1.702   0.324   0.245  0.5505  0.1306  2.8237
 2295TIP3    H2 6892   1.747   0.184   0.280 -0.6364 -0.7271  1.0462
 2296TIP3   OH2 6893   4.935   3.384   4.117 -0.1363 -0.3018  0.9952
 2296TIP3    H1 6894   4.899   3.306   4.159  2.4269 -0.9307  2.2828
 2296TIP3    H2 6895   5.023   3.357   4.090  0.4242  1.8474  0.5254
 2297TIP3   OH2 6896   3.559   0.492   0.068  0.0041 -0.7324  0.1046
 2297TIP3    H1 6897   3.473   0.457   0.046  0.4679 -2.3740  0.7409
 2297TIP3    H2 6898   3.563   0.489   0.163  0.1697  0.9006  0.1764
 2298TIP3   OH2 6899   0.564   2.566   5.044  0.2704  0.0379  0.2271
 2298TIP3    H1 6900   0.571   2.506   5.118 -4.2229 -0.0492  0.8667
 2298TIP3    H2 6901   0.608   2.646   5.073  2.5024 -1.4397  1.1035
 2299TIP3   OH2 6902   4.874   0.828   1.185 -0.0315 -0.5282  0.3373
 2299TIP3    H1 6903   4.803   0.787   1.234 -0.3833 -0.7285 -0.3259
 2299TIP3    H2 6904   4.951   0.775   1.205 -0.1741 -0.6200  0.6499
 2300TIP3   OH2 6905   2.655   0.815   0.602 -0.2568  0.3981 -0.1551
 2300TIP3    H1 6906   2.707   0.892   0.626 -0.3145  0.5908 -0.6346
 2300TIP3    H2 6907   2.598   0.800   0.678 -0.4652  1.0202 -0.1825
 2301TIP3   OH2 6908   2.246   3.851   3.490 -0.5467 -0.5885  0.0227
 2301TIP3    H1 6909   2.224   3.809   3.407  1.5726  0.6707 -1.2574
 2301TIP3    H2 6910   2.285   3.781   3.543  0.8998 -0.7674 -1.2301
 2302TIP3   OH2 6911   1.928   3.741   2.996 -0.3336 -0.3631  0.4293
 2302TIP3    H1 6912   1.977   3.823   2.993  0.0432 -0.6270 -0.9152
 2302TIP3    H2 6913   1.990   3.676   3.029  0.4010 -0.7872 -1.6752
 2303TIP3   OH2 6914   6.029   2.897   0.798 -0.5567  1.0753  0.0101
 2303TIP3    H1 6915   6.021   2.802   0.791  1.7230  0.8351 -0.0546
 2303TIP3    H2 6916   6.051   2.912   0.890 -1.8832  1.6646  0.2548
 2304TIP3   OH2 6917   5.737   0.934   4.122 -0.0437  0.4706  0.8057
 2304TIP3    H1 6918   5.781   1.018   4.110  0.0314  0.2123 -0.9791
 2304TIP3    H2 6919   5.761   0.883   4.044  0.0621 -1.2789  1.9140
 2305TIP3   OH2 6920   1.123   3.712   3.894  0.4820 -0.3516  0.8462
 2305TIP3    H1 6921   1.164   3.626   3.882 -0.7248 -0.8605  0.2436
 2305TIP3    H2 6922   1.056   3.696   3.961 -1.0571 -0.3502 -0.6517
 2306TIP3   OH2 6923   2.016   3.274   2.771  0.1042  0.2468 -0.4116
 2306TIP3    H1 6924   2.033   3.195   2.720 -1.1515  0.7022 -1.5983
 2306TIP3    H2 6925   2.075   3.340   2.733  0.7994  0.0187  0.2530
 2307TIP3   OH2 6926   3.891   3.379   0.344 -0.3164  0.1941  0.2627
 2307TIP3    H1 6927   3.815   3.390   0.286  1.5055  0.5118 -2.2256
 2307TIP3    H2 6928   3.892   3.286   0.365  0.8613 -0.7829 -3.2586
 2308TIP3   OH2 6929   1.890   0.688   1.308  0.2087  0.5214  0.1382
 2308TIP3    H1 6930   1.969   0.741   1.297  0.6207 -0.0222  0.4340
 2308TIP3    H2 6931   1.897   0.619   1.242 -0.7678  1.3303 -0.8559
 2309TIP3   OH2 6932   6.157   5.467   2.190  0.1782  0.5108 -0.4226
 2309TIP3    H1 6933   6.170   5.466   2.095 -1.1531  1.8712 -0.6705
 2309TIP3    H2 6934   6.096   5.395   2.207  0.0843  0.5345 -0.6575
 2310TIP3   OH2 6935   4.356   5.373   2.461  1.1298  0.5289  0.2741
 2310TIP3    H1 6936   4.424   5.394   2.396  0.5099  2.5365  0.1981
 2310TIP3    H2 6937   4.397   5.396   2.545  0.5948  1.7640  0.2266
 2311TIP3   OH2 6938   1.630   1.823   1.573 -0.1796 -0.2882 -0.3475
 2311TIP3    H1 6939   1.608   1.731   1.584  0.3818 -0.4273 -0.3843
 2311TIP3    H2 6940   1.559   1.870   1.616  0.0530 -0.7496  0.5636
 2312TIP3   OH2 6941   5.875   1.371   2.481 -1.1808  0.1945 -0.1144
 2312TIP3    H1 6942   5.787   1.402   2.505 -0.5163  0.8506  1.7000
 2312TIP3    H2 6943   5.934   1.420   2.539  0.2532 -1.4622 -0.0857
 2313TIP3   OH2 6944   1.708   2.050   3.694 -0.4358  0.1358 -0.1232
 2313TIP3    H1 6945   1.613   2.048   3.682 -0.3941  1.0371 -0.7089
 2313TIP3    H2 6946   1.720   2.077   3.785 -0.7394  0.5414 -0.2016
 2314TIP3   OH2 6947   1.432   4.616   0.351  0.1193 -0.4411  0.6143
 2314TIP3    H1 6948   1.502   4.624   0.416 -0.2802 -1.8767  1.2731
 2314TIP3    H2 6949   1.354   4.649   0.396  0.0863 -0.2061  0.3901
 2315TIP3   OH2 6950   1.620   1.670   2.668 -0.1480 -0.2279 -0.1000
 2315TIP3    H1 6951   1.673   1.591   2.674 -1.3951 -1.0786  0.1334
 2315TIP3    H2 6952   1.529   1.638   2.669 -0.6683  1.1578 -0.6780
 2316TIP3   OH2 6953   4.779   5.220   2.285 -0.1642  0.5006  0.5052
 2316TIP3    H1 6954   4.794   5.313   2.299 -0.4073  0.7377 -0.7093
 2316TIP3    H2 6955   4.855   5.190   2.236  0.5435 -0.2430  1.9958
 2317TIP3   OH2 6956   2.890   3.965   3.284  0.1018  0.2346  0.1532
 2317TIP3    H1 6957   2.946   4.040   3.303 -0.8489  1.0336 -0.1303
 2317TIP3    H2 6958   2.883   3.964   3.188  0.5597 -0.5677  0.1158
 2318TIP3   OH2 6959   4.404   4.663   0.637 -0.3528 -0.4871  0.0219
 2318TIP3    H1 6960   4.450   4.580   0.626  1.1163  0.2959 -0.0100
 2318TIP3    H2 6961   4.434   4.717   0.563  0.7432  0.9232  1.4281
 2319TIP3   OH2 6962   4.034   2.307   2.985  0.4514 -0.3523  0.4995
 2319TIP3    H1 6963   4.039   2.361   3.063 -0.5526  0.4151  0.0549
 2319TIP3    H2 6964   3.955   2.338   2.939  0.3838 -1.5529 -0.2392
 2320TIP3   OH2 6965   3.160   1.477   2.670 -0.4735 -0.2228  0.2641
 2320TIP3    H1 6966   3.123   1.455   2.755 -0.1568  1.9143  1.0363
 2320TIP3    H2 6967   3.251   1.449   2.675 -0.5858 -0.5544  0.4458
 2321TIP3   OH2 6968   3.422   0.621   2.771  0.2895 -0.2100 -0.6819
 2321TIP3    H1 6969   3.386   0.533   2.759 -0.2984  0.0123 -0.6003
 2321TIP3    H2 6970   3.512   0.607   2.802 -0.5285 -0.8209  1.6344
 2322TIP3   OH2 6971   0.638   3.591   0.542 -0.2852 -0.5418  0.1755
 2322TIP3    H1 6972   0.616   3.649   0.614 -0.4802 -0.5196  0.1008
 2322TIP3    H2 6973   0.704   3.638   0.492 -0.9372 -0.0805 -0.2694
 2323TIP3   OH2 6974   1.258   4.847   3.329 -0.1697 -0.0960  0.1468
 2323TIP3    H1 6975   1.226   4.823   3.242  1.1916  0.3814 -0.5162
 2323TIP3    H2 6976   1.217   4.784   3.388  0.3387 -1.6430 -1.0731
 2324TIP3   OH2 6977   2.671   5.242   2.047  0.1296  0.3773 -0.4722
 2324TIP3    H1 6978   2.653   5.247   2.141 -0.8975 -1.2856 -0.5462
 2324TIP3    H2 6979   2.627   5.162   2.018  0.8808  0.5700 -2.2791
 2325TIP3   OH2 6980   4.046   4.426   0.305  0.1033 -0.3896 -0.1009
 2325TIP3    H1 6981   4.050   4.357   0.371 -0.7320 -0.3407  0.0136
 2325TIP3    H2 6982   3.977   4.398   0.245 -1.9417  1.4359  1.2476
 2326TIP3   OH2 6983   3.725   3.827   1.029 -0.1165  0.2317 -0.7971
 2326TIP3    H1 6984   3.636   3.792   1.032 -0.0707  0.0102 -1.8111
 2326TIP3    H2 6985   3.767   3.794   1.109 -1.9866  3.2607  1.6843
 2327TIP3   OH2 6986   0.404   0.580   1.776 -0.2776  0.1093 -0.9312
 2327TIP3    H1 6987   0.365   0.662   1.747  1.3811  0.8258 -1.2405
 2327TIP3    H2 6988   0.385   0.576   1.870  1.7073  2.1352 -0.3630
 2328TIP3   OH2 6989   1.838   3.268   4.676 -0.8932 -0.0788  0.1005
 2328TIP3    H1 6990   1.821   3.360   4.654 -0.2885  0.3213  1.2251
 2328TIP3    H2 6991   1.760   3.241   4.725 -1.0557 -0.1515 -0.1996
 2329TIP3   OH2 6992   4.584   4.206   4.337  0.2593 -0.4551 -0.2822
 2329TIP3    H1 6993   4.567   4.197   4.243  0.8185  0.4831 -0.4979
 2329TIP3    H2 6994   4.510   4.258   4.370  2.0030  2.8542 -1.0501
 2330TIP3   OH2 6995   4.402   3.004   0.279 -0.2162 -0.5664 -0.2865
 2330TIP3    H1 6996   4.413   3.071   0.347 -0.9704  0.7010 -1.3649
 2330TIP3    H2 6997   4.389   2.923   0.328  2.5635 -0.3194  1.0767
 2331TIP3   OH2 6998   2.638   5.115   0.398 -0.1515  0.9028 -0.1583
 2331TIP3    H1 6999   2.615   5.208   0.399 -0.6335  0.7856  0.5373
 2331TIP3    H2 7000   2.627   5.087   0.489 -0.7020 -0.0033 -0.4915
 2332TIP3   OH2 7001   1.670   1.986   0.619 -0.3233 -0.6274  0.0630
 2332TIP3    H1 7002   1.681   1.910   0.562 -1.2916 -0.8408  0.1503
 2332TIP3    H2 7003   1.585   1.973   0.661 -0.5158  0.5140  0.0628
 2333TIP3   OH2 7004   4.152  -0.008   1.318  0.0362  0.3827 -0.6968
 2333TIP3    H1 7005   4.086   0.062   1.318  0.6319  0.9613 -0.9519
 2333TIP3    H2 7006   4.235   0.039   1.312  0.4659 -0.3418 -0.4249
 2334TIP3   OH2 7007   4.636   1.540   5.018  0.1476  0.0678  0.0281
 2334TIP3    H1 7008   4.611   1.448   5.029 -0.1800  0.1709  0.1544
 2334TIP3    H2 7009   4.555   1.589   5.034  0.5516  0.4369  1.0655
 2335TIP3   OH2 7010   4.690   2.341   1.924 -0.0267 -0.0090  0.0856
 2335TIP3    H1 7011   4.617   2.285   1.896  1.4234 -2.2447  0.5315
 2335TIP3    H2 7012   4.648   2.423   1.951 -2.3128 -1.0286 -0.1242
 2336TIP3   OH2 7013   3.297   3.237   4.364  0.3538  0.5855  0.4090
 2336TIP3    H1 7014   3.389   3.255   4.381  0.3835  1.9269 -0.9391
 2336TIP3    H2 7015   3.250   3.307   4.411  0.1313  0.9184 -0.2967
 2337TIP3   OH2 7016   5.260   2.231   0.375 -0.5103 -0.5480 -0.4588
 2337TIP3    H1 7017   5.352   2.208   0.383 -0.5391 -0.4420  0.2316
 2337TIP3    H2 7018   5.229   2.238   0.465 -0.9160  0.5138 -0.6630
 2338TIP3   OH2 7019   2.953   4.645   5.119  0.0908  0.3983 -0.6337
 2338TIP3    H1 7020   2.978   4.665   5.209 -1.2901 -0.4363 -0.0314
 2338TIP3    H2 7021   2.969   4.551   5.110 -1.7575  0.0206 -0.5242
 2339TIP3   OH2 7022   1.428   1.697   0.202 -0.3332  0.0449  0.2919
 2339TIP3    H1 7023   1.524   1.694   0.207 -0.3662 -1.2172  0.5226
 2339TIP3    H2 7024   1.404   1.620   0.150 -1.3036 -0.9016  2.0373
 2340TIP3   OH2 7025   2.445   2.380   0.445  0.4207 -0.0879  0.5561
 2340TIP3    H1 7026   2.385   2.315   0.484  0.2899  0.7015  1.7292
 2340TIP3    H2 7027   2.435   2.368   0.351  0.9981 -2.3239  0.6967
 2341TIP3   OH2 7028   3.832   4.423   2.883 -0.0135 -0.9061 -0.9136
 2341TIP3    H1 7029   3.869   4.509   2.900  0.2839 -1.5168  2.2289
 2341TIP3    H2 7030   3.826   4.417   2.788 -1.6207  3.1866 -1.2556
 2342TIP3   OH2 7031   3.912   5.061   0.317  0.8422 -0.1058 -0.1699
 2342TIP3    H1 7032   3.905   4.984   0.373 -0.9068 -0.9870 -1.4822
 2342TIP3    H2 7033   3.873   5.132   0.369  0.9524 -0.4790  0.4284
 2343TIP3   OH2 7034   2.947   1.975   0.062  0.1209 -0.5756 -0.0583
 2343TIP3    H1 7035   2.958   1.880   0.067 -0.6822 -0.6818 -0.1649
 2343TIP3    H2 7036   2.949   2.004   0.154 -2.9881 -1.1242  0.2688
 2344TIP3   OH2 7037   0.399   5.110   2.513  0.1675  0.2209  0.0462
 2344TIP3    H1 7038   0.477   5.102   2.459  0.2793  0.4375  0.1746
 2344TIP3    H2 7039   0.373   5.202   2.503 -0.1086  0.1331 -0.0502
 2345TIP3   OH2 7040   0.843   4.383   1.112 -0.4699 -0.4462  0.1567
 2345TIP3    H1 7041   0.834   4.293   1.142  1.8972 -0.3856  1.3327
 2345TIP3    H2 7042   0.824   4.436   1.190  0.7934 -0.0807  0.2437
 2346TIP3   OH2 7043   6.006   2.651   0.187 -0.3148  0.5557 -0.0384
 2346TIP3    H1 7044   5.961   2.733   0.169 -1.6046 -0.3680 -1.2444
 2346TIP3    H2 7045   6.059   2.669   0.265 -1.2626  2.2493  0.2634
 2347TIP3   OH2 7046   4.386   0.116   1.284  0.2252  0.0661 -0.3289
 2347TIP3    H1 7047   4.415   0.206   1.266 -2.0426  0.5932 -1.7440
 2347TIP3    H2 7048   4.468   0.068   1.298  1.5684  2.1366 -0.4923
 2348TIP3   OH2 7049   1.320   1.268   2.416 -0.0654 -0.1502  0.4911
 2348TIP3    H1 7050   1.252   1.334   2.401  0.6991  0.5607  0.0357
 2348TIP3    H2 7051   1.391   1.316   2.457  0.0189 -0.9717  1.3337
 2349TIP3   OH2 7052   3.567   4.996   0.544 -0.5518  0.3614 -1.3587
 2349TIP3    H1 7053   3.582   4.915   0.592  2.0944  0.4997 -1.7696
 2349TIP3    H2 7054   3.475   4.993   0.518 -0.8259 -1.9142 -0.3372
 2350TIP3   OH2 7055   4.895   0.280   1.359  0.2105 -0.0020  0.6016
 2350TIP3    H1 7056   4.909   0.336   1.283 -0.3284 -1.1049 -0.3438
 2350TIP3    H2 7057   4.853   0.337   1.424 -2.3763  0.1904 -1.1261
 2351TIP3   OH2 7058   3.660   4.254   5.173  0.2820  0.1306 -0.1635
 2351TIP3    H1 7059   3.715   4.253   5.094  1.1564  0.8176  0.4164
 2351TIP3    H2 7060   3.578   4.213   5.146 -0.3384  2.4152 -2.0664
 2352TIP3   OH2 7061   1.748   0.720   4.645 -0.1333  0.1205 -0.3457
 2352TIP3    H1 7062   1.684   0.717   4.716  0.2595  0.7758  0.0525
 2352TIP3    H2 7063   1.777   0.629   4.635 -0.0986  0.0336  0.4378
 2353TIP3   OH2 7064   5.810   0.244   4.778  0.2983  0.8133  0.3134
 2353TIP3    H1 7065   5.767   0.171   4.733  0.2495 -0.0728  1.7546
 2353TIP3    H2 7066   5.739   0.288   4.825  0.6020  0.6761  0.9129
 2354TIP3   OH2 7067   3.079   1.330   2.458  0.0591  0.4061  0.2583
 2354TIP3    H1 7068   3.106   1.391   2.527  0.8689 -1.1471  1.3507
 2354TIP3    H2 7069   3.013   1.275   2.499  0.2186 -0.2405 -0.3354
 2355TIP3   OH2 7070   1.428   1.563   0.766  0.0965  0.2789 -0.5700
 2355TIP3    H1 7071   1.359   1.558   0.700 -0.7042  0.3355  0.2509
 2355TIP3    H2 7072   1.497   1.505   0.733 -0.2687  0.3370 -1.4717
 2356TIP3   OH2 7073   3.284   1.678   2.872  0.2108 -0.0326 -0.2631
 2356TIP3    H1 7074   3.229   1.622   2.926 -0.8997  1.1166 -0.1625
 2356TIP3    H2 7075   3.289   1.632   2.788 -0.8907 -0.1648 -0.2700
 2357TIP3   OH2 7076   2.513   1.100   2.122  0.5676  0.0819  0.3605
 2357TIP3    H1 7077   2.488   1.152   2.046  0.8611 -0.1852  0.0805
 2357TIP3    H2 7078   2.441   1.113   2.184  0.4695  0.5376  0.1569
 2358TIP3   OH2 7079   2.815   3.127   4.171 -0.0258 -0.5187  1.2029
 2358TIP3    H1 7080   2.816   3.152   4.264  1.1186 -0.9940  1.3382
 2358TIP3    H2 7081   2.898   3.160   4.137 -0.1127 -0.9852  0.5237
 2359TIP3   OH2 7082   4.925   2.235   1.995 -0.6859 -0.1013  0.2881
 2359TIP3    H1 7083   4.851   2.292   1.973 -1.3523 -1.2152 -0.4184
 2359TIP3    H2 7084   4.898   2.148   1.967  1.3891 -0.3314 -1.2424
 2360TIP3   OH2 7085   3.272   5.579   0.576 -0.4717  0.3117 -0.2041
 2360TIP3    H1 7086   3.296   5.489   0.596 -2.4102 -0.1095  0.4173
 2360TIP3    H2 7087   3.319   5.599   0.495  2.0091 -0.3368  0.9755
 2361TIP3   OH2 7088   3.665   2.616   3.076 -0.0015  0.4826  0.5455
 2361TIP3    H1 7089   3.693   2.587   3.163 -1.8610 -0.3367  0.9205
 2361TIP3    H2 7090   3.661   2.711   3.082 -1.6933  0.3691  1.9164
 2362TIP3   OH2 7091   3.763   4.526   3.148  0.3729 -0.5781 -0.1207
 2362TIP3    H1 7092   3.791   4.595   3.088 -0.2940 -0.3986 -0.2386
 2362TIP3    H2 7093   3.768   4.446   3.096 -2.0301 -0.1861 -1.0586
 2363TIP3   OH2 7094   5.171   2.742   2.754 -0.2851 -0.3614 -0.3825
 2363TIP3    H1 7095   5.093   2.695   2.781  0.6531 -0.8237  1.6971
 2363TIP3    H2 7096   5.144   2.834   2.749 -0.8559 -0.4498  0.8196
 2364TIP3   OH2 7097   2.409   2.650   4.975  0.1143  0.1332 -0.8880
 2364TIP3    H1 7098   2.357   2.582   4.933 -1.9750 -1.2025  3.3368
 2364TIP3    H2 7099   2.353   2.686   5.043  3.3622  1.5185  1.3434
 2365TIP3   OH2 7100   6.340   5.694   2.594  0.1017 -0.0904 -0.0033
 2365TIP3    H1 7101   6.398   5.764   2.623 -0.3450  0.2126  0.1682
 2365TIP3    H2 7102   6.255   5.716   2.631  0.2287 -1.4290  1.1614
 2366TIP3   OH2 7103   2.523   1.454   4.334 -0.0417 -0.3616  0.0556
 2366TIP3    H1 7104   2.471   1.375   4.342 -0.1918 -0.3283 -0.5106
 2366TIP3    H2 7105   2.514   1.479   4.242  0.5964 -0.0953  0.0604
 2367TIP3   OH2 7106   5.356   3.434   3.479  0.3978 -0.0741 -0.5958
 2367TIP3    H1 7107   5.323   3.460   3.564  3.4120  0.5447  0.5072
 2367TIP3    H2 7108   5.365   3.339   3.485  0.8900 -0.0018 -0.0698
 2368TIP3   OH2 7109   4.425   5.498   0.152  0.2855 -0.0564  0.0081
 2368TIP3    H1 7110   4.438   5.444   0.230 -0.0800 -0.0800  0.0535
 2368TIP3    H2 7111   4.491   5.567   0.160 -0.9877  1.0835  1.3431
 2369TIP3   OH2 7112   5.170   0.845   5.005  0.2978 -0.1264 -0.7127
 2369TIP3    H1 7113   5.171   0.940   5.014  2.2647  0.0163 -1.7288
 2369TIP3    H2 7114   5.224   0.828   4.928 -0.0557 -2.0612 -0.5805
 2370TIP3   OH2 7115   5.728   0.237   0.770  0.0049 -0.0849 -0.4993
 2370TIP3    H1 7116   5.779   0.281   0.701 -1.1186  0.8176 -0.7797
 2370TIP3    H2 7117   5.660   0.300   0.794  0.5891 -0.2185  1.7384
 2371TIP3   OH2 7118   2.160   5.728   4.931 -0.4786  0.2309  0.0866
 2371TIP3    H1 7119   2.161   5.693   4.842  0.1898  1.3635 -0.3777
 2371TIP3    H2 7120   2.178   5.822   4.920  0.4458  0.2470  1.4815
 2372TIP3   OH2 7121   0.845   3.408   3.936 -0.5627 -0.0359 -0.0717
 2372TIP3    H1 7122   0.897   3.350   3.990 -1.4464 -0.2675  0.5556
 2372TIP3    H2 7123   0.858   3.495   3.973 -0.7158 -0.1098  0.1528
 2373TIP3   OH2 7124   3.982   1.313   0.674 -0.2595 -0.7525  0.0217
 2373TIP3    H1 7125   3.888   1.302   0.690 -0.6686 -2.9039 -2.9611
 2373TIP3    H2 7126   4.013   1.226   0.650  2.1936  0.1831 -0.4890
 2374TIP3   OH2 7127   2.593   1.930   1.661 -0.0568  0.0230  0.3934
 2374TIP3    H1 7128   2.673   1.929   1.714 -0.3274 -2.5180  0.9028
 2374TIP3    H2 7129   2.537   1.863   1.701 -1.7881  0.6041 -0.9306
 2375TIP3   OH2 7130   0.948   5.119   3.832 -0.2878  0.1861  0.0042
 2375TIP3    H1 7131   0.853   5.120   3.840 -0.1337  0.6455  2.7502
 2375TIP3    H2 7132   0.975   5.210   3.850  0.6822  0.0514 -0.6806
 2376TIP3   OH2 7133   4.001   0.911   4.231 -0.0121 -0.4038 -0.5709
 2376TIP3    H1 7134   4.076   0.853   4.245 -0.2713 -0.7443 -0.5761
 2376TIP3    H2 7135   3.953   0.910   4.314 -0.3885 -0.7411 -0.7865
 2377TIP3   OH2 7136   5.044   0.209   3.213 -0.4307  0.0443  0.6036
 2377TIP3    H1 7137   4.974   0.252   3.262 -1.5340 -1.8730  0.8035
 2377TIP3    H2 7138   5.080   0.144   3.274  0.3445 -0.1856 -0.0780
 2378TIP3   OH2 7139   6.015   0.865   2.749 -0.9109  0.4161  0.4455
 2378TIP3    H1 7140   5.961   0.805   2.699 -0.1004  1.2199 -1.4850
 2378TIP3    H2 7141   5.971   0.950   2.741 -1.6175  0.3111  2.4787
 2379TIP3   OH2 7142   5.846   4.813   1.226 -0.4036 -0.3448  0.0699
 2379TIP3    H1 7143   5.862   4.769   1.310  1.0354  0.3818  0.2117
 2379TIP3    H2 7144   5.766   4.863   1.240  0.2431  0.4044  1.2991
 2380TIP3   OH2 7145   0.811   5.342   4.872 -0.2927  0.7000  0.0253
 2380TIP3    H1 7146   0.717   5.353   4.886 -0.4664 -0.6277  0.0170
 2380TIP3    H2 7147   0.832   5.407   4.805 -1.4735  0.1351 -0.9462
 2381TIP3   OH2 7148   5.910   3.475   3.134 -0.0803  0.9350 -0.0788
 2381TIP3    H1 7149   5.825   3.509   3.106 -0.3860  0.7052  0.5585
 2381TIP3    H2 7150   5.933   3.528   3.210  1.2997  2.3485 -1.4131
 2382TIP3   OH2 7151   6.305   2.548   2.241 -0.5656  0.1368  0.1048
 2382TIP3    H1 7152   6.299   2.526   2.334 -2.0008 -0.8533 -0.1818
 2382TIP3    H2 7153   6.231   2.607   2.226  0.2404  1.0958 -0.2287
 2383TIP3   OH2 7154   1.369   0.431   2.525  0.6594 -0.1785  0.1315
 2383TIP3    H1 7155   1.366   0.349   2.476  2.0800  0.1771 -0.6349
 2383TIP3    H2 7156   1.284   0.438   2.567  0.0688 -1.4265 -0.8016
 2384TIP3   OH2 7157   5.430   2.864   2.786 -0.0232  0.6326  0.1759
 2384TIP3    H1 7158   5.388   2.786   2.820 -0.0609  1.1274  1.2845
 2384TIP3    H2 7159   5.511   2.872   2.836  0.1160  1.1535 -0.1245
 2385TIP3   OH2 7160   3.873   5.291   1.408 -0.7820  0.2924  0.3611
 2385TIP3    H1 7161   3.865   5.356   1.338 -2.0728 -1.7920 -1.5874
 2385TIP3    H2 7162   3.951   5.241   1.385  0.5249  1.4124  2.1520
 2386TIP3   OH2 7163   2.739   0.468   3.638 -0.1914 -0.0141  0.6273
 2386TIP3    H1 7164   2.776   0.488   3.552 -0.9385  0.8672  0.4998
 2386TIP3    H2 7165   2.670   0.404   3.621 -0.8885  0.7703  0.4589
 2387TIP3   OH2 7166   6.231   1.256   0.227  0.2046  0.0243  0.5351
 2387TIP3    H1 7167   6.303   1.319   0.220  1.2420 -0.9782  1.5962
 2387TIP3    H2 7168   6.158   1.298   0.183  1.4828  1.0163 -0.7457
 2388TIP3   OH2 7169   2.885   1.184   3.052  0.0012 -0.6567  0.3128
 2388TIP3    H1 7170   2.826   1.115   3.021 -0.6869 -0.3068  0.8386
 2388TIP3    H2 7171   2.947   1.195   2.980 -1.1139 -0.3981 -0.6483
 2389TIP3   OH2 7172   4.882   5.430   4.661 -0.3396 -0.7614 -0.4382
 2389TIP3    H1 7173   4.968   5.389   4.645 -1.4526 -2.8079 -1.6530
 2389TIP3    H2 7174   4.843   5.375   4.729 -1.4675 -1.1186 -1.3537
 2390TIP3   OH2 7175   3.594   2.902   3.563 -0.4879 -0.0410  0.2042
 2390TIP3    H1 7176   3.574   2.899   3.470  0.3405  0.0473  0.0131
 2390TIP3    H2 7177   3.590   2.995   3.585 -1.1686 -0.1068  0.3724
 2391TIP3   OH2 7178   5.975   2.933   4.737  0.5113  0.8443  0.1989
 2391TIP3    H1 7179   6.012   2.845   4.735  0.3604  0.7896 -0.4800
 2391TIP3    H2 7180   6.050   2.991   4.746  0.5931  0.6408  0.8897
 2392TIP3   OH2 7181   5.393   3.242   2.942 -0.0315 -0.3506  0.1165
 2392TIP3    H1 7182   5.461   3.196   2.893 -1.0307 -0.3193 -1.3476
 2392TIP3    H2 7183   5.311   3.201   2.914 -0.6893  0.0896  1.3177
 2393TIP3   OH2 7184   2.764   0.219   0.599  0.4395 -0.0672  0.1524
 2393TIP3    H1 7185   2.832   0.154   0.578  0.7079  0.5709 -1.0191
 2393TIP3    H2 7186   2.702   0.213   0.526 -1.0737 -0.9976  1.4401
 2394TIP3   OH2 7187   3.062   3.905   4.047 -0.4602  0.1010 -0.5376
 2394TIP3    H1 7188   2.999   3.972   4.076 -2.2989 -1.9498  0.4643
 2394TIP3    H2 7189   3.013   3.851   3.985 -0.5504 -2.9144  1.9392
 2395TIP3   OH2 7190   3.126   5.243   2.147 -0.5554 -0.1448  0.0437
 2395TIP3    H1 7191   3.211   5.223   2.186 -0.8346 -2.5551 -0.4180
 2395TIP3    H2 7192   3.070   5.264   2.222 -0.5146 -2.5194  0.8468
 2396TIP3   OH2 7193   3.969   0.405   3.778  0.0205  0.0443  0.3754
 2396TIP3    H1 7194   3.982   0.478   3.718 -2.6984  0.0619 -0.3014
 2396TIP3    H2 7195   4.058   0.378   3.802  1.2099  0.6504 -2.8812
 2397TIP3   OH2 7196   0.218   3.238   3.551 -0.0450  0.3178  0.1001
 2397TIP3    H1 7197   0.285   3.306   3.552 -0.3139  0.6186 -1.0325
 2397TIP3    H2 7198   0.182   3.239   3.639  2.7362 -1.1878  1.3855
 2398TIP3   OH2 7199   2.801   5.388   2.569  0.6548  0.1032 -0.2040
 2398TIP3    H1 7200   2.858   5.351   2.637  1.8908  0.5450 -0.9708
 2398TIP3    H2 7201   2.807   5.482   2.582 -0.5777  0.1441  0.2157
 2399TIP3   OH2 7202   2.939   3.188   1.945 -0.1932 -0.4776  0.2618
 2399TIP3    H1 7203   2.878   3.113   1.950 -0.3685 -0.4491 -1.1266
 2399TIP3    H2 7204   2.920   3.239   2.023 -0.6874 -1.4217  0.7831
 2400TIP3   OH2 7205   5.934   2.470   2.760 -0.8657  0.4744 -0.2277
 2400TIP3    H1 7206   5.892   2.474   2.674  0.6647  1.5910 -0.9641
 2400TIP3    H2 7207   5.869   2.506   2.820 -1.9338 -0.2671 -0.9151
 2401TIP3   OH2 7208   5.906   3.365   1.416  0.1599  0.1729  0.5936
 2401TIP3    H1 7209   5.983   3.417   1.396  0.4291 -0.6760 -0.6500
 2401TIP3    H2 7210   5.936   3.274   1.411 -1.5503 -0.3488 -3.1321
 2402TIP3   OH2 7211   0.216   0.351   0.941 -0.0726  0.1086 -0.7557
 2402TIP3    H1 7212   0.215   0.446   0.943  0.5384  0.1527 -1.7041
 2402TIP3    H2 7213   0.127   0.325   0.964 -1.1290  1.0299 -3.3682
 2403TIP3   OH2 7214   3.550   1.729   0.666  0.0735  0.3590  0.5294
 2403TIP3    H1 7215   3.541   1.751   0.574 -1.6442 -0.1329  0.5395
 2403TIP3    H2 7216   3.465   1.752   0.705  0.4133 -0.3613  1.7694
 2404TIP3   OH2 7217   2.898   2.164   1.793  0.0813 -0.7974  0.2434
 2404TIP3    H1 7218   2.846   2.089   1.822  0.6976 -1.4618 -0.2952
 2404TIP3    H2 7219   2.979   2.158   1.845 -0.4660  0.3785  1.2700
 2405TIP3   OH2 7220   6.310   1.042   4.141  0.3299  0.5365 -0.2998
 2405TIP3    H1 7221   6.379   1.044   4.208 -1.8273 -0.4156  2.0963
 2405TIP3    H2 7222   6.278   1.132   4.136  0.3591  0.5680  0.0851
 2406TIP3   OH2 7223   6.306   1.044   1.776  0.0531 -0.7762  0.0889
 2406TIP3    H1 7224   6.265   1.012   1.696 -0.6976 -2.5122  1.1041
 2406TIP3    H2 7225   6.258   1.124   1.796  0.6980  0.0517 -1.5150
 2407TIP3   OH2 7226   3.592   0.215   4.668 -0.7135 -0.1771 -0.3277
 2407TIP3    H1 7227   3.581   0.181   4.756  2.5921  0.5001  0.4983
 2407TIP3    H2 7228   3.599   0.137   4.613 -1.6947 -0.6242  0.1639
 2408TIP3   OH2 7229   0.116   1.913   2.454 -0.2034  0.2082  0.4545
 2408TIP3    H1 7230   0.067   1.842   2.413 -0.0576  1.2947 -1.7638
 2408TIP3    H2 7231   0.206   1.902   2.424 -0.2860  1.6222 -0.4067
 2409TIP3   OH2 7232   0.742   2.954   3.918  0.2021  0.4017 -0.2755
 2409TIP3    H1 7233   0.671   2.977   3.858  1.0774  0.9501 -1.1319
 2409TIP3    H2 7234   0.816   2.932   3.861  0.6835 -0.3115  0.5937
 2410TIP3   OH2 7235   1.039   5.389   5.161 -0.6100 -0.1837  0.0328
 2410TIP3    H1 7236   1.096   5.412   5.234  0.1222  1.0084 -0.8744
 2410TIP3    H2 7237   1.025   5.472   5.115 -2.4752 -0.5935 -0.2053
 2411TIP3   OH2 7238   4.185   3.499   3.740  0.0991 -0.4554  0.3778
 2411TIP3    H1 7239   4.154   3.588   3.756 -1.3172 -1.3971  3.6343
 2411TIP3    H2 7240   4.107   3.451   3.713  0.5370 -1.0885  0.2113
 2412TIP3   OH2 7241   2.484   3.766   2.696 -0.5855 -0.4517  0.2288
 2412TIP3    H1 7242   2.432   3.752   2.776  0.0980  2.6418  1.3442
 2412TIP3    H2 7243   2.458   3.853   2.665  2.7995  0.6499  0.0474
 2413TIP3   OH2 7244   2.790   0.170   2.332 -0.0918 -0.2497  0.4209
 2413TIP3    H1 7245   2.871   0.119   2.332  0.3335  0.3889  1.4060
 2413TIP3    H2 7246   2.730   0.120   2.386  0.1946  0.0796  1.0547
 2414TIP3   OH2 7247   3.737   3.772   4.985  0.6168 -0.3564  0.5886
 2414TIP3    H1 7248   3.762   3.684   5.013  0.9768 -0.3308  0.3524
 2414TIP3    H2 7249   3.751   3.771   4.890 -0.7695 -0.5060  0.3642
 2415TIP3   OH2 7250   1.569   3.390   4.483  0.6450 -0.1887  0.3222
 2415TIP3    H1 7251   1.525   3.425   4.560 -0.4042  1.3368 -0.8957
 2415TIP3    H2 7252   1.655   3.432   4.482 -0.0664  1.3291 -0.3413
 2416TIP3   OH2 7253   1.140   4.914   4.602 -0.4128  0.3098  0.3594
 2416TIP3    H1 7254   1.165   4.822   4.589  1.4846  0.8605 -0.1642
 2416TIP3    H2 7255   1.125   4.947   4.514  0.1078  0.8045  0.4520
 2417TIP3   OH2 7256   2.076   3.528   3.074  0.3703 -0.0384 -0.2888
 2417TIP3    H1 7257   1.997   3.475   3.087 -0.3204  0.8321 -0.8246
 2417TIP3    H2 7258   2.130   3.476   3.014  0.7001 -1.1174  0.9085
 2418TIP3   OH2 7259   1.298   3.618   2.319  0.7259  0.1330  0.4823
 2418TIP3    H1 7260   1.359   3.692   2.315  1.7121 -0.6124  1.0720
 2418TIP3    H2 7261   1.257   3.624   2.405 -0.0439  0.6254  0.0914
 2419TIP3   OH2 7262   5.670   3.891   3.955  0.0958  0.5356  0.3701
 2419TIP3    H1 7263   5.596   3.952   3.949 -0.3595  0.1450  1.7147
 2419TIP3    H2 7264   5.746   3.947   3.969 -0.0726  0.8827 -0.0648
 2420TIP3   OH2 7265   3.838   1.388   2.680  0.4307 -0.3234 -0.2244
 2420TIP3    H1 7266   3.763   1.438   2.712 -0.0940 -0.9654 -0.4597
 2420TIP3    H2 7267   3.911   1.451   2.684  0.5191 -0.4707  2.6400
 2421TIP3   OH2 7268   3.562   0.675   1.383 -0.3337 -0.0854  0.5240
 2421TIP3    H1 7269   3.581   0.727   1.461  0.9033  1.2845 -0.6191
 2421TIP3    H2 7270   3.471   0.699   1.360 -0.0435  1.0340  0.4537
 2422TIP3   OH2 7271   6.210   3.622   1.926 -0.1520  0.4057 -0.3067
 2422TIP3    H1 7272   6.237   3.699   1.876  0.2453  0.2554 -0.3295
 2422TIP3    H2 7273   6.290   3.594   1.971 -0.4868  0.5230  0.3912
 2423TIP3   OH2 7274   4.880   1.986   3.878 -0.0132 -0.0358 -0.3271
 2423TIP3    H1 7275   4.871   1.894   3.855  1.3281 -0.1712 -0.3571
 2423TIP3    H2 7276   4.811   2.001   3.943  0.8440 -1.5050  0.9675
 2424TIP3   OH2 7277   6.055   5.134   0.161  0.0854 -0.6116 -0.1579
 2424TIP3    H1 7278   5.990   5.102   0.224  0.8008 -2.8419 -0.4657
 2424TIP3    H2 7279   6.070   5.060   0.102  0.4664  0.9624 -2.1224
 2425TIP3   OH2 7280   4.009   5.079   1.587 -0.0149  0.6125 -0.0939
 2425TIP3    H1 7281   3.992   5.033   1.506  0.8948  1.0058 -0.5257
 2425TIP3    H2 7282   3.952   5.037   1.652  1.4328 -1.7667 -0.2443
 2426TIP3   OH2 7283   1.021   2.722   4.419 -0.3941 -0.0934  0.2975
 2426TIP3    H1 7284   1.069   2.650   4.377  1.6457  0.3456  1.7101
 2426TIP3    H2 7285   0.993   2.777   4.345 -0.0554 -1.1737 -0.6745
 2427TIP3   OH2 7286   5.882   0.672   3.147  0.0423  0.2650 -0.2871
 2427TIP3    H1 7287   5.894   0.665   3.242  0.0506  2.1223 -0.1268
 2427TIP3    H2 7288   5.964   0.709   3.115 -0.3396  0.5957 -0.8944
 2428TIP3   OH2 7289   6.329   0.964   4.666  0.2800  0.5983  0.2128
 2428TIP3    H1 7290   6.317   0.947   4.760 -1.2610  2.0008  0.3232
 2428TIP3    H2 7291   6.309   1.057   4.657 -0.5154  0.2778 -1.6536
 2429TIP3   OH2 7292   4.560   3.548   3.336 -0.0990 -0.3107  0.0194
 2429TIP3    H1 7293   4.483   3.516   3.382  0.3844 -0.7792  0.4985
 2429TIP3    H2 7294   4.605   3.470   3.306 -0.6204 -0.0217 -1.6374
 2430TIP3   OH2 7295   3.969   0.378   4.474 -0.2994 -0.1493  0.0872
 2430TIP3    H1 7296   4.049   0.326   4.483 -0.0445  0.5422  2.8053
 2430TIP3    H2 7297   3.966   0.431   4.554 -2.9163  0.6489 -0.4484
 2431TIP3   OH2 7298   0.995   2.295   3.691  0.1630  0.2709 -0.0887
 2431TIP3    H1 7299   1.046   2.336   3.761  1.2598 -1.5273  0.2360
 2431TIP3    H2 7300   0.909   2.278   3.730  0.7945 -0.8099  0.9061
 2432TIP3   OH2 7301   2.417   5.035   4.224 -0.1010 -0.1491 -0.0300
 2432TIP3    H1 7302   2.486   5.049   4.288 -0.2966  0.5162  0.0362
 2432TIP3    H2 7303   2.462   5.030   4.140  0.0671 -0.1235  0.0596
 2433TIP3   OH2 7304   6.106   3.911   2.626  0.8455 -0.5967  0.0593
 2433TIP3    H1 7305   6.167   3.840   2.607  0.1853 -1.1234 -0.1082
 2433TIP3    H2 7306   6.101   3.961   2.545  0.1086 -1.2706 -0.3152
 2434TIP3   OH2 7307   4.571   2.219   3.311 -0.4905 -0.1242 -0.0371
 2434TIP3    H1 7308   4.589   2.140   3.360 -0.2785  1.1820  2.1128
 2434TIP3    H2 7309   4.612   2.205   3.226  2.7586 -0.9115  1.5131
 2435TIP3   OH2 7310   1.875   4.399   1.281  0.1163 -0.5513  0.2171
 2435TIP3    H1 7311   1.806   4.407   1.348  0.0137 -0.3084  0.0833
 2435TIP3    H2 7312   1.933   4.473   1.298 -0.2193 -0.1606 -0.3187
 2436TIP3   OH2 7313   3.622   1.136   1.556 -0.5541  0.4709  0.3221
 2436TIP3    H1 7314   3.716   1.136   1.537 -0.3008 -1.2907  1.3587
 2436TIP3    H2 7315   3.581   1.101   1.477 -0.2395  0.2222  0.2691
 2437TIP3   OH2 7316   3.230   1.961   0.632  0.1114 -0.2745 -0.2044
 2437TIP3    H1 7317   3.277   1.898   0.687  0.9613  2.0453  1.9181
 2437TIP3    H2 7318   3.266   1.947   0.544  1.6859 -1.4087  0.5653
 2438TIP3   OH2 7319   5.598   5.499   3.246  0.6587 -0.1945 -0.2279
 2438TIP3    H1 7320   5.622   5.570   3.186  0.6328  0.7181  0.8041
 2438TIP3    H2 7321   5.512   5.523   3.279 -0.1689 -1.6570 -1.2213
 2439TIP3   OH2 7322   2.745   2.612   5.129  0.1179  0.4413  0.7074
 2439TIP3    H1 7323   2.743   2.520   5.153  1.3935 -0.0711 -0.9715
 2439TIP3    H2 7324   2.818   2.649   5.180 -0.5962  0.6265  1.6230
 2440TIP3   OH2 7325   3.857   3.857   1.545 -0.8840  0.0366 -0.2042
 2440TIP3    H1 7326   3.857   3.913   1.622 -2.5570 -1.6934  1.1449
 2440TIP3    H2 7327   3.902   3.777   1.573  0.7972  0.3320 -1.8577
 2441TIP3   OH2 7328   1.733   4.401   0.404 -0.3328  0.0933 -0.1825
 2441TIP3    H1 7329   1.787   4.324   0.388 -0.2605 -0.1068  0.9338
 2441TIP3    H2 7330   1.778   4.447   0.474 -1.7673 -0.2548  1.0020
 2442TIP3   OH2 7331   1.361   2.500   0.349  0.1433  0.4574  0.1866
 2442TIP3    H1 7332   1.425   2.571   0.352  0.4303  0.3712 -2.2918
 2442TIP3    H2 7333   1.345   2.485   0.256 -1.0071 -1.7489  0.6606
 2443TIP3   OH2 7334   0.573   5.966   4.131  0.5864 -0.5313  0.2722
 2443TIP3    H1 7335   0.487   5.956   4.172  0.7196 -1.5072  0.3259
 2443TIP3    H2 7336   0.581   5.891   4.072  0.7980  0.3381 -0.8367
 2444TIP3   OH2 7337   5.462   1.390   4.402  0.2602  0.2507  0.1320
 2444TIP3    H1 7338   5.400   1.412   4.333  0.6751  0.1583 -0.2769
 2444TIP3    H2 7339   5.499   1.475   4.429 -1.1649  0.4857  1.4739
 2445TIP3   OH2 7340   5.292   3.487   0.784  0.2421  0.1513 -0.1143
 2445TIP3    H1 7341   5.359   3.521   0.844 -0.1902  2.2783 -0.7584
 2445TIP3    H2 7342   5.258   3.565   0.740 -2.0324 -0.9788 -0.4578
 2446TIP3   OH2 7343   6.095   5.372   1.333 -0.1211 -1.0736  0.8099
 2446TIP3    H1 7344   6.028   5.322   1.287 -0.0072  1.2538 -2.2262
 2446TIP3    H2 7345   6.146   5.414   1.264  1.3496  1.1801  3.0654
 2447TIP3   OH2 7346   4.989   1.893   4.317 -0.4050  0.6212 -0.3138
 2447TIP3    H1 7347   5.026   1.857   4.237 -1.2999 -0.3970 -0.2946
 2447TIP3    H2 7348   5.065   1.929   4.365  0.3997 -0.4472 -0.7536
 2448TIP3   OH2 7349   4.056   0.715   2.079  0.0440  0.2589  0.2286
 2448TIP3    H1 7350   4.135   0.715   2.134 -0.7929 -0.0420  1.4733
 2448TIP3    H2 7351   3.984   0.730   2.140 -1.1045 -1.8999 -0.4833
 2449TIP3   OH2 7352   5.859   5.279   0.007 -0.0986  0.3868  0.3721
 2449TIP3    H1 7353   5.834   5.200  -0.040 -0.1144  0.6536 -0.0723
 2449TIP3    H2 7354   5.941   5.255   0.051 -0.4598 -0.0835  0.7893
 2450TIP3   OH2 7355   5.635   0.587   2.516  0.0241  0.6396 -0.3416
 2450TIP3    H1 7356   5.605   0.522   2.453  0.4070 -0.7825  0.8941
 2450TIP3    H2 7357   5.559   0.601   2.573 -0.1776  1.5763 -0.8234
 2451TIP3   OH2 7358   0.458   0.722   4.468 -0.1341 -0.2743  0.4763
 2451TIP3    H1 7359   0.423   0.665   4.400 -1.9773 -0.0083  1.1421
 2451TIP3    H2 7360   0.509   0.787   4.420  0.3353 -1.2926 -0.4510
 2452TIP3   OH2 7361   0.105   2.936   0.613 -0.5287  0.6453  0.0333
 2452TIP3    H1 7362   0.078   2.844   0.611 -0.9329  0.6864  1.7923
 2452TIP3    H2 7363   0.191   2.937   0.570 -0.3196 -0.6424  0.3690
 2453TIP3   OH2 7364   1.172   5.463   3.309  0.6050  0.1458 -0.2747
 2453TIP3    H1 7365   1.180   5.474   3.214  0.8383 -1.2824 -0.4373
 2453TIP3    H2 7366   1.085   5.495   3.329  0.4860  0.3092 -0.9999
 2454TIP3   OH2 7367   0.922   3.931   0.785 -0.1548  0.4533  0.1885
 2454TIP3    H1 7368   0.937   3.837   0.787 -2.0087  0.1173  1.8628
 2454TIP3    H2 7369   0.926   3.958   0.877  0.3213  2.0317 -0.2546
 2455TIP3   OH2 7370   6.074   3.546   2.529  0.5397 -0.1191 -0.1047
 2455TIP3    H1 7371   6.115   3.460   2.542 -0.9902 -0.9225 -0.2862
 2455TIP3    H2 7372   5.980   3.529   2.541  0.3800  2.1048  2.8175
 2456TIP3   OH2 7373   5.256   3.634   4.319 -0.0392  0.6500 -0.0759
 2456TIP3    H1 7374   5.306   3.659   4.242 -0.5470  0.8443 -0.3471
 2456TIP3    H2 7375   5.303   3.559   4.355 -0.4824 -0.2349 -1.2933
 2457TIP3   OH2 7376   2.857   1.040   1.896 -0.0068  0.2388 -0.2204
 2457TIP3    H1 7377   2.942   1.031   1.937 -1.5837 -0.1762  3.3237
 2457TIP3    H2 7378   2.860   0.980   1.821  2.6612  0.0147 -0.0302
 2458TIP3   OH2 7379   5.318   0.065   5.094 -0.4674  0.2170 -0.3631
 2458TIP3    H1 7380   5.405   0.048   5.056  1.2649  2.2914  2.3146
 2458TIP3    H2 7381   5.261   0.079   5.018  1.9039  0.5122 -2.2216
 2459TIP3   OH2 7382   1.898   3.156   2.367  0.0675  0.2371 -0.0406
 2459TIP3    H1 7383   1.935   3.244   2.369  0.3212  0.1257  0.5199
 2459TIP3    H2 7384   1.857   3.149   2.281 -0.1032  0.9627 -0.0255
 2460TIP3   OH2 7385   5.033   1.129   3.598 -0.4165 -1.1061 -0.1710
 2460TIP3    H1 7386   5.107   1.188   3.590 -1.2983  0.1768  0.6436
 2460TIP3    H2 7387   5.065   1.057   3.653  0.7594 -1.5652 -1.4155
 2461TIP3   OH2 7388   6.195   4.964   0.521 -0.0190 -0.3226 -0.1656
 2461TIP3    H1 7389   6.134   5.025   0.564 -1.6380 -1.5933 -0.5503
 2461TIP3    H2 7390   6.228   5.012   0.445 -1.0292  0.1937 -0.2881
 2462TIP3   OH2 7391   2.088   5.509   1.143 -0.3346 -0.0329 -0.1169
 2462TIP3    H1 7392   2.108   5.578   1.080 -0.5730  1.1852  1.0962
 2462TIP3    H2 7393   2.170   5.496   1.191 -0.9073  1.1604  1.2672
 2463TIP3   OH2 7394   4.817   0.053   1.013 -0.0915  0.4226 -0.2109
 2463TIP3    H1 7395   4.752   0.123   1.015 -0.6126 -0.0699  0.4761
 2463TIP3    H2 7396   4.768  -0.025   0.986  0.1696  0.0031  0.5054
 2464TIP3   OH2 7397   2.177   1.436   4.845  0.4101 -0.6618  0.9492
 2464TIP3    H1 7398   2.102   1.453   4.902 -1.9816 -0.4430 -1.9987
 2464TIP3    H2 7399   2.167   1.498   4.773  1.8599 -2.4488 -0.9290
 2465TIP3   OH2 7400   5.488   4.090   0.111 -0.2101  0.0299  0.6512
 2465TIP3    H1 7401   5.577   4.057   0.098 -0.1899 -0.3744  1.7381
 2465TIP3    H2 7402   5.478   4.159   0.045 -0.0973 -1.8273 -1.4246
 2466TIP3   OH2 7403   4.306   1.473   2.987 -0.1914  0.2383 -0.5170
 2466TIP3    H1 7404   4.308   1.378   2.988 -1.3946  0.1792 -1.4576
 2466TIP3    H2 7405   4.391   1.500   3.023 -0.6118 -1.1606  1.6946
 2467TIP3   OH2 7406   0.411   2.869   3.307  0.4052 -0.6790 -0.0789
 2467TIP3    H1 7407   0.453   2.784   3.317 -0.0807 -1.0769 -1.2544
 2467TIP3    H2 7408   0.483   2.931   3.298  0.7596 -0.9679  0.7088
 2468TIP3   OH2 7409   2.414   2.225   1.019 -0.0706  0.0231 -0.5268
 2468TIP3    H1 7410   2.431   2.244   1.111 -0.3708  1.8976 -0.8232
 2468TIP3    H2 7411   2.489   2.171   0.992  2.0394  2.4865 -0.0697
 2469TIP3   OH2 7412   5.593   4.568   3.086 -0.1842  0.1097 -0.1640
 2469TIP3    H1 7413   5.652   4.529   3.023 -0.4078  1.3233 -1.1615
 2469TIP3    H2 7414   5.513   4.586   3.037  1.0514  5.1379 -0.9158
 2470TIP3   OH2 7415   2.673   3.367   2.365  0.1190 -0.5980 -0.2536
 2470TIP3    H1 7416   2.583   3.400   2.362  0.0927 -0.5732  0.5829
 2470TIP3    H2 7417   2.689   3.349   2.458  0.8094 -1.0717 -0.4568
 2471TIP3   OH2 7418   4.431   3.197   0.495 -0.0910 -0.0057  0.0667
 2471TIP3    H1 7419   4.485   3.200   0.574 -0.7455  0.5876  0.5071
 2471TIP3    H2 7420   4.345   3.168   0.526 -0.1849 -0.3719 -0.5262
 2472TIP3   OH2 7421   0.150   1.627   1.019  0.6210  0.3764  0.0077
 2472TIP3    H1 7422   0.211   1.560   1.051  0.4870  0.3807  0.2698
 2472TIP3    H2 7423   0.078   1.577   0.980  0.9672  0.3711 -0.6408
 2473TIP3   OH2 7424   5.838   5.056   0.306  0.1917 -0.3991  0.0893
 2473TIP3    H1 7425   5.784   4.980   0.286 -0.7739  0.3664 -0.2869
 2473TIP3    H2 7426   5.813   5.081   0.395 -0.6558  0.3990 -0.3484
 2474TIP3   OH2 7427   1.435   3.367   3.491 -0.3429  0.2162  0.0413
 2474TIP3    H1 7428   1.494   3.339   3.561  1.0067  1.3136 -0.6070
 2474TIP3    H2 7429   1.348   3.362   3.530 -0.0381 -2.9391  0.5400
 2475TIP3   OH2 7430   0.360   0.050   0.582 -0.0271 -0.0054  0.2457
 2475TIP3    H1 7431   0.332   0.136   0.549 -0.7199  1.1906  3.5554
 2475TIP3    H2 7432   0.279  -0.000   0.588  0.1918 -0.4539 -0.4569
 2476TIP3   OH2 7433   0.185   4.014   4.800 -0.4217 -0.3518  0.0198
 2476TIP3    H1 7434   0.196   4.034   4.893 -1.5322 -0.0957  0.1016
 2476TIP3    H2 7435   0.267   4.045   4.760 -0.4067  0.5942  0.7470
 2477TIP3   OH2 7436   4.790   1.081   2.989 -0.1730  0.1133 -0.1777
 2477TIP3    H1 7437   4.749   1.072   2.903  1.0269 -1.9540 -0.6157
 2477TIP3    H2 7438   4.878   1.113   2.970  0.1513 -0.5119  0.2325
 2478TIP3   OH2 7439   3.681   0.202   3.238 -0.1582 -0.4436  0.4302
 2478TIP3    H1 7440   3.727   0.124   3.268 -0.3954 -0.9069 -0.3920
 2478TIP3    H2 7441   3.724   0.225   3.155 -0.3418  0.0710  0.4738
 2479TIP3   OH2 7442   1.818   0.782   5.063  0.1702  0.0964 -0.2523
 2479TIP3    H1 7443   1.748   0.795   4.998 -0.2715  0.5040  0.2911
 2479TIP3    H2 7444   1.776   0.733   5.134  0.1057  1.3075  0.5874
 2480TIP3   OH2 7445   3.272   4.575   3.660  0.2504  0.6638 -0.1496
 2480TIP3    H1 7446   3.355   4.540   3.629  1.1133  0.3894  2.2803
 2480TIP3    H2 7447   3.237   4.623   3.586  2.8855  1.3417 -1.0395
 2481TIP3   OH2 7448   0.595   2.661   0.699  0.4788  0.6438  0.7195
 2481TIP3    H1 7449   0.575   2.635   0.789  0.8725  1.9886  1.2153
 2481TIP3    H2 7450   0.653   2.737   0.708  0.1255  1.1055 -0.6596
 2482TIP3   OH2 7451   1.416   2.907   0.520 -0.0530 -0.4851  0.0414
 2482TIP3    H1 7452   1.485   2.924   0.457 -0.6370 -0.8356 -0.7027
 2482TIP3    H2 7453   1.396   2.992   0.558  1.1093 -0.4507  0.6178
 2483TIP3   OH2 7454   2.581   3.070   2.336 -0.5942 -0.2564  0.0003
 2483TIP3    H1 7455   2.537   3.125   2.400 -1.8114 -1.0357 -0.1178
 2483TIP3    H2 7456   2.576   3.119   2.254 -3.7615 -1.3943 -0.6492
 2484TIP3   OH2 7457   2.046   0.042   1.688 -0.2419  0.2133  0.0009
 2484TIP3    H1 7458   2.075  -0.038   1.643 -0.0600  0.6150 -0.6067
 2484TIP3    H2 7459   2.080   0.032   1.777  2.2150  0.8653 -0.7871
 2485TIP3   OH2 7460   4.780   0.590   2.484 -0.0077  0.3248 -0.2136
 2485TIP3    H1 7461   4.795   0.600   2.578  0.8409  0.3903 -0.3452
 2485TIP3    H2 7462   4.686   0.574   2.476  0.0549 -0.6085  0.7198
 2486TIP3   OH2 7463   6.312   1.557   3.762  0.1437 -0.3676 -0.3254
 2486TIP3    H1 7464   6.387   1.579   3.817 -1.2107 -1.3357  2.0496
 2486TIP3    H2 7465   6.332   1.471   3.726  1.2449  0.4717 -1.8414
 2487TIP3   OH2 7466   3.768   5.598   1.904  0.3467 -0.2828  0.0485
 2487TIP3    H1 7467   3.798   5.648   1.828 -1.8000 -0.1199 -0.7676
 2487TIP3    H2 7468   3.843   5.598   1.964  1.0950  2.1893 -0.7682
 2488TIP3   OH2 7469   1.251   0.268   1.998 -0.1319 -0.4881 -0.6894
 2488TIP3    H1 7470   1.206   0.227   1.924 -1.1449 -2.0275  0.7122
 2488TIP3    H2 7471   1.304   0.337   1.958 -0.6011 -1.2863 -2.8454
 2489TIP3   OH2 7472   3.629   1.944   3.185  0.1356  0.2537  0.1561
 2489TIP3    H1 7473   3.667   1.925   3.270 -0.0651  0.0085  0.1930
 2489TIP3    H2 7474   3.569   2.017   3.201 -0.0938  0.0417  0.2778
 2490TIP3   OH2 7475   5.725   0.099   3.466 -0.3351  0.9461 -0.4622
 2490TIP3    H1 7476   5.810   0.076   3.428 -0.1338  0.1322  0.4224
 2490TIP3    H2 7477   5.737   0.086   3.560 -1.5752  0.3859 -0.3653
 2491TIP3   OH2 7478   5.843   2.812   4.526  0.2772 -0.4625 -0.0307
 2491TIP3    H1 7479   5.862   2.844   4.614  0.3078 -0.2044 -0.1321
 2491TIP3    H2 7480   5.874   2.721   4.526  1.9834  0.0938 -0.3423
 2492TIP3   OH2 7481   6.360   4.648   4.003 -0.1638  0.4788 -0.1231
 2492TIP3    H1 7482   6.314   4.576   3.960  0.5400 -0.3309  0.4360
 2492TIP3    H2 7483   6.324   4.651   4.091 -0.2057  0.8397 -0.1481
 2493TIP3   OH2 7484   3.312   0.222   0.504  0.0188 -0.3233  0.3444
 2493TIP3    H1 7485   3.227   0.179   0.517 -0.6937  0.9397  0.0545
 2493TIP3    H2 7486   3.303   0.306   0.549  1.0092 -0.0404  0.0326
 2494TIP3   OH2 7487   4.345   2.955   3.959  0.5913 -0.9002  0.1555
 2494TIP3    H1 7488   4.424   2.919   3.919 -0.7165 -1.7476 -1.8402
 2494TIP3    H2 7489   4.273   2.923   3.904 -0.9853  1.6996  0.5259
 2495TIP3   OH2 7490   4.862   1.449   1.785 -0.6542  0.0587  0.4506
 2495TIP3    H1 7491   4.884   1.421   1.874 -1.0116  0.3830  0.6480
 2495TIP3    H2 7492   4.856   1.545   1.792  0.8482  0.2414 -0.2666
 2496TIP3   OH2 7493   2.053   0.359   0.599 -0.0986 -0.2140  0.2458
 2496TIP3    H1 7494   2.062   0.291   0.666  1.8498 -0.0292  0.2289
 2496TIP3    H2 7495   2.043   0.440   0.648  0.8510 -0.1387  0.3422
 2497TIP3   OH2 7496   0.674   4.874   2.334 -0.4204 -0.0270 -0.9924
 2497TIP3    H1 7497   0.657   4.808   2.267 -2.4483 -0.5188 -0.0630
 2497TIP3    H2 7498   0.643   4.835   2.416  3.1414  0.0552  0.5708
 2498TIP3   OH2 7499   6.259   4.443   0.663  0.2196  0.3826 -0.2982
 2498TIP3    H1 7500   6.182   4.441   0.720  1.1879  0.5208  1.0461
 2498TIP3    H2 7501   6.255   4.529   0.621 -0.0430  0.6270  0.2188
 2499TIP3   OH2 7502   4.600   5.150   3.796 -0.4073 -0.0683 -0.3947
 2499TIP3    H1 7503   4.538   5.183   3.731 -2.1937 -2.1277  0.1497
 2499TIP3    H2 7504   4.665   5.101   3.744 -0.3630  0.4366 -0.8221
 2500TIP3   OH2 7505   1.907   2.942   1.151  0.1745 -0.2382 -1.0620
 2500TIP3    H1 7506   1.977   2.989   1.105  1.1240 -0.8261 -0.2524
 2500TIP3    H2 7507   1.944   2.856   1.170 -0.0774  0.0766  1.0417
 2501TIP3   OH2 7508   5.767   2.127   0.570  0.2781  0.3298  0.2117
 2501TIP3    H1 7509   5.831   2.161   0.633  1.8992 -1.9078 -0.1183
 2501TIP3    H2 7510   5.820   2.090   0.500 -1.3225 -2.3397  0.2942
 2502TIP3   OH2 7511   5.297   4.397   3.200  0.3681  0.0668 -0.2331
 2502TIP3    H1 7512   5.385   4.389   3.165  0.3380 -1.0135 -0.1072
 2502TIP3    H2 7513   5.258   4.470   3.153  1.4451  0.7942 -0.0306
 2503TIP3   OH2 7514   2.659   5.096   3.198 -0.2144 -0.2389  0.5707
 2503TIP3    H1 7515   2.660   5.117   3.105 -1.3023 -0.6157  0.4559
 2503TIP3    H2 7516   2.573   5.057   3.213 -0.6840  1.2163  2.0481
 2504TIP3   OH2 7517   1.165   0.343   1.281  0.3056  0.4712 -0.3906
 2504TIP3    H1 7518   1.128   0.430   1.275  1.7492  1.0830 -0.9149
 2504TIP3    H2 7519   1.110   0.297   1.345 -1.0074  1.4599 -0.7682
 2505TIP3   OH2 7520   4.819   3.139   4.245 -0.2422  0.0251  0.0159
 2505TIP3    H1 7521   4.841   3.057   4.200 -0.3292  0.0563 -0.0850
 2505TIP3    H2 7522   4.863   3.133   4.330  0.1684  0.0917 -0.1887
 2506TIP3   OH2 7523   3.526   4.960   2.484 -0.0334  0.5723  0.0834
 2506TIP3    H1 7524   3.457   4.906   2.523 -0.2759  0.6224 -0.2627
 2506TIP3    H2 7525   3.542   5.029   2.548  0.2008  0.1556  0.4811
 2507TIP3   OH2 7526   1.342   3.344   4.334  0.0374 -0.0786  0.0988
 2507TIP3    H1 7527   1.297   3.425   4.311 -1.4246 -1.0458 -0.5992
 2507TIP3    H2 7528   1.424   3.372   4.374 -0.2943  1.7247 -0.4317
 2508TIP3   OH2 7529   2.763   0.067   1.513  0.1793 -0.1544 -0.0510
 2508TIP3    H1 7530   2.757   0.162   1.507  1.1664 -0.1497 -1.7394
 2508TIP3    H2 7531   2.857   0.049   1.514  0.0078 -1.1112  0.4549
 2509TIP3   OH2 7532   3.905   1.381   1.372  0.2025 -0.6294 -0.0552
 2509TIP3    H1 7533   3.847   1.448   1.337 -0.1649 -0.9455 -0.0649
 2509TIP3    H2 7534   3.894   1.386   1.467  0.8547 -0.0764 -0.0068
 2510TIP3   OH2 7535   4.773   3.425   2.951  0.1488 -0.1694  0.0829
 2510TIP3    H1 7536   4.851   3.472   2.920 -0.2566  0.5366  0.1203
 2510TIP3    H2 7537   4.761   3.456   3.041  1.0135 -1.8110  0.8115
 2511TIP3   OH2 7538   2.742   3.766   3.929 -0.0440 -0.0761  0.0303
 2511TIP3    H1 7539   2.826   3.745   3.888 -1.4103 -0.6764 -2.6561
 2511TIP3    H2 7540   2.709   3.841   3.879 -0.7889  0.6886  1.5800
 2512TIP3   OH2 7541   1.514   4.588   1.574  0.0794  0.4502  0.2296
 2512TIP3    H1 7542   1.450   4.531   1.616  0.0432 -0.6937 -1.2993
 2512TIP3    H2 7543   1.588   4.531   1.555 -0.3875  0.5872 -2.3149
 2513TIP3   OH2 7544   0.612   4.203   3.208  0.5787 -0.5102  0.3570
 2513TIP3    H1 7545   0.613   4.107   3.203  0.3592 -0.6226  2.0347
 2513TIP3    H2 7546   0.704   4.228   3.208  0.7279 -0.9122  2.4074
 2514TIP3   OH2 7547   1.725   1.599   0.218 -0.0195  0.7044 -0.0032
 2514TIP3    H1 7548   1.745   1.506   0.225  0.5546  0.4319 -3.5244
 2514TIP3    H2 7549   1.810   1.642   0.219 -0.1992  1.0628  0.0352
 2515TIP3   OH2 7550   5.887   2.174   4.586  0.2757  0.2188  0.1540
 2515TIP3    H1 7551   5.918   2.259   4.614 -2.1096  1.1964  0.0504
 2515TIP3    H2 7552   5.803   2.163   4.630 -0.6736 -0.9156 -1.7930
 2516TIP3   OH2 7553   5.167   0.408   3.417  1.0012  0.3546  0.1153
 2516TIP3    H1 7554   5.222   0.484   3.401  0.0678  0.5762 -2.5534
 2516TIP3    H2 7555   5.096   0.440   3.473  1.5584  0.9965  0.4537
 2517TIP3   OH2 7556   3.261   1.080   0.278 -0.3653 -0.1151  0.1544
 2517TIP3    H1 7557   3.182   1.083   0.331 -1.8892  0.2744 -1.9843
 2517TIP3    H2 7558   3.302   1.165   0.290 -1.3842  0.4453 -0.2554
 2518TIP3   OH2 7559   5.980   5.918   1.712 -0.0716  0.3563  0.0805
 2518TIP3    H1 7560   5.992   5.998   1.662 -0.4429 -0.7722 -1.8953
 2518TIP3    H2 7561   6.038   5.854   1.671 -0.7583 -0.7534  0.7800
 2519TIP3   OH2 7562   4.335   3.992   4.896 -0.6306  0.4429  0.1333
 2519TIP3    H1 7563   4.387   3.981   4.816  1.1450 -1.5713  1.4538
 2519TIP3    H2 7564   4.314   4.085   4.898  1.4099  1.0203 -1.4257
 2520TIP3   OH2 7565   2.603   1.985   4.072 -0.1331 -0.1978  0.0315
 2520TIP3    H1 7566   2.553   1.911   4.036  1.2878 -1.0534 -0.2755
 2520TIP3    H2 7567   2.647   1.949   4.148 -0.3101  0.6590  0.5483
 2521TIP3   OH2 7568   3.239   1.797   1.697  0.1532  0.3502  0.0456
 2521TIP3    H1 7569   3.309   1.858   1.717 -0.0692  0.3053  1.0533
 2521TIP3    H2 7570   3.170   1.818   1.761  0.2010 -1.1400  0.6306
 2522TIP3   OH2 7571   5.463   2.002   1.084  0.2452  1.1952 -0.1519
 2522TIP3    H1 7572   5.475   1.928   1.145  0.8405  1.7696  0.4430
 2522TIP3    H2 7573   5.510   1.976   1.005 -0.5815  0.4150 -0.4056
 2523TIP3   OH2 7574   2.039   3.627   1.193 -0.1797  0.0193  0.0054
 2523TIP3    H1 7575   2.064   3.665   1.278 -1.2740 -1.4765  1.0502
 2523TIP3    H2 7576   2.028   3.703   1.136  3.9291  0.9695  0.1207
 2524TIP3   OH2 7577   1.997   3.644   2.032 -0.2076 -0.0085  0.3836
 2524TIP3    H1 7578   2.024   3.575   2.092 -0.6065 -0.6245 -0.1186
 2524TIP3    H2 7579   1.904   3.626   2.017 -0.8430  1.8240  1.7906
 2525TIP3   OH2 7580   3.574   3.676   0.739 -0.2707  0.2488  0.4223
 2525TIP3    H1 7581   3.599   3.589   0.770  0.6439 -0.6176 -2.4325
 2525TIP3    H2 7582   3.542   3.721   0.818  0.4312 -2.1939  2.2426
 2526TIP3   OH2 7583   0.009   1.195   0.514  0.6081  0.4412 -0.0951
 2526TIP3    H1 7584  -0.062   1.255   0.489  0.7277 -0.1111 -1.9064
 2526TIP3    H2 7585   0.065   1.247   0.571 -0.5766  1.2799  0.3525
 2527TIP3   OH2 7586   0.627   5.291   3.215 -0.7138  0.2053  0.0433
 2527TIP3    H1 7587   0.718   5.261   3.219 -0.3515  1.3018  0.2077
 2527TIP3    H2 7588   0.597   5.285   3.306 -0.7081  0.1546  0.0422
 2528TIP3   OH2 7589   1.293   2.379   4.113 -0.2740  0.0388  0.0486
 2528TIP3    H1 7590   1.300   2.283   4.119 -0.4044  0.1041  2.1667
 2528TIP3    H2 7591   1.370   2.406   4.064  0.8203 -1.0455  1.0966
 2529TIP3   OH2 7592   5.615   2.790   1.138 -0.4937 -0.0253 -0.2493
 2529TIP3    H1 7593   5.570   2.869   1.167  0.1671  0.4682 -0.5411
 2529TIP3    H2 7594   5.565   2.718   1.177 -0.3894  0.5763  1.0123
 2530TIP3   OH2 7595   6.048   4.703   2.288  0.1040  0.5914  0.3934
 2530TIP3    H1 7596   6.067   4.755   2.366  0.2715 -0.6822  1.2458
 2530TIP3    H2 7597   6.130   4.655   2.271 -0.6017 -0.8096  0.7921
 2531TIP3   OH2 7598   4.321   2.387   2.246 -0.1006  0.0814  0.0386
 2531TIP3    H1 7599   4.338   2.297   2.274 -0.6828  0.4648  1.7709
 2531TIP3    H2 7600   4.253   2.418   2.306 -0.7823  1.3032 -1.2956
 2532TIP3   OH2 7601   3.366   0.885   3.230 -0.0011 -0.0238 -0.0717
 2532TIP3    H1 7602   3.363   0.835   3.149 -0.8347  0.4168 -0.3307
 2532TIP3    H2 7603   3.315   0.964   3.211 -1.0395 -0.3507  1.1619
 2533TIP3   OH2 7604   1.416   0.313   3.588 -0.5855 -0.1391  0.3099
 2533TIP3    H1 7605   1.352   0.242   3.590 -1.1280  0.2622  3.6325
 2533TIP3    H2 7606   1.390   0.371   3.660  2.1895  1.2563  0.3392
 2534TIP3   OH2 7607   0.656   4.606   0.761 -0.2527 -0.3140  0.0460
 2534TIP3    H1 7608   0.629   4.695   0.785 -0.6016 -0.2076 -0.7090
 2534TIP3    H2 7609   0.745   4.598   0.795  0.5065  0.9922 -1.4672
 2535TIP3   OH2 7610   3.380   0.953   3.499  0.2466  0.0027  0.0681
 2535TIP3    H1 7611   3.381   0.929   3.406 -1.7735 -1.0525  0.2480
 2535TIP3    H2 7612   3.332   1.035   3.502 -0.8347 -0.6104  0.2519
 2536TIP3   OH2 7613   4.944   3.176   0.727  0.3696  0.1975 -0.1436
 2536TIP3    H1 7614   5.026   3.226   0.729  1.1368 -0.9889 -0.7128
 2536TIP3    H2 7615   4.902   3.195   0.811  1.5415  0.3049  0.4360
 2537TIP3   OH2 7616   2.039   0.766   4.912  0.5697  0.6353  0.5911
 2537TIP3    H1 7617   1.955   0.754   4.956  0.5731 -2.8666 -0.0606
 2537TIP3    H2 7618   2.019   0.820   4.836 -1.2829 -0.5927  0.1338
 2538TIP3   OH2 7619   3.252   2.527   4.298 -0.3786  0.4898  0.0752
 2538TIP3    H1 7620   3.249   2.431   4.293  0.8788  0.4435  0.0058
 2538TIP3    H2 7621   3.242   2.556   4.207 -2.1814  0.4990  0.2375
 2539TIP3   OH2 7622   3.304   5.874   0.451 -0.4834 -0.0261 -0.2183
 2539TIP3    H1 7623   3.381   5.857   0.396 -1.7722 -0.6198 -1.9014
 2539TIP3    H2 7624   3.338   5.869   0.541  1.4691 -0.0867 -0.9079
 2540TIP3   OH2 7625   5.366   0.435   0.070 -0.0844 -0.1116 -0.4532
 2540TIP3    H1 7626   5.461   0.429   0.075  0.0612 -0.1802 -2.5440
 2540TIP3    H2 7627   5.344   0.511   0.123  1.1846  0.2529 -0.4206
 2541TIP3   OH2 7628   4.658   3.144   0.290 -1.0979  0.1058 -0.2251
 2541TIP3    H1 7629   4.663   3.168   0.382  0.2233  0.7160 -0.4322
 2541TIP3    H2 7630   4.614   3.218   0.248 -1.1224  0.1222 -0.1698
 2542TIP3   OH2 7631   0.147   5.531   1.362 -0.0231  0.1254 -0.8019
 2542TIP3    H1 7632   0.156   5.487   1.278  0.8302  2.7242 -2.1751
 2542TIP3    H2 7633   0.186   5.470   1.425 -0.6690 -1.8786 -2.2464
 2543TIP3   OH2 7634   5.841   2.137   0.860 -0.3379 -0.0243 -0.0203
 2543TIP3    H1 7635   5.762   2.092   0.830 -0.4836  0.4253 -0.3347
 2543TIP3    H2 7636   5.900   2.067   0.887  0.1702 -0.5657 -2.2665
 2544TIP3   OH2 7637   0.292   3.080   4.787 -0.1545 -0.0073  0.3224
 2544TIP3    H1 7638   0.308   3.116   4.700 -1.8123  0.4459  0.1646
 2544TIP3    H2 7639   0.365   3.020   4.802  1.2557  1.4040 -0.5171
 2545TIP3   OH2 7640   6.171   0.783   0.553 -0.2585  0.0346  0.2776
 2545TIP3    H1 7641   6.183   0.845   0.625 -0.3770 -0.7665  0.9998
 2545TIP3    H2 7642   6.173   0.838   0.474  1.2194  0.7850  0.7835
 2546TIP3   OH2 7643   0.035   3.148   2.606  0.3834 -0.0436 -0.4790
 2546TIP3    H1 7644   0.022   3.086   2.677  1.0948  0.9101  0.5187
 2546TIP3    H2 7645   0.043   3.093   2.527 -0.6698 -1.0937  0.1157
 2547TIP3   OH2 7646   1.152   0.667   3.350  0.4240 -0.0176 -0.1730
 2547TIP3    H1 7647   1.180   0.694   3.437  0.7827 -1.2437  0.1076
 2547TIP3    H2 7648   1.062   0.700   3.343 -0.3258 -1.5203  1.4410
 2548TIP3   OH2 7649   2.270   4.703   3.832  0.2109  0.1829  0.4176
 2548TIP3    H1 7650   2.243   4.612   3.848  0.6767 -0.0960 -0.3168
 2548TIP3    H2 7651   2.360   4.695   3.799 -0.8051  0.6531 -2.7301
 2549TIP3   OH2 7652   5.286   0.252   4.779  0.0085  0.3915 -0.1370
 2549TIP3    H1 7653   5.246   0.301   4.707 -1.3121 -3.0777 -2.0227
 2549TIP3    H2 7654   5.213   0.205   4.819  1.3234 -1.3074  0.4071
 2550TIP3   OH2 7655   1.832   4.964   0.765 -0.0757 -0.0741  0.0896
 2550TIP3    H1 7656   1.866   5.000   0.847  1.3810 -1.8343  0.3165
 2550TIP3    H2 7657   1.889   4.999   0.697 -1.7260  1.9801 -0.3509
 2551TIP3   OH2 7658   4.766   5.425   0.534 -0.9788  0.1236  0.0173
 2551TIP3    H1 7659   4.788   5.333   0.548  2.1310  0.8096  0.3974
 2551TIP3    H2 7660   4.746   5.459   0.621  0.4346  0.3367  0.2830
 2552TIP3   OH2 7661   5.396   3.036   5.059 -0.2316 -0.3134 -0.2031
 2552TIP3    H1 7662   5.409   3.130   5.048 -0.8226 -0.3044 -0.9174
 2552TIP3    H2 7663   5.471   3.007   5.112 -0.0554  0.5543  0.0360
 2553TIP3   OH2 7664   5.634   0.459   4.577 -0.6149  0.6145  0.7230
 2553TIP3    H1 7665   5.705   0.504   4.531 -0.1797 -1.8286 -1.2352
 2553TIP3    H2 7666   5.675   0.381   4.615 -1.9650 -0.1604  0.6752
 2554TIP3   OH2 7667   1.811   1.848   3.518  0.1774  0.4615  0.4910
 2554TIP3    H1 7668   1.783   1.926   3.566 -2.6584 -0.8693  1.2228
 2554TIP3    H2 7669   1.807   1.777   3.583 -1.9437 -1.0607 -1.1287
 2555TIP3   OH2 7670   0.255   3.161   5.187  0.1445  0.2471 -0.2333
 2555TIP3    H1 7671   0.214   3.243   5.158  0.6320  0.9050  0.8694
 2555TIP3    H2 7672   0.207   3.093   5.140 -2.7315  0.9031  1.5119
 2556TIP3   OH2 7673   4.927   4.835   1.318  0.2548 -0.6616  0.1606
 2556TIP3    H1 7674   4.932   4.744   1.347 -0.7207 -0.9715 -0.5984
 2556TIP3    H2 7675   4.967   4.885   1.389 -1.5196 -1.4291  1.7808
 2557TIP3   OH2 7676   0.522   1.561   1.875  0.4067 -0.4213 -0.0610
 2557TIP3    H1 7677   0.450   1.532   1.818  0.1111  0.1523  0.0171
 2557TIP3    H2 7678   0.548   1.645   1.838 -0.1875  0.2435  1.0189
 2558TIP3   OH2 7679   5.608   0.886  -0.006  0.8294  0.1145  0.0755
 2558TIP3    H1 7680   5.691   0.896   0.041  0.9381  0.7330 -0.2427
 2558TIP3    H2 7681   5.604   0.793  -0.028  1.3123  0.0338  0.3184
 2559TIP3   OH2 7682   0.392   2.133   1.405  0.2427 -0.0426 -0.8153
 2559TIP3    H1 7683   0.318   2.073   1.398 -1.1250  1.5271 -0.5504
 2559TIP3    H2 7684   0.353   2.220   1.400  2.2412  0.8540 -2.1415
 2560TIP3   OH2 7685   2.569   3.760   4.137 -0.2659 -0.1171 -0.4372
 2560TIP3    H1 7686   2.643   3.775   4.079  0.3430  0.4820  0.4625
 2560TIP3    H2 7687   2.521   3.843   4.138  0.2841  0.1978  0.6668
 2561TIP3   OH2 7688   5.437   0.669   0.233  0.4573  0.7343 -0.2825
 2561TIP3    H1 7689   5.477   0.744   0.276  0.5918 -0.0125  0.9631
 2561TIP3    H2 7690   5.373   0.706   0.174  0.8190  1.8424 -0.0074
 2562TIP3   OH2 7691   1.181   5.904   3.183 -0.4597  0.5421 -0.3449
 2562TIP3    H1 7692   1.206   5.903   3.275  0.4548 -0.8213 -0.5707
 2562TIP3    H2 7693   1.214   5.987   3.149  2.4920 -0.4919 -0.2500
 2563TIP3   OH2 7694   3.503   2.028   1.415 -0.0222  0.3726 -0.3265
 2563TIP3    H1 7695   3.537   2.117   1.426 -1.2647  0.8135  0.1443
 2563TIP3    H2 7696   3.436   2.036   1.347 -1.4532  0.1845  1.0167
 2564TIP3   OH2 7697   6.299   0.693   1.196  0.8280  0.0600 -0.0206
 2564TIP3    H1 7698   6.313   0.785   1.218  0.9067  0.0050  0.1633
 2564TIP3    H2 7699   6.272   0.653   1.279 -2.2004  0.5070 -0.6537
 2565TIP3   OH2 7700   0.436   5.913   4.818 -0.6081 -0.0488  0.1230
 2565TIP3    H1 7701   0.353   5.871   4.796 -0.6337 -1.0526  1.9344
 2565TIP3    H2 7702   0.411   5.998   4.852 -0.9520 -0.5117  1.0610
 2566TIP3   OH2 7703   4.821   3.838   4.109  0.1638 -0.1955  0.3492
 2566TIP3    H1 7704   4.771   3.884   4.042 -1.1551  1.0479  2.0803
 2566TIP3    H2 7705   4.788   3.749   4.107 -0.3233 -0.0123 -0.2166
 2567TIP3   OH2 7706   2.909   4.597   3.367  0.0761  0.1818  0.0342
 2567TIP3    H1 7707   2.849   4.671   3.357 -0.5446 -0.4607 -1.2085
 2567TIP3    H2 7708   2.950   4.587   3.281 -0.4817 -1.4440 -0.0721
 2568TIP3   OH2 7709   5.897   4.384   0.225 -0.2607 -0.0066 -0.1626
 2568TIP3    H1 7710   5.929   4.412   0.311  1.8525  0.4627 -1.0454
 2568TIP3    H2 7711   5.930   4.450   0.164 -0.4976 -1.1006 -1.5234
 2569TIP3   OH2 7712   0.409   0.037   4.320 -0.6066 -0.1283 -0.1359
 2569TIP3    H1 7713   0.473   0.032   4.391 -0.5269  1.0133 -0.1216
 2569TIP3    H2 7714   0.403  -0.053   4.287 -1.3371 -0.8859  1.9202
 2570TIP3   OH2 7715   4.515   5.398   2.672 -0.3504  0.2537  0.1685
 2570TIP3    H1 7716   4.522   5.494   2.670  1.1603  0.2308  1.8751
 2570TIP3    H2 7717   4.598   5.367   2.637 -1.9275 -0.5773 -3.2786
 2571TIP3   OH2 7718   5.206   1.979   4.455 -0.1585  0.4426  0.0665
 2571TIP3    H1 7719   5.269   1.908   4.449 -1.9362 -1.2657  0.5553
 2571TIP3    H2 7720   5.216   2.028   4.373  2.0527  0.5080  0.3320
 2572TIP3   OH2 7721   4.333   0.145   1.855 -0.0537  0.0731 -0.0879
 2572TIP3    H1 7722   4.330   0.224   1.802  0.3548 -0.4717 -0.9406
 2572TIP3    H2 7723   4.297   0.172   1.940 -1.5249  0.7470 -0.8869
 2573TIP3   OH2 7724   0.224   4.667   2.022  0.1410  0.3841 -0.2044
 2573TIP3    H1 7725   0.141   4.710   2.002  0.5002  1.1054 -0.1963
 2573TIP3    H2 7726   0.232   4.597   1.957  0.5550  1.6978 -1.6148
 2574TIP3   OH2 7727   2.341   1.182   3.224 -0.1358  0.1875  1.0046
 2574TIP3    H1 7728   2.384   1.264   3.197  0.3549 -1.0158 -2.3227
 2574TIP3    H2 7729   2.247   1.199   3.212 -0.0485  0.3391  0.5190
 2575TIP3   OH2 7730   3.812   0.366   3.997  0.3111 -0.6252 -0.2616
 2575TIP3    H1 7731   3.857   0.391   3.916  0.8369 -1.4229 -0.2217
 2575TIP3    H2 7732   3.730   0.416   3.995  1.0603  0.6381 -0.4660
 2576TIP3   OH2 7733   5.551   5.506   2.041  0.5244  0.9284  0.1465
 2576TIP3    H1 7734   5.543   5.588   2.089 -1.8962 -0.2382  1.9397
 2576TIP3    H2 7735   5.491   5.516   1.967  1.1892  1.2292 -0.3565
 2577TIP3   OH2 7736   1.271   5.981   0.611 -0.6304 -0.5735 -0.4041
 2577TIP3    H1 7737   1.208   5.921   0.571 -1.3936  0.3794 -0.6729
 2577TIP3    H2 7738   1.267   6.060   0.557  1.6535 -0.8659 -1.1221
 2578TIP3   OH2 7739   5.420   4.064   0.686  0.2627 -0.4237 -0.2831
 2578TIP3    H1 7740   5.389   4.136   0.632  1.4997 -0.1415 -0.6590
 2578TIP3    H2 7741   5.515   4.078   0.693  0.3355 -1.2574  0.7627
 2579TIP3   OH2 7742   0.974   4.520   4.241  0.0640  0.7161  0.0017
 2579TIP3    H1 7743   0.954   4.590   4.178 -2.4799  0.4574  0.4275
 2579TIP3    H2 7744   0.901   4.459   4.234  1.7648 -1.4881  0.3093
 2580TIP3   OH2 7745   3.384   3.820   0.343  0.0844 -0.2623 -0.0136
 2580TIP3    H1 7746   3.452   3.780   0.397  2.0808  3.3673  0.4917
 2580TIP3    H2 7747   3.315   3.844   0.406 -0.6078 -1.7792 -0.1571
 2581TIP3   OH2 7748   5.738   2.018   2.555  0.2336 -0.4823 -0.0041
 2581TIP3    H1 7749   5.739   2.077   2.631  1.1938  0.1779 -0.5098
 2581TIP3    H2 7750   5.676   2.060   2.494  0.5016 -0.2804 -0.1397
 2582TIP3   OH2 7751   1.858   0.467   0.079 -0.4815  0.2794 -0.5241
 2582TIP3    H1 7752   1.949   0.487   0.059 -0.0640 -1.9751 -1.1808
 2582TIP3    H2 7753   1.815   0.460  -0.007 -0.7288 -0.8376 -0.3278
 2583TIP3   OH2 7754   3.271   5.860   4.771  0.6262  0.2380 -0.4039
 2583TIP3    H1 7755   3.304   5.777   4.738  3.2887  1.4961 -1.1291
 2583TIP3    H2 7756   3.322   5.878   4.850 -0.3678  0.8916  0.1220
 2584TIP3   OH2 7757   0.140   1.620   1.519 -0.4891 -0.0896 -0.2271
 2584TIP3    H1 7758   0.141   1.528   1.545 -1.0860 -0.0325  0.0043
 2584TIP3    H2 7759   0.178   1.667   1.594 -1.8807  0.0378  0.4194
 2585TIP3   OH2 7760   5.587   5.122   1.051 -0.4878  0.6295  1.1275
 2585TIP3    H1 7761   5.574   5.137   0.957 -0.0560  0.2474  1.0031
 2585TIP3    H2 7762   5.501   5.140   1.090 -1.0891 -0.6552  0.4784
 2586TIP3   OH2 7763   4.614   5.483   4.801 -0.1523  0.5697 -0.1305
 2586TIP3    H1 7764   4.541   5.463   4.860  1.1594  0.5301  1.5593
 2586TIP3    H2 7765   4.678   5.414   4.818  1.1459  1.7632 -0.0038
 2587TIP3   OH2 7766   0.421   1.555   3.488  0.1980 -0.5011  0.1072
 2587TIP3    H1 7767   0.358   1.508   3.542  0.2725 -0.4707  0.2217
 2587TIP3    H2 7768   0.504   1.509   3.501  0.1256 -0.7586 -0.3214
 2588TIP3   OH2 7769   5.654   2.664   3.903 -0.2230  0.3735  0.0324
 2588TIP3    H1 7770   5.567   2.675   3.942  0.1499 -0.5063  1.1719
 2588TIP3    H2 7771   5.642   2.689   3.811 -1.8097 -0.2587  0.0252
 2589TIP3   OH2 7772   2.153   1.700   4.718 -0.1841 -0.5007 -0.6283
 2589TIP3    H1 7773   2.069   1.660   4.697 -0.6936  0.3007 -0.1793
 2589TIP3    H2 7774   2.188   1.728   4.634 -1.8996  2.0873 -0.6084
 2590TIP3   OH2 7775   3.459   2.489   0.422  0.5027 -0.0723 -0.0694
 2590TIP3    H1 7776   3.524   2.558   0.429  0.6489 -0.3125  1.3477
 2590TIP3    H2 7777   3.379   2.527   0.459 -0.1227  0.1431 -1.5789
 2591TIP3   OH2 7778   5.104   4.495   1.183 -0.2736  0.1286  0.4531
 2591TIP3    H1 7779   5.121   4.440   1.106 -1.0732  0.1009  0.2895
 2591TIP3    H2 7780   5.069   4.576   1.146  1.5989  1.0721  0.6378
 2592TIP3   OH2 7781   5.078   1.979   3.273  0.1062  0.4584  0.3453
 2592TIP3    H1 7782   5.104   1.888   3.289 -0.4433  0.2153 -0.1377
 2592TIP3    H2 7783   5.110   1.999   3.185 -1.1134  0.2294 -0.1685
 2593TIP3   OH2 7784   4.135   4.817   2.333 -0.0347  0.5331 -0.0441
 2593TIP3    H1 7785   4.217   4.793   2.376 -0.1753 -0.6493 -0.3849
 2593TIP3    H2 7786   4.159   4.828   2.241 -0.1864  0.5463 -0.0815
 2594TIP3   OH2 7787   5.949   3.876   1.970  0.1654 -0.1817 -0.3352
 2594TIP3    H1 7788   6.020   3.840   2.023  2.3167  0.9513 -2.2902
 2594TIP3    H2 7789   5.983   3.960   1.938 -1.2936 -0.4787 -2.9005
 2595TIP3   OH2 7790   3.660   4.344   4.774 -0.0902  0.0175  0.1154
 2595TIP3    H1 7791   3.727   4.307   4.831  0.9213  3.1572  1.1583
 2595TIP3    H2 7792   3.705   4.361   4.691 -0.5054 -0.7963 -0.2975
 2596TIP3   OH2 7793   5.897   2.141   2.961 -0.1502 -0.5850  0.2179
 2596TIP3    H1 7794   5.828   2.148   2.894  0.3652 -0.5526 -0.3206
 2596TIP3    H2 7795   5.885   2.219   3.015  0.3373  0.1741 -0.7316
 2597TIP3   OH2 7796   0.670   1.276   0.747 -0.1540 -0.0327  0.4424
 2597TIP3    H1 7797   0.691   1.327   0.826  1.2284  1.3648 -0.7571
 2597TIP3    H2 7798   0.578   1.297   0.729  0.0049  0.9947  0.7507
 2598TIP3   OH2 7799   6.239   5.185   2.969 -0.0276 -0.0551 -0.8171
 2598TIP3    H1 7800   6.177   5.117   2.941 -1.8697  1.1933  0.0370
 2598TIP3    H2 7801   6.235   5.251   2.899 -0.0093  0.2449 -0.5356
 2599TIP3   OH2 7802   2.874   3.043   1.607  0.9383  0.2288  0.2372
 2599TIP3    H1 7803   2.819   3.117   1.582  1.4783 -0.1658 -2.4510
 2599TIP3    H2 7804   2.950   3.083   1.649  0.3190  1.0561  0.5869
 2600TIP3   OH2 7805   4.516   0.586   2.404  0.3940  0.5281  0.1945
 2600TIP3    H1 7806   4.469   0.521   2.351  2.8930 -0.9587 -0.3445
 2600TIP3    H2 7807   4.508   0.667   2.354 -0.7406  0.0915 -0.3650
 2601TIP3   OH2 7808   3.585   4.656   0.567 -0.1286  0.3129  0.0446
 2601TIP3    H1 7809   3.527   4.611   0.628 -0.3821 -0.0882 -0.4827
 2601TIP3    H2 7810   3.644   4.588   0.535 -0.1274  0.4765 -0.3100
 2602TIP3   OH2 7811   1.477   0.555   0.788  0.6682  0.5914  0.2050
 2602TIP3    H1 7812   1.399   0.515   0.749  1.3532  0.4615 -1.0972
 2602TIP3    H2 7813   1.458   0.559   0.881 -0.7213  0.1711 -0.0352
 2603TIP3   OH2 7814   2.765   1.042   0.738  1.0381  0.0026 -0.3642
 2603TIP3    H1 7815   2.733   1.096   0.810  1.8251 -0.4199  0.3187
 2603TIP3    H2 7816   2.856   1.024   0.760  0.8935 -1.3168 -0.7415
 2604TIP3   OH2 7817   5.220   0.821   2.229  0.4568 -0.1129 -0.2640
 2604TIP3    H1 7818   5.311   0.793   2.228 -0.0264 -1.9977 -2.9939
 2604TIP3    H2 7819   5.178   0.765   2.293  0.7411 -1.2425 -1.0293
 2605TIP3   OH2 7820   2.713   5.665   3.485 -0.7741 -0.8329  0.7443
 2605TIP3    H1 7821   2.663   5.614   3.549 -3.3949 -0.4153 -0.8295
 2605TIP3    H2 7822   2.709   5.613   3.404 -1.4432  0.6970 -0.2515
 2606TIP3   OH2 7823   0.392   4.068   0.467 -0.3846 -0.3083 -0.1978
 2606TIP3    H1 7824   0.362   4.062   0.558 -1.3855 -0.3444 -0.5149
 2606TIP3    H2 7825   0.331   4.130   0.426  0.9298  0.8250 -0.5048
 2607TIP3   OH2 7826   5.081   4.941   2.717 -0.0628 -0.7448 -0.8339
 2607TIP3    H1 7827   5.131   4.995   2.778 -2.2035  0.1046  0.2880
 2607TIP3    H2 7828   5.116   4.963   2.631  1.3413 -0.0540 -0.1159
 2608TIP3   OH2 7829   2.378   1.180   1.231  0.4240 -0.0544  0.5322
 2608TIP3    H1 7830   2.439   1.107   1.218 -0.2919 -0.3808 -1.2193
 2608TIP3    H2 7831   2.324   1.152   1.305  0.8381 -0.8192  0.5664
 2609TIP3   OH2 7832   6.243   4.051   2.224  0.2780  0.4967  0.7809
 2609TIP3    H1 7833   6.180   4.001   2.277  1.6358 -0.5554  1.4672
 2609TIP3    H2 7834   6.254   4.133   2.272 -0.5270  0.6714  0.6807
 2610TIP3   OH2 7835   5.577   4.918   2.797 -0.6593 -0.2037  0.0512
 2610TIP3    H1 7836   5.576   4.823   2.795 -1.1477 -0.2247  0.7327
 2610TIP3    H2 7837   5.612   4.940   2.884 -0.6201  0.2318 -0.0689
 2611TIP3   OH2 7838   3.885   4.811   0.402  0.1934 -0.3149  0.5429
 2611TIP3    H1 7839   3.925   4.725   0.390 -0.6499 -0.4909 -1.4215
 2611TIP3    H2 7840   3.793   4.792   0.423  0.0428  0.0908  0.2725
 2612TIP3   OH2 7841   1.376   1.472   0.048 -0.4175  0.1567  0.2895
 2612TIP3    H1 7842   1.431   1.395   0.056 -0.9027 -0.1848  0.3862
 2612TIP3    H2 7843   1.359   1.480  -0.046 -2.5824 -1.4645  0.4520
 2613TIP3   OH2 7844   1.310   3.083   2.065  0.0890 -0.1176  0.0396
 2613TIP3    H1 7845   1.387   3.093   2.009 -0.9170  2.4619 -1.0105
 2613TIP3    H2 7846   1.236   3.077   2.004 -0.8903  1.3443  1.0243
 2614TIP3   OH2 7847   3.825   2.367   2.540 -0.0108  0.2324  0.0249
 2614TIP3    H1 7848   3.868   2.449   2.561  0.2092 -0.5193  2.9068
 2614TIP3    H2 7849   3.734   2.378   2.569 -0.5628  0.1360 -1.5353
 2615TIP3   OH2 7850   4.352   1.347   1.137  0.5654  0.2238 -0.0741
 2615TIP3    H1 7851   4.419   1.338   1.205  1.5204  0.0977 -1.0039
 2615TIP3    H2 7852   4.393   1.310   1.058 -0.0838  1.4062 -0.9882
 2616TIP3   OH2 7853   0.980   5.976   3.522  0.3458  0.1478 -0.3026
 2616TIP3    H1 7854   0.895   6.020   3.523 -1.0081 -2.2965  0.8969
 2616TIP3    H2 7855   0.966   5.895   3.473  1.2879 -1.4042  1.7851
 2617TIP3   OH2 7856   0.374   3.206   0.366  0.5177 -0.2621  0.8237
 2617TIP3    H1 7857   0.374   3.283   0.310  2.2181 -0.3797  0.6137
 2617TIP3    H2 7858   0.313   3.228   0.437 -0.7704  0.3464 -0.4122
 2618TIP3   OH2 7859   4.492   4.710   2.677  0.4051  0.8935 -0.1344
 2618TIP3    H1 7860   4.482   4.620   2.709 -0.7618  1.4622  1.1705
 2618TIP3    H2 7861   4.526   4.699   2.588 -0.0708 -0.8472 -0.1509
 2619TIP3   OH2 7862   0.027   4.431   0.984  0.3499  0.1613 -0.5105
 2619TIP3    H1 7863   0.075   4.496   0.933  0.4712  1.9859  1.7528
 2619TIP3    H2 7864  -0.065   4.452   0.970  0.3968  1.1744  0.5824
 2620TIP3   OH2 7865   1.649   3.093   0.668  0.4357 -0.6074 -0.7152
 2620TIP3    H1 7866   1.632   3.012   0.716 -1.1629 -0.9991 -1.8639
 2620TIP3    H2 7867   1.618   3.162   0.726  0.6140 -0.8981 -0.2638
 2621TIP3   OH2 7868   4.710   4.457   2.033  0.2692 -0.2476 -0.6277
 2621TIP3    H1 7869   4.775   4.396   2.000  0.6029  0.1507 -0.7141
 2621TIP3    H2 7870   4.724   4.458   2.128  0.0923 -0.4992 -0.5987
 2622TIP3   OH2 7871   6.020   0.771   4.833  0.0310 -0.0581 -0.1541
 2622TIP3    H1 7872   5.970   0.802   4.757  0.1085  1.3081  0.3220
 2622TIP3    H2 7873   5.979   0.688   4.856 -0.7254  0.0651 -1.0058
 2623TIP3   OH2 7874   4.482   5.213   4.074 -0.3912  0.2819  0.2886
 2623TIP3    H1 7875   4.535   5.137   4.053  1.9380  2.0601 -0.7605
 2623TIP3    H2 7876   4.536   5.264   4.135  0.3825  3.3199 -2.6188
 2624TIP3   OH2 7877   1.639   4.019   1.672  0.1608  0.0259  0.2492
 2624TIP3    H1 7878   1.693   4.050   1.599  1.3159 -2.1651  0.0774
 2624TIP3    H2 7879   1.571   3.966   1.630  0.3372 -0.5603  0.6973
 2625TIP3   OH2 7880   5.400   5.861   4.143 -0.0801 -0.0608 -0.4578
 2625TIP3    H1 7881   5.347   5.938   4.122 -0.5707 -0.9517 -2.8610
 2625TIP3    H2 7882   5.340   5.787   4.134  1.2113 -0.9939 -1.9393
 2626TIP3   OH2 7883   2.122   4.764   2.660 -0.0676  0.4100 -0.1371
 2626TIP3    H1 7884   2.141   4.733   2.571  0.8490 -2.1161  0.8618
 2626TIP3    H2 7885   2.044   4.819   2.650 -0.0083  0.1766 -2.4778
 2627TIP3   OH2 7886   0.548   1.378   2.081 -0.0020 -0.2926  0.4238
 2627TIP3    H1 7887   0.630   1.394   2.128 -0.8150  1.8662  1.2473
 2627TIP3    H2 7888   0.535   1.456   2.027 -1.3689 -0.7068  0.1036
 2628TIP3   OH2 7889   4.175   2.055   2.623  0.6718 -0.1485 -0.3722
 2628TIP3    H1 7890   4.152   1.963   2.631  3.0904 -0.6621  3.0913
 2628TIP3    H2 7891   4.097   2.102   2.654  0.2931 -1.1889  0.3088
 2629TIP3   OH2 7892   0.524   2.096   3.599  0.3952  0.2660 -0.6743
 2629TIP3    H1 7893   0.471   2.028   3.639 -0.5889  1.2932 -0.1600
 2629TIP3    H2 7894   0.576   2.051   3.532  0.1072 -1.0397 -0.0399
 2630TIP3   OH2 7895   1.075   1.569   1.634 -0.3997  0.2914 -0.6255
 2630TIP3    H1 7896   1.065   1.499   1.569  1.6358 -2.8841  2.1799
 2630TIP3    H2 7897   1.168   1.589   1.634 -0.6516  1.6020  0.0748
 2631TIP3   OH2 7898   6.314   2.526   0.043 -0.8222  0.2558 -0.0737
 2631TIP3    H1 7899   6.283   2.437   0.060  1.9460 -1.1418 -1.6733
 2631TIP3    H2 7900   6.364   2.549   0.121  1.0219 -0.9025 -0.8541
 2632TIP3   OH2 7901   6.036   4.004   1.674  0.5953  0.7996  0.1940
 2632TIP3    H1 7902   6.120   3.998   1.718  1.1826  0.5491 -0.9180
 2632TIP3    H2 7903   6.019   3.916   1.642  0.5898  1.1440 -0.7850
 2633TIP3   OH2 7904   2.970   3.240   0.031  0.2361  0.5782  0.3140
 2633TIP3    H1 7905   2.999   3.281  -0.050 -2.5100  3.6572  0.6755
 2633TIP3    H2 7906   3.025   3.279   0.099  0.5099  0.3265  0.2378
 2634TIP3   OH2 7907   5.044   0.760   2.458  0.5213  0.3131 -0.0307
 2634TIP3    H1 7908   5.026   0.678   2.505  1.3510 -0.4837 -1.0626
 2634TIP3    H2 7909   4.964   0.812   2.469  0.0500 -0.5485  0.7919
 2635TIP3   OH2 7910   2.198   0.307   4.236  0.1451 -0.0358 -0.0130
 2635TIP3    H1 7911   2.179   0.219   4.205 -0.4477 -0.2831  0.9968
 2635TIP3    H2 7912   2.255   0.293   4.312  0.8113  0.5024 -0.4048
 2636TIP3   OH2 7913   2.794   1.870   3.612  0.0747  0.1842 -0.0253
 2636TIP3    H1 7914   2.825   1.929   3.542 -1.1421 -0.8056 -1.4670
 2636TIP3    H2 7915   2.772   1.929   3.684  0.5525  1.3344 -0.7737
 2637TIP3   OH2 7916   3.509   3.471   0.928  0.3736 -0.1765 -0.1405
 2637TIP3    H1 7917   3.429   3.514   0.958  0.1829 -0.2436 -0.5559
 2637TIP3    H2 7918   3.534   3.413   1.000 -0.4269 -0.8093 -0.3682
 2638TIP3   OH2 7919   2.114   3.729   1.440 -0.2304 -0.2191  0.1719
 2638TIP3    H1 7920   2.116   3.787   1.516 -0.5283 -0.5205  0.4114
 2638TIP3    H2 7921   2.201   3.689   1.438 -0.2718 -0.3263  0.4461
 2639TIP3   OH2 7922   5.488   1.088   2.837  0.1066 -0.0724  0.0472
 2639TIP3    H1 7923   5.464   0.998   2.816 -1.4992  0.1440  0.8061
 2639TIP3    H2 7924   5.577   1.082   2.872  0.1021 -1.3204 -0.1087
 2640TIP3   OH2 7925   5.736   4.526   4.645  0.4224 -0.3511 -0.5323
 2640TIP3    H1 7926   5.727   4.473   4.567 -1.5165  0.8213 -1.1641
 2640TIP3    H2 7927   5.700   4.612   4.621  1.0303  0.4636  1.2322
 2641TIP3   OH2 7928   3.096   4.279   2.327  0.0087 -0.1653 -0.6911
 2641TIP3    H1 7929   3.113   4.253   2.237 -1.6357 -0.6029 -0.8961
 2641TIP3    H2 7930   3.001   4.281   2.335  0.0601  2.2531  0.3650
 2642TIP3   OH2 7931   5.912   5.394   4.280 -0.5210  0.0102  0.1594
 2642TIP3    H1 7932   5.905   5.314   4.332 -1.0717 -0.2129 -0.2535
 2642TIP3    H2 7933   5.887   5.368   4.192  1.5701  0.0980 -0.5319
 2643TIP3   OH2 7934   1.994   1.521   1.046  0.4027 -0.3317  0.3962
 2643TIP3    H1 7935   2.079   1.518   1.002  0.0613 -1.9296 -0.2294
 2643TIP3    H2 7936   1.947   1.592   1.002  1.3979  0.5667  0.7485
 2644TIP3   OH2 7937   0.148   0.270   2.237  0.4841  0.2073 -0.1787
 2644TIP3    H1 7938   0.091   0.347   2.241 -0.1859 -0.3359  1.4411
 2644TIP3    H2 7939   0.102   0.203   2.286  2.0440 -0.5717  0.2944
 2645TIP3   OH2 7940   2.666   0.772   0.218  0.1451 -0.1117  0.0984
 2645TIP3    H1 7941   2.675   0.864   0.196  0.4232 -0.1179  0.1795
 2645TIP3    H2 7942   2.645   0.729   0.135  0.8363 -0.0854 -0.0966
 2646TIP3   OH2 7943   2.573   1.341   3.438  0.2673 -0.3098 -0.2354
 2646TIP3    H1 7944   2.612   1.258   3.412 -0.0802 -0.9103  1.0766
 2646TIP3    H2 7945   2.487   1.342   3.396  1.0295  0.3259 -1.8802
 2647TIP3   OH2 7946   5.952   1.077   3.476  0.0348 -0.2448  0.0894
 2647TIP3    H1 7947   6.046   1.079   3.455  0.2617  1.0855  1.1143
 2647TIP3    H2 7948   5.931   1.167   3.498 -1.3520 -0.6593  0.5370
 2648TIP3   OH2 7949   5.416   0.392   3.915  0.3895  0.5526  0.5611
 2648TIP3    H1 7950   5.421   0.401   3.820  2.3404 -1.1765  0.4432
 2648TIP3    H2 7951   5.349   0.456   3.941 -1.4149 -0.0705 -2.0958
 2649TIP3   OH2 7952   4.981   2.852   4.479  0.1384 -0.1089  0.4596
 2649TIP3    H1 7953   5.036   2.776   4.498  0.2930 -0.6588 -1.8583
 2649TIP3    H2 7954   4.918   2.819   4.415 -1.4409  1.1095  1.3178
 2650TIP3   OH2 7955   2.761   4.390   3.853 -0.2376  0.1794  0.0324
 2650TIP3    H1 7956   2.692   4.453   3.835 -1.6319 -1.6264 -1.3605
 2650TIP3    H2 7957   2.836   4.422   3.804 -0.9330  0.7372 -0.6899
 2651TIP3   OH2 7958   0.503   0.023   3.122  0.1650  0.1301 -0.3077
 2651TIP3    H1 7959   0.495  -0.034   3.046 -1.4759 -0.7774  0.4778
 2651TIP3    H2 7960   0.434   0.088   3.110 -0.8712 -0.6981  0.9121
 2652TIP3   OH2 7961   4.600   5.414   4.236  0.2695 -0.0668  0.1938
 2652TIP3    H1 7962   4.694   5.411   4.218  0.4528  0.4187  1.0069
 2652TIP3    H2 7963   4.595   5.426   4.331 -0.6173 -0.1208  0.1558
 2653TIP3   OH2 7964   2.501   5.481   4.052 -0.0013  0.5745 -0.3942
 2653TIP3    H1 7965   2.557   5.470   4.128 -0.1869  0.8985 -0.2081
 2653TIP3    H2 7966   2.516   5.403   3.999 -0.0399  0.2466  0.0794
 2654TIP3   OH2 7967   2.372   3.915   1.166 -0.3271 -0.0250  0.1967
 2654TIP3    H1 7968   2.355   3.857   1.241 -0.1859 -0.3301 -0.0038
 2654TIP3    H2 7969   2.320   3.993   1.184 -1.1086 -0.5115  0.1103
 2655TIP3   OH2 7970   3.683   4.437   4.088 -0.3638  0.2311  0.2095
 2655TIP3    H1 7971   3.689   4.349   4.051  1.9506  0.3994  0.0950
 2655TIP3    H2 7972   3.624   4.427   4.163 -0.5972 -1.2771 -0.1434
 2656TIP3   OH2 7973   5.818   0.204   3.780 -0.2904 -0.1270 -0.5860
 2656TIP3    H1 7974   5.726   0.232   3.782  0.1819  2.0993 -3.5628
 2656TIP3    H2 7975   5.815   0.111   3.762 -1.9120 -0.4825  1.1921
 2657TIP3   OH2 7976   3.671   0.373   2.541 -0.0306 -0.3164  0.0159
 2657TIP3    H1 7977   3.700   0.448   2.594 -2.5725  0.9472 -0.1941
 2657TIP3    H2 7978   3.581   0.358   2.569 -0.1078 -2.2836 -1.1207
 2658TIP3   OH2 7979   4.068   4.406   0.712  0.7906  0.7136  0.0181
 2658TIP3    H1 7980   4.080   4.500   0.725 -0.1756  1.0055 -1.0941
 2658TIP3    H2 7981   4.095   4.391   0.621 -1.4739  0.3894 -0.6567
 2659TIP3   OH2 7982   5.963   2.514   2.428 -0.2642  0.0260 -0.2978
 2659TIP3    H1 7983   5.875   2.477   2.433 -0.2774  0.1014 -0.0085
 2659TIP3    H2 7984   6.019   2.439   2.406 -0.2006 -0.2945  0.9025
 2660TIP3   OH2 7985   3.659   1.841   3.428 -0.3040 -0.1152 -0.2339
 2660TIP3    H1 7986   3.623   1.761   3.388  0.8771 -1.4683  1.2720
 2660TIP3    H2 7987   3.583   1.882   3.469 -1.0870  0.0320 -1.7407
 2661TIP3   OH2 7988   0.212   5.563   2.200 -0.2598 -0.1562 -0.2053
 2661TIP3    H1 7989   0.148   5.547   2.269  0.9737  0.6275  1.1737
 2661TIP3    H2 7990   0.165   5.619   2.137 -1.0089  0.2198  0.6571
 2662TIP3   OH2 7991   3.815   5.523   0.937 -0.0504  0.0166  0.3396
 2662TIP3    H1 7992   3.854   5.608   0.917 -1.3201  0.2232 -1.4195
 2662TIP3    H2 7993   3.728   5.543   0.972 -0.2029 -0.5467  0.3076
 2663TIP3   OH2 7994   2.900   4.746   1.375 -0.5120 -0.7765  0.0712
 2663TIP3    H1 7995   2.952   4.800   1.315 -1.5890 -0.1103 -0.2949
 2663TIP3    H2 7996   2.959   4.726   1.447  0.5752 -0.9363 -0.8377
 2664TIP3   OH2 7997   1.407   5.068   0.272 -0.3374  0.3546  0.0859
 2664TIP3    H1 7998   1.326   5.017   0.272  0.1168 -0.3988 -0.8193
 2664TIP3    H2 7999   1.457   5.034   0.198  1.6088 -0.4978  1.6926
 2665TIP3   OH2 8000   4.886   2.189   3.333 -0.3697  0.2673 -0.7641
 2665TIP3    H1 8001   4.929   2.131   3.270  0.0315  1.1177 -1.2961
 2665TIP3    H2 8002   4.887   2.140   3.415  0.1373 -0.4000 -1.1541
 2666TIP3   OH2 8003   2.252   1.522   3.363 -0.5459 -0.7066  0.7336
 2666TIP3    H1 8004   2.189   1.450   3.361 -2.0972  0.5880  0.5961
 2666TIP3    H2 8005   2.268   1.541   3.270  0.4777 -1.3450  0.7583
 2667TIP3   OH2 8006   0.844   5.718   1.999  0.1304 -0.5077 -0.2567
 2667TIP3    H1 8007   0.894   5.637   1.986  0.0461 -0.2363 -2.8910
 2667TIP3    H2 8008   0.910   5.785   2.011  0.2778 -0.6660 -0.1743
 2668TIP3   OH2 8009   2.108   2.765   1.690 -0.1409  0.2587  0.7475
 2668TIP3    H1 8010   2.172   2.696   1.700 -0.1145 -0.1517 -1.7986
 2668TIP3    H2 8011   2.157   2.841   1.659 -0.3946  1.0604  2.1643
 2669TIP3   OH2 8012   0.995   4.185   5.148  0.4927 -0.3481  0.1972
 2669TIP3    H1 8013   1.044   4.119   5.099  0.6166  0.5067 -0.8873
 2669TIP3    H2 8014   0.905   4.178   5.114  1.0169  1.7191 -1.8589
 2670TIP3   OH2 8015   3.172   3.414   2.014  0.0375  0.5671  0.3259
 2670TIP3    H1 8016   3.203   3.386   2.101  1.3435  0.7861 -0.0502
 2670TIP3    H2 8017   3.089   3.458   2.031 -0.4372 -0.6381  1.3024
 2671TIP3   OH2 8018   5.347   2.914   4.815  0.1221 -0.1472 -0.3287
 2671TIP3    H1 8019   5.334   2.955   4.900  0.7968 -1.9107  0.6875
 2671TIP3    H2 8020   5.263   2.922   4.770 -1.0142 -1.3059  1.4850
 2672TIP3   OH2 8021   1.595   5.187   3.683  0.7229 -0.6635  0.2136
 2672TIP3    H1 8022   1.512   5.166   3.641 -0.2520 -0.1828  1.8019
 2672TIP3    H2 8023   1.627   5.264   3.637 -0.1632 -0.3242  0.1432
 2673TIP3   OH2 8024   1.624   3.644   0.525  0.1772 -0.4327 -0.0676
 2673TIP3    H1 8025   1.551   3.632   0.465 -1.2052  0.4656  1.3573
 2673TIP3    H2 8026   1.667   3.724   0.496 -0.5300  0.0370  0.1426
 2674TIP3   OH2 8027   1.400   1.558   1.060  0.1479  0.4122  0.2127
 2674TIP3    H1 8028   1.437   1.540   0.974 -0.7827  3.0927 -0.8617
 2674TIP3    H2 8029   1.476   1.565   1.118  0.8644 -0.2769 -0.6154
 2675TIP3   OH2 8030   0.528   5.801   4.552  0.3591  0.2722  0.2318
 2675TIP3    H1 8031   0.533   5.831   4.643  1.6237  0.5367  0.0982
 2675TIP3    H2 8032   0.523   5.882   4.501 -0.4624  0.1212  0.0575
 2676TIP3   OH2 8033   0.398   3.089   2.327 -0.1148  0.3257 -0.3706
 2676TIP3    H1 8034   0.329   3.025   2.346  0.0980 -0.0535 -0.8641
 2676TIP3    H2 8035   0.455   3.046   2.264  0.9136  0.4132  0.4694
 2677TIP3   OH2 8036   6.017   5.227   0.549  0.0708  0.0791  0.6094
 2677TIP3    H1 8037   5.924   5.229   0.525 -0.2212  1.9373  1.7358
 2677TIP3    H2 8038   6.044   5.318   0.549  1.1632 -0.1866  3.0114
 2678TIP3   OH2 8039   1.723   4.121   1.375 -0.1523 -0.7240 -0.0452
 2678TIP3    H1 8040   1.632   4.104   1.349 -0.5823  0.5603  0.5415
 2678TIP3    H2 8041   1.776   4.079   1.307 -1.2045  0.6544 -1.7988
 2679TIP3   OH2 8042   3.536   4.605   3.937 -0.5320  0.1458 -0.1113
 2679TIP3    H1 8043   3.561   4.555   4.014  0.3741  0.6676 -0.0473
 2679TIP3    H2 8044   3.499   4.540   3.877 -0.7800 -0.3410  0.5637
 2680TIP3   OH2 8045   4.552   5.679   5.045  0.0517 -0.2123 -0.0519
 2680TIP3    H1 8046   4.543   5.715   4.956 -0.7972  0.5281  0.3154
 2680TIP3    H2 8047   4.475   5.625   5.057  1.5584 -2.6737 -0.7753
 2681TIP3   OH2 8048   3.660   5.771   3.292  0.0229 -0.1398  0.0508
 2681TIP3    H1 8049   3.721   5.736   3.356 -0.8756 -1.0634  0.4321
 2681TIP3    H2 8050   3.597   5.821   3.344 -1.4703 -1.9743  0.0955
 2682TIP3   OH2 8051   0.512   5.712   2.247  0.2105 -0.3232 -0.2553
 2682TIP3    H1 8052   0.607   5.703   2.255  0.0151 -1.2669  1.5236
 2682TIP3    H2 8053   0.478   5.684   2.332 -1.7391 -1.1511 -1.2475
 2683TIP3   OH2 8054   1.365   0.115   2.550 -0.2368 -0.1569  0.0390
 2683TIP3    H1 8055   1.360   0.086   2.641  0.7904  2.3559  1.0035
 2683TIP3    H2 8056   1.458   0.133   2.535 -0.1403 -1.9949 -2.0783
 2684TIP3   OH2 8057   3.218   3.084   2.048 -0.2849 -0.4418  0.0493
 2684TIP3    H1 8058   3.184   3.139   1.977  0.1913  0.4051  0.4531
 2684TIP3    H2 8059   3.218   3.142   2.124 -0.2230 -1.1616  0.6042
 2685TIP3   OH2 8060   2.781   3.016   2.544  0.0666  0.9696  0.3421
 2685TIP3    H1 8061   2.713   3.036   2.480 -0.8537  1.0371  1.3238
 2685TIP3    H2 8062   2.760   2.928   2.575  0.7580  0.7652  0.2515
 2686TIP3   OH2 8063   3.374   5.463   2.128 -0.6826  0.4704  0.6154
 2686TIP3    H1 8064   3.306   5.516   2.170 -1.6890 -0.4911  0.2651
 2686TIP3    H2 8065   3.350   5.463   2.035  0.4376  1.0100  0.3092
 2687TIP3   OH2 8066   1.816   3.247   1.022 -0.0498 -0.0394  0.0315
 2687TIP3    H1 8067   1.812   3.302   1.101 -0.8524 -0.2144  0.1199
 2687TIP3    H2 8068   1.728   3.210   1.014 -0.4802  1.2555 -1.8546
 2688TIP3   OH2 8069   2.531   2.147   2.689  0.3673 -0.4218  0.1930
 2688TIP3    H1 8070   2.509   2.075   2.747  0.1989 -0.0298  0.6214
 2688TIP3    H2 8071   2.539   2.107   2.603 -2.4108 -0.5822 -0.1048
 2689TIP3   OH2 8072   1.721   5.541   2.513 -0.2077  0.0567  0.2208
 2689TIP3    H1 8073   1.631   5.556   2.543  0.5278  1.7389  1.8089
 2689TIP3    H2 8074   1.771   5.531   2.594  0.6142 -4.6355 -0.5576
 2690TIP3   OH2 8075   2.726   5.636   0.993  0.1092 -0.5524  0.0337
 2690TIP3    H1 8076   2.783   5.629   1.070 -0.5010 -1.1592  0.4419
 2690TIP3    H2 8077   2.657   5.698   1.020  0.2583 -0.2568 -0.2594
 2691TIP3   OH2 8078   5.171   3.193   0.951  0.0920 -0.0930  0.1279
 2691TIP3    H1 8079   5.215   3.207   0.867 -0.2531 -1.1834 -0.2617
 2691TIP3    H2 8080   5.243   3.191   1.015  0.3527  0.8009 -0.1282
 2692TIP3   OH2 8081   1.069   4.030   4.445 -0.4136  0.5684  0.4310
 2692TIP3    H1 8082   1.016   4.108   4.430 -0.6944  0.3248  0.1255
 2692TIP3    H2 8083   1.006   3.962   4.470 -0.2658  0.2528 -0.0231
 2693TIP3   OH2 8084   1.031   2.833   1.085  0.0628  0.5176 -0.2550
 2693TIP3    H1 8085   1.096   2.776   1.044 -2.4441 -0.9839 -2.4046
 2693TIP3    H2 8086   0.980   2.775   1.141 -1.9112  0.7608 -1.7126
 2694TIP3   OH2 8087   6.092   2.910   1.626 -0.7148  0.3893  0.3906
 2694TIP3    H1 8088   6.155   2.843   1.601  0.5948  0.9143  2.0688
 2694TIP3    H2 8089   6.034   2.867   1.689  0.0352  0.7441  1.3547
 2695TIP3   OH2 8090   5.821   5.575   1.129 -0.2518 -0.2933 -0.2453
 2695TIP3    H1 8091   5.873   5.642   1.174 -0.9515 -0.3007  0.5892
 2695TIP3    H2 8092   5.734   5.613   1.123 -0.5025 -0.8836 -0.3188
 2696TIP3   OH2 8093   4.082   4.086   4.062 -0.3569  0.1967 -0.6149
 2696TIP3    H1 8094   4.037   4.095   4.146 -1.2881  0.9220 -1.1709
 2696TIP3    H2 8095   4.151   4.153   4.065  0.5695 -0.7528  0.1394
 2697TIP3   OH2 8096   5.348   1.306   0.469  0.0706 -0.4053 -0.1358
 2697TIP3    H1 8097   5.326   1.325   0.560  1.2942  1.1626 -0.1397
 2697TIP3    H2 8098   5.438   1.335   0.458 -0.7517  1.6519 -2.4464
 2698TIP3   OH2 8099   2.593   0.269   2.175  0.0378  0.2169  1.1242
 2698TIP3    H1 8100   2.675   0.262   2.224  0.9061  2.0351  0.0609
 2698TIP3    H2 8101   2.578   0.364   2.168 -1.5485 -0.0580  0.3100
 2699TIP3   OH2 8102   5.316   5.248   4.350 -0.0438  0.1253  0.3493
 2699TIP3    H1 8103   5.317   5.343   4.357 -2.0405  0.1416  1.1848
 2699TIP3    H2 8104   5.348   5.217   4.434  1.1093  0.0383 -0.1115
 2700TIP3   OH2 8105   3.488   2.899   1.839 -0.2392  0.1354 -0.4290
 2700TIP3    H1 8106   3.489   2.954   1.918  0.9659 -0.2739 -0.1352
 2700TIP3    H2 8107   3.568   2.923   1.792 -0.0583 -0.8399 -0.6509
 2701TIP3   OH2 8108   1.173   3.994   4.998 -0.1379 -0.2518 -0.2951
 2701TIP3    H1 8109   1.209   4.042   4.923  0.4862 -0.4742 -0.1431
 2701TIP3    H2 8110   1.247   3.946   5.034 -0.9429 -2.1432 -1.0429
 2702TIP3   OH2 8111   6.122   5.540   4.899  0.1005  0.0015  0.1631
 2702TIP3    H1 8112   6.199   5.597   4.893  0.3958 -0.2409  1.4394
 2702TIP3    H2 8113   6.061   5.576   4.835  1.0266  0.5894 -0.4088
 2703TIP3   OH2 8114   5.545   4.037   2.139  0.3181  0.1648  0.5495
 2703TIP3    H1 8115   5.513   3.949   2.121 -0.7641  0.9433 -1.7645
 2703TIP3    H2 8116   5.564   4.037   2.233 -0.7969 -2.1491  0.8538
 2704TIP3   OH2 8117   2.498   1.970   0.628  0.6988  0.3169  0.1725
 2704TIP3    H1 8118   2.551   2.021   0.689  0.4045  0.8717 -0.0287
 2704TIP3    H2 8119   2.557   1.902   0.596  0.9016  0.1228  0.9478
 2705TIP3   OH2 8120   2.416   4.624   0.916 -0.3035 -0.0017  0.1365
 2705TIP3    H1 8121   2.363   4.586   0.845  1.7040 -0.0307 -1.4534
 2705TIP3    H2 8122   2.447   4.707   0.880 -0.1155  0.5003  1.4262
 2706TIP3   OH2 8123   5.150   2.779   1.183  0.7594 -0.0603  0.0436
 2706TIP3    H1 8124   5.136   2.786   1.277  1.5726  0.0354  0.1595
 2706TIP3    H2 8125   5.078   2.831   1.145 -0.0242 -0.7287  0.5742
 2707TIP3   OH2 8126   6.323   0.642   0.776 -0.0626  0.3172 -0.5247
 2707TIP3    H1 8127   6.267   0.657   0.700  1.1537  0.4009 -1.4316
 2707TIP3    H2 8128   6.284   0.566   0.819 -0.6209  0.1009 -1.3794
 2708TIP3   OH2 8129   0.243   3.979   3.772 -0.1261 -0.0076  0.2433
 2708TIP3    H1 8130   0.191   3.962   3.694 -0.3990 -0.6952  0.5679
 2708TIP3    H2 8131   0.324   4.019   3.739  0.0095 -0.8346 -0.4453
 2709TIP3   OH2 8132   4.656   4.263   5.072 -0.5372  0.2441  0.3960
 2709TIP3    H1 8133   4.570   4.302   5.085 -0.7346  0.4243 -1.1648
 2709TIP3    H2 8134   4.665   4.259   4.977  1.2015  0.2824  0.5325
 2710TIP3   OH2 8135   1.865   4.165   0.477  0.0521  0.0256  0.5366
 2710TIP3    H1 8136   1.909   4.099   0.422 -1.7163 -0.6439 -0.1693
 2710TIP3    H2 8137   1.797   4.116   0.522 -1.3294  1.3499 -0.0244
 2711TIP3   OH2 8138   5.676   3.859   3.273 -0.2254  0.2490  0.5451
 2711TIP3    H1 8139   5.688   3.768   3.301 -1.8537 -0.1111  0.2202
 2711TIP3    H2 8140   5.592   3.884   3.311  0.0839  1.5431  0.4085
 2712TIP3   OH2 8141   1.165   4.718   2.124 -0.7539 -0.9157 -0.4865
 2712TIP3    H1 8142   1.199   4.730   2.036 -0.8304  0.6650 -0.3185
 2712TIP3    H2 8143   1.143   4.806   2.155 -0.5591 -1.4004  1.1739
 2713TIP3   OH2 8144   3.916   5.809   1.454  0.3201 -0.0073 -0.2725
 2713TIP3    H1 8145   3.897   5.753   1.529 -0.2275 -0.6692 -0.8958
 2713TIP3    H2 8146   4.009   5.793   1.436  0.9322  1.4324  1.2817
 2714TIP3   OH2 8147   0.911   3.154   5.061  0.1476  0.9972  0.0602
 2714TIP3    H1 8148   0.983   3.172   5.001  1.3087  0.1917  1.1530
 2714TIP3    H2 8149   0.858   3.087   5.017 -1.3630  3.2510 -1.8064
 2715TIP3   OH2 8150   4.933   0.786   2.936  0.4554  0.0021 -0.4467
 2715TIP3    H1 8151   5.011   0.798   2.990  1.6011 -1.7563 -1.6156
 2715TIP3    H2 8152   4.881   0.865   2.952  2.0625  0.8522  0.9917
 2716TIP3   OH2 8153   2.869   0.106   3.430  0.2468  0.4971 -0.1644
 2716TIP3    H1 8154   2.862   0.017   3.394  0.9781 -0.4102  1.7868
 2716TIP3    H2 8155   2.788   0.118   3.480 -0.1402  1.2027 -0.9385
 2717TIP3   OH2 8156   5.059   0.482   2.555  0.1086 -0.5669 -0.3885
 2717TIP3    H1 8157   4.979   0.451   2.597  0.1840 -0.8714 -0.4644
 2717TIP3    H2 8158   5.126   0.419   2.582  0.4475  0.0088  0.1373
 2718TIP3   OH2 8159   1.013   1.498   2.525 -0.4920 -0.2477  0.5348
 2718TIP3    H1 8160   1.040   1.445   2.600 -1.9588 -0.2092  1.1400
 2718TIP3    H2 8161   0.929   1.461   2.498 -0.2934  0.1471 -0.6982
 2719TIP3   OH2 8162   0.923   4.753   4.104 -0.2084 -0.0658 -0.2970
 2719TIP3    H1 8163   1.003   4.805   4.099  0.3632 -0.8521  0.3955
 2719TIP3    H2 8164   0.900   4.735   4.013 -0.4184  1.3809 -0.5492
 2720TIP3   OH2 8165   3.244   3.724   3.317  0.1848  0.3745  0.1017
 2720TIP3    H1 8166   3.239   3.690   3.406 -0.8319  0.5775  0.1319
 2720TIP3    H2 8167   3.278   3.813   3.328  2.2626 -0.3670  0.0708
 2721TIP3   OH2 8168   0.468   0.926   4.754  0.4006 -0.0935 -0.3107
 2721TIP3    H1 8169   0.382   0.954   4.787  0.4187 -1.0313  0.5906
 2721TIP3    H2 8170   0.477   0.970   4.670 -0.6435  0.6033 -0.0740
 2722TIP3   OH2 8171   1.318   1.476   2.951  0.6279  0.2955  0.0332
 2722TIP3    H1 8172   1.270   1.502   2.872 -1.4519 -0.6909  0.9039
 2722TIP3    H2 8173   1.329   1.558   3.000 -0.9695  0.4341  0.2046
 2723TIP3   OH2 8174   1.464   5.421   2.092 -0.2532 -0.5328  0.1533
 2723TIP3    H1 8175   1.495   5.331   2.100 -0.0696 -0.6588 -1.5998
 2723TIP3    H2 8176   1.391   5.415   2.030 -0.5731  0.4535  0.4269
 2724TIP3   OH2 8177   1.750   0.554   0.410 -0.6726  0.2959  0.7987
 2724TIP3    H1 8178   1.736   0.594   0.495 -0.9737  0.4259  0.6889
 2724TIP3    H2 8179   1.845   0.556   0.397 -0.5457 -0.4571  1.4871
 2725TIP3   OH2 8180   0.201   5.327   2.719  0.0085  0.2817  0.4410
 2725TIP3    H1 8181   0.267   5.331   2.650  0.3655  0.6982  0.8000
 2725TIP3    H2 8182   0.201   5.235   2.746  0.7792  0.3615  0.7492
 2726TIP3   OH2 8183   5.835   0.848   3.881  0.2717  0.5908 -0.1085
 2726TIP3    H1 8184   5.778   0.886   3.813 -0.4629  1.9481  1.2094
 2726TIP3    H2 8185   5.909   0.909   3.886 -0.0278  0.8955  0.7776
 2727TIP3   OH2 8186   1.138   0.998   4.643 -0.0018 -0.8528  0.0742
 2727TIP3    H1 8187   1.079   1.069   4.617  1.4785  0.2887 -0.3233
 2727TIP3    H2 8188   1.081   0.934   4.685 -1.1659  1.4056  2.1673
 2728TIP3   OH2 8189   4.346   4.960   1.872  0.3479 -0.1197  0.2011
 2728TIP3    H1 8190   4.309   4.872   1.879  0.5008 -0.1455  0.6974
 2728TIP3    H2 8191   4.324   4.988   1.783  1.4129 -1.1691 -0.4217
 2729TIP3   OH2 8192   2.834   5.505   4.842  0.0576 -0.1412 -0.2095
 2729TIP3    H1 8193   2.780   5.476   4.768  1.6190 -1.3607 -0.9261
 2729TIP3    H2 8194   2.891   5.430   4.860  1.4419  1.0669  0.5803
 2730TIP3   OH2 8195   3.456   3.165   3.306 -0.1024 -0.4686 -0.2218
 2730TIP3    H1 8196   3.451   3.173   3.401 -2.0142  0.7136 -0.3795
 2730TIP3    H2 8197   3.371   3.129   3.280 -0.1836  0.6468 -1.5882
 2731TIP3   OH2 8198   2.517   3.116   3.746 -0.1856 -0.0809 -0.0550
 2731TIP3    H1 8199   2.430   3.077   3.750 -0.3649  0.2701 -0.4851
 2731TIP3    H2 8200   2.521   3.175   3.821  0.3462 -1.4267  1.0271
 2732TIP3   OH2 8201   3.055   4.136   2.898 -0.0595  0.1217  0.1473
 2732TIP3    H1 8202   3.021   4.053   2.931  0.0620  0.2779  0.6743
 2732TIP3    H2 8203   3.146   4.116   2.875 -0.0878  0.0601  0.0867
 2733TIP3   OH2 8204   2.869   4.468   0.408 -0.2158 -0.3217  0.9708
 2733TIP3    H1 8205   2.774   4.471   0.409 -0.1978  0.2836  1.0611
 2733TIP3    H2 8206   2.892   4.467   0.315 -0.2470  2.6893  0.8279
 2734TIP3   OH2 8207   1.099   4.344   2.580  0.3836  0.2173  0.8064
 2734TIP3    H1 8208   1.093   4.422   2.524  0.2682  1.0753  1.9922
 2734TIP3    H2 8209   1.015   4.341   2.626  0.2946 -0.7567  0.6011
 2735TIP3   OH2 8210   4.947   5.119   4.587  0.1665 -0.1459 -0.0238
 2735TIP3    H1 8211   4.857   5.151   4.576 -0.0228 -0.6926 -0.0916
 2735TIP3    H2 8212   4.940   5.046   4.647  0.3322 -1.2019 -1.2363
 2736TIP3   OH2 8213   6.010   5.513   4.576 -0.0559 -0.1453 -0.0897
 2736TIP3    H1 8214   5.915   5.522   4.584  0.1456  2.7976  0.3197
 2736TIP3    H2 8215   6.024   5.491   4.484 -1.1249  1.5362 -0.7151
 2737TIP3   OH2 8216   0.771   3.657   3.439 -0.0055  0.1236  0.1291
 2737TIP3    H1 8217   0.707   3.714   3.481  0.5480  0.7478  0.1501
 2737TIP3    H2 8218   0.856   3.686   3.474  0.3963  0.1270 -0.7988
 2738TIP3   OH2 8219   4.433   2.631   4.073  0.2238  0.7681  0.3664
 2738TIP3    H1 8220   4.339   2.624   4.056  0.5771 -0.6778 -1.3566
 2738TIP3    H2 8221   4.463   2.540   4.073  1.8239  1.2586 -0.5413
 2739TIP3   OH2 8222   3.182   1.317   1.969 -0.1710  0.2759  0.3681
 2739TIP3    H1 8223   3.263   1.360   1.998  0.2957  0.1197 -0.6545
 2739TIP3    H2 8224   3.122   1.328   2.042  0.9065  0.0240  1.3248
 2740TIP3   OH2 8225   4.468   3.151   2.522  0.4612 -0.1142 -0.7741
 2740TIP3    H1 8226   4.502   3.085   2.461  1.0158  0.2728 -0.8990
 2740TIP3    H2 8227   4.517   3.136   2.603 -0.4047 -0.7422 -0.3606
 2741TIP3   OH2 8228   0.151   5.014   4.562 -0.9933 -0.0851 -0.1856
 2741TIP3    H1 8229   0.148   4.956   4.486 -0.2474  0.6459 -0.7860
 2741TIP3    H2 8230   0.175   5.099   4.527 -1.4356  0.4527  0.7714
 2742TIP3   OH2 8231   2.599   1.659   4.754  0.3742 -0.1731  0.9330
 2742TIP3    H1 8232   2.533   1.664   4.822 -2.1178  3.2384 -1.3857
 2742TIP3    H2 8233   2.650   1.740   4.764 -1.2703  1.4286 -2.0917
 2743TIP3   OH2 8234   2.335   0.951   2.924 -0.4022  0.6033 -0.1639
 2743TIP3    H1 8235   2.324   1.044   2.905 -1.1211  0.4614 -0.4474
 2743TIP3    H2 8236   2.384   0.949   3.006  0.8469  1.2248 -0.8596
 2744TIP3   OH2 8237   5.650   2.782   0.841 -0.2342 -0.3696  0.3929
 2744TIP3    H1 8238   5.726   2.724   0.842 -0.9495 -1.5395 -2.6601
 2744TIP3    H2 8239   5.610   2.769   0.927  1.0060 -2.5577  0.7371
 2745TIP3   OH2 8240   5.713   1.207   0.331 -0.0798  0.3581 -0.3410
 2745TIP3    H1 8241   5.649   1.278   0.323  1.3780  1.9993  1.4961
 2745TIP3    H2 8242   5.680   1.154   0.404 -0.5028 -0.1074 -0.8691
 2746TIP3   OH2 8243   2.259   2.407   2.537 -0.2587 -0.2718 -0.2603
 2746TIP3    H1 8244   2.274   2.377   2.447 -0.7522  0.0840 -0.4607
 2746TIP3    H2 8245   2.222   2.494   2.528  1.1045  0.3916  0.3210
 2747TIP3   OH2 8246   3.551   0.689   3.312 -0.0184 -0.1036 -0.2137
 2747TIP3    H1 8247   3.505   0.769   3.287 -0.8429 -0.3016  0.6373
 2747TIP3    H2 8248   3.635   0.719   3.346  0.3101  0.2910 -1.3259
 2748TIP3   OH2 8249   5.844   0.307   1.715 -0.3440 -0.0085 -0.2907
 2748TIP3    H1 8250   5.837   0.215   1.741 -2.7238 -0.2523 -1.5687
 2748TIP3    H2 8251   5.932   0.315   1.678 -0.5992 -2.1320 -1.4791
 2749TIP3   OH2 8252   0.570   4.299   0.440  1.1670 -0.5715  0.1574
 2749TIP3    H1 8253   0.556   4.216   0.486  0.9126 -1.3962 -1.3492
 2749TIP3    H2 8254   0.663   4.298   0.417  1.0888 -0.5899 -0.1539
 2750TIP3   OH2 8255   6.102   4.501   3.969 -0.5668  0.3145 -0.1821
 2750TIP3    H1 8256   6.147   4.539   3.893  1.3108  0.0066  0.7179
 2750TIP3    H2 8257   6.040   4.569   3.996 -0.6065  0.7998 -1.4251
 2751TIP3   OH2 8258   4.104   0.512   1.848 -0.3264 -0.0671 -0.1003
 2751TIP3    H1 8259   4.039   0.557   1.794 -0.6483  1.4887  1.4772
 2751TIP3    H2 8260   4.112   0.566   1.926  0.6007 -1.8682  1.1382
 2752TIP3   OH2 8261   0.490   5.454   4.037 -0.6045 -0.0617 -0.4929
 2752TIP3    H1 8262   0.432   5.519   3.997  0.6343  0.6773 -1.1570
 2752TIP3    H2 8263   0.572   5.460   3.986 -0.4363 -2.1209 -0.5508
 2753TIP3   OH2 8264   0.283   0.801   4.091 -0.0379  0.2445 -0.2276
 2753TIP3    H1 8265   0.225   0.768   4.023  0.1129 -1.6601  0.5081
 2753TIP3    H2 8266   0.259   0.752   4.170  1.3830  0.6645  0.5084
 2754TIP3   OH2 8267   1.387   0.815   3.269 -0.1002  0.0380  0.2089
 2754TIP3    H1 8268   1.442   0.737   3.257 -0.1730  0.1859 -1.2123
 2754TIP3    H2 8269   1.298   0.781   3.271 -0.0578 -0.0415  0.9295
 2755TIP3   OH2 8270   1.683   3.113   4.007  0.3999 -0.0575 -0.0472
 2755TIP3    H1 8271   1.628   3.101   4.085  0.2217 -3.0648 -0.5041
 2755TIP3    H2 8272   1.762   3.156   4.040 -0.1487 -0.2141  1.5712
 2756TIP3   OH2 8273   5.318   0.271   0.592 -0.0697  0.4266  0.6717
 2756TIP3    H1 8274   5.343   0.351   0.547 -1.6114  1.0217  0.7966
 2756TIP3    H2 8275   5.259   0.226   0.531 -0.4447  0.1627  1.2122
 2757TIP3   OH2 8276   5.069   2.505   2.341  0.0360  0.6911 -0.2887
 2757TIP3    H1 8277   4.992   2.497   2.396 -0.3535  1.2780 -0.7420
 2757TIP3    H2 8278   5.121   2.574   2.382  0.7567 -0.2934  0.5115
 2758TIP3   OH2 8279   3.021   5.676   4.014 -0.2774 -0.0807  0.0103
 2758TIP3    H1 8280   2.946   5.625   3.985  0.4563 -1.2198  0.0273
 2758TIP3    H2 8281   3.029   5.658   4.107  0.2592 -0.3059 -0.0725
 2759TIP3   OH2 8282   4.550   0.484   4.287  0.1623 -0.0349 -0.2585
 2759TIP3    H1 8283   4.627   0.537   4.307 -0.5800  1.5734 -1.4290
 2759TIP3    H2 8284   4.584   0.396   4.272  1.7010  0.5298 -0.2497
 2760TIP3   OH2 8285   3.911   2.670   4.764  0.8797  0.1959  0.0183
 2760TIP3    H1 8286   3.946   2.641   4.679  1.2674  1.8565 -0.4281
 2760TIP3    H2 8287   3.817   2.652   4.759  1.0637 -0.7015 -0.3345
 2761TIP3   OH2 8288   1.917   4.969   1.582 -0.0571  0.6450 -0.2985
 2761TIP3    H1 8289   1.837   4.987   1.532  0.4880 -1.9656 -2.3878
 2761TIP3    H2 8290   1.901   4.883   1.622  1.3696  0.4757 -0.0424
 2762TIP3   OH2 8291   1.982   3.042   2.637  0.0365 -0.0340  0.0782
 2762TIP3    H1 8292   2.051   2.982   2.611 -0.7076 -0.4601 -0.9875
 2762TIP3    H2 8293   1.945   3.074   2.554 -2.5858 -1.6191  0.4977
 2763TIP3   OH2 8294   4.506   2.976   2.993  0.0687 -0.3213 -0.4119
 2763TIP3    H1 8295   4.572   3.031   2.950  0.9446 -0.3795  0.8061
 2763TIP3    H2 8296   4.542   2.959   3.080 -1.8780  0.2031  0.5392
 2764TIP3   OH2 8297   3.354   3.507   3.141 -0.1046 -0.2779 -0.3576
 2764TIP3    H1 8298   3.288   3.448   3.177 -0.0986  0.5668  1.0928
 2764TIP3    H2 8299   3.325   3.594   3.167  0.7410  0.2411 -1.0950
 2765TIP3   OH2 8300   4.748   5.768   1.334  0.0601 -0.1754  0.7562
 2765TIP3    H1 8301   4.730   5.820   1.412 -0.8080  0.4579  0.1500
 2765TIP3    H2 8302   4.668   5.718   1.320  0.7019 -1.3416  1.0442
 2766TIP3   OH2 8303   5.088   1.828   2.461  0.1600  0.1426 -0.1054
 2766TIP3    H1 8304   5.163   1.775   2.487  0.8291  0.5888 -1.0830
 2766TIP3    H2 8305   5.124   1.894   2.402 -0.7673  1.2613  0.5190
 2767TIP3   OH2 8306   0.087   0.649   0.075 -0.3125  0.2496 -0.5392
 2767TIP3    H1 8307   0.000   0.664   0.038 -0.0207 -0.3925 -1.5042
 2767TIP3    H2 8308   0.127   0.585   0.018  1.2248  1.3335 -0.7405
 2768TIP3   OH2 8309   0.481   1.178   3.948 -0.3897 -0.1707 -0.2938
 2768TIP3    H1 8310   0.400   1.161   3.996 -1.5864 -0.6452 -2.3892
 2768TIP3    H2 8311   0.545   1.201   4.016 -2.2896  0.3430  1.3937
 2769TIP3   OH2 8312   4.942   0.763   0.537  0.3696 -0.0474 -0.3317
 2769TIP3    H1 8313   5.007   0.820   0.578 -0.7840  0.9541  0.1655
 2769TIP3    H2 8314   4.908   0.709   0.608 -0.8255  0.9078 -0.1358
 2770TIP3   OH2 8315   2.768   1.093   1.378  0.8479  0.0856 -0.0240
 2770TIP3    H1 8316   2.672   1.097   1.375  0.8493  0.7955  0.6381
 2770TIP3    H2 8317   2.788   1.001   1.361 -0.0401 -0.4214  1.4824
 2771TIP3   OH2 8318   2.806   2.333   4.489  0.0220 -0.0611 -0.6109
 2771TIP3    H1 8319   2.787   2.371   4.574 -0.3243 -0.2717 -0.5911
 2771TIP3    H2 8320   2.803   2.407   4.428 -1.2015 -0.1298 -0.6589
 2772TIP3   OH2 8321   3.738   4.900   3.513  0.1263 -0.0289 -0.0002
 2772TIP3    H1 8322   3.667   4.959   3.490 -0.2130 -0.6561 -0.6283
 2772TIP3    H2 8323   3.694   4.822   3.548  0.4949 -0.4665 -0.4959
 2773TIP3   OH2 8324   1.721   3.183   2.817 -0.2504  0.5859  0.4480
 2773TIP3    H1 8325   1.742   3.090   2.818 -1.9664  0.1568  1.1250
 2773TIP3    H2 8326   1.806   3.227   2.815  0.5990 -0.9704 -1.6956
 2774TIP3   OH2 8327   2.918   3.457   4.632 -0.1996 -0.3247  0.1699
 2774TIP3    H1 8328   2.983   3.393   4.603 -0.0484  0.2873 -0.8915
 2774TIP3    H2 8329   2.948   3.484   4.719 -0.1834 -1.5601  0.5781
 2775TIP3   OH2 8330   2.661   0.237   4.966  0.2157  0.3581  0.1219
 2775TIP3    H1 8331   2.725   0.282   4.912 -0.4409 -0.0640 -1.0479
 2775TIP3    H2 8332   2.635   0.302   5.031  1.5531  0.6427  0.4014
 2776TIP3   OH2 8333   0.723   0.760   4.630 -0.1205  0.5195  0.2283
 2776TIP3    H1 8334   0.642   0.804   4.656  0.1325  2.0117 -1.3255
 2776TIP3    H2 8335   0.703   0.723   4.544  0.6903  0.4579  0.0643
 2777TIP3   OH2 8336   5.198   2.234   4.954  0.4942  0.0679  0.6360
 2777TIP3    H1 8337   5.146   2.164   4.914 -0.4950  2.0936 -2.0071
 2777TIP3    H2 8338   5.287   2.217   4.926  0.2904 -0.2548  0.1699
 2778TIP3   OH2 8339   1.056   2.863   4.155 -0.3441  0.2063 -0.2527
 2778TIP3    H1 8340   1.065   2.849   4.061 -0.2906 -1.5468 -0.0146
 2778TIP3    H2 8341   0.975   2.913   4.164  0.3451  1.5687 -1.2987
 2779TIP3   OH2 8342   3.758   0.344   5.132  0.2314  0.3247 -0.1985
 2779TIP3    H1 8343   3.743   0.415   5.194  2.8491  0.6036  0.2054
 2779TIP3    H2 8344   3.790   0.271   5.186  0.7722 -0.0427 -0.9901
 2780TIP3   OH2 8345   5.502   1.459   2.087 -0.2999 -0.0318 -0.2456
 2780TIP3    H1 8346   5.537   1.454   1.998 -1.5402  0.3667 -0.7691
 2780TIP3    H2 8347   5.533   1.378   2.129  2.6947  1.0407 -0.0838
 2781TIP3   OH2 8348   2.618   0.360   0.118 -0.1755 -0.2435 -0.2265
 2781TIP3    H1 8349   2.541   0.412   0.096 -1.7525 -2.2405  0.3450
 2781TIP3    H2 8350   2.621   0.291   0.052 -0.4127 -1.6971  1.2280
 2782TIP3   OH2 8351   3.180   5.504   1.912 -0.6198  0.0292  0.0092
 2782TIP3    H1 8352   3.085   5.512   1.926 -0.1643  1.6729  2.8424
 2782TIP3    H2 8353   3.206   5.589   1.878  0.1270  0.3878  1.4271
 2783TIP3   OH2 8354   2.569   2.116   0.035 -0.2545  0.2291 -0.5852
 2783TIP3    H1 8355   2.502   2.161  -0.017  0.7524  1.8443 -0.5666
 2783TIP3    H2 8356   2.641   2.179   0.041 -0.5701  0.4374  3.3638
 2784TIP3   OH2 8357   6.001   5.152   1.171  0.0082 -0.3231 -0.7470
 2784TIP3    H1 8358   5.926   5.201   1.138  0.6729 -0.3142 -2.3251
 2784TIP3    H2 8359   5.969   5.112   1.252 -1.5663  0.0232 -1.1511
 2785TIP3   OH2 8360   2.507   4.909   0.213  0.4559  0.5486 -0.4981
 2785TIP3    H1 8361   2.495   4.827   0.260  0.3090 -0.2670 -1.9237
 2785TIP3    H2 8362   2.546   4.968   0.278 -1.0618 -0.0840  1.0681
 2786TIP3   OH2 8363   3.028   1.219   4.061  0.0114  0.2607 -0.1530
 2786TIP3    H1 8364   3.107   1.229   4.009  0.1853 -0.1326  0.0340
 2786TIP3    H2 8365   2.956   1.227   3.998  0.2151  0.0239 -0.4176
 2787TIP3   OH2 8366   2.872   4.484   3.122 -0.7380  0.1046 -0.1366
 2787TIP3    H1 8367   2.810   4.475   3.194 -0.1826  0.1576  0.3635
 2787TIP3    H2 8368   2.863   4.403   3.072 -0.4890 -0.3339  0.5194
 2788TIP3   OH2 8369   1.899   2.554   4.584  0.2212 -0.4965 -0.1875
 2788TIP3    H1 8370   1.831   2.607   4.542  1.1144  1.3289  0.5297
 2788TIP3    H2 8371   1.980   2.602   4.567  1.4012 -2.6532 -1.0948
 2789TIP3   OH2 8372   5.484   3.023   1.352  0.0513  0.4039  0.1663
 2789TIP3    H1 8373   5.577   3.031   1.332 -0.1660  2.1652 -0.3286
 2789TIP3    H2 8374   5.480   3.018   1.447  0.6334  0.7278  0.2109
 2790TIP3   OH2 8375   0.435   1.243   1.874 -0.3235 -0.1730  0.5304
 2790TIP3    H1 8376   0.342   1.233   1.890 -0.7031  0.4627 -1.0700
 2790TIP3    H2 8377   0.462   1.316   1.930 -1.2013  0.8322 -0.3092
 2791TIP3   OH2 8378   0.673   3.295   1.444 -0.5431  0.4187  0.1546
 2791TIP3    H1 8379   0.705   3.234   1.511  0.2710 -0.0368 -0.6300
 2791TIP3    H2 8380   0.733   3.370   1.450  0.2247 -0.0981 -0.7871
 2792TIP3   OH2 8381   2.870   2.791   0.730 -0.1077  0.3015  0.1310
 2792TIP3    H1 8382   2.794   2.733   0.720 -0.9117  1.1554  1.1312
 2792TIP3    H2 8383   2.868   2.846   0.651 -2.0078  1.9600  1.2342
 2793TIP3   OH2 8384   1.153   3.172   1.822  0.1938 -0.2301  0.0823
 2793TIP3    H1 8385   1.079   3.197   1.767  1.4058  0.0451 -1.5018
 2793TIP3    H2 8386   1.229   3.208   1.777  1.4083 -1.5111  1.0307
 2794TIP3   OH2 8387   5.004   5.349   3.051  0.3269  0.2396  0.2393
 2794TIP3    H1 8388   4.983   5.273   3.105  0.3704  1.0363  1.4104
 2794TIP3    H2 8389   4.968   5.423   3.099 -0.5142  0.9022 -1.3200
 2795TIP3   OH2 8390   0.313   1.910   3.494  0.5968  0.4775 -0.7088
 2795TIP3    H1 8391   0.308   1.848   3.421  0.4457  1.1627 -1.3032
 2795TIP3    H2 8392   0.319   1.996   3.451 -0.9673  1.0124  0.0771
 2796TIP3   OH2 8393   0.550   1.957   0.909  0.5579  0.0907  0.3575
 2796TIP3    H1 8394   0.626   1.899   0.913 -0.9078 -2.0088 -0.3882
 2796TIP3    H2 8395   0.480   1.909   0.954 -0.4938  1.6781  0.4985
 2797TIP3   OH2 8396   0.674   4.457   0.077 -0.4215  0.0145  0.0176
 2797TIP3    H1 8397   0.588   4.478   0.115 -0.7614 -1.0156 -0.1527
 2797TIP3    H2 8398   0.666   4.366   0.049  0.2309  0.3673 -1.3877
 2798TIP3   OH2 8399   2.202   2.465   4.066  0.5149  0.3930  0.2195
 2798TIP3    H1 8400   2.163   2.385   4.032 -0.3910  0.7013  0.5176
 2798TIP3    H2 8401   2.284   2.475   4.016 -0.5019  0.5454 -1.4816
 2799TIP3   OH2 8402   2.452   5.554   2.961  0.7505 -0.3838  0.1360
 2799TIP3    H1 8403   2.465   5.641   3.000  1.7953 -0.0066 -0.9950
 2799TIP3    H2 8404   2.382   5.568   2.896  0.1174 -0.6574  0.7492
 2800TIP3   OH2 8405   5.495   1.808   2.717  0.3581 -0.7202  0.3940
 2800TIP3    H1 8406   5.553   1.733   2.730  0.4015 -0.8392 -0.4490
 2800TIP3    H2 8407   5.484   1.814   2.622 -1.3463 -0.9546  0.5507
 2801TIP3   OH2 8408   1.951   2.842   3.072 -0.3032  0.6636  0.0638
 2801TIP3    H1 8409   1.926   2.852   3.164 -2.1076 -1.1296 -0.1819
 2801TIP3    H2 8410   2.037   2.800   3.076 -0.0456  1.2345  0.9193
 2802TIP3   OH2 8411   0.402   3.219   2.866 -0.5450  0.0331  0.4479
 2802TIP3    H1 8412   0.478   3.176   2.827 -1.0523 -0.4116 -0.0707
 2802TIP3    H2 8413   0.362   3.267   2.793 -0.8575  0.1292  0.6797
 2803TIP3   OH2 8414   4.832   2.034   1.252  0.2107  0.0653 -0.5569
 2803TIP3    H1 8415   4.889   2.104   1.218  1.9837 -0.6643  0.7640
 2803TIP3    H2 8416   4.776   2.078   1.316  2.0429  0.1628  1.0560
 2804TIP3   OH2 8417   4.737   3.673   3.508 -0.0573 -0.3990  0.0735
 2804TIP3    H1 8418   4.666   3.636   3.455  1.1529 -0.6852 -1.4294
 2804TIP3    H2 8419   4.816   3.629   3.475  0.7992 -0.2553  1.8523
 2805TIP3   OH2 8420   2.585   2.584   0.953 -0.5282 -0.0106 -0.3755
 2805TIP3    H1 8421   2.679   2.566   0.944 -0.8067 -2.8665  1.0720
 2805TIP3    H2 8422   2.573   2.671   0.916  2.2500 -0.5473 -2.9310
 2806TIP3   OH2 8423   2.907   3.059   1.235 -0.0825  0.1279  0.3186
 2806TIP3    H1 8424   2.980   3.004   1.207  0.6932  1.7899 -1.0458
 2806TIP3    H2 8425   2.940   3.105   1.312  0.2688  0.7902 -0.2270
 2807TIP3   OH2 8426   3.480   5.495   1.632 -0.2196 -0.6389  0.0081
 2807TIP3    H1 8427   3.533   5.483   1.553 -0.2937 -0.2449 -0.1047
 2807TIP3    H2 8428   3.527   5.447   1.700 -0.5861 -1.6877 -0.4461
 2808TIP3   OH2 8429   1.195   2.885   2.651 -0.1249  0.0801  0.1971
 2808TIP3    H1 8430   1.273   2.930   2.618 -0.1752 -0.4722 -0.7114
 2808TIP3    H2 8431   1.230   2.812   2.702 -0.0469 -0.1255 -0.1499
 2809TIP3   OH2 8432   2.535   0.268   3.855  0.2020  0.0356  0.4011
 2809TIP3    H1 8433   2.479   0.192   3.838 -1.3558  1.0185  0.9199
 2809TIP3    H2 8434   2.513   0.329   3.785  1.1282  0.1863  0.2363
 2810TIP3   OH2 8435   2.604   4.554   4.074 -0.2113 -0.5161 -0.0166
 2810TIP3    H1 8436   2.529   4.589   4.121 -0.8311 -1.6767 -0.1030
 2810TIP3    H2 8437   2.650   4.631   4.040 -0.6284  0.2646  1.1296
 2811TIP3   OH2 8438   1.506   5.553   0.455  0.1684 -0.5241 -0.4507
 2811TIP3    H1 8439   1.426   5.548   0.403  0.0305  1.8675 -0.5682
 2811TIP3    H2 8440   1.517   5.646   0.473  3.9072 -0.5012 -1.9710
 2812TIP3   OH2 8441   2.101   0.564   0.030 -0.1881 -0.4663  0.4481
 2812TIP3    H1 8442   2.143   0.649   0.037 -1.1685 -0.0250  1.1630
 2812TIP3    H2 8443   2.162   0.511  -0.021  0.9933  0.2928  1.0372
 2813TIP3   OH2 8444   0.643   3.200   4.345 -0.1207  0.0139 -0.0165
 2813TIP3    H1 8445   0.576   3.243   4.293  0.6963  1.7739  0.3223
 2813TIP3    H2 8446   0.606   3.196   4.434  0.2637  1.1516  0.2105
 2814TIP3   OH2 8447   4.645   4.560   0.086 -0.1838 -0.3554  0.4865
 2814TIP3    H1 8448   4.643   4.503   0.163  0.1378 -2.2118 -0.7948
 2814TIP3    H2 8449   4.564   4.539   0.039 -1.0619  1.7641  0.9542
 2815TIP3   OH2 8450   0.132   3.510   1.530  0.3392  0.0188 -0.4928
 2815TIP3    H1 8451   0.210   3.528   1.583  1.2901 -1.2753 -1.3933
 2815TIP3    H2 8452   0.067   3.479   1.593  0.5695  0.9964  0.2559
 2816TIP3   OH2 8453   0.850   2.014   5.130 -0.2200 -0.6945  0.9311
 2816TIP3    H1 8454   0.846   2.077   5.057 -0.0309 -0.7801  0.8458
 2816TIP3    H2 8455   0.852   1.929   5.087  1.3412 -0.7092  0.9837
 2817TIP3   OH2 8456   5.730   4.931   0.930 -0.3395  0.5607 -0.1148
 2817TIP3    H1 8457   5.823   4.925   0.953 -0.7007 -2.2897  0.9370
 2817TIP3    H2 8458   5.689   4.974   1.005 -0.2917 -1.1876  0.9676
 2818TIP3   OH2 8459   4.590   1.579   0.541 -0.2968  0.4447 -0.0556
 2818TIP3    H1 8460   4.586   1.607   0.450 -0.8853 -0.6142 -0.3610
 2818TIP3    H2 8461   4.611   1.486   0.537 -0.0442  0.4506  0.9030
 2819TIP3   OH2 8462   4.886   2.850   1.265  0.3624 -0.0969 -0.1590
 2819TIP3    H1 8463   4.843   2.862   1.349  1.7345  1.1141  0.4121
 2819TIP3    H2 8464   4.904   2.939   1.234  0.2786 -0.5270 -1.5376
 2820TIP3   OH2 8465   4.209   5.130   4.034  0.4419  0.1130  0.6314
 2820TIP3    H1 8466   4.305   5.136   4.041  0.6064 -1.9532  0.7101
 2820TIP3    H2 8467   4.178   5.166   4.117  1.2735 -0.9804  1.4566
 2821TIP3   OH2 8468   3.008   0.755   4.564  0.1535 -0.1780  0.2508
 2821TIP3    H1 8469   3.086   0.792   4.605  0.6501  0.0585 -0.8663
 2821TIP3    H2 8470   2.955   0.832   4.540  0.6426 -0.2096 -1.0191
 2822TIP3   OH2 8471   4.533   0.790   2.676 -0.3827  0.5431 -0.1813
 2822TIP3    H1 8472   4.509   0.706   2.638  0.5689 -0.0887  0.5890
 2822TIP3    H2 8473   4.627   0.784   2.692 -0.3991  1.5455  0.3743
 2823TIP3   OH2 8474   3.285   5.187   3.934 -0.3222  0.0339  0.1244
 2823TIP3    H1 8475   3.305   5.128   3.862 -0.4791  0.2904 -0.1287
 2823TIP3    H2 8476   3.211   5.146   3.979  0.6911 -0.8723  1.0103
 2824TIP3   OH2 8477   0.892   5.992   1.567 -0.2338  0.5149  0.0289
 2824TIP3    H1 8478   0.952   5.954   1.502  0.7447  0.5053  0.9034
 2824TIP3    H2 8479   0.945   5.998   1.647 -0.4400  3.3808  0.0429
 2825TIP3   OH2 8480   5.366   5.848   1.530  0.0014 -0.6895  0.1770
 2825TIP3    H1 8481   5.425   5.849   1.455  0.7708  0.2861  0.7608
 2825TIP3    H2 8482   5.342   5.940   1.542 -1.9628 -1.1081 -0.2818
 2826TIP3   OH2 8483   0.916   3.660   4.067  0.2449 -0.2202 -0.4008
 2826TIP3    H1 8484   0.910   3.591   4.132 -1.0725 -1.3090 -1.6084
 2826TIP3    H2 8485   0.900   3.741   4.116 -1.5434 -1.0723  0.5287
 2827TIP3   OH2 8486   4.656   2.186   3.048 -0.1339  0.5132  0.3245
 2827TIP3    H1 8487   4.722   2.253   3.032 -0.5725  0.8477 -0.0672
 2827TIP3    H2 8488   4.697   2.105   3.018 -0.4077  0.9190 -1.1935
 2828TIP3   OH2 8489   2.923   2.331   2.584  0.3995  0.0110  0.5909
 2828TIP3    H1 8490   2.861   2.352   2.654 -0.0405  0.3871  0.0963
 2828TIP3    H2 8491   3.009   2.340   2.625  0.2017  1.6064  0.7427
 2829TIP3   OH2 8492   1.479   1.549   2.144 -0.2454 -0.3129  1.0381
 2829TIP3    H1 8493   1.414   1.560   2.075  0.8010 -1.5932 -0.2051
 2829TIP3    H2 8494   1.522   1.634   2.151 -0.9533  0.0789  0.7575
 2830TIP3   OH2 8495   4.053   0.077   3.157 -0.6092  0.8358  0.3504
 2830TIP3    H1 8496   4.122   0.143   3.157 -0.1799  0.3917  0.4425
 2830TIP3    H2 8497   4.035   0.061   3.249 -1.7066  1.8385  0.3350
 2831TIP3   OH2 8498   1.020   0.307   3.554 -0.1340 -0.1427  0.3068
 2831TIP3    H1 8499   1.019   0.350   3.639 -0.8783  1.7043 -0.5891
 2831TIP3    H2 8500   1.082   0.234   3.565  2.3363  1.9656  1.5394
 2832TIP3   OH2 8501   4.501   3.052   3.604  0.5604 -0.2778 -0.1795
 2832TIP3    H1 8502   4.428   3.108   3.631  0.5069 -0.1283 -0.6233
 2832TIP3    H2 8503   4.554   3.041   3.683  0.6305  0.4851 -0.1191
 2833TIP3   OH2 8504   3.124   0.623   0.428  0.0002  0.1233  0.6134
 2833TIP3    H1 8505   3.030   0.638   0.434  0.0735  0.1912  1.8559
 2833TIP3    H2 8506   3.138   0.540   0.473  0.8294  1.3917  2.8620
 2834TIP3   OH2 8507   0.066   0.587   1.687  0.0732  0.9733 -0.6137
 2834TIP3    H1 8508   0.081   0.500   1.725 -1.3666  1.1925  0.5500
 2834TIP3    H2 8509   0.148   0.634   1.700  0.5937  0.0540 -0.4966
 2835TIP3   OH2 8510   1.497   3.544   4.743  0.2322  0.0161  0.2356
 2835TIP3    H1 8511   1.463   3.620   4.789 -0.0325  0.0952 -0.0853
 2835TIP3    H2 8512   1.507   3.477   4.811 -1.3714 -0.2840  0.2100
 2836TIP3   OH2 8513   1.852   5.398   0.847 -0.0135 -0.1912 -0.7544
 2836TIP3    H1 8514   1.831   5.328   0.785 -0.9800 -0.8686  0.2939
 2836TIP3    H2 8515   1.842   5.357   0.933  1.0767  0.7818 -0.1327
 2837TIP3   OH2 8516   1.032   1.816   0.456  0.1166  0.4723 -0.3013
 2837TIP3    H1 8517   0.949   1.863   0.465 -0.8410 -0.7516 -2.2063
 2837TIP3    H2 8518   1.068   1.846   0.373  2.2213  1.8338  1.0066
 2838TIP3   OH2 8519   2.978   3.185   3.435 -0.2392 -0.3637 -0.2358
 2838TIP3    H1 8520   2.917   3.257   3.419  0.0193 -0.5963 -2.6337
 2838TIP3    H2 8521   2.944   3.142   3.514  0.0392  2.7477  1.7360
 2839TIP3   OH2 8522   3.583   5.871   1.937  0.3995 -0.4116 -0.5593
 2839TIP3    H1 8523   3.551   5.820   2.012 -0.2903 -0.8061 -1.1120
 2839TIP3    H2 8524   3.547   5.827   1.860 -1.5618  1.7988 -1.0163
 2840TIP3   OH2 8525   0.768   4.591   2.863  0.2239  0.4092  0.5089
 2840TIP3    H1 8526   0.789   4.682   2.843 -0.9532  0.2363 -1.8631
 2840TIP3    H2 8527   0.688   4.595   2.915  1.3378  0.7608  2.2589
 2841TIP3   OH2 8528   3.956   0.132   1.042 -0.0572  0.4900  0.4721
 2841TIP3    H1 8529   3.962   0.192   1.116  0.1074 -0.1862  1.0125
 2841TIP3    H2 8530   3.863   0.130   1.021 -0.2371 -0.0481  1.2765
 2842TIP3   OH2 8531   0.136   5.652   0.946 -0.3530  0.7856 -0.0816
 2842TIP3    H1 8532   0.173   5.721   1.001 -0.5983  1.0307 -0.2200
 2842TIP3    H2 8533   0.043   5.674   0.939 -0.6189 -0.0388  0.5860
 2843TIP3   OH2 8534   4.675   0.292   4.083  0.4543  0.1612 -0.0063
 2843TIP3    H1 8535   4.711   0.380   4.091  0.7238  0.3559 -2.4904
 2843TIP3    H2 8536   4.729   0.238   4.141  0.4910  1.5551  1.2906
 2844TIP3   OH2 8537   1.972   0.882   2.193  0.4257  0.4110 -0.8873
 2844TIP3    H1 8538   1.993   0.802   2.144 -0.7643 -0.3033 -0.2617
 2844TIP3    H2 8539   1.878   0.879   2.205  0.7011  0.3158  1.8479
 2845TIP3   OH2 8540   1.297   1.191   4.249 -0.5267 -0.0365  0.1242
 2845TIP3    H1 8541   1.220   1.240   4.223  0.2913  0.8607 -0.6993
 2845TIP3    H2 8542   1.344   1.174   4.167  0.2844 -0.3339  0.6314
 2846TIP3   OH2 8543   4.608   1.892   0.480 -0.4281 -0.1976 -0.1378
 2846TIP3    H1 8544   4.600   1.864   0.572 -0.8393  1.1239  0.2389
 2846TIP3    H2 8545   4.518   1.903   0.450 -0.2795  0.2049 -0.4398
 2847TIP3   OH2 8546   0.615   3.401   5.109  0.1389 -0.1077 -0.7027
 2847TIP3    H1 8547   0.701   3.385   5.069  0.6479  1.1513 -0.1814
 2847TIP3    H2 8548   0.552   3.368   5.045  0.9991 -0.6069 -1.3146
 2848TIP3   OH2 8549   2.967   5.602   3.007 -0.2621  0.1587  0.0190
 2848TIP3    H1 8550   3.050   5.555   3.017 -0.6579 -0.1233  3.3052
 2848TIP3    H2 8551   2.910   5.541   2.961  0.2142 -1.3303  1.2991
 2849TIP3   OH2 8552   5.703   3.120   4.078 -0.4932 -0.2335  0.0689
 2849TIP3    H1 8553   5.732   3.038   4.038 -1.1787 -0.9404  0.9698
 2849TIP3    H2 8554   5.780   3.152   4.126  0.1218  0.2674 -1.1786
 2850TIP3   OH2 8555   5.994   4.090   1.096  0.2670  0.5090 -0.0413
 2850TIP3    H1 8556   6.052   4.137   1.156  2.3335 -0.6168 -1.0428
 2850TIP3    H2 8557   5.906   4.111   1.126  1.1850  0.0102  3.3627
 2851TIP3   OH2 8558   5.517   0.416   0.744  0.4465 -0.0302  0.2512
 2851TIP3    H1 8559   5.513   0.508   0.719  0.1774 -0.4527 -1.3850
 2851TIP3    H2 8560   5.436   0.379   0.708  1.9657 -1.5098 -1.7999
 2852TIP3   OH2 8561   2.706   0.554   2.655 -0.0623 -0.4322  0.3694
 2852TIP3    H1 8562   2.719   0.460   2.642 -1.4831 -0.4973 -0.9500
 2852TIP3    H2 8563   2.636   0.576   2.594  0.0272  1.4320  0.8985
 2853TIP3   OH2 8564   3.413   2.096   2.383  0.2330 -0.3178 -0.2646
 2853TIP3    H1 8565   3.440   2.183   2.355  1.3252 -1.1510 -1.9878
 2853TIP3    H2 8566   3.352   2.067   2.315  0.9620 -1.4106 -0.4817
 2854TIP3   OH2 8567   1.047   3.401   0.569 -0.0414 -0.0473 -0.0421
 2854TIP3    H1 8568   0.994   3.330   0.605 -0.8397  1.7270  2.5498
 2854TIP3    H2 8569   0.989   3.447   0.509 -0.6562  0.3739  0.8522
 2855TIP3   OH2 8570   2.019   1.813   2.652  0.1197 -0.4009 -0.0449
 2855TIP3    H1 8571   2.023   1.909   2.644  1.1719 -0.3362  0.9872
 2855TIP3    H2 8572   1.989   1.798   2.742 -1.0590 -1.0616 -0.5279
 2856TIP3   OH2 8573   2.754   5.639   0.291  0.2521 -0.2748 -0.1362
 2856TIP3    H1 8574   2.758   5.559   0.238  0.5039 -0.5376  0.2726
 2856TIP3    H2 8575   2.843   5.675   0.287  0.4799 -0.7172  0.7389
 2857TIP3   OH2 8576   1.483   1.613   4.318 -0.4144 -0.1227  0.2516
 2857TIP3    H1 8577   1.498   1.548   4.385  0.1169  0.2599  0.5064
 2857TIP3    H2 8578   1.459   1.692   4.366  0.4702  0.2940  0.0266
 2858TIP3   OH2 8579   2.011   1.179   0.142  0.2529 -0.0614 -0.3413
 2858TIP3    H1 8580   2.058   1.107   0.100 -0.8973 -1.4775  0.7091
 2858TIP3    H2 8581   1.963   1.221   0.071  1.3105 -0.0134 -1.0477
 2859TIP3   OH2 8582   1.580   2.322   1.984  0.0168  0.2427  0.1395
 2859TIP3    H1 8583   1.661   2.325   2.033  0.7236  1.2625 -1.0287
 2859TIP3    H2 8584   1.570   2.230   1.960  0.7726  0.0933  0.3794
 2860TIP3   OH2 8585   2.891   2.703   2.064 -0.0367 -0.1361 -0.0680
 2860TIP3    H1 8586   2.813   2.727   2.014 -0.1614  2.0762  1.0337
 2860TIP3    H2 8587   2.860   2.693   2.154  0.6782 -1.0025  0.1020
 2861TIP3   OH2 8588   2.693   5.533   1.413  0.0354  0.0999 -0.2743
 2861TIP3    H1 8589   2.663   5.622   1.396 -0.3766  0.6500  2.6867
 2861TIP3    H2 8590   2.764   5.544   1.477 -0.3305 -1.6810  0.5029
 2862TIP3   OH2 8591   4.062   1.544   2.911 -0.6745 -0.0040 -0.0728
 2862TIP3    H1 8592   4.151   1.508   2.915 -0.2145  1.1116  0.3351
 2862TIP3    H2 8593   4.020   1.514   2.992  0.5069  2.2649  1.5111
 2863TIP3   OH2 8594   1.991   2.550   3.918 -0.0358 -0.2976  0.2905
 2863TIP3    H1 8595   2.044   2.529   3.994  1.3555  0.6281 -0.3785
 2863TIP3    H2 8596   1.917   2.600   3.952  1.4985  1.6590  0.8880
 2864TIP3   OH2 8597   0.835   4.379   3.504  0.2017  0.2152  0.3572
 2864TIP3    H1 8598   0.773   4.451   3.517 -0.5369 -0.1944 -0.7257
 2864TIP3    H2 8599   0.884   4.403   3.426  0.3908 -0.1542  0.3615
 2865TIP3   OH2 8600   5.193   3.754   3.950  0.2495 -0.2981  0.6947
 2865TIP3    H1 8601   5.166   3.846   3.955  0.7907 -0.1242  0.5388
 2865TIP3    H2 8602   5.113   3.707   3.926 -0.3648 -0.0608  2.1929
 2866TIP3   OH2 8603   2.709   1.870   5.037 -0.6080 -0.6207 -0.6524
 2866TIP3    H1 8604   2.718   1.913   4.953 -2.4784  0.3252 -0.4207
 2866TIP3    H2 8605   2.740   1.934   5.101 -0.4157 -0.8417 -0.5197
 2867TIP3   OH2 8606   5.923  -0.018   0.514  0.3129  0.5151  0.4395
 2867TIP3    H1 8607   5.836  -0.028   0.475 -0.0364 -0.5519  1.3991
 2867TIP3    H2 8608   5.931   0.075   0.533 -0.0245  0.8456 -0.9574
 2868TIP3   OH2 8609   3.958   4.239   3.359  0.1069  0.4399  0.0797
 2868TIP3    H1 8610   3.987   4.264   3.271 -0.1915 -1.0881 -0.4717
 2868TIP3    H2 8611   4.011   4.294   3.418 -0.5718  2.4003 -1.0351
 2869TIP3   OH2 8612   0.145   0.395   4.015 -0.2775  0.7445  0.2664
 2869TIP3    H1 8613   0.138   0.321   3.954  0.1960  0.2816  0.7629
 2869TIP3    H2 8614   0.192   0.359   4.090 -1.5487  1.0836  1.2597
 2870TIP3   OH2 8615   0.562   0.852   4.064  0.2303 -0.6198 -0.2106
 2870TIP3    H1 8616   0.543   0.941   4.094  0.3248 -0.8322  0.4886
 2870TIP3    H2 8617   0.476   0.811   4.054  0.0853  0.0413 -2.1267
 2871TIP3   OH2 8618   6.023   0.293   0.883  0.1510 -0.2601 -0.0398
 2871TIP3    H1 8619   6.004   0.375   0.929  0.4960 -0.4488  0.4454
 2871TIP3    H2 8620   5.937   0.252   0.871 -0.0452  0.2888 -0.5045
 2872TIP3   OH2 8621   0.198   0.221   3.809 -0.0749  0.3628 -0.4717
 2872TIP3    H1 8622   0.166   0.169   3.735  0.1186 -0.0594 -0.2652
 2872TIP3    H2 8623   0.293   0.210   3.807  0.2495  2.7717 -1.9470
 2873TIP3   OH2 8624   6.139   5.475   0.687  0.3001  0.4726  0.4814
 2873TIP3    H1 8625   6.091   5.496   0.767 -0.3056  0.3085  0.1606
 2873TIP3    H2 8626   6.126   5.381   0.675  1.2998  0.2773  0.7828
 2874TIP3   OH2 8627   4.814   3.245   4.684 -0.4739  0.0208 -0.4570
 2874TIP3    H1 8628   4.757   3.311   4.646 -0.4930 -0.2308 -0.8615
 2874TIP3    H2 8629   4.830   3.182   4.614 -0.7652 -0.6135  0.0342
 2875TIP3   OH2 8630   4.168   3.377   0.960  0.0205  0.1075  0.2674
 2875TIP3    H1 8631   4.177   3.282   0.952 -0.2086  0.0577  0.5727
 2875TIP3    H2 8632   4.166   3.409   0.870  0.4871 -0.1393  0.1672
 2876TIP3   OH2 8633   3.732   2.753   4.491 -0.2801 -0.1374  0.6618
 2876TIP3    H1 8634   3.649   2.717   4.458 -0.4333  2.0595 -1.6715
 2876TIP3    H2 8635   3.747   2.830   4.437  2.4447  0.5248  2.2070
 2877TIP3   OH2 8636   4.331   2.719   1.217 -0.2755  0.2209 -0.6357
 2877TIP3    H1 8637   4.305   2.635   1.255 -0.0450 -0.6364 -2.2642
 2877TIP3    H2 8638   4.423   2.707   1.194 -0.4022  0.7100 -1.4272
 2878TIP3   OH2 8639   5.881   1.224   5.025  0.0382 -0.2023  0.0543
 2878TIP3    H1 8640   5.803   1.239   5.079  0.2354  1.1872 -0.0014
 2878TIP3    H2 8641   5.949   1.198   5.087 -0.5166 -1.7167  0.0701
 2879TIP3   OH2 8642   3.678   4.195   2.519  0.7845 -0.7184  0.0342
 2879TIP3    H1 8643   3.701   4.135   2.590 -0.1426  0.6926  1.6016
 2879TIP3    H2 8644   3.591   4.227   2.542  1.4511  1.6050 -0.4586
 2880TIP3   OH2 8645   4.563   0.486   3.232 -0.5183 -0.2951  0.2163
 2880TIP3    H1 8646   4.610   0.404   3.249 -0.1681 -0.3686 -1.0223
 2880TIP3    H2 8647   4.632   0.553   3.231 -0.5294 -0.2836 -0.7571
 2881TIP3   OH2 8648   3.967   1.860   1.822 -0.1051 -0.3788  0.3183
 2881TIP3    H1 8649   3.891   1.911   1.794 -0.5003 -1.6316 -1.0134
 2881TIP3    H2 8650   4.034   1.877   1.756  0.6874  0.4400  1.2966
 2882TIP3   OH2 8651   5.502   2.657   1.331  0.9588  0.3077  0.3162
 2882TIP3    H1 8652   5.418   2.635   1.370  0.8708 -2.1942 -1.0656
 2882TIP3    H2 8653   5.567   2.622   1.392  0.9465  0.2225  0.2796
 2883TIP3   OH2 8654   6.251   3.093   0.969  0.0930  0.0601 -0.3869
 2883TIP3    H1 8655   6.282   3.107   0.880 -0.6659  0.3378 -0.6163
 2883TIP3    H2 8656   6.197   3.170   0.989  0.1574 -0.0526  0.2697
 2884TIP3   OH2 8657   1.002   5.058   0.438  0.5412 -0.3232  0.2066
 2884TIP3    H1 8658   1.090   5.075   0.473  0.2160 -0.2644  1.0106
 2884TIP3    H2 8659   1.003   5.098   0.351  1.2071 -0.0439  0.3323
 2885TIP3   OH2 8660   0.743   1.889   0.487 -0.4175 -0.9660 -0.4749
 2885TIP3    H1 8661   0.679   1.839   0.537 -0.5223 -0.0905  0.3085
 2885TIP3    H2 8662   0.691   1.938   0.424 -0.5581 -0.1248  0.2743
 2886TIP3   OH2 8663   1.871   5.398   2.307 -0.5933  0.0400  0.2897
 2886TIP3    H1 8664   1.916   5.339   2.368 -0.7171 -0.1018  0.2455
 2886TIP3    H2 8665   1.805   5.442   2.361  0.8408  1.6670  0.7896
 2887TIP3   OH2 8666   4.693   3.902   3.297  0.1724 -0.5149  0.5375
 2887TIP3    H1 8667   4.672   3.946   3.214 -1.6572 -0.3808  1.0084
 2887TIP3    H2 8668   4.758   3.836   3.274 -0.9769 -1.1131 -1.2012
 2888TIP3   OH2 8669   5.942   5.304   1.823  0.6395 -0.0367 -0.2051
 2888TIP3    H1 8670   5.995   5.271   1.750 -1.1280 -0.5304 -1.3251
 2888TIP3    H2 8671   5.852   5.300   1.791 -0.0139  1.8532  1.2173
 2889TIP3   OH2 8672   5.726   0.741   5.164 -0.5865  0.5235  0.0051
 2889TIP3    H1 8673   5.661   0.783   5.108  0.4740 -0.3229 -1.9395
 2889TIP3    H2 8674   5.679   0.668   5.204 -0.9139  0.0879 -1.1557
 2890TIP3   OH2 8675   3.507   4.755   4.185 -0.4035  0.2007  0.1671
 2890TIP3    H1 8676   3.554   4.752   4.101 -1.6136  0.1586 -0.5296
 2890TIP3    H2 8677   3.425   4.709   4.168  0.3681 -2.0867  2.0990
 2891TIP3   OH2 8678   2.286   0.017   3.097  0.2630  0.3000 -0.3706
 2891TIP3    H1 8679   2.319  -0.072   3.108 -0.7105 -0.0247  0.0331
 2891TIP3    H2 8680   2.364   0.070   3.085  0.7931 -0.7653 -1.8521
 2892TIP3   OH2 8681   2.813   2.811   3.372 -0.2574  0.1270 -0.0571
 2892TIP3    H1 8682   2.854   2.780   3.452 -2.5953 -0.6482  0.9405
 2892TIP3    H2 8683   2.838   2.746   3.306  3.1573  1.7165 -0.5323
 2893TIP3   OH2 8684   3.817   0.469  -0.003  0.1572 -0.5453  0.6917
 2893TIP3    H1 8685   3.868   0.524   0.056  0.5639  1.2634 -1.2136
 2893TIP3    H2 8686   3.730   0.465   0.036  0.2979  0.9540  1.1975
 2894TIP3   OH2 8687   0.459   5.139   4.085 -0.5652  0.1635 -1.0623
 2894TIP3    H1 8688   0.407   5.215   4.108 -1.4797 -0.6963 -0.2010
 2894TIP3    H2 8689   0.486   5.102   4.169 -0.5839 -0.7626 -1.4533
 2895TIP3   OH2 8690   5.184   1.386   0.195  0.1541 -0.3469 -0.0487
 2895TIP3    H1 8691   5.132   1.360   0.119  1.0751  2.1414 -1.6804
 2895TIP3    H2 8692   5.209   1.304   0.237 -3.9927 -1.7078  0.1691
 2896TIP3   OH2 8693   5.800   3.526   0.235 -0.0608  0.1333  0.1146
 2896TIP3    H1 8694   5.876   3.470   0.250  0.3115  1.0043  1.7685
 2896TIP3    H2 8695   5.838   3.613   0.218 -0.6495  0.1163 -1.4064
 2897TIP3   OH2 8696   2.755   2.225   2.281 -0.2755 -0.5014  0.7198
 2897TIP3    H1 8697   2.789   2.280   2.210 -1.6180  0.2394  0.6319
 2897TIP3    H2 8698   2.832   2.203   2.333  0.4970  0.2303 -0.0869
 2898TIP3   OH2 8699   2.265   1.434   1.300 -0.5874  0.2301 -0.4719
 2898TIP3    H1 8700   2.296   1.358   1.250  0.3673  0.2994 -0.0075
 2898TIP3    H2 8701   2.228   1.492   1.234  0.5353  0.2602 -1.0940
 2899TIP3   OH2 8702   4.526   5.669   1.206  0.2602  0.7572 -1.0107
 2899TIP3    H1 8703   4.453   5.724   1.177  0.2337  1.0737 -0.3589
 2899TIP3    H2 8704   4.488   5.582   1.214 -0.1436  0.9785 -0.3613
 2900TIP3   OH2 8705   2.356   2.360   2.789  0.5234 -0.4495  0.2543
 2900TIP3    H1 8706   2.316   2.273   2.791  0.9271 -0.7626 -2.0650
 2900TIP3    H2 8707   2.342   2.391   2.700  0.9888  1.6027  0.8358
 2901TIP3   OH2 8708   5.640   1.317   3.455  0.1207  0.6560  0.1917
 2901TIP3    H1 8709   5.719   1.359   3.420  0.6387  0.2726  0.8781
 2901TIP3    H2 8710   5.606   1.265   3.383 -0.6789  2.4173 -0.7777
 2902TIP3   OH2 8711   1.136   2.056   0.649 -0.3274 -0.3042  0.4715
 2902TIP3    H1 8712   1.224   2.057   0.687  0.4436 -0.1763 -1.2164
 2902TIP3    H2 8713   1.077   2.052   0.725  1.0662  1.0511  1.7017
 2903TIP3   OH2 8714   4.137   1.313   0.245 -0.1145  0.4067 -0.5244
 2903TIP3    H1 8715   4.055   1.316   0.294  0.3897  0.0922  0.3518
 2903TIP3    H2 8716   4.177   1.399   0.260  0.5864 -0.0870  0.6078
 2904TIP3   OH2 8717   3.614   1.086   4.232 -0.0072 -0.0586 -0.6050
 2904TIP3    H1 8718   3.570   1.165   4.200 -0.3596 -0.1312 -0.3166
 2904TIP3    H2 8719   3.649   1.045   4.153 -1.5591 -0.6606 -1.0300
 2905TIP3   OH2 8720   2.243   4.933   3.678 -0.2603  0.1840 -0.1984
 2905TIP3    H1 8721   2.179   4.971   3.738  2.4362  0.3222  2.8979
 2905TIP3    H2 8722   2.232   4.839   3.687  0.0650  0.2065  0.4433
 2906TIP3   OH2 8723   0.323   3.484   5.017 -0.0676  0.5797 -0.6926
 2906TIP3    H1 8724   0.281   3.526   4.942 -0.1743  0.1513 -0.8806
 2906TIP3    H2 8725   0.388   3.547   5.047  0.0870  0.6859 -1.2490
 2907TIP3   OH2 8726   5.889   3.767   2.712  0.3910  0.2854  0.3462
 2907TIP3    H1 8727   5.871   3.735   2.623 -0.8467 -1.7481  1.2552
 2907TIP3    H2 8728   5.953   3.837   2.699 -0.3210  0.5924 -2.2069
 2908TIP3   OH2 8729   1.172   0.595   0.330 -0.2199 -0.0953  0.3831
 2908TIP3    H1 8730   1.148   0.688   0.335  1.4428  0.3691  0.5217
 2908TIP3    H2 8731   1.106   0.550   0.383 -0.8685  1.0508  0.5827
 2909TIP3   OH2 8732   3.627   1.743   0.379  0.4096 -0.9948 -0.4671
 2909TIP3    H1 8733   3.660   1.664   0.423 -1.8725 -1.8968 -0.2544
 2909TIP3    H2 8734   3.624   1.719   0.287  1.8661 -0.3196 -0.7161
 2910TIP3   OH2 8735   0.582   2.263   1.276 -0.5312  0.0736  0.0238
 2910TIP3    H1 8736   0.538   2.192   1.323  0.7413 -0.6728  0.1469
 2910TIP3    H2 8737   0.515   2.298   1.216 -0.4974 -3.0962 -2.1112
 2911TIP3   OH2 8738   5.732   5.514   3.512 -0.2653 -0.4293 -0.4828
 2911TIP3    H1 8739   5.658   5.493   3.454 -0.3834  1.5278 -1.1021
 2911TIP3    H2 8740   5.690   5.545   3.593 -0.0971 -2.8604  0.6522
 2912TIP3   OH2 8741   0.060   4.523   4.601 -0.1145  0.6439 -0.2748
 2912TIP3    H1 8742   0.123   4.452   4.589 -1.2434 -0.5991  0.7754
 2912TIP3    H2 8743   0.107   4.587   4.654  0.5999  0.2136 -0.3682
 2913TIP3   OH2 8744   0.005   5.321   1.645  0.3945 -0.0943 -0.1064
 2913TIP3    H1 8745   0.044   5.235   1.630  0.9524 -0.3339  2.3949
 2913TIP3    H2 8746   0.066   5.382   1.605  0.2634 -0.7942 -1.4349
 2914TIP3   OH2 8747   5.373   0.369   4.336 -0.0243  0.3950 -0.1401
 2914TIP3    H1 8748   5.429   0.423   4.280 -2.8979  1.2339 -2.4741
 2914TIP3    H2 8749   5.329   0.310   4.275 -0.4924 -1.3929  1.7962
 2915TIP3   OH2 8750   3.905   2.157   2.671 -0.4763  0.8988  0.2915
 2915TIP3    H1 8751   3.843   2.161   2.744  0.0166  1.2563  0.6949
 2915TIP3    H2 8752   3.857   2.196   2.598 -1.3150 -0.3209  0.1582
 2916TIP3   OH2 8753   2.618   5.655   4.795 -0.1597  0.3020  0.2850
 2916TIP3    H1 8754   2.562   5.677   4.721  0.0744  0.2315  0.0851
 2916TIP3    H2 8755   2.558   5.647   4.869 -0.4017  0.3130  0.0915
 2917TIP3   OH2 8756   3.739   2.121   4.033  0.1660  0.0442  0.1756
 2917TIP3    H1 8757   3.656   2.074   4.038 -0.4100  0.9879 -0.3692
 2917TIP3    H2 8758   3.789   2.089   4.109 -0.7396 -0.4154  0.5928
 2918TIP3   OH2 8759   6.112   1.791   2.770 -0.0007  0.0251 -0.0391
 2918TIP3    H1 8760   6.115   1.886   2.763  0.5003 -0.0272 -0.6839
 2918TIP3    H2 8761   6.078   1.774   2.858  2.1469  0.8192  1.0306
 2919TIP3   OH2 8762   6.157   2.541   4.479 -0.1995  0.3433  1.0676
 2919TIP3    H1 8763   6.216   2.572   4.548  0.1574 -0.9403  1.3750
 2919TIP3    H2 8764   6.071   2.540   4.520  0.3476 -2.8985  2.4665
 2920TIP3   OH2 8765   2.196   2.362   1.199 -0.1247 -0.0687  0.1740
 2920TIP3    H1 8766   2.123   2.378   1.259 -0.1134 -0.0613  0.1858
 2920TIP3    H2 8767   2.237   2.282   1.232  0.2862  0.2986  0.5743
 2921TIP3   OH2 8768   2.449   3.393   4.296  0.6952 -0.0698  0.2260
 2921TIP3    H1 8769   2.416   3.336   4.366  0.5838 -0.5672 -0.2240
 2921TIP3    H2 8770   2.386   3.381   4.224 -0.2608  1.8498  0.6640
 2922TIP3   OH2 8771   4.782   1.340   2.053 -0.3050  0.0331  0.4605
 2922TIP3    H1 8772   4.776   1.258   2.004  1.0304  0.4026 -0.3809
 2922TIP3    H2 8773   4.830   1.317   2.133  1.5377  0.2491 -0.5192
 2923TIP3   OH2 8774   2.541   0.694   0.843  0.5676 -0.0498  0.0674
 2923TIP3    H1 8775   2.566   0.609   0.807  1.6742  0.4422 -0.3731
 2923TIP3    H2 8776   2.541   0.681   0.937  2.1819 -0.1964  0.0823
 2924TIP3   OH2 8777   4.116   4.717   0.112  0.1309 -0.3801 -0.0886
 2924TIP3    H1 8778   4.167   4.664   0.050 -0.6996  0.6067 -1.6942
 2924TIP3    H2 8779   4.029   4.677   0.113  0.1837 -0.4957  0.6103
 2925TIP3   OH2 8780   1.339   3.651   1.187 -0.5256  0.2821  0.3359
 2925TIP3    H1 8781   1.325   3.734   1.233 -1.6968  1.2080 -1.5907
 2925TIP3    H2 8782   1.425   3.662   1.145 -0.7815  0.6194 -0.1051
 2926TIP3   OH2 8783   2.661   1.479   1.415  0.0297 -0.0814 -0.6696
 2926TIP3    H1 8784   2.622   1.566   1.400 -0.2982 -0.0103  0.5153
 2926TIP3    H2 8785   2.740   1.496   1.465 -0.3000 -0.4950  0.0079
 2927TIP3   OH2 8786   1.685   3.769   4.908  0.2997  0.1074  0.1106
 2927TIP3    H1 8787   1.757   3.802   4.854  0.6555  0.1991  0.6320
 2927TIP3    H2 8788   1.638   3.847   4.936 -0.9897 -0.0179 -1.5333
 2928TIP3   OH2 8789   5.735   3.954   0.020 -0.0568 -0.8539  0.1055
 2928TIP3    H1 8790   5.789   3.907   0.084  1.7233  0.4060 -0.4198
 2928TIP3    H2 8791   5.702   3.885  -0.038  0.0500 -1.7695  1.0923
 2929TIP3   OH2 8792   4.831   4.927   1.077 -0.0364 -0.6074  0.3784
 2929TIP3    H1 8793   4.786   5.011   1.087  0.9007 -0.2690  2.1715
 2929TIP3    H2 8794   4.881   4.917   1.157  1.4535 -1.9524 -0.6576
 2930TIP3   OH2 8795   5.510   3.991   1.584 -0.4379 -0.3048 -0.1437
 2930TIP3    H1 8796   5.453   3.989   1.661 -0.4083 -2.1363 -0.1329
 2930TIP3    H2 8797   5.451   4.009   1.511 -0.3531  2.3116  0.3370
 2931TIP3   OH2 8798   4.035   3.153   3.797 -0.5410  0.5653  0.0865
 2931TIP3    H1 8799   4.077   3.141   3.712 -0.4922  0.9237  0.0575
 2931TIP3    H2 8800   3.989   3.237   3.790 -0.5665  0.5811  0.3997
 2932TIP3   OH2 8801   2.639   2.810   4.616  0.2720  0.1497 -0.0617
 2932TIP3    H1 8802   2.635   2.757   4.695 -1.6808  0.5225  0.1582
 2932TIP3    H2 8803   2.730   2.805   4.587  0.9896 -0.1049  2.1117
 2933TIP3   OH2 8804   4.896   5.184   0.527 -0.0046  0.5207 -0.1720
 2933TIP3    H1 8805   4.854   5.115   0.476  0.1292  0.7458 -0.5863
 2933TIP3    H2 8806   4.983   5.194   0.488  0.6829 -0.3482  1.0343
 2934TIP3   OH2 8807   5.253   3.239   0.678  0.2331  0.1619 -0.2112
 2934TIP3    H1 8808   5.281   3.322   0.717  1.4827 -0.0261 -0.6474
 2934TIP3    H2 8809   5.239   3.260   0.585 -0.8712  0.1868 -0.0572
 2935TIP3   OH2 8810   3.723   5.626   0.166 -0.5030  0.0738  0.5352
 2935TIP3    H1 8811   3.733   5.532   0.154  0.2501  0.1891  0.2384
 2935TIP3    H2 8812   3.780   5.647   0.240 -0.0262  0.4263  0.0696
 2936TIP3   OH2 8813   2.944   0.279   0.844  0.2744  0.3112  0.0103
 2936TIP3    H1 8814   2.978   0.243   0.926  1.9798  1.4175 -0.1595
 2936TIP3    H2 8815   3.019   0.322   0.804 -1.3375  3.0364 -0.3551
 2937TIP3   OH2 8816   2.475   3.521   2.122  0.1177  0.0040  0.0983
 2937TIP3    H1 8817   2.469   3.593   2.185  0.7520  1.1062 -1.0550
 2937TIP3    H2 8818   2.455   3.561   2.037  0.8953 -1.0805 -0.6283
 2938TIP3   OH2 8819   3.416   1.450   1.026  0.3866 -0.1054 -0.6647
 2938TIP3    H1 8820   3.470   1.416   1.097 -0.8953 -0.4552  0.1791
 2938TIP3    H2 8821   3.348   1.501   1.070  1.3128  2.2783 -1.8044
 2939TIP3   OH2 8822   2.167   1.004   0.016 -0.0621 -0.0784  0.0675
 2939TIP3    H1 8823   2.211   0.941   0.073 -0.0332 -0.2387 -0.1303
 2939TIP3    H2 8824   2.216   1.000  -0.066  1.1187  1.5681  0.6386
 2940TIP3   OH2 8825   0.358   4.923   2.162 -0.3110  0.0748 -0.0570
 2940TIP3    H1 8826   0.297   4.848   2.161  0.8035 -0.9253  1.5809
 2940TIP3    H2 8827   0.423   4.901   2.095 -0.0950 -0.3406  0.2835
 2941TIP3   OH2 8828   1.084   2.025   1.756  0.1131 -0.4436  0.7238
 2941TIP3    H1 8829   1.105   1.989   1.843 -0.5467 -1.0020  0.6568
 2941TIP3    H2 8830   1.113   2.116   1.761 -2.2656  0.3167  2.4274
 2942TIP3   OH2 8831   1.758   3.739   2.256 -0.0982  0.3211  0.4466
 2942TIP3    H1 8832   1.760   3.649   2.222  0.8857  0.4990  0.0194
 2942TIP3    H2 8833   1.805   3.735   2.339 -3.5291 -0.3732  2.5972
 2943TIP3   OH2 8834   0.456   1.208   4.737 -0.1832  0.3372 -0.3599
 2943TIP3    H1 8835   0.406   1.184   4.816  1.2304 -1.1595  0.1664
 2943TIP3    H2 8836   0.530   1.259   4.771  0.9097 -1.0498 -0.5542
 2944TIP3   OH2 8837   4.593   3.285   3.177 -0.1337 -0.4840  0.0305
 2944TIP3    H1 8838   4.615   3.198   3.146  1.0819  0.0758 -0.7544
 2944TIP3    H2 8839   4.591   3.276   3.273 -0.5144 -1.4625 -0.0566
 2945TIP3   OH2 8840   4.680   1.033   3.420 -0.2693  0.5327 -0.5883
 2945TIP3    H1 8841   4.664   1.002   3.331 -0.7778  1.0732 -0.6889
 2945TIP3    H2 8842   4.748   1.099   3.411 -0.2113  0.4790 -0.5504
 2946TIP3   OH2 8843   2.437   1.187   0.277 -0.1164 -0.3227  0.0007
 2946TIP3    H1 8844   2.524   1.176   0.239 -0.8482 -0.6231 -1.6836
 2946TIP3    H2 8845   2.416   1.101   0.315  0.1076 -0.3928 -0.0350
 2947TIP3   OH2 8846   4.641   0.261   4.468  0.0613  0.1734  0.2442
 2947TIP3    H1 8847   4.660   0.170   4.447 -0.7339  0.1436 -0.3638
 2947TIP3    H2 8848   4.722   0.308   4.447 -0.1717 -0.0992 -1.3507
 2948TIP3   OH2 8849   2.537   5.237   2.778 -0.0576  0.4218 -0.1839
 2948TIP3    H1 8850   2.456   5.217   2.825  0.6120 -1.1800  0.3215
 2948TIP3    H2 8851   2.507   5.286   2.700 -1.3543  1.1857  0.7481
 2949TIP3   OH2 8852   1.855   5.853   0.787  0.6831  0.1336 -0.7870
 2949TIP3    H1 8853   1.839   5.769   0.745  3.4480 -1.2158  0.6109
 2949TIP3    H2 8854   1.932   5.888   0.742  0.3161  1.3537 -0.5043
 2950TIP3   OH2 8855   0.824   2.626   2.739  0.3933  0.1859 -0.4230
 2950TIP3    H1 8856   0.876   2.676   2.801  2.9457  0.2223 -2.4504
 2950TIP3    H2 8857   0.834   2.535   2.766  1.3263  0.2162 -0.6637
 2951TIP3   OH2 8858   2.817   3.970   0.571 -0.3060 -0.0019  0.0571
 2951TIP3    H1 8859   2.853   4.054   0.545 -1.4275  0.4026 -0.2246
 2951TIP3    H2 8860   2.779   3.985   0.657 -1.2333 -0.0080 -0.3463
 2952TIP3   OH2 8861   4.069   4.611   5.139 -0.0329  0.1729  0.0149
 2952TIP3    H1 8862   4.095   4.699   5.110  0.2907  0.0055 -0.1955
 2952TIP3    H2 8863   4.055   4.620   5.233 -1.4950  0.8239 -0.2248
 2953TIP3   OH2 8864   0.877   4.560   3.275 -0.0917 -0.3332 -0.7498
 2953TIP3    H1 8865   0.888   4.566   3.180  1.8380 -0.4191 -0.5583
 2953TIP3    H2 8866   0.847   4.647   3.301  0.3490  0.0014 -1.3212
 2954TIP3   OH2 8867   0.322   4.204   4.001 -0.1448 -0.0441 -0.1457
 2954TIP3    H1 8868   0.293   4.134   4.059  0.9075 -0.8344 -0.5311
 2954TIP3    H2 8869   0.246   4.223   3.945  0.3889 -3.1382 -2.1924
 2955TIP3   OH2 8870   5.015   3.968   4.684  0.2803 -0.2019 -0.1013
 2955TIP3    H1 8871   5.051   3.903   4.745 -0.6759  0.5215  1.2967
 2955TIP3    H2 8872   4.944   3.922   4.639  0.5149 -0.5327 -0.1373
 2956TIP3   OH2 8873   4.365   0.599   1.331  0.2169  0.0047 -0.1242
 2956TIP3    H1 8874   4.289   0.603   1.273  0.4933  0.0986 -0.4832
 2956TIP3    H2 8875   4.433   0.559   1.278 -0.1904 -2.1630  0.8829
 2957TIP3   OH2 8876   5.615   5.371   4.691 -0.0247  0.0640 -0.1762
 2957TIP3    H1 8877   5.541   5.310   4.681  0.0559 -0.2038  0.7469
 2957TIP3    H2 8878   5.575   5.451   4.725 -0.2648  0.8766 -2.2483
 2958TIP3   OH2 8879   1.209   3.706   0.024 -0.4885  0.0598  0.4945
 2958TIP3    H1 8880   1.249   3.792   0.011 -0.2172 -0.0962  0.3030
 2958TIP3    H2 8881   1.178   3.707   0.115 -3.2592  1.5274 -0.3353
 2959TIP3   OH2 8882   5.470   0.235   1.819  0.3710  0.4419  0.5210
 2959TIP3    H1 8883   5.432   0.179   1.887  1.5443  0.3802  1.1553
 2959TIP3    H2 8884   5.545   0.277   1.862  0.8684  0.7521 -0.6114
 2960TIP3   OH2 8885   1.816   0.635   4.013 -0.3066  0.2333 -0.6235
 2960TIP3    H1 8886   1.763   0.606   4.088  1.6274  0.6536  1.0054
 2960TIP3    H2 8887   1.837   0.555   3.966 -0.1903 -0.2674  0.2469
 2961TIP3   OH2 8888   0.206   4.881   2.487  0.1632  0.0857 -0.6860
 2961TIP3    H1 8889   0.268   4.950   2.462  0.0966 -0.0056 -1.1166
 2961TIP3    H2 8890   0.159   4.861   2.406 -0.1631 -0.1167 -0.4495
 2962TIP3   OH2 8891   1.254   4.244   4.873  0.4299  0.2414 -0.7879
 2962TIP3    H1 8892   1.275   4.281   4.958 -0.6739 -0.8236 -0.0254
 2962TIP3    H2 8893   1.171   4.286   4.849 -0.1490 -0.7277 -0.5231
 2963TIP3   OH2 8894   2.582   0.980   1.142  0.8937 -0.9194  0.2597
 2963TIP3    H1 8895   2.565   0.953   1.052 -0.3726  0.9341 -0.1010
 2963TIP3    H2 8896   2.666   1.024   1.138  0.2299  0.3558 -0.3269
 2964TIP3   OH2 8897   1.119   4.223   3.722 -0.1201 -0.8004  0.6632
 2964TIP3    H1 8898   1.029   4.215   3.690  0.6050 -1.9942 -1.2760
 2964TIP3    H2 8899   1.143   4.134   3.748  0.8192 -0.7031  0.1813
 2965TIP3   OH2 8900   6.127   3.941   4.981 -0.1518 -0.1951 -0.6323
 2965TIP3    H1 8901   6.104   4.004   5.050  1.6627 -0.3749  0.1969
 2965TIP3    H2 8902   6.166   3.994   4.912  0.6951 -0.3083 -0.2524
 2966TIP3   OH2 8903   1.836   2.527   3.031 -0.1629  0.0036  0.2146
 2966TIP3    H1 8904   1.891   2.581   3.088  1.9925 -1.0127 -0.7785
 2966TIP3    H2 8905   1.889   2.449   3.013 -2.1987 -1.3429 -0.3432
 2967TIP3   OH2 8906   2.229   3.729   4.750  0.1364 -0.1683 -0.2723
 2967TIP3    H1 8907   2.255   3.772   4.668  1.0998 -0.7041 -0.2571
 2967TIP3    H2 8908   2.293   3.659   4.761 -0.5113 -0.6402  0.4977
 2968TIP3   OH2 8909   0.871   2.975   3.081  0.4835 -0.1592  0.2389
 2968TIP3    H1 8910   0.905   3.059   3.051  0.4056 -0.0766  0.3797
 2968TIP3    H2 8911   0.942   2.939   3.136  0.2539  0.1181  0.7203
 2969TIP3   OH2 8912   4.341   3.257   1.760  0.0313 -0.5369 -0.1552
 2969TIP3    H1 8913   4.391   3.254   1.678  0.3418  1.5971 -0.0907
 2969TIP3    H2 8914   4.408   3.252   1.828  0.3874  2.8774 -0.0607
 2970TIP3   OH2 8915   3.658   5.749   4.188 -0.1806 -0.0974 -0.0070
 2970TIP3    H1 8916   3.616   5.663   4.177 -1.5601  0.5670 -0.1563
 2970TIP3    H2 8917   3.631   5.798   4.111  0.7355  0.4300 -0.0020
 2971TIP3   OH2 8918   3.621   5.268   3.196 -0.9201 -0.2496  0.6130
 2971TIP3    H1 8919   3.716   5.273   3.188 -0.9392  0.7071  0.8939
 2971TIP3    H2 8920   3.592   5.359   3.198 -1.7978 -0.5289  1.0589
 2972TIP3   OH2 8921   3.340   0.952   2.249 -0.1350 -0.6145  0.0480
 2972TIP3    H1 8922   3.377   0.938   2.162  0.1678 -1.5773  0.3224
 2972TIP3    H2 8923   3.381   1.033   2.280  3.0911 -2.4449  1.0098
 2973TIP3   OH2 8924   4.942   5.572   1.712 -0.1982  0.6386  0.3593
 2973TIP3    H1 8925   5.033   5.596   1.691 -0.2364 -0.0935 -0.7375
 2973TIP3    H2 8926   4.950   5.510   1.784  0.1770  0.6380  0.3215
 2974TIP3   OH2 8927   2.236   3.978   4.887 -0.2314  0.1297  0.4105
 2974TIP3    H1 8928   2.331   3.966   4.889 -0.1936  0.4159  0.4951
 2974TIP3    H2 8929   2.200   3.891   4.871 -0.0071 -0.2368  1.7246
 2975TIP3   OH2 8930   1.592   1.237   0.462 -0.1438 -0.1238 -0.0562
 2975TIP3    H1 8931   1.631   1.256   0.376 -0.3029  0.0699 -0.0858
 2975TIP3    H2 8932   1.499   1.223   0.444 -0.1973  0.0297  0.1007
 2976TIP3   OH2 8933   6.289   5.040   5.174  0.6816 -0.1040 -0.4691
 2976TIP3    H1 8934   6.365   5.053   5.118  0.6309  0.6342 -0.3736
 2976TIP3    H2 8935   6.217   5.021   5.114  1.0532 -1.4157 -0.5277
 2977TIP3   OH2 8936   0.721   2.225   2.787 -0.2400  0.2926 -0.1342
 2977TIP3    H1 8937   0.652   2.260   2.730  1.0262  1.8312 -0.7990
 2977TIP3    H2 8938   0.779   2.177   2.728  1.3805  2.3628 -0.3290
 2978TIP3   OH2 8939   1.666   0.402   3.524 -0.2845  0.0901  0.2873
 2978TIP3    H1 8940   1.572   0.397   3.539 -0.7295 -0.0994 -2.2714
 2978TIP3    H2 8941   1.689   0.318   3.485  0.4898  0.9566 -1.2225
 2979TIP3   OH2 8942   0.430   4.777   4.680  0.6108  0.1983  0.0381
 2979TIP3    H1 8943   0.403   4.686   4.685 -0.7420  0.5753  0.1664
 2979TIP3    H2 8944   0.485   4.783   4.603  0.1744 -0.6001 -0.3396
 2980TIP3   OH2 8945   4.073   2.977   3.206 -0.3622  0.5303  0.1444
 2980TIP3    H1 8946   4.050   2.971   3.113 -1.8122  0.1399  0.5085
 2980TIP3    H2 8947   4.075   2.886   3.236  3.3175  0.3581 -0.1833
 2981TIP3   OH2 8948   0.101   0.911   0.907  0.8133 -0.4474  0.1438
 2981TIP3    H1 8949   0.008   0.909   0.930  0.6459 -0.4869 -0.5221
 2981TIP3    H2 8950   0.103   0.937   0.816  1.4609 -0.4647  0.1448
 2982TIP3   OH2 8951   5.867   0.514   4.431 -0.5487  0.0472  0.3319
 2982TIP3    H1 8952   5.895   0.457   4.360  1.6938 -1.3026  2.1644
 2982TIP3    H2 8953   5.874   0.602   4.395 -0.5560 -0.6255 -1.4256
 2983TIP3   OH2 8954   2.752   1.591   1.945 -0.1506 -0.2882  0.1055
 2983TIP3    H1 8955   2.774   1.516   1.890  2.7144  1.6679 -1.6610
 2983TIP3    H2 8956   2.816   1.589   2.016 -0.6026  0.0386  0.5314
 2984TIP3   OH2 8957   3.950   3.810   2.269  0.0772  0.2871  0.2107
 2984TIP3    H1 8958   3.900   3.872   2.321 -3.5055 -0.7496 -1.6406
 2984TIP3    H2 8959   3.996   3.863   2.204 -1.2861  1.1405 -0.0750
 2985TIP3   OH2 8960   1.717   3.373   2.305  0.5394  0.2680  0.0297
 2985TIP3    H1 8961   1.760   3.318   2.240  0.7476 -1.5440  1.6264
 2985TIP3    H2 8962   1.631   3.333   2.318  0.1374  1.1616  0.1983
 2986TIP3   OH2 8963   2.222   5.208   4.385 -0.4087 -0.4628  0.1241
 2986TIP3    H1 8964   2.146   5.227   4.330  1.5799  2.4521 -1.8385
 2986TIP3    H2 8965   2.276   5.150   4.332  1.4399  2.2289 -1.1458
 2987TIP3   OH2 8966   5.174   4.489   0.576 -0.1009 -0.7547 -0.1765
 2987TIP3    H1 8967   5.146   4.501   0.667 -0.1592 -1.1695 -0.1396
 2987TIP3    H2 8968   5.266   4.463   0.583  1.3112  3.3942 -0.3700
 2988TIP3   OH2 8969   2.012   1.307   3.003  0.1194 -0.0190 -0.0083
 2988TIP3    H1 8970   2.046   1.283   3.089 -1.4220 -0.5263  0.5003
 2988TIP3    H2 8971   1.956   1.233   2.978 -1.3408  1.1553 -0.3499
 2989TIP3   OH2 8972   5.202   4.161   5.184 -0.1390  0.3427 -0.0957
 2989TIP3    H1 8973   5.231   4.076   5.218  0.7354  0.0513 -1.4877
 2989TIP3    H2 8974   5.228   4.160   5.092 -2.4392  1.0674 -0.8361
 2990TIP3   OH2 8975   2.385   3.229   3.203  0.9695 -0.5558  0.5445
 2990TIP3    H1 8976   2.402   3.216   3.296  2.0104  0.6472  0.5514
 2990TIP3    H2 8977   2.314   3.168   3.182  0.0874 -0.1847  2.3135
 2991TIP3   OH2 8978   4.834   4.925   5.073  0.2177  1.2042 -0.1748
 2991TIP3    H1 8979   4.759   4.939   5.130 -0.2370 -0.1362 -0.4006
 2991TIP3    H2 8980   4.910   4.944   5.127 -0.2177  0.3461  0.7654
 2992TIP3   OH2 8981   6.109   2.267   2.390  0.3593 -0.7096  0.1690
 2992TIP3    H1 8982   6.117   2.181   2.431  2.5353 -0.3367  0.6705
 2992TIP3    H2 8983   6.186   2.316   2.422 -2.0875  2.3342  2.0671
 2993TIP3   OH2 8984   0.780   4.716   1.972  0.2525  0.0610  0.2554
 2993TIP3    H1 8985   0.704   4.773   1.974 -0.7558 -1.2203 -0.1985
 2993TIP3    H2 8986   0.854   4.774   1.954 -0.7717  1.1588 -0.4890
 2994TIP3   OH2 8987   6.016   4.483   0.787  0.5709  0.3617  0.6467
 2994TIP3    H1 8988   5.975   4.553   0.838  0.2181  0.4549  0.2386
 2994TIP3    H2 8989   5.983   4.402   0.827 -0.0208  0.4363  0.3123
 2995TIP3   OH2 8990   5.237   3.465   4.842 -0.2740 -0.2383  0.5831
 2995TIP3    H1 8991   5.226   3.513   4.760 -0.5857  0.8122  1.2275
 2995TIP3    H2 8992   5.328   3.436   4.841  0.1286  0.9625  0.4808
 2996TIP3   OH2 8993   0.906   3.831   3.663  0.1524 -0.5652 -0.2991
 2996TIP3    H1 8994   0.904   3.765   3.732  1.9424 -1.3439 -0.9550
 2996TIP3    H2 8995   0.958   3.903   3.700 -3.2891  1.4359  1.1331
 2997TIP3   OH2 8996   0.175   1.333   2.558  0.4030  0.0849 -0.3167
 2997TIP3    H1 8997   0.189   1.247   2.598  0.0063  0.3799  0.4726
 2997TIP3    H2 8998   0.098   1.368   2.603  0.7647  0.9994 -0.3874
 2998TIP3   OH2 8999   0.585   5.810   1.980 -0.0553 -0.7525 -0.6247
 2998TIP3    H1 9000   0.539   5.758   2.046  0.1929 -2.0587 -1.4548
 2998TIP3    H2 9001   0.676   5.780   1.985  0.3500  0.4623 -0.3153
 2999TIP3   OH2 9002   4.127   2.325   2.434  0.1047 -0.8008  0.2241
 2999TIP3    H1 9003   4.179   2.262   2.483 -0.2302 -1.9118 -0.7874
 2999TIP3    H2 9004   4.037   2.292   2.440 -0.1870 -0.0256  0.2570
 3000TIP3   OH2 9005   4.785   0.651   2.745  0.3017 -0.0103 -0.2029
 3000TIP3    H1 9006   4.770   0.563   2.780  1.9093 -0.4852 -0.6058
 3000TIP3    H2 9007   4.831   0.697   2.816 -1.4001  0.8592  0.3860
 3001TIP3   OH2 9008   5.259   1.428   3.814 -0.0142 -0.4018 -0.1463
 3001TIP3    H1 9009   5.330   1.465   3.867  0.4824  1.1016 -1.7556
 3001TIP3    H2 9010   5.180   1.445   3.865  0.5225  0.3640  0.4637
 3002TIP3   OH2 9011   0.187   4.263   0.406  0.0082  0.1841  0.6377
 3002TIP3    H1 9012   0.195   4.353   0.436 -2.1779  0.6400  0.0157
 3002TIP3    H2 9013   0.115   4.264   0.343 -0.8379 -2.1760  1.4352
 3003TIP3   OH2 9014   0.476   0.760   5.121  0.0287 -0.3643  0.7557
 3003TIP3    H1 9015   0.432   0.678   5.100 -1.0979  0.3588  0.1817
 3003TIP3    H2 9016   0.504   0.795   5.036  0.9222 -0.3618  1.0344
 3004TIP3   OH2 9017   6.060   1.566   2.600 -0.2299  0.3363  0.3024
 3004TIP3    H1 9018   6.101   1.624   2.664 -2.3128  2.1434  0.1247
 3004TIP3    H2 9019   6.047   1.621   2.523 -1.1498 -0.7068 -0.3163
 3005TIP3   OH2 9020   5.551   1.201   2.145  0.0683  0.1664 -0.3006
 3005TIP3    H1 9021   5.496   1.160   2.079  0.8983  0.2607 -1.0786
 3005TIP3    H2 9022   5.603   1.129   2.182  0.6757  0.3236 -0.8264
 3006TIP3   OH2 9023   5.617   5.042   3.052 -0.0424  0.3414  0.5081
 3006TIP3    H1 9024   5.596   4.986   3.126 -1.2222 -0.1382 -0.1496
 3006TIP3    H2 9025   5.689   5.097   3.083  0.1440 -0.5015  1.6676
 3007TIP3   OH2 9026   0.795   4.112   2.357  1.2722  0.5136 -0.5824
 3007TIP3    H1 9027   0.825   4.149   2.274 -0.1585  0.1191 -1.3139
 3007TIP3    H2 9028   0.871   4.115   2.414  1.5103  3.6269 -0.9048
 3008TIP3   OH2 9029   1.167   5.517   1.559  0.1333 -0.2886 -0.2117
 3008TIP3    H1 9030   1.217   5.583   1.510  0.8348 -0.5160  0.1865
 3008TIP3    H2 9031   1.234   5.460   1.598 -0.4641 -1.5411 -0.9487
 3009TIP3   OH2 9032   4.430   1.670   0.864 -0.1818 -0.9186  0.4004
 3009TIP3    H1 9033   4.431   1.593   0.808 -0.4943 -1.0177  0.5300
 3009TIP3    H2 9034   4.382   1.643   0.942 -0.3844 -0.5629  0.4002
 3010TIP3   OH2 9035   1.568   1.843   3.166  0.5784  0.7383 -0.1689
 3010TIP3    H1 9036   1.509   1.874   3.235 -0.8069 -0.4783 -0.7344
 3010TIP3    H2 9037   1.573   1.748   3.180  1.9263  0.7356 -0.5285
 3011TIP3   OH2 9038   3.326   2.200   0.935 -0.1012  0.5521  0.0193
 3011TIP3    H1 9039   3.251   2.259   0.945  2.0784  3.6101 -0.2845
 3011TIP3    H2 9040   3.357   2.216   0.846  1.0168 -0.5261  0.1960
 3012TIP3   OH2 9041   0.194   1.391   0.325 -0.2443  0.2555  0.1260
 3012TIP3    H1 9042   0.255   1.402   0.251  1.1894 -0.5116  1.1428
 3012TIP3    H2 9043   0.158   1.478   0.339 -0.2252  0.5077 -1.2107
 3013TIP3   OH2 9044   1.999   1.657   0.213  0.1775 -0.0771  0.1778
 3013TIP3    H1 9045   2.051   1.738   0.214  0.3283 -0.0855 -2.1351
 3013TIP3    H2 9046   2.055   1.592   0.256  0.9750  0.5345  0.0909
 3014TIP3   OH2 9047   2.280   0.899   1.615 -0.4921 -0.2668  0.4108
 3014TIP3    H1 9048   2.277   0.945   1.531  0.9758 -0.3717  0.2689
 3014TIP3    H2 9049   2.363   0.927   1.654 -0.8576 -0.7122  1.5385
 3015TIP3   OH2 9050   3.875   5.786   0.938  0.2228 -0.4435  0.1240
 3015TIP3    H1 9051   3.868   5.826   1.025 -2.3311  0.4252 -0.3968
 3015TIP3    H2 9052   3.924   5.851   0.886  0.1509 -0.1223  0.4519
 3016TIP3   OH2 9053   5.439   1.782   1.220 -0.4038 -0.1987  0.1233
 3016TIP3    H1 9054   5.392   1.700   1.204  0.0249 -0.4054 -0.1051
 3016TIP3    H2 9055   5.459   1.780   1.314 -1.5323  0.2632  0.3781
 3017TIP3   OH2 9056   3.905   4.384   1.250 -0.4426 -0.0208  0.0748
 3017TIP3    H1 9057   3.936   4.433   1.326 -0.1732  0.8273 -0.5756
 3017TIP3    H2 9058   3.822   4.346   1.278 -0.4843  0.5268  0.6973
 3018TIP3   OH2 9059   2.034   4.293   1.046  0.4086  0.4076 -0.2599
 3018TIP3    H1 9060   2.108   4.351   1.063  1.7069 -1.0685 -0.6991
 3018TIP3    H2 9061   1.969   4.318   1.112  0.5430  2.9218 -0.9654
 3019TIP3   OH2 9062   3.486   4.467   3.487 -0.3838 -0.0429  0.6911
 3019TIP3    H1 9063   3.454   4.466   3.396 -0.0624  0.8121  0.5530
 3019TIP3    H2 9064   3.552   4.398   3.490 -0.3008  0.0112  0.2323
 3020TIP3   OH2 9065   4.182   2.503   1.658  0.3459  0.0531  0.2897
 3020TIP3    H1 9066   4.103   2.512   1.711  0.5135  2.2943  0.2194
 3020TIP3    H2 9067   4.236   2.440   1.707 -1.5654 -1.8393  0.1377
 3021TIP3   OH2 9068   0.345   0.944   3.799 -0.3460  0.1628  0.0234
 3021TIP3    H1 9069   0.374   0.858   3.829  1.5432 -0.0283 -2.0511
 3021TIP3    H2 9070   0.398   1.006   3.849  1.2837 -0.0746 -1.3356
 3022TIP3   OH2 9071   1.925   0.102   0.152  0.1303 -0.1534 -0.0431
 3022TIP3    H1 9072   1.923   0.192   0.120 -0.3043 -0.4636 -0.9163
 3022TIP3    H2 9073   2.010   0.069   0.123  0.3300 -0.0023  0.3596
 3023TIP3   OH2 9074   4.398   4.737   2.414  0.2411  0.1933  0.2162
 3023TIP3    H1 9075   4.442   4.670   2.362  1.2311  0.3086  0.8744
 3023TIP3    H2 9076   4.468   4.793   2.445 -0.3743  0.4270  1.2481
 3024TIP3   OH2 9077   4.415   3.042   1.498 -0.4493  0.1086 -0.1024
 3024TIP3    H1 9078   4.446   2.952   1.502 -0.1824  0.2245  0.5191
 3024TIP3    H2 9079   4.467   3.082   1.428 -1.9372 -0.7190 -1.7690
 3025TIP3   OH2 9080   0.933   3.086   1.497 -0.2179  0.2326  0.1050
 3025TIP3    H1 9081   0.912   3.146   1.568 -1.5977 -1.1031  0.8866
 3025TIP3    H2 9082   0.971   3.141   1.429  1.3126  1.5556  1.9060
 3026TIP3   OH2 9083   2.964   1.988   4.712  0.7094  0.5105 -0.0595
 3026TIP3    H1 9084   2.953   1.908   4.661  2.1152 -0.4348  1.0158
 3026TIP3    H2 9085   2.999   2.051   4.649  2.2972 -0.5885 -0.3628
 3027TIP3   OH2 9086   5.265   2.838   0.245  0.1153 -0.1146  0.2397
 3027TIP3    H1 9087   5.236   2.898   0.177 -0.5568 -1.0288 -0.3104
 3027TIP3    H2 9088   5.183   2.808   0.286  0.3492 -1.4858 -0.2426
 3028TIP3   OH2 9089   6.303   1.751   0.443  0.2769  0.1110  0.3506
 3028TIP3    H1 9090   6.226   1.727   0.494  1.2758 -0.7832  1.4997
 3028TIP3    H2 9091   6.284   1.720   0.355  0.2563 -2.2987  1.1266
 3029TIP3   OH2 9092   1.107   3.971   3.823  0.0167 -0.2383  0.0463
 3029TIP3    H1 9093   1.108   3.878   3.844  0.0143  0.0403  1.3690
 3029TIP3    H2 9094   1.067   4.012   3.899  2.4064  1.1137  0.6913
 3030TIP3   OH2 9095   0.087   5.667   0.025  0.5699  0.3578  0.1059
 3030TIP3    H1 9096   0.141   5.592   0.047  0.5270  0.4143  0.4059
 3030TIP3    H2 9097   0.062   5.653  -0.066 -0.3997 -0.5719  0.5091
 3031TIP3   OH2 9098   1.065   4.511   0.016 -0.0599 -0.4429  0.0058
 3031TIP3    H1 9099   1.032   4.425   0.043 -1.4068 -0.2061 -0.8304
 3031TIP3    H2 9100   1.004   4.574   0.055  0.6198  0.1303  0.1794
 3032TIP3   OH2 9101   0.074   4.988   0.940  0.5743 -0.0279 -0.0422
 3032TIP3    H1 9102   0.050   5.014   1.029 -0.2317 -0.0165 -0.2537
 3032TIP3    H2 9103  -0.010   4.971   0.896  0.9879 -0.7429 -0.5885
 3033TIP3   OH2 9104   4.928   1.320   0.059  0.1032  0.6684 -0.7473
 3033TIP3    H1 9105   4.904   1.233   0.025 -1.0447  1.3390 -1.6940
 3033TIP3    H2 9106   4.862   1.379   0.025  0.8969  1.9510 -0.1511
 3034TIP3   OH2 9107   5.989   4.265   3.881 -0.8482 -0.4510  0.5413
 3034TIP3    H1 9108   6.035   4.331   3.933 -1.6270 -1.2824  2.4138
 3034TIP3    H2 9109   6.013   4.284   3.791 -0.5020  1.9514  1.0604
 3035TIP3   OH2 9110   5.615   0.110   2.044 -0.3462 -0.1859 -0.4762
 3035TIP3    H1 9111   5.645   0.021   2.025  0.6949 -0.3963  1.7876
 3035TIP3    H2 9112   5.689   0.151   2.089 -0.7253  1.9425 -1.6466
 3036TIP3   OH2 9113   4.253   1.598   1.099 -0.2336  0.6816  0.6615
 3036TIP3    H1 9114   4.309   1.523   1.119  0.8633  0.5392 -2.3853
 3036TIP3    H2 9115   4.171   1.559   1.070  0.9236  0.3569 -2.6932
 3037TIP3   OH2 9116   5.882   4.617   3.410 -0.3313  0.0092  0.8396
 3037TIP3    H1 9117   5.956   4.557   3.419  0.2040  0.6731  0.9303
 3037TIP3    H2 9118   5.831   4.606   3.490 -1.9468 -2.5427 -0.3812
 3038TIP3   OH2 9119   1.866   3.057   3.515  0.4330  0.1302 -0.5738
 3038TIP3    H1 9120   1.948   3.049   3.563  1.1395 -1.5633 -1.9329
 3038TIP3    H2 9121   1.868   3.145   3.478  2.0171 -0.1235 -1.1797
 3039TIP3   OH2 9122   5.016   2.596   1.423  1.0236 -0.5509 -0.5337
 3039TIP3    H1 9123   4.933   2.622   1.463  2.3391  4.9366 -0.5887
 3039TIP3    H2 9124   5.074   2.578   1.497  0.7982 -0.7052 -0.3918
 3040TIP3   OH2 9125   1.607   1.007   0.151 -0.3390  0.4237  0.0458
 3040TIP3    H1 9126   1.525   1.048   0.126 -0.3596  0.1173 -0.4118
 3040TIP3    H2 9127   1.666   1.024   0.078 -0.5166 -0.8225 -0.4190
 3041TIP3   OH2 9128   4.042   0.931   0.143  0.4639 -0.0063 -0.1341
 3041TIP3    H1 9129   4.133   0.934   0.175 -0.0854 -0.4354  1.5495
 3041TIP3    H2 9130   4.022   1.022   0.121  0.9533  0.2783  0.5353
 3042TIP3   OH2 9131   6.032   4.908   3.538 -0.0671 -0.2114 -0.6720
 3042TIP3    H1 9132   5.963   4.851   3.572 -1.3228  0.4854 -1.9773
 3042TIP3    H2 9133   5.997   4.943   3.457  0.7300  2.2813 -0.0342
 3043TIP3   OH2 9134   3.680   5.564   1.399 -0.0297  0.3679  0.7615
 3043TIP3    H1 9135   3.730   5.565   1.317 -0.4910  1.5971  0.4765
 3043TIP3    H2 9136   3.612   5.631   1.387 -0.8963 -0.3153  1.6661
 3044TIP3   OH2 9137   3.197   5.748   3.804 -0.0493 -0.1899  0.5945
 3044TIP3    H1 9138   3.157   5.733   3.889 -1.8840  0.2975 -0.1411
 3044TIP3    H2 9139   3.148   5.821   3.767 -1.3970 -2.3216 -2.1469
 3045TIP3   OH2 9140   4.558   5.712   1.550  0.1296 -0.1492  0.6129
 3045TIP3    H1 9141   4.570   5.618   1.544 -3.8076 -1.0328  2.7244
 3045TIP3    H2 9142   4.610   5.739   1.626  0.3702 -0.8386  0.6975
 3046TIP3   OH2 9143   4.529   3.484   4.902 -0.4946 -0.0537  0.3907
 3046TIP3    H1 9144   4.548   3.457   4.812 -0.0144  0.9887  0.1608
 3046TIP3    H2 9145   4.481   3.566   4.892  0.5464  0.6668  1.0819
 3047TIP3   OH2 9146   2.519   4.185   1.329 -0.4846 -0.1181  0.3884
 3047TIP3    H1 9147   2.462   4.211   1.256 -0.1379 -0.2764  0.0588
 3047TIP3    H2 9148   2.472   4.114   1.372 -0.5010 -0.3032  0.0678
 3048TIP3   OH2 9149   5.401   1.302   2.669 -0.0469 -0.3501 -0.0601
 3048TIP3    H1 9150   5.405   1.257   2.585  1.5880  1.1941 -0.8833
 3048TIP3    H2 9151   5.426   1.236   2.733  1.2674 -0.9050 -1.0949
 3049TIP3   OH2 9152   4.129   3.077   1.348 -0.9549 -0.5913  0.2603
 3049TIP3    H1 9153   4.165   3.028   1.422 -0.0661  0.0414  0.2680
 3049TIP3    H2 9154   4.115   3.010   1.280 -2.1540 -1.2363  1.1108
 3050TIP3   OH2 9155   5.766   3.146   2.224 -0.3914  0.3456  0.7977
 3050TIP3    H1 9156   5.858   3.123   2.236  0.2047  1.3022 -1.3906
 3050TIP3    H2 9157   5.768   3.230   2.178 -2.1970 -1.4003 -2.8997
 3051TIP3   OH2 9158   4.397   1.890   1.733  0.2210  0.1460 -0.5830
 3051TIP3    H1 9159   4.464   1.889   1.665 -0.1971  1.7371 -1.0550
 3051TIP3    H2 9160   4.325   1.837   1.697  0.7402 -0.5873 -0.5605
 3052TIP3   OH2 9161   4.594   0.437   5.002  0.3089  0.0016 -0.8757
 3052TIP3    H1 9162   4.686   0.412   5.003  0.4532  0.4280 -1.7578
 3052TIP3    H2 9163   4.581   0.476   4.915 -0.6461  0.1508 -0.6803
 3053TIP3   OH2 9164   6.159   3.896   3.932  0.5513  0.4478 -0.5085
 3053TIP3    H1 9165   6.153   3.895   3.836 -0.3069 -0.7376 -0.4546
 3053TIP3    H2 9166   6.243   3.939   3.950  0.6599  0.8111 -1.7820
 3054TIP3   OH2 9167   1.152   1.595   4.418 -0.6711  0.4264  0.0961
 3054TIP3    H1 9168   1.192   1.510   4.437  0.4384  1.0831  0.8528
 3054TIP3    H2 9169   1.059   1.583   4.437 -0.2518 -0.1125  2.1112
 3055TIP3   OH2 9170   2.077   4.403   0.278 -0.1072  0.4317 -0.3337
 3055TIP3    H1 9171   2.026   4.475   0.241  0.0502  0.8409  0.2111
 3055TIP3    H2 9172   2.147   4.447   0.328  0.0442 -0.1007 -0.0639
 3056TIP3   OH2 9173   2.665   1.918   0.216 -0.6977 -0.3805  0.0492
 3056TIP3    H1 9174   2.628   1.990   0.165 -0.0295  0.1778  0.3234
 3056TIP3    H2 9175   2.696   1.959   0.297 -0.7846 -1.0713  0.4456
 3057TIP3   OH2 9176   4.169   5.222   4.280  0.0146 -0.0408 -0.3175
 3057TIP3    H1 9177   4.090   5.217   4.334 -0.6006  2.1529 -0.9020
 3057TIP3    H2 9178   4.189   5.316   4.276  0.9819 -0.2838 -2.5540
 3058TIP3   OH2 9179   3.895   1.224   0.353  0.2782 -0.5314 -0.1219
 3058TIP3    H1 9180   3.862   1.159   0.291  1.4945 -0.0729 -1.3120
 3058TIP3    H2 9181   3.932   1.173   0.425  1.0154 -1.1684 -0.9347
 3059TIP3   OH2 9182   4.343   2.813   4.654  0.1407 -0.5591  0.0001
 3059TIP3    H1 9183   4.428   2.819   4.610  0.3893 -0.2852  0.5188
 3059TIP3    H2 9184   4.292   2.755   4.597  0.5206 -0.3637 -0.5532
 3060TIP3   OH2 9185   2.630   3.247   0.407  0.0667 -0.8427 -0.4779
 3060TIP3    H1 9186   2.665   3.333   0.428  0.3314 -1.5040  2.0635
 3060TIP3    H2 9187   2.699   3.206   0.354  0.6679 -0.1030 -0.2899
 3061TIP3   OH2 9188   3.248   0.686   2.249 -0.6173  0.3994  0.3081
 3061TIP3    H1 9189   3.241   0.781   2.241 -1.2111  0.4201  0.9527
 3061TIP3    H2 9190   3.332   0.664   2.208 -2.2823  0.7057 -3.6792
 3062TIP3   OH2 9191   1.095   5.017   4.335  0.4304  0.3821 -0.3236
 3062TIP3    H1 9192   1.077   5.022   4.241  0.6465 -0.0281 -0.3907
 3062TIP3    H2 9193   1.179   5.063   4.345  1.2712 -1.0211 -0.5982
 3063TIP3   OH2 9194   2.517   3.195   1.083  0.3815 -0.1670  0.1404
 3063TIP3    H1 9195   2.584   3.127   1.074  0.2679 -0.4048  1.0609
 3063TIP3    H2 9196   2.439   3.148   1.113 -0.3738  0.0223 -1.3922
 3064TIP3   OH2 9197   2.732   3.416   4.261  0.2191  0.2641 -0.6697
 3064TIP3    H1 9198   2.717   3.399   4.168 -1.1163 -1.8492 -0.1537
 3064TIP3    H2 9199   2.644   3.431   4.297  0.8306  2.6849  0.0383
 3065TIP3   OH2 9200   4.094   4.593   4.650  0.6439 -0.1937  0.0680
 3065TIP3    H1 9201   4.055   4.676   4.679  0.4197 -0.7353  1.3735
 3065TIP3    H2 9202   4.030   4.555   4.590 -0.7916 -0.9564  1.9866
 3066TIP3   OH2 9203   5.842   0.677   0.051 -0.2755 -0.7297 -0.5160
 3066TIP3    H1 9204   5.906   0.703  -0.015 -1.3215  0.6070 -1.0434
 3066TIP3    H2 9205   5.884   0.700   0.134 -0.1970  0.4979 -0.8733
 3067TIP3   OH2 9206   2.706   4.095   1.629 -0.0717 -0.2111  0.4745
 3067TIP3    H1 9207   2.625   4.106   1.678  0.0187  1.6516  0.2629
 3067TIP3    H2 9208   2.742   4.012   1.660 -1.1749 -0.2048  1.8350
 3068TIP3   OH2 9209   1.699   0.591   4.270 -0.6530 -0.0805 -0.4888
 3068TIP3    H1 9210   1.722   0.501   4.295 -1.0996 -0.6934 -2.1530
 3068TIP3    H2 9211   1.749   0.646   4.330 -1.0834 -1.4222  1.2051
 3069TIP3   OH2 9212   4.702   1.489   1.039  0.1770 -0.4797 -0.0835
 3069TIP3    H1 9213   4.795   1.507   1.032  0.1708 -1.0213 -2.1808
 3069TIP3    H2 9214   4.676   1.462   0.951 -2.3128  1.3391 -0.0195
 3070TIP3   OH2 9215   2.369   3.248   2.470 -0.3696  0.0791 -0.3076
 3070TIP3    H1 9216   2.329   3.251   2.383 -1.2911  0.4994  0.1257
 3070TIP3    H2 9217   2.359   3.337   2.504 -2.1707 -0.6388  1.1886
 3071TIP3   OH2 9218   0.424   3.686   1.701 -0.2547  0.2695 -0.3489
 3071TIP3    H1 9219   0.412   3.761   1.643  0.7874 -1.0154 -2.3420
 3071TIP3    H2 9220   0.460   3.617   1.645  0.3215 -1.2429  1.7311
 3072TIP3   OH2 9221   6.038   4.881   3.105  0.2843  0.2053  0.1355
 3072TIP3    H1 9222   5.961   4.828   3.121  0.5655 -0.1881  0.1969
 3072TIP3    H2 9223   6.059   4.866   3.013 -0.3300  1.1377 -0.1680
 3073TIP3   OH2 9224   2.035   5.756   1.467 -0.1695  0.0617 -0.2087
 3073TIP3    H1 9225   2.130   5.749   1.483 -0.5179  0.6716  2.6085
 3073TIP3    H2 9226   2.025   5.838   1.419  0.6463  0.7737  0.7740
 3074TIP3   OH2 9227   2.771   5.985   3.355  0.0351  0.2980  0.3355
 3074TIP3    H1 9228   2.732   5.902   3.384 -1.0985  1.4005  2.1500
 3074TIP3    H2 9229   2.836   5.959   3.289  0.3770 -2.1013  1.5099
 3075TIP3   OH2 9230   5.046   4.738   0.505 -0.4336  0.2100 -0.2525
 3075TIP3    H1 9231   4.997   4.714   0.426  0.0453 -1.0407 -0.1967
 3075TIP3    H2 9232   5.107   4.665   0.518  0.1122  0.8266  0.7695
 3076TIP3   OH2 9233   0.914   2.307   3.409  0.0423  0.2585  0.5290
 3076TIP3    H1 9234   0.925   2.328   3.501 -2.2702  0.6609  0.7689
 3076TIP3    H2 9235   1.002   2.319   3.371  0.7374  1.4545  2.3803
 3077TIP3   OH2 9236   3.404   3.263   3.775 -0.0872  0.0601  0.4559
 3077TIP3    H1 9237   3.313   3.290   3.765 -0.4988 -1.6505 -0.8713
 3077TIP3    H2 9238   3.416   3.256   3.870 -1.2976  0.3804  0.6545
 3078TIP3   OH2 9239   1.903   0.025   2.208 -0.0514 -0.9838  0.1070
 3078TIP3    H1 9240   1.839   0.010   2.278  0.7291 -1.2125  0.7902
 3078TIP3    H2 9241   1.987   0.011   2.250  0.6797  2.4889  0.1290
 3079TIP3   OH2 9242   1.970   0.385   4.095  0.7379 -0.3245 -0.4813
 3079TIP3    H1 9243   2.018   0.353   4.018  1.8434  0.6965 -0.2572
 3079TIP3    H2 9244   2.031   0.372   4.168  0.1926 -0.1139  0.0217
 3080TIP3   OH2 9245   0.172   4.509   0.558 -0.0188  0.2110 -0.1100
 3080TIP3    H1 9246   0.253   4.502   0.609 -0.9720  2.8401  1.9544
 3080TIP3    H2 9247   0.110   4.452   0.603  0.1730 -0.4847 -0.6982
 3081TIP3   OH2 9248   3.672   0.468   0.325  0.1901  0.2090 -0.0029
 3081TIP3    H1 9249   3.741   0.402   0.329  1.4943  1.6100  1.3998
 3081TIP3    H2 9250   3.622   0.456   0.405 -0.2288  0.2420 -0.2543
 3082TIP3   OH2 9251   5.553   1.362   1.560  0.0787 -0.4436 -0.6654
 3082TIP3    H1 9252   5.572   1.291   1.621  2.3678  2.3858  2.2608
 3082TIP3    H2 9253   5.594   1.335   1.478 -3.2605 -4.4758 -1.3181
 3083TIP3   OH2 9254   3.463   4.815   4.453 -0.2299 -0.3957 -0.3088
 3083TIP3    H1 9255   3.381   4.777   4.485 -1.7388  2.8255  0.0952
 3083TIP3    H2 9256   3.470   4.784   4.363 -2.4768 -0.0373 -0.6855
 3084TIP3   OH2 9257   3.086   3.379   1.186 -0.0136 -0.7455 -0.2072
 3084TIP3    H1 9258   3.009   3.360   1.240 -0.6889 -0.2889 -0.9912
 3084TIP3    H2 9259   3.159   3.341   1.235 -0.8853 -2.3451 -0.0783
 3085TIP3   OH2 9260   2.936   5.232   1.923 -0.2309 -0.3370  0.1063
 3085TIP3    H1 9261   2.994   5.255   1.995  0.6746 -0.3220 -0.6144
 3085TIP3    H2 9262   2.850   5.220   1.964  0.1417  0.2775  1.0835
 3086TIP3   OH2 9263   0.799   5.679   4.463 -0.5315  0.2081 -0.7342
 3086TIP3    H1 9264   0.732   5.693   4.530  0.0576 -1.2041  0.1933
 3086TIP3    H2 9265   0.810   5.584   4.459  0.8688  0.3759 -1.4157
 3087TIP3   OH2 9266   0.237   2.641   3.544  0.5621  0.4779  0.0608
 3087TIP3    H1 9267   0.164   2.638   3.606 -0.2202 -0.1893 -0.8561
 3087TIP3    H2 9268   0.240   2.732   3.514 -0.2888  0.3728 -0.3517
 3088TIP3   OH2 9269   5.185   1.694   2.825  0.3400 -0.6871 -0.1317
 3088TIP3    H1 9270   5.206   1.784   2.847  1.0406 -1.0407  0.7350
 3088TIP3    H2 9271   5.221   1.681   2.737  0.0467 -0.0681 -0.3434
 3089TIP3   OH2 9272   3.050   3.528   2.953 -0.2468  0.5519 -0.2083
 3089TIP3    H1 9273   2.998   3.474   3.011  1.5607 -0.6722  0.3618
 3089TIP3    H2 9274   3.085   3.598   3.008  0.9542 -0.2487  0.0907
 3090TIP3   OH2 9275   6.115   4.097   1.998  0.1426 -0.0063 -0.1096
 3090TIP3    H1 9276   6.171   4.102   1.920 -0.6903  0.3958 -0.6992
 3090TIP3    H2 9277   6.171   4.057   2.065  0.4569 -1.6296 -1.2903
 3091TIP3   OH2 9278   1.275   5.180   3.028 -0.3892 -0.1337 -0.3970
 3091TIP3    H1 9279   1.251   5.137   2.946  0.6250 -2.9448  0.6582
 3091TIP3    H2 9280   1.193   5.184   3.077 -0.3718 -1.8375 -0.1553
 3092TIP3   OH2 9281   4.449   5.715   3.845 -0.2156 -0.0130  0.4811
 3092TIP3    H1 9282   4.358   5.694   3.828  0.1645 -0.1053 -1.8987
 3092TIP3    H2 9283   4.448   5.806   3.873 -1.0205  0.1918 -0.1617
 3093TIP3   OH2 9284   0.964   1.041   4.384 -0.0050  0.2083 -0.5712
 3093TIP3    H1 9285   0.886   1.057   4.437  0.6138 -0.4847  0.5936
 3093TIP3    H2 9286   0.930   1.016   4.298 -1.0773 -0.2437 -0.0387
 3094TIP3   OH2 9287   2.640   0.671   2.954 -0.1501  0.4252 -0.1293
 3094TIP3    H1 9288   2.661   0.580   2.934  0.1933 -0.0072  1.9621
 3094TIP3    H2 9289   2.699   0.723   2.899 -0.9943 -0.5525 -2.0464
 3095TIP3   OH2 9290   4.328   0.924   3.363 -0.6179  0.4229 -0.0374
 3095TIP3    H1 9291   4.319   0.950   3.271 -1.3050 -0.5473 -0.2621
 3095TIP3    H2 9292   4.383   0.992   3.402 -0.4651  0.9431 -1.1226
 3096TIP3   OH2 9293   5.610   0.239   4.178  0.1550  0.2536 -0.1693
 3096TIP3    H1 9294   5.599   0.151   4.215 -0.1452  0.4598  0.2468
 3096TIP3    H2 9295   5.572   0.234   4.091 -3.3391  0.9074  1.1427
 3097TIP3   OH2 9296   5.717   1.670   1.344  0.3627 -0.0560  0.4427
 3097TIP3    H1 9297   5.650   1.607   1.316 -0.1008 -0.4117  2.2422
 3097TIP3    H2 9298   5.778   1.673   1.270 -1.8695  0.6946 -1.5162
 3098TIP3   OH2 9299   0.874   4.176   0.396 -0.1743 -0.1673 -0.0280
 3098TIP3    H1 9300   0.968   4.182   0.412  0.0287 -0.9086 -0.8692
 3098TIP3    H2 9301   0.838   4.137   0.475  0.1699  0.4272  0.4329
 3099TIP3   OH2 9302   4.443   2.378   5.038 -0.1605 -0.0089  0.5336
 3099TIP3    H1 9303   4.467   2.445   4.973 -0.6576 -1.1920 -0.9204
 3099TIP3    H2 9304   4.455   2.295   4.992 -0.5848 -0.8880  1.9569
 3100TIP3   OH2 9305   4.632   2.943   0.554 -0.0632 -0.3799 -0.0500
 3100TIP3    H1 9306   4.541   2.927   0.529 -0.0184 -0.6531 -0.0376
 3100TIP3    H2 9307   4.670   2.856   0.566  0.2549 -0.2736 -0.2552
 3101TIP3   OH2 9308   2.913   5.061   4.924 -0.2721  0.0920  0.2133
 3101TIP3    H1 9309   2.858   5.041   5.000 -0.7404  0.1600 -0.0973
 3101TIP3    H2 9310   2.975   5.127   4.955 -0.3620  0.0045  0.5764
 3102TIP3   OH2 9311   0.717   3.101   0.780 -0.0124 -0.1586  0.3309
 3102TIP3    H1 9312   0.703   3.052   0.862  0.3752 -2.0342 -0.6796
 3102TIP3    H2 9313   0.675   3.048   0.713 -1.2052  1.8385 -0.6311
 3103TIP3   OH2 9314   3.554   5.477   1.058 -0.2378  0.1178  0.1619
 3103TIP3    H1 9315   3.501   5.470   1.137  0.8148 -1.0249  0.7997
 3103TIP3    H2 9316   3.492   5.458   0.987 -1.3204  1.7040  0.6236
 3104TIP3   OH2 9317   4.735   3.925   0.461 -0.3739  0.4329 -0.0821
 3104TIP3    H1 9318   4.812   3.978   0.441  1.4839 -1.6255  1.1604
 3104TIP3    H2 9319   4.750   3.893   0.550 -0.7909 -2.9905 -1.0842
 3105TIP3   OH2 9320   0.019   2.937   0.330  0.4694  0.4731 -0.1229
 3105TIP3    H1 9321   0.004   3.021   0.374 -0.9064  1.1473 -1.7578
 3105TIP3    H2 9322   0.113   2.920   0.341  0.6027  1.7971  0.9684
 3106TIP3   OH2 9323   2.979   5.037   3.030 -0.3200 -0.2504  0.0938
 3106TIP3    H1 9324   2.888   5.063   3.016 -0.5950 -0.7047  0.9336
 3106TIP3    H2 9325   3.013   5.019   2.942 -1.0881 -0.2211 -0.2163
 3107TIP3   OH2 9326   1.901   0.087   0.447 -0.6784 -0.1011 -0.0589
 3107TIP3    H1 9327   1.989   0.124   0.455 -1.1741  1.0868  0.2201
 3107TIP3    H2 9328   1.909   0.021   0.379  0.1489  0.9231 -1.0159
 3108TIP3   OH2 9329   1.752   1.168   3.730  0.2474 -0.3691  0.0722
 3108TIP3    H1 9330   1.780   1.131   3.813 -0.8983 -0.2045  0.5513
 3108TIP3    H2 9331   1.804   1.122   3.664 -0.6365 -2.3568  0.6891
 3109TIP3   OH2 9332   5.730   5.346   0.229 -0.4132  1.0654  0.5330
 3109TIP3    H1 9333   5.762   5.290   0.159  0.5758  1.2201  0.8389
 3109TIP3    H2 9334   5.726   5.289   0.305 -2.2482  0.7020  0.1926
 3110TIP3   OH2 9335   0.847   2.395   5.176  0.2674 -0.0230  0.2366
 3110TIP3    H1 9336   0.809   2.338   5.110  1.4044  0.9824 -1.3580
 3110TIP3    H2 9337   0.774   2.416   5.235 -0.5805 -1.5894 -0.2023
 3111TIP3   OH2 9338   1.161   1.996   0.946  1.0157 -0.5097 -0.4824
 3111TIP3    H1 9339   1.216   1.918   0.935  0.2839 -1.1821  0.5104
 3111TIP3    H2 9340   1.221   2.062   0.981  1.2874 -1.1380  0.2730
 3112TIP3   OH2 9341   1.160   0.308   0.931 -0.8739  0.0497  0.5052
 3112TIP3    H1 9342   1.177   0.215   0.945  0.9714  0.2632 -0.0413
 3112TIP3    H2 9343   1.211   0.330   0.853  1.1928  2.1584  2.2947
 3113TIP3   OH2 9344   2.277   3.500   3.317  0.4181 -1.2140  0.5788
 3113TIP3    H1 9345   2.232   3.478   3.236 -0.0386 -1.8471  0.9932
 3113TIP3    H2 9346   2.369   3.481   3.300  0.6136  0.3835 -0.3809
 3114TIP3   OH2 9347   3.125   2.961   3.049  0.4195  0.2288  0.1767
 3114TIP3    H1 9348   3.163   3.025   3.109  1.7479 -0.8409  0.5241
 3114TIP3    H2 9349   3.095   3.012   2.974 -1.3313  1.6219  1.7119
 3115TIP3   OH2 9350   2.359   1.214   4.315 -0.1350  0.0970  0.3575
 3115TIP3    H1 9351   2.338   1.180   4.402  0.6938 -1.1274  0.1046
 3115TIP3    H2 9352   2.283   1.191   4.261  0.1229 -0.7609  0.3508
 3116TIP3   OH2 9353   2.194   3.098   2.028 -0.1612 -0.2556 -0.5842
 3116TIP3    H1 9354   2.267   3.060   1.979 -1.0888 -0.8608 -1.5361
 3116TIP3    H2 9355   2.122   3.100   1.965 -0.8610  0.6850  0.2294
 3117TIP3   OH2 9356   6.197   5.372   2.543 -0.1905 -0.3611 -0.1534
 3117TIP3    H1 9357   6.159   5.404   2.625 -1.8021 -0.1292 -0.9436
 3117TIP3    H2 9358   6.172   5.280   2.539  2.5452 -1.2627  1.0438
 3118TIP3   OH2 9359   2.441   2.217   4.447 -0.0263 -0.4584 -0.2769
 3118TIP3    H1 9360   2.416   2.173   4.365 -2.8438  0.4668 -0.0358
 3118TIP3    H2 9361   2.444   2.309   4.424 -2.6306  0.0160  0.9320
 3119TIP3   OH2 9362   5.534   0.051   4.938  0.9877  0.1558  0.3585
 3119TIP3    H1 9363   5.580   0.011   4.864  1.5491  1.1299  0.1643
 3119TIP3    H2 9364   5.595   0.117   4.971  0.3677  0.3625  1.1081
 3120TIP3   OH2 9365   4.279   3.699   0.793  0.1210 -0.3634 -0.0580
 3120TIP3    H1 9366   4.317   3.786   0.782  0.1198 -0.2716  0.6062
 3120TIP3    H2 9367   4.217   3.708   0.865  0.4197 -1.0021  0.2904
 3121TIP3   OH2 9368   4.513   0.699   1.013 -0.1682 -0.2435  0.3844
 3121TIP3    H1 9369   4.420   0.675   1.009 -0.9792  2.3699  1.6178
 3121TIP3    H2 9370   4.527   0.754   0.936  0.2539 -0.2498  0.4553
 3122TIP3   OH2 9371   1.170   0.665   3.679 -0.2134 -0.6273  0.1630
 3122TIP3    H1 9372   1.253   0.658   3.727 -0.8782 -0.8796  1.3030
 3122TIP3    H2 9373   1.160   0.758   3.662 -0.4851 -0.3878  1.4940
 3123TIP3   OH2 9374   2.295   2.066   2.419 -0.2814 -0.2244  0.3196
 3123TIP3    H1 9375   2.308   1.980   2.457  2.7456  0.3931  0.8876
 3123TIP3    H2 9376   2.383   2.103   2.411 -1.3414  2.1777 -1.4263
 3124TIP3   OH2 9377   0.316   1.530   0.097  0.6651 -0.4526  0.8984
 3124TIP3    H1 9378   0.323   1.617   0.057 -0.8562 -0.1161  1.2998
 3124TIP3    H2 9379   0.315   1.470   0.022  0.6360 -0.0468  0.5673
 3125TIP3   OH2 9380   0.590   3.725   3.641 -0.2887  0.1022 -0.4827
 3125TIP3    H1 9381   0.615   3.767   3.723 -0.4843 -0.0421 -0.3483
 3125TIP3    H2 9382   0.599   3.631   3.659  2.3914  0.0682 -1.4561
 3126TIP3   OH2 9383   3.225   1.076   1.177 -0.1230 -0.3188  0.7106
 3126TIP3    H1 9384   3.180   1.011   1.231 -0.4232 -0.5828  0.1514
 3126TIP3    H2 9385   3.221   1.157   1.228 -0.1734 -0.6260  1.1947
 3127TIP3   OH2 9386   5.659   4.974   4.477 -0.9205  0.4756  0.1716
 3127TIP3    H1 9387   5.637   4.943   4.390 -1.4203 -0.4462  0.6148
 3127TIP3    H2 9388   5.644   4.899   4.534  0.3670  0.7546  0.9201
 3128TIP3   OH2 9389   3.460   5.742   3.949  0.8591 -0.2603 -0.6720
 3128TIP3    H1 9390   3.526   5.672   3.943  1.5895  0.4807 -1.5643
 3128TIP3    H2 9391   3.434   5.758   3.859  0.0736  0.0549 -0.3978
 3129TIP3   OH2 9392   0.852   4.859   0.592  0.0820  0.2068  0.4820
 3129TIP3    H1 9393   0.900   4.903   0.521  2.3785 -1.9517  0.5292
 3129TIP3    H2 9394   0.917   4.847   0.661 -1.2124 -0.6724  1.6019
 3130TIP3   OH2 9395   4.867   3.499   2.433  0.8590 -0.1906 -0.0103
 3130TIP3    H1 9396   4.783   3.463   2.404  1.0559 -0.3750 -0.3550
 3130TIP3    H2 9397   4.928   3.479   2.362  0.7437  1.7848 -0.7367
 3131TIP3   OH2 9398   2.502   1.977   4.543  0.0111  0.1701 -0.0717
 3131TIP3    H1 9399   2.584   1.969   4.593 -0.5397 -0.0420  0.8229
 3131TIP3    H2 9400   2.502   2.067   4.511  1.7474 -0.4875 -2.1781
 3132TIP3   OH2 9401   1.825   3.210   1.325 -0.2078  0.1741  0.2396
 3132TIP3    H1 9402   1.904   3.263   1.326  0.1836 -0.4066  0.2407
 3132TIP3    H2 9403   1.845   3.137   1.267 -0.3264 -0.5951  1.1381
 3133TIP3   OH2 9404   0.614   2.869   3.089 -0.6983  0.2325 -0.2543
 3133TIP3    H1 9405   0.638   2.896   3.178  0.7111 -0.6563 -0.3394
 3133TIP3    H2 9406   0.693   2.884   3.037 -1.7009  1.3743 -1.5331
 3134TIP3   OH2 9407   4.270   0.803   3.939  0.0912 -0.1801  0.6572
 3134TIP3    H1 9408   4.354   0.761   3.958 -0.5552 -1.5187  0.6642
 3134TIP3    H2 9409   4.205   0.746   3.979 -0.8053  1.1365  1.1264
 3135TIP3   OH2 9410   2.923   0.141   1.942  0.4678  0.0474  0.0320
 3135TIP3    H1 9411   2.853   0.151   1.878  0.1197  0.2246  0.4393
 3135TIP3    H2 9412   2.953   0.050   1.930 -0.0129 -0.1155  0.0434
 3136TIP3   OH2 9413   2.497   2.629   0.173 -0.2415  0.1893 -0.2665
 3136TIP3    H1 9414   2.583   2.606   0.138  0.4333  0.2051  1.3243
 3136TIP3    H2 9415   2.449   2.546   0.175  0.4680 -0.2133  0.7668
 3137TIP3   OH2 9416   3.862   4.618   0.131  0.5496 -0.9181  0.4302
 3137TIP3    H1 9417   3.850   4.590   0.222 -1.1590 -1.5815  0.0428
 3137TIP3    H2 9418   3.840   4.541   0.079 -1.7918  0.3508 -0.6050
 3138TIP3   OH2 9419   5.559   0.758   1.065 -0.3000 -0.1443 -0.0706
 3138TIP3    H1 9420   5.477   0.709   1.067 -2.2941  2.8888 -1.0353
 3138TIP3    H2 9421   5.578   0.776   1.157 -0.2883 -1.4350  0.2039
 3139TIP3   OH2 9422   2.363   2.382   0.167  0.8807 -0.2669 -0.5353
 3139TIP3    H1 9423   2.268   2.387   0.157  0.9344 -0.9970 -1.5285
 3139TIP3    H2 9424   2.391   2.318   0.102  1.9873 -0.5503  0.1797
 3140TIP3   OH2 9425   0.865   2.621   3.213 -0.5200  0.6907  0.3665
 3140TIP3    H1 9426   0.929   2.671   3.161 -0.8365  1.2171  0.4817
 3140TIP3    H2 9427   0.913   2.599   3.293  0.1813 -0.6643 -0.3848
 3141TIP3   OH2 9428   3.590   0.542   4.909 -0.3590  0.2791  0.3023
 3141TIP3    H1 9429   3.625   0.475   4.968  0.3317  0.2014 -0.1797
 3141TIP3    H2 9430   3.637   0.528   4.827 -2.1291 -0.3836 -0.6618
 3142TIP3   OH2 9431   3.571   5.528   2.908  0.3646  0.3296  0.4682
 3142TIP3    H1 9432   3.574   5.541   3.002  1.6965  0.4105  0.4244
 3142TIP3    H2 9433   3.656   5.557   2.876  0.5042 -1.1213 -0.5713
 3143TIP3   OH2 9434   0.433   2.797   1.095 -0.3392  0.1339 -0.4049
 3143TIP3    H1 9435   0.444   2.888   1.121 -0.6493 -0.5860  2.5604
 3143TIP3    H2 9436   0.374   2.760   1.161 -2.0208 -1.7122 -2.7792
 3144TIP3   OH2 9437   2.458   5.378   0.303  0.0794  0.1606 -0.4294
 3144TIP3    H1 9438   2.493   5.378   0.392 -0.0519 -2.3319 -0.3090
 3144TIP3    H2 9439   2.438   5.470   0.285  2.7770  1.1403  1.0334
 3145TIP3   OH2 9440   4.262   4.861   1.366  0.5014 -0.0558  0.2088
 3145TIP3    H1 9441   4.250   4.813   1.448 -0.9223  2.2782  1.4674
 3145TIP3    H2 9442   4.176   4.861   1.326  0.6842  0.7146 -0.1894
 3146TIP3   OH2 9443   4.761   3.669   5.154 -0.2446  0.1979  0.6468
 3146TIP3    H1 9444   4.764   3.583   5.113  2.8546 -0.1577  1.4096
 3146TIP3    H2 9445   4.790   3.730   5.085  1.1160  0.1120  1.1181
 3147TIP3   OH2 9446   2.843   1.211   2.495 -0.2140 -0.4566 -0.0749
 3147TIP3    H1 9447   2.852   1.186   2.403  0.8577  0.1779 -0.1560
 3147TIP3    H2 9448   2.754   1.184   2.518 -0.2865 -1.1749 -1.1176
 3148TIP3   OH2 9449   5.473   3.719   5.081 -0.1032  0.0813 -0.0922
 3148TIP3    H1 9450   5.461   3.801   5.130 -1.0350 -1.0161  1.6297
 3148TIP3    H2 9451   5.470   3.651   5.148  0.0578 -1.4189 -1.5506
 3149TIP3   OH2 9452   5.252   1.122   5.142 -0.1554  0.5302 -0.2691
 3149TIP3    H1 9453   5.267   1.066   5.219  1.1930  0.3545 -0.6357
 3149TIP3    H2 9454   5.207   1.199   5.177 -0.6338 -0.0751  0.4958
 3150TIP3   OH2 9455   1.887   0.450   3.056 -0.1150  0.5767 -0.2642
 3150TIP3    H1 9456   1.951   0.395   3.012  1.1982  1.0146  1.0372
 3150TIP3    H2 9457   1.864   0.402   3.135 -0.0918  1.2062  0.1277
 3151TIP3   OH2 9458   5.839   2.008   4.841 -0.0123  0.3192 -0.7866
 3151TIP3    H1 9459   5.819   1.969   4.756  1.6000  0.5585 -1.3113
 3151TIP3    H2 9460   5.806   2.098   4.835  0.0302  0.3127 -1.1373
 3152TIP3   OH2 9461   5.308   3.904   1.937 -0.6464 -0.3085  0.4055
 3152TIP3    H1 9462   5.353   3.820   1.949 -1.3656 -0.8042 -0.2792
 3152TIP3    H2 9463   5.258   3.915   2.017 -2.6894 -1.8983 -0.5622
 3153TIP3   OH2 9464   1.869   2.646   1.306 -0.1900  0.2931  0.2436
 3153TIP3    H1 9465   1.890   2.700   1.382  0.6651 -0.5119  0.5976
 3153TIP3    H2 9466   1.777   2.666   1.287 -0.0217  1.5055  0.6519
 3154TIP3   OH2 9467   2.879   3.917   3.004  0.0705  0.0163 -0.0946
 3154TIP3    H1 9468   2.802   3.870   2.972 -0.0209 -0.5306  0.8822
 3154TIP3    H2 9469   2.951   3.854   2.997 -0.0410 -0.2869  1.1630
 3155TIP3   OH2 9470   5.238   1.395   0.702  0.2503 -0.3459  0.1922
 3155TIP3    H1 9471   5.285   1.460   0.755  0.3618 -0.2850  0.0162
 3155TIP3    H2 9472   5.201   1.335   0.767 -0.8899  0.5744  0.4380
 3156TIP3   OH2 9473   3.600   5.306   5.088  0.1809  0.0260 -0.1370
 3156TIP3    H1 9474   3.608   5.227   5.142 -3.2007  0.0991  0.7053
 3156TIP3    H2 9475   3.634   5.376   5.143 -0.6145 -0.3072  0.8025
 3157TIP3   OH2 9476   3.743   3.565   3.874 -0.1285 -0.2128 -0.1146
 3157TIP3    H1 9477   3.707   3.633   3.930 -3.7690  1.0225 -3.4844
 3157TIP3    H2 9478   3.726   3.483   3.921 -0.2874  0.8587  1.8065
 3158TIP3   OH2 9479   4.648   1.999   4.944 -0.1408  0.5279 -0.3499
 3158TIP3    H1 9480   4.603   1.985   5.027 -0.3759 -2.3746 -0.8782
 3158TIP3    H2 9481   4.579   2.028   4.884 -0.6878 -0.7000 -0.3389
 3159TIP3   OH2 9482   0.984   2.482   2.262 -0.1591 -0.0536 -0.2659
 3159TIP3    H1 9483   0.931   2.403   2.255  0.5640 -0.7167  1.2168
 3159TIP3    H2 9484   0.940   2.534   2.330  0.5937 -0.2301  0.3719
 3160TIP3   OH2 9485   5.264   1.867   0.802  0.1224  0.1240 -0.3462
 3160TIP3    H1 9486   5.234   1.955   0.822 -0.3222  0.3320 -1.8396
 3160TIP3    H2 9487   5.194   1.829   0.749  0.5119 -0.9668 -0.1022
 3161TIP3   OH2 9488   1.156   3.942   2.132 -0.2833 -0.0587  0.0450
 3161TIP3    H1 9489   1.232   3.886   2.113 -0.1616 -0.1989  0.8971
 3161TIP3    H2 9490   1.083   3.881   2.141 -0.1717 -0.0882  0.8644
 3162TIP3   OH2 9491   2.234   3.874   3.212 -0.4996  0.0954  0.3020
 3162TIP3    H1 9492   2.150   3.897   3.172 -1.3486 -0.9906  1.3879
 3162TIP3    H2 9493   2.247   3.939   3.281  1.2608  2.3441 -1.9697
 3163TIP3   OH2 9494   5.228   0.650   4.784 -0.2717  0.2972 -0.5271
 3163TIP3    H1 9495   5.172   0.706   4.731 -2.5146 -0.0082  1.3490
 3163TIP3    H2 9496   5.276   0.596   4.721 -0.9396  1.6341 -2.2473
 3164TIP3   OH2 9497   5.610   1.647   4.459  0.0334 -0.1159  0.3184
 3164TIP3    H1 9498   5.694   1.692   4.448  0.0392 -0.1945  0.0331
 3164TIP3    H2 9499   5.606   1.625   4.552  0.0009  0.5357  0.4795
 3165TIP3   OH2 9500   2.399   3.666   4.323  1.0434  0.3533 -0.1644
 3165TIP3    H1 9501   2.473   3.703   4.276  2.3894 -0.8639  0.8885
 3165TIP3    H2 9502   2.408   3.571   4.312  0.0197  0.1529  0.5317
 3166TIP3   OH2 9503   1.457   4.626   3.559  0.5866 -0.1161  0.0776
 3166TIP3    H1 9504   1.465   4.538   3.522 -0.3853 -0.8176  1.4319
 3166TIP3    H2 9505   1.532   4.634   3.617  1.0302  0.2183 -0.5297
 3167TIP3   OH2 9506   5.689   5.258   4.158  0.0737  0.1172  0.3152
 3167TIP3    H1 9507   5.622   5.308   4.112 -0.0372  1.1037  1.4941
 3167TIP3    H2 9508   5.766   5.264   4.102 -1.0129 -1.8976 -1.5896
 3168TIP3   OH2 9509   0.396   0.906   2.786  0.0971  0.1052 -0.1005
 3168TIP3    H1 9510   0.338   0.833   2.810  1.0402 -0.2845  1.1168
 3168TIP3    H2 9511   0.337   0.978   2.767 -0.8283  0.0450  2.1738
 3169TIP3   OH2 9512   0.186   3.566   4.808 -0.3339 -0.1763 -0.1128
 3169TIP3    H1 9513   0.161   3.518   4.729 -1.4511 -0.2678  0.2847
 3169TIP3    H2 9514   0.104   3.604   4.840  0.5761  2.6465 -0.8353
 3170TIP3   OH2 9515   4.260   5.474   2.043  0.1613  0.4927 -0.5211
 3170TIP3    H1 9516   4.351   5.453   2.067  0.7009  1.0674 -1.9846
 3170TIP3    H2 9517   4.215   5.389   2.047  1.4659 -0.3940 -2.6925
 3171TIP3   OH2 9518   3.987   3.398   0.662 -0.6728  0.2867 -0.5392
 3171TIP3    H1 9519   4.083   3.396   0.667 -0.6391 -2.0284 -0.9722
 3171TIP3    H2 9520   3.968   3.456   0.588  0.4095  0.4074 -0.7353
 3172TIP3   OH2 9521   4.980   1.790   1.181 -0.1779  0.2518  0.4220
 3172TIP3    H1 9522   4.956   1.881   1.196  0.0019  0.1144  1.6716
 3172TIP3    H2 9523   5.045   1.771   1.249 -0.0538 -0.7411  0.0416
 3173TIP3   OH2 9524   5.296   0.216   4.103 -0.9525 -0.2733  0.3047
 3173TIP3    H1 9525   5.325   0.268   4.028  0.1722 -0.0312  0.8855
 3173TIP3    H2 9526   5.317   0.126   4.080 -1.5390 -0.3112 -0.0877
 3174TIP3   OH2 9527   6.042   5.730   5.145  0.4286 -0.0761  0.4966
 3174TIP3    H1 9528   6.127   5.694   5.123  0.2641 -0.5639  0.6504
 3174TIP3    H2 9529   5.979   5.670   5.106  0.1456 -0.3194  1.3032
 3175TIP3   OH2 9530   0.813   1.470   3.881 -0.0210  0.4380  0.0981
 3175TIP3    H1 9531   0.728   1.492   3.842 -0.5900 -0.3841  0.8220
 3175TIP3    H2 9532   0.856   1.554   3.894 -0.9277  0.9078  0.1402
 3176TIP3   OH2 9533   3.554   2.775   1.462 -0.3245  0.0636 -0.0346
 3176TIP3    H1 9534   3.641   2.769   1.501  0.1017  0.0830 -0.9589
 3176TIP3    H2 9535   3.571   2.785   1.368 -1.3482 -1.6125 -0.4353
 3177TIP3   OH2 9536   0.419   3.564   2.388 -0.0895  0.0076  0.3042
 3177TIP3    H1 9537   0.444   3.648   2.350  1.6877 -0.3567  0.5659
 3177TIP3    H2 9538   0.486   3.547   2.454 -0.9845 -1.1571  0.9568
 3178TIP3   OH2 9539   4.406   2.330   2.559 -0.2557 -0.3225  0.1429
 3178TIP3    H1 9540   4.423   2.337   2.653 -0.3285 -1.3202  0.2501
 3178TIP3    H2 9541   4.456   2.252   2.532 -1.6486 -1.1049 -0.2818
 3179TIP3   OH2 9542   5.896   2.052   1.142  0.2612 -0.1890  0.3703
 3179TIP3    H1 9543   5.925   1.988   1.076  0.2949  0.6175 -0.4116
 3179TIP3    H2 9544   5.818   2.092   1.103 -0.0656 -0.1237  1.0904
 3180TIP3   OH2 9545   1.045   3.328   3.289 -0.1569 -0.3910 -0.2929
 3180TIP3    H1 9546   1.133   3.345   3.254 -1.5566  1.7627 -3.1978
 3180TIP3    H2 9547   1.011   3.256   3.236 -1.0729  0.6289 -1.1508
 3181TIP3   OH2 9548   3.295   2.047   2.139 -0.6579  0.2208 -0.0726
 3181TIP3    H1 9549   3.389   2.047   2.124 -0.8182  0.4611 -1.2095
 3181TIP3    H2 9550   3.271   1.955   2.144 -0.5714  0.1183 -1.3204
 3182TIP3   OH2 9551   1.542   5.860   3.923  0.4118 -0.3352  0.2791
 3182TIP3    H1 9552   1.560   5.793   3.990  0.8630 -0.1910  0.3027
 3182TIP3    H2 9553   1.463   5.904   3.955 -0.0636 -1.0403  0.1202
 3183TIP3   OH2 9554   0.972   3.661   4.337  0.8865  0.2088  0.0691
 3183TIP3    H1 9555   0.929   3.723   4.396 -0.8909  1.2959 -2.2374
 3183TIP3    H2 9556   0.916   3.584   4.338  1.2677 -0.0727  0.3374
 3184TIP3   OH2 9557   3.942   3.948   3.868  0.3340  0.1456  0.1078
 3184TIP3    H1 9558   4.004   4.002   3.916  1.8048 -0.9727 -0.4361
 3184TIP3    H2 9559   3.975   3.947   3.778  0.0816 -1.2467  0.0027
 3185TIP3   OH2 9560   3.855   4.117   0.627  0.3840  0.4166  0.4940
 3185TIP3    H1 9561   3.848   4.034   0.674 -1.2938  1.5543  2.3948
 3185TIP3    H2 9562   3.850   4.092   0.534 -1.2466 -1.5414  1.0298
 3186TIP3   OH2 9563   0.977   4.563   1.738 -0.7285  0.3359  0.0960
 3186TIP3    H1 9564   0.946   4.492   1.794  1.0472 -0.7843 -0.2590
 3186TIP3    H2 9565   1.019   4.519   1.664  1.1272  1.7354  0.2484
 3187TIP3   OH2 9566   3.252   0.694   0.203  0.2275  0.2820 -0.1382
 3187TIP3    H1 9567   3.318   0.750   0.244  0.2157  0.3964 -0.2750
 3187TIP3    H2 9568   3.212   0.647   0.276 -0.1519  0.8667  0.0344
 3188TIP3   OH2 9569   0.130   2.294   4.671 -0.1243 -0.1605  0.0425
 3188TIP3    H1 9570   0.210   2.340   4.697  0.2689 -1.3213  0.9834
 3188TIP3    H2 9571   0.142   2.275   4.578 -0.0047  1.0129 -0.1994
 3189TIP3   OH2 9572   3.331   4.793   2.604 -0.1547 -0.3501 -0.0223
 3189TIP3    H1 9573   3.286   4.756   2.680 -0.8699 -0.2105 -0.3728
 3189TIP3    H2 9574   3.267   4.789   2.533 -0.4556  1.9741  0.0341
 3190TIP3   OH2 9575   3.143   1.985   3.120  0.4341  0.3802  0.2169
 3190TIP3    H1 9576   3.136   1.890   3.109  1.2708  0.3710 -0.3078
 3190TIP3    H2 9577   3.138   2.020   3.031 -0.0311  0.8464  0.4199
 3191TIP3   OH2 9578   1.414   4.039   1.842  0.0188  0.1208  0.0653
 3191TIP3    H1 9579   1.491   4.060   1.790  0.0992  1.8026  0.7968
 3191TIP3    H2 9580   1.340   4.053   1.782  0.1577  1.2247  0.1262
 3192TIP3   OH2 9581   5.858   0.438   3.610  0.2071 -0.3745  0.1499
 3192TIP3    H1 9582   5.851   0.366   3.672 -0.8632 -0.5745 -0.1696
 3192TIP3    H2 9583   5.866   0.516   3.665  0.3707 -0.6422  0.5142
 3193TIP3   OH2 9584   1.307   3.106   0.678  0.0901 -0.1731 -0.3625
 3193TIP3    H1 9585   1.212   3.113   0.687  0.2068  2.8147 -0.3221
 3193TIP3    H2 9586   1.338   3.092   0.768 -0.2675  0.2741 -0.1622
 3194TIP3   OH2 9587   2.170   2.521   3.082  0.2153  0.2050 -0.9485
 3194TIP3    H1 9588   2.117   2.451   3.043 -1.3227  0.9098 -0.1803
 3194TIP3    H2 9589   2.244   2.475   3.122 -1.0714 -1.0867  0.0647
 3195TIP3   OH2 9590   2.290   3.416   5.136  0.6344 -0.0526 -0.4523
 3195TIP3    H1 9591   2.291   3.333   5.088  1.2534  0.6512 -1.7280
 3195TIP3    H2 9592   2.311   3.392   5.226  1.8719 -1.1750 -0.9981
 3196TIP3   OH2 9593   0.588   0.951   1.520 -0.1013 -0.0158  0.2080
 3196TIP3    H1 9594   0.619   1.041   1.511  0.0031  0.0831  1.3967
 3196TIP3    H2 9595   0.661   0.897   1.492 -0.2923  0.2590 -0.8685
 3197TIP3   OH2 9596   0.426   2.934   1.527  0.1445 -0.0213  0.1271
 3197TIP3    H1 9597   0.422   2.843   1.556 -2.3335 -0.6218 -1.7757
 3197TIP3    H2 9598   0.335   2.963   1.525  0.7746  2.0613 -0.6247
 3198TIP3   OH2 9599   0.444   2.039   2.259 -0.0569 -0.2300  0.1926
 3198TIP3    H1 9600   0.460   2.133   2.251 -0.3584 -0.0218  1.7300
 3198TIP3    H2 9601   0.424   2.026   2.351 -1.4840 -1.5953 -0.2691
 3199TIP3   OH2 9602   1.582   4.723   2.829  0.2166 -0.0402 -0.4740
 3199TIP3    H1 9603   1.532   4.676   2.762  0.1563 -0.1593 -0.3449
 3199TIP3    H2 9604   1.515   4.759   2.888  0.2364  0.6749 -0.8827
 3200TIP3   OH2 9605   3.169   5.843   4.306  0.2704  0.3444 -0.2633
 3200TIP3    H1 9606   3.200   5.892   4.230  0.0243  0.4684 -0.2868
 3200TIP3    H2 9607   3.118   5.771   4.269  1.1736 -0.3219 -0.2477
 3201TIP3   OH2 9608   4.996   2.638   5.168 -0.6160 -0.2375  0.3798
 3201TIP3    H1 9609   4.983   2.684   5.086 -0.9777 -0.6764  0.1850
 3201TIP3    H2 9610   5.085   2.603   5.162  0.3774  1.9894  1.3254
 3202TIP3   OH2 9611   0.760   2.738   4.539 -0.4827 -0.2908  0.8363
 3202TIP3    H1 9612   0.724   2.703   4.620  1.4134 -1.1359  1.3604
 3202TIP3    H2 9613   0.851   2.711   4.539 -0.1498  0.6372 -1.0649
 3203TIP3   OH2 9614   2.622   1.796   1.367  0.1552  0.2204 -0.6524
 3203TIP3    H1 9615   2.586   1.880   1.396  0.7815  0.6327 -1.0532
 3203TIP3    H2 9616   2.714   1.799   1.394 -0.0948 -0.8613  0.4433
 3204TIP3   OH2 9617   3.731   4.322   4.463 -0.3343  0.0193  0.4113
 3204TIP3    H1 9618   3.811   4.371   4.445 -0.4310 -0.6109 -2.0178
 3204TIP3    H2 9619   3.660   4.386   4.455 -0.2183  0.1950  0.7598
 3205TIP3   OH2 9620   3.734   3.183   2.092  0.5485  0.2826  0.0379
 3205TIP3    H1 9621   3.670   3.111   2.090  1.3384 -0.4376 -0.1958
 3205TIP3    H2 9622   3.682   3.261   2.074 -0.6282  0.0208  1.9405
 3206TIP3   OH2 9623   3.301   0.379   1.096  0.1617 -0.0110 -0.4271
 3206TIP3    H1 9624   3.307   0.294   1.140  1.3019 -0.5120 -1.4794
 3206TIP3    H2 9625   3.219   0.417   1.127 -1.6818 -2.5779 -1.8223
 3207TIP3   OH2 9626   0.823   4.379   2.685 -0.0066  0.6996 -0.0226
 3207TIP3    H1 9627   0.751   4.398   2.625  0.7049 -0.1385 -1.1771
 3207TIP3    H2 9628   0.825   4.454   2.745 -0.1494  2.0230 -1.6150
 3208TIP3   OH2 9629   4.542   2.087   4.322 -0.0740  0.8936 -0.0582
 3208TIP3    H1 9630   4.549   1.996   4.353  0.4073  0.6847 -0.7517
 3208TIP3    H2 9631   4.473   2.125   4.376 -0.4006  0.0646  0.1326
 3209TIP3   OH2 9632   3.851   4.023   0.018  0.1567 -0.6655 -0.5658
 3209TIP3    H1 9633   3.885   3.943  -0.023  1.0685 -1.6672  1.8818
 3209TIP3    H2 9634   3.768   3.996   0.056  0.1354 -0.2598 -0.3231
 3210TIP3   OH2 9635   3.191   4.737   3.138  0.0143 -0.3253  0.5533
 3210TIP3    H1 9636   3.164   4.819   3.181  0.8960 -0.0882  0.6704
 3210TIP3    H2 9637   3.113   4.708   3.091 -0.8061 -0.2758  1.8249
 3211TIP3   OH2 9638   4.214   2.979   4.817  0.4462  0.6530 -0.1468
 3211TIP3    H1 9639   4.276   3.044   4.850 -0.0974  1.2828 -0.3411
 3211TIP3    H2 9640   4.266   2.923   4.760  0.9312  0.8796  0.0662
 3212TIP3   OH2 9641   6.022   0.569   2.313 -0.0691  0.4242 -0.1030
 3212TIP3    H1 9642   6.049   0.477   2.316 -1.4345  0.0358  0.8665
 3212TIP3    H2 9643   5.928   0.566   2.296 -0.2043  1.6267  0.3519
 3213TIP3   OH2 9644   1.457   4.244   2.294 -0.6408  0.2213  0.0655
 3213TIP3    H1 9645   1.546   4.218   2.270 -0.3907  0.7031  0.4269
 3213TIP3    H2 9646   1.450   4.334   2.263 -0.5553  0.6125  1.1153
 3214TIP3   OH2 9647   4.406   0.759   2.047  0.9605  0.1800  0.5016
 3214TIP3    H1 9648   4.465   0.688   2.025  0.4792 -1.0484  2.8425
 3214TIP3    H2 9649   4.425   0.779   2.139 -3.3028 -1.4805  1.9980
 3215TIP3   OH2 9650   0.990   5.647   0.655  0.4261  0.2538 -0.1261
 3215TIP3    H1 9651   0.938   5.570   0.637 -0.5752 -0.1574  3.5916
 3215TIP3    H2 9652   1.080   5.614   0.663  0.1680 -0.3524  0.3533
 3216TIP3   OH2 9653   0.010   0.719   3.713 -0.0193 -0.4703 -0.2216
 3216TIP3    H1 9654   0.011   0.761   3.799 -1.2832  0.3003 -0.5615
 3216TIP3    H2 9655   0.093   0.670   3.709 -0.6815 -1.9093  2.0895
 3217TIP3   OH2 9656   2.785   3.715   1.351 -0.1801  0.2054  0.5532
 3217TIP3    H1 9657   2.742   3.675   1.276 -1.0837 -0.1793  1.2627
 3217TIP3    H2 9658   2.876   3.684   1.345 -0.6308 -1.2209  0.5560
 3218TIP3   OH2 9659   1.138   3.572   2.545  0.4180  0.4994 -0.0622
 3218TIP3    H1 9660   1.095   3.490   2.520 -0.0803  0.2176  1.6134
 3218TIP3    H2 9661   1.068   3.624   2.585  1.2440  0.7546  1.0891
 3219TIP3   OH2 9662   2.414   0.133   2.338 -0.4175  0.0201  0.4001
 3219TIP3    H1 9663   2.495   0.089   2.363 -0.9885 -1.0393  0.4521
 3219TIP3    H2 9664   2.442   0.209   2.287  0.6076 -0.2258  0.5804
 3220TIP3   OH2 9665   1.105   5.481   2.789  0.2612 -0.1032 -0.5018
 3220TIP3    H1 9666   1.146   5.484   2.876  0.7874  0.3905 -0.7538
 3220TIP3    H2 9667   1.155   5.415   2.741 -1.4788 -2.0676  0.2518
 3221TIP3   OH2 9668   3.438   3.827   4.750  0.4044 -0.6632  0.6566
 3221TIP3    H1 9669   3.526   3.850   4.781  0.4964 -1.2608  0.8438
 3221TIP3    H2 9670   3.381   3.894   4.788  0.7075 -0.5888  0.9849
 3222TIP3   OH2 9671   2.793   0.396   4.816 -0.3319 -0.0102 -0.0577
 3222TIP3    H1 9672   2.779   0.474   4.869  1.4229 -0.2967  0.9032
 3222TIP3    H2 9673   2.842   0.427   4.740  2.9147 -0.4671  1.6724
 3223TIP3   OH2 9674   4.406   3.649   1.457 -0.5147 -0.0825 -0.1850
 3223TIP3    H1 9675   4.431   3.689   1.541  1.6850 -0.5025 -0.5922
 3223TIP3    H2 9676   4.354   3.716   1.413  1.0839  1.4327  0.1500
 3224TIP3   OH2 9677   1.493   0.145   3.849 -0.2450  0.2629  0.3087
 3224TIP3    H1 9678   1.588   0.148   3.858 -0.0030 -1.7507 -0.9588
 3224TIP3    H2 9679   1.473   0.209   3.781  0.0728  1.2792  1.1378
 3225TIP3   OH2 9680   1.552   1.856   2.876  0.0444 -0.6127 -0.0367
 3225TIP3    H1 9681   1.598   1.863   2.960  0.7741 -0.2783 -0.4570
 3225TIP3    H2 9682   1.595   1.784   2.831  0.4113 -0.0482 -0.5922
 3226TIP3   OH2 9683   0.628   1.041   2.028  0.0115  0.1213  0.1825
 3226TIP3    H1 9684   0.671   1.109   2.079 -0.1965  1.1371 -0.9460
 3226TIP3    H2 9685   0.543   1.028   2.070  0.3210  0.0829  0.7938
 3227TIP3   OH2 9686   0.378   0.063   0.056 -0.0137 -0.0965  0.2008
 3227TIP3    H1 9687   0.429   0.141   0.038  2.0331 -1.2126  0.8053
 3227TIP3    H2 9688   0.396   0.042   0.148  0.7519 -2.0948 -0.3384
 3228TIP3   OH2 9689   3.593   3.160   1.478 -0.4085  0.2532  0.3736
 3228TIP3    H1 9690   3.556   3.073   1.463 -1.0132  0.5485  0.1469
 3228TIP3    H2 9691   3.668   3.164   1.419 -1.1049  0.3436 -0.5206
 3229TIP3   OH2 9692   3.919   3.571   4.765 -0.1528 -0.5435  0.4007
 3229TIP3    H1 9693   3.872   3.517   4.702  1.0167  0.3146 -1.3146
 3229TIP3    H2 9694   3.904   3.661   4.734  0.9381 -0.1421  0.9819
 3230TIP3   OH2 9695   6.329   2.198   4.124 -0.2278  0.1753  0.1247
 3230TIP3    H1 9696   6.286   2.266   4.176  0.3148  1.1853 -0.7084
 3230TIP3    H2 9697   6.283   2.117   4.148 -0.0920  0.6077  2.0444
 3231TIP3   OH2 9698   4.061   5.154   3.075 -0.2157 -0.1176 -0.1545
 3231TIP3    H1 9699   3.996   5.181   3.009 -0.9981 -0.5095  0.4344
 3231TIP3    H2 9700   4.048   5.059   3.083  0.3116 -0.1696  0.1068
 3232TIP3   OH2 9701   0.593   1.554   5.110  0.1747 -0.0897  0.3973
 3232TIP3    H1 9702   0.620   1.568   5.201 -2.1587  0.1541  1.1054
 3232TIP3    H2 9703   0.632   1.627   5.062 -0.4352  1.0911  1.6204
 3233TIP3   OH2 9704   5.787   4.363   0.932 -0.4023 -0.1276  0.4946
 3233TIP3    H1 9705   5.777   4.445   0.981 -2.2448 -0.7209  1.1848
 3233TIP3    H2 9706   5.775   4.295   0.998 -1.9431 -0.9442 -0.5721
 3234TIP3   OH2 9707   2.198   5.533   0.016  0.1842  0.1294 -0.0594
 3234TIP3    H1 9708   2.254   5.586   0.073 -0.0660  1.8952 -1.3657
 3234TIP3    H2 9709   2.216   5.566  -0.072 -0.2114 -1.8006 -0.9103
 3235TIP3   OH2 9710   2.408   5.125   1.502  0.0833  0.1878 -0.2438
 3235TIP3    H1 9711   2.414   5.112   1.407 -0.2751  0.5936 -0.3276
 3235TIP3    H2 9712   2.469   5.196   1.520 -0.4033  0.6298 -0.2920
 3236TIP3   OH2 9713   0.962   2.190   3.950  0.2819  0.8246  0.2591
 3236TIP3    H1 9714   0.986   2.120   4.011  1.4004  0.9754  0.0171
 3236TIP3    H2 9715   0.918   2.145   3.878  3.4226 -0.0962 -1.2693
 3237TIP3   OH2 9716   0.277   5.963   4.123  0.3755 -0.0371  0.3454
 3237TIP3    H1 9717   0.221   6.017   4.066  0.3430 -0.1019  0.3162
 3237TIP3    H2 9718   0.329   5.910   4.063 -0.1026 -0.5588  0.3838
 3238TIP3   OH2 9719   4.160   4.920   0.586  0.3267 -0.7009  0.0792
 3238TIP3    H1 9720   4.224   4.978   0.628  0.7838 -0.9058 -0.3372
 3238TIP3    H2 9721   4.159   4.947   0.495 -0.6392 -0.2867  0.1995
 3239TIP3   OH2 9722   5.233   4.559   2.150 -0.3938 -0.4559  0.5744
 3239TIP3    H1 9723   5.230   4.575   2.056 -0.5913 -0.8909  0.5036
 3239TIP3    H2 9724   5.327   4.554   2.170 -0.3426 -0.0072  0.4680
 3240TIP3   OH2 9725   0.474   3.422   0.855  0.9354  0.3250 -0.0534
 3240TIP3    H1 9726   0.473   3.337   0.899 -2.7552 -0.0494 -0.5317
 3240TIP3    H2 9727   0.487   3.401   0.763  0.0713  0.2509 -0.1655
 3241TIP3   OH2 9728   1.715   1.290   4.672  0.3774  0.1506 -0.0101
 3241TIP3    H1 9729   1.710   1.194   4.678 -1.2343  0.2579  0.9450
 3241TIP3    H2 9730   1.756   1.317   4.754  1.2669  0.2688 -0.4837
 3242TIP3   OH2 9731   3.954   0.295   2.447  0.4411  0.0716 -0.2574
 3242TIP3    H1 9732   3.866   0.333   2.449  0.3521 -0.0386  2.5521
 3242TIP3    H2 9733   4.012   0.371   2.452  0.6653  0.2388 -3.4276
 3243TIP3   OH2 9734   3.053   5.948   3.655 -0.1561  0.5326  0.1067
 3243TIP3    H1 9735   3.035   5.869   3.604 -1.6928  0.4236  0.7733
 3243TIP3    H2 9736   3.085   6.011   3.590  2.6097 -1.0440 -0.2076
 3244TIP3   OH2 9737   3.579   2.420   4.538  0.2168 -0.1672  0.6329
 3244TIP3    H1 9738   3.554   2.490   4.479 -1.8082 -0.0523  1.5168
 3244TIP3    H2 9739   3.611   2.350   4.481 -0.0453  0.5750 -0.4551
 3245TIP3   OH2 9740   4.748   1.692   1.877  0.3281  0.4111  0.4492
 3245TIP3    H1 9741   4.680   1.669   1.941  1.3150  0.3714  1.5192
 3245TIP3    H2 9742   4.704   1.687   1.792 -1.3667  1.6823  1.1864
 3246TIP3   OH2 9743   4.430   0.224   4.757 -0.0150 -0.0568  0.0384
 3246TIP3    H1 9744   4.503   0.161   4.759  1.1028  1.1367 -1.1416
 3246TIP3    H2 9745   4.454   0.287   4.689 -2.0194  0.5705 -0.1656
 3247TIP3   OH2 9746   4.469   1.296   4.864 -0.2658 -0.7345  0.4062
 3247TIP3    H1 9747   4.544   1.311   4.807  0.5116 -2.1556  0.9949
 3247TIP3    H2 9748   4.429   1.383   4.876 -0.3174 -0.3466 -2.0490
 3248TIP3   OH2 9749   3.364   4.182   4.277 -0.0603 -0.4277  0.4231
 3248TIP3    H1 9750   3.277   4.154   4.306 -0.5258  0.9462  0.4524
 3248TIP3    H2 9751   3.401   4.105   4.234 -0.6850 -1.4908  1.7018
 3249TIP3   OH2 9752   4.512   4.090   0.498 -0.0187 -0.0302  0.2648
 3249TIP3    H1 9753   4.561   4.010   0.513  0.9232  0.2644 -1.0048
 3249TIP3    H2 9754   4.425   4.061   0.472  1.0923 -0.8692 -3.1637
 3250TIP3   OH2 9755   1.057   3.081   0.983 -0.2003 -0.0953  0.5432
 3250TIP3    H1 9756   1.063   3.061   0.889  0.4778  0.7539  0.3910
 3250TIP3    H2 9757   1.034   2.997   1.024 -0.1688 -0.5516 -0.3420
 3251TIP3   OH2 9758   5.122   0.402   2.079 -0.1042 -0.1394 -0.1203
 3251TIP3    H1 9759   5.183   0.330   2.093 -1.7775 -1.3566  1.2067
 3251TIP3    H2 9760   5.036   0.361   2.074 -1.0625  1.7174  0.1621
 3252TIP3   OH2 9761   0.856   2.009   0.722  0.2680 -0.5849  0.2058
 3252TIP3    H1 9762   0.882   2.093   0.685 -0.2680 -0.3396  0.3781
 3252TIP3    H2 9763   0.829   1.956   0.647  1.2696 -0.8503  0.0234
 3253TIP3   OH2 9764   3.248   4.709   2.862  0.5106 -0.3587 -0.0725
 3253TIP3    H1 9765   3.223   4.737   2.950  0.2905 -0.4582 -0.1028
 3253TIP3    H2 9766   3.297   4.629   2.876  0.6656 -0.2554 -0.0248
 3254TIP3   OH2 9767   1.279   5.075   3.956 -0.2307 -0.3981  0.6164
 3254TIP3    H1 9768   1.266   4.990   3.997 -0.8838 -0.3199  0.5776
 3254TIP3    H2 9769   1.211   5.081   3.889 -0.7037  0.4856  1.1557
 3255TIP3   OH2 9770   3.803   1.242   4.936 -0.7678 -0.0897 -0.1945
 3255TIP3    H1 9771   3.793   1.238   5.031 -2.2298  3.5066 -0.0664
 3255TIP3    H2 9772   3.896   1.220   4.921  0.2044  1.7976  2.3508
 3256TIP3   OH2 9773   2.155   4.147   3.874  0.1436  0.1177  0.3976
 3256TIP3    H1 9774   2.060   4.154   3.872  0.1487  0.1076  0.1516
 3256TIP3    H2 9775   2.185   4.238   3.880  0.1581  0.2158 -1.0140
 3257TIP3   OH2 9776   1.884   2.318   4.155  0.1921 -0.1206 -0.4107
 3257TIP3    H1 9777   1.815   2.253   4.167 -0.5227  0.9250  1.6454
 3257TIP3    H2 9778   1.866   2.356   4.069 -0.8692 -0.9050 -0.5575
 3258TIP3   OH2 9779   6.072   0.453   1.977 -0.3588 -0.0062 -0.1248
 3258TIP3    H1 9780   6.120   0.377   1.943 -0.2095 -0.0227  0.1181
 3258TIP3    H2 9781   5.992   0.416   2.015 -1.2819  0.1643 -1.8229
 3259TIP3   OH2 9782   1.381   1.078   1.615  0.3679  0.1289  0.1122
 3259TIP3    H1 9783   1.290   1.093   1.589 -0.2265 -0.3316  1.7439
 3259TIP3    H2 9784   1.392   0.983   1.612 -0.2129 -0.1182  2.7505
 3260TIP3   OH2 9785   1.647   4.841   4.824  0.3139  0.0086 -0.8507
 3260TIP3    H1 9786   1.701   4.906   4.868 -1.2643  1.4626 -0.9386
 3260TIP3    H2 9787   1.566   4.839   4.875  0.3155 -1.8892 -0.8790
 3261TIP3   OH2 9788   5.573   3.091   4.729 -0.3384 -0.4302  0.4083
 3261TIP3    H1 9789   5.588   3.072   4.636 -0.5091  0.8413  0.0921
 3261TIP3    H2 9790   5.553   3.007   4.768  0.4056 -1.0930 -0.5801
 3262TIP3   OH2 9791   3.155   1.789   5.084  0.5653 -0.3921  0.1183
 3262TIP3    H1 9792   3.085   1.731   5.053  0.3809 -0.4052  0.5394
 3262TIP3    H2 9793   3.184   1.837   5.006 -0.4472  0.1690  0.0643
 3263TIP3   OH2 9794   2.160   4.547   3.339  0.1012  0.3755  1.0105
 3263TIP3    H1 9795   2.181   4.501   3.420 -0.5590  1.3767  1.7803
 3263TIP3    H2 9796   2.065   4.556   3.339  0.2101  1.8214  0.9629
 3264TIP3   OH2 9797   2.078   2.521   2.750  0.0833  0.3368 -0.0593
 3264TIP3    H1 9798   2.028   2.464   2.807  1.0648 -0.5352 -0.0370
 3264TIP3    H2 9799   2.037   2.512   2.664  0.1215 -0.2796 -0.0163
 3265TIP3   OH2 9800   0.582   0.635   3.820 -0.6820 -0.0070  0.1656
 3265TIP3    H1 9801   0.627   0.717   3.798  0.6875 -0.9719 -0.7437
 3265TIP3    H2 9802   0.619   0.610   3.905  0.2292 -0.5970 -0.3976
 3266TIP3   OH2 9803   4.749   5.128   1.676 -0.3040 -0.7405  0.8343
 3266TIP3    H1 9804   4.713   5.216   1.685  3.0050  0.5472  3.0938
 3266TIP3    H2 9805   4.692   5.073   1.731 -1.2135  0.3318  0.9929
 3267TIP3   OH2 9806   3.354   4.937   3.335 -0.2314 -0.2088 -0.3760
 3267TIP3    H1 9807   3.389   4.902   3.252 -0.1757 -2.0094  0.3618
 3267TIP3    H2 9808   3.430   4.977   3.378 -0.0454 -0.1495 -0.7549
 3268TIP3   OH2 9809   4.008   4.686   3.218 -0.1870  0.1233 -0.1235
 3268TIP3    H1 9810   4.002   4.591   3.221  3.2121 -0.3640 -2.5593
 3268TIP3    H2 9811   4.026   4.711   3.309 -1.7342 -1.4302  0.6654
 3269TIP3   OH2 9812   5.222   4.916   0.615 -0.1362  0.4752 -0.4318
 3269TIP3    H1 9813   5.164   4.860   0.563  1.2041 -2.7004  1.2798
 3269TIP3    H2 9814   5.171   4.937   0.693  0.7580 -2.1060  0.9525
 3270TIP3   OH2 9815   5.356   2.304   3.613  0.2934  0.0064  0.0121
 3270TIP3    H1 9816   5.397   2.256   3.685  0.1856  1.4774  1.0883
 3270TIP3    H2 9817   5.264   2.312   3.638  0.3836  1.0906  0.0336
 3271TIP3   OH2 9818   0.798   3.837   1.879  0.5909 -0.0226 -0.1084
 3271TIP3    H1 9819   0.755   3.861   1.961  0.2347  0.0653 -0.3213
 3271TIP3    H2 9820   0.890   3.857   1.894  0.5798 -0.3298  0.3933
 3272TIP3   OH2 9821   2.621   3.849   3.353  0.5060 -0.1922  0.0220
 3272TIP3    H1 9822   2.690   3.910   3.326  0.3224 -0.5125 -1.2072
 3272TIP3    H2 9823   2.558   3.850   3.281 -0.7154 -0.0228  1.0629
 3273TIP3   OH2 9824   2.791   2.610   4.408 -0.4551  0.0944  0.2794
 3273TIP3    H1 9825   2.875   2.584   4.446  0.3239  0.1552 -1.3136
 3273TIP3    H2 9826   2.810   2.621   4.315 -1.6365  2.6481  0.2741
 3274TIP3   OH2 9827   1.117   1.479   0.079  0.0447 -0.5143  0.0749
 3274TIP3    H1 9828   1.213   1.474   0.081  0.3856  1.9039 -2.7849
 3274TIP3    H2 9829   1.089   1.391   0.056  1.7918 -0.7702 -1.3088
 3275TIP3   OH2 9830   2.173   1.613   0.658  0.2844 -0.7553  0.0583
 3275TIP3    H1 9831   2.250   1.557   0.651  0.6211 -0.1387 -1.9581
 3275TIP3    H2 9832   2.138   1.616   0.569 -2.0130 -0.9025  0.8911
 3276TIP3   OH2 9833   5.966   1.542   4.322 -0.5279  0.0903 -0.1448
 3276TIP3    H1 9834   5.937   1.525   4.412  0.5382  1.1687  0.4341
 3276TIP3    H2 9835   6.025   1.617   4.330  0.8553 -0.7981 -1.5360
 3277TIP3   OH2 9836   2.703   4.339   1.492 -0.9272  0.0323  0.1694
 3277TIP3    H1 9837   2.704   4.273   1.562 -3.7573  0.6540  0.9314
 3277TIP3    H2 9838   2.636   4.309   1.431  0.0646  0.5592 -1.2313
 3278TIP3   OH2 9839   5.465   1.993   0.096 -0.5501 -0.0555 -0.0382
 3278TIP3    H1 9840   5.441   2.046   0.020 -1.3070  0.3695  0.4806
 3278TIP3    H2 9841   5.501   2.056   0.158 -0.3724 -0.3315  0.1414
 3279TIP3   OH2 9842   3.418   0.655   1.877  0.2661  0.1262  0.2862
 3279TIP3    H1 9843   3.441   0.647   1.969 -0.1435 -1.3105  0.2890
 3279TIP3    H2 9844   3.413   0.564   1.846 -1.5255  0.5112 -0.6622
 3280TIP3   OH2 9845   3.802   2.602   3.311  0.3707  0.0886  0.4082
 3280TIP3    H1 9846   3.851   2.667   3.361 -1.2365  1.0837  0.7898
 3280TIP3    H2 9847   3.868   2.551   3.264  1.8247  0.3429  2.0909
 3281TIP3   OH2 9848   1.535   2.290   0.274 -0.3187 -0.1543 -0.0663
 3281TIP3    H1 9849   1.533   2.308   0.368 -0.4843 -0.4560 -0.0099
 3281TIP3    H2 9850   1.522   2.375   0.233  1.0054  0.1824  0.1688
 3282TIP3   OH2 9851   5.294   5.044   2.890 -0.0201  0.2563 -0.2058
 3282TIP3    H1 9852   5.297   5.035   2.985  0.3295  0.9079 -0.1481
 3282TIP3    H2 9853   5.385   5.029   2.862 -0.5745 -2.9006 -0.7508
 3283TIP3   OH2 9854   0.257   3.811   1.464 -0.4248 -0.4834 -0.1012
 3283TIP3    H1 9855   0.269   3.788   1.372 -0.6859  0.5930 -0.4196
 3283TIP3    H2 9856   0.175   3.769   1.490  0.2332 -1.7467 -0.0188
 3284TIP3   OH2 9857   4.545   2.766   1.844  0.1108 -0.1278 -0.7096
 3284TIP3    H1 9858   4.536   2.810   1.759  0.0186 -0.6392 -0.9711
 3284TIP3    H2 9859   4.639   2.756   1.856  0.1619  0.7035 -0.3482
 3285TIP3   OH2 9860   2.285   2.814   1.345 -0.5857 -0.5287  0.0219
 3285TIP3    H1 9861   2.355   2.752   1.324  0.6233  1.0797 -0.9312
 3285TIP3    H2 9862   2.279   2.812   1.440  1.0655 -0.4329  0.1631
 3286TIP3   OH2 9863   1.623   2.853   4.945  0.1657 -0.4969  0.4526
 3286TIP3    H1 9864   1.533   2.846   4.979 -0.4411 -2.0375 -1.3081
 3286TIP3    H2 9865   1.678   2.846   5.023 -1.2269 -0.6576  1.4677
 3287TIP3   OH2 9866   5.964   3.178   5.136 -0.1592  0.3041 -0.4241
 3287TIP3    H1 9867   5.924   3.157   5.051 -0.7450  0.8277 -0.2802
 3287TIP3    H2 9868   5.932   3.265   5.157  1.7079  1.1095 -0.6929
 3288TIP3   OH2 9869   2.372   4.731   1.704 -0.4522  0.5639 -0.1227
 3288TIP3    H1 9870   2.411   4.665   1.647 -0.6875  1.2328 -1.0841
 3288TIP3    H2 9871   2.435   4.742   1.775 -0.2632 -0.4595 -0.1110
 3289TIP3   OH2 9872   1.820   2.197   2.802 -0.3566  0.2213  0.1875
 3289TIP3    H1 9873   1.737   2.242   2.821 -0.8316 -0.9475  0.9498
 3289TIP3    H2 9874   1.818   2.182   2.708 -0.4212  1.3239 -0.0015
 3290TIP3   OH2 9875   3.518   2.648   1.964 -0.1612 -0.1056 -0.1268
 3290TIP3    H1 9876   3.602   2.669   2.004  0.7707  0.0499 -2.0406
 3290TIP3    H2 9877   3.486   2.731   1.929 -0.5469 -0.3632 -0.4049
 3291TIP3   OH2 9878   5.407   4.484   4.643 -0.7543 -0.3079 -0.4978
 3291TIP3    H1 9879   5.490   4.520   4.673 -0.4647 -1.1038 -0.3207
 3291TIP3    H2 9880   5.389   4.530   4.560  0.5680 -1.1206 -1.2667
 3292TIP3   OH2 9881   2.551   5.209   3.912  0.1790 -0.2049 -0.3491
 3292TIP3    H1 9882   2.527   5.136   3.968 -1.3486  0.9893  0.6362
 3292TIP3    H2 9883   2.646   5.216   3.922  0.0920 -0.7658  1.1683
 3293TIP3   OH2 9884   0.816   4.661   4.592 -0.3106 -0.1622 -0.1440
 3293TIP3    H1 9885   0.807   4.755   4.579  1.1498 -0.1945 -1.7683
 3293TIP3    H2 9886   0.809   4.649   4.687  0.1844  1.6611  0.1595
 3294TIP3   OH2 9887   5.496   2.324   4.611 -0.0063 -0.2168 -0.3456
 3294TIP3    H1 9888   5.457   2.315   4.524  0.7755 -0.1013 -0.7163
 3294TIP3    H2 9889   5.523   2.236   4.636  1.9768  0.0695 -1.2877
 3295TIP3   OH2 9890   1.376   2.083   1.394 -0.2897  0.2814  0.4202
 3295TIP3    H1 9891   1.351   2.114   1.481  0.6893  0.6523  0.5762
 3295TIP3    H2 9892   1.337   1.996   1.388 -1.1793  0.6309  0.8449
 3296TIP3   OH2 9893   2.234   1.902   0.537 -0.0866  0.3621  0.2707
 3296TIP3    H1 9894   2.308   1.947   0.578  0.3803  0.5005 -0.6948
 3296TIP3    H2 9895   2.268   1.816   0.511 -0.1442  0.5562 -0.4933
 3297TIP3   OH2 9896   2.016   4.233   3.580  0.4153  0.0900  0.8346
 3297TIP3    H1 9897   2.030   4.160   3.520  0.3314  0.8010 -0.0891
 3297TIP3    H2 9898   1.982   4.193   3.660  3.8634 -1.2950  1.7668
 3298TIP3   OH2 9899   4.934   1.516   0.775  0.5027  0.1407  0.4951
 3298TIP3    H1 9900   4.955   1.524   0.868 -1.2252 -1.4619  1.0831
 3298TIP3    H2 9901   5.001   1.457   0.740 -0.3753 -1.4604  1.3794
 3299TIP3   OH2 9902   4.095   5.373   0.592  0.1934  0.5129 -0.3269
 3299TIP3    H1 9903   4.025   5.435   0.614  1.1470  1.5911 -0.2100
 3299TIP3    H2 9904   4.110   5.386   0.498 -1.4749 -1.5680 -0.9528
 3300TIP3   OH2 9905   3.300   5.489   3.333 -0.3967 -0.1949  0.0715
 3300TIP3    H1 9906   3.229   5.510   3.273 -0.0732 -0.2308 -0.3328
 3300TIP3    H2 9907   3.312   5.394   3.325  0.5555 -0.0263 -0.8654
 3301TIP3   OH2 9908   3.410   4.183   3.197 -0.1604  0.2572 -0.3515
 3301TIP3    H1 9909   3.395   4.271   3.162 -1.0789 -0.6778 -2.5425
 3301TIP3    H2 9910   3.405   4.193   3.292  2.4970  2.9987 -0.3768
 3302TIP3   OH2 9911   5.766   1.756   3.652 -0.3826 -0.4601 -0.4669
 3302TIP3    H1 9912   5.750   1.739   3.745 -0.4760  1.4408 -0.1124
 3302TIP3    H2 9913   5.842   1.702   3.631 -0.8503 -1.5480  0.4808
 3303TIP3   OH2 9914   3.659   0.752   0.665 -0.2288 -0.5442  0.2106
 3303TIP3    H1 9915   3.697   0.763   0.578 -0.1913 -0.9151  0.1786
 3303TIP3    H2 9916   3.570   0.787   0.657  0.8794  2.7954  0.9633
 3304TIP3   OH2 9917   3.921   1.153   4.138 -0.3182 -0.5931 -0.1330
 3304TIP3    H1 9918   3.966   1.081   4.183  1.6405  0.3778 -0.4140
 3304TIP3    H2 9919   3.855   1.111   4.083  0.4901 -2.1328  0.0355
 3305TIP3   OH2 9920   5.524   3.170   4.456  0.0393 -0.4680  0.7110
 3305TIP3    H1 9921   5.613   3.137   4.449 -0.5489 -2.0303  0.0592
 3305TIP3    H2 9922   5.476   3.101   4.502 -0.7135  0.6359  1.6659
 3306TIP3   OH2 9923   1.429   3.253   0.458 -0.1761 -0.1809 -0.2465
 3306TIP3    H1 9924   1.386   3.211   0.383  0.3250 -0.1970 -0.5371
 3306TIP3    H2 9925   1.382   3.222   0.534 -0.6194 -0.2630 -0.5515
 3307TIP3   OH2 9926   1.093   3.606   3.296  0.0319 -0.0814  0.6610
 3307TIP3    H1 9927   1.036   3.646   3.230  1.1408 -0.7759 -0.7679
 3307TIP3    H2 9928   1.071   3.513   3.292  1.3832 -0.3980 -0.0897
 3308TIP3   OH2 9929   1.513   5.151   2.175  0.1336  0.4630  0.5295
 3308TIP3    H1 9930   1.546   5.062   2.183 -0.3852  0.0917 -1.1558
 3308TIP3    H2 9931   1.447   5.159   2.244 -0.1355 -0.6107  0.4037
 3309TIP3   OH2 9932   6.243   1.988   0.534 -0.2516 -0.6198  0.3843
 3309TIP3    H1 9933   6.191   2.015   0.458  0.3426  0.6440  0.4047
 3309TIP3    H2 9934   6.280   1.904   0.508  0.1401 -0.0916 -0.8337
 3310TIP3   OH2 9935   4.724   5.902   2.068 -0.0242  0.0528  0.1295
 3310TIP3    H1 9936   4.757   5.992   2.066 -1.6560  0.8232  2.6253
 3310TIP3    H2 9937   4.799   5.848   2.043  1.8230  1.9364  1.2778
 3311TIP3   OH2 9938   4.870   1.141   0.794  0.0563 -0.3080  0.3033
 3311TIP3    H1 9939   4.832   1.214   0.844  2.3175  1.4326 -0.3799
 3311TIP3    H2 9940   4.858   1.065   0.851 -0.8448  0.8888  1.8081
 3312TIP3   OH2 9941   2.980   5.254   2.727  0.9714 -0.4263  0.3094
 3312TIP3    H1 9942   3.008   5.163   2.722  2.2519 -0.0500  0.1835
 3312TIP3    H2 9943   3.037   5.293   2.793  0.0181  0.1522  0.8094
 3313TIP3   OH2 9944   2.229   4.762   0.157 -0.3958 -0.4149 -0.7051
 3313TIP3    H1 9945   2.248   4.668   0.166  0.8343 -0.3459 -2.2480
 3313TIP3    H2 9946   2.236   4.796   0.246 -0.6003 -1.7390 -0.1579
 3314TIP3   OH2 9947   0.535   2.133   4.630  0.4783 -0.3104  0.2131
 3314TIP3    H1 9948   0.532   2.214   4.580  0.1726 -0.9631 -0.8654
 3314TIP3    H2 9949   0.535   2.161   4.722  2.2557  0.9771 -0.1138
 3315TIP3   OH2 9950   6.089   5.115   3.210  0.0147 -0.4039  0.5521
 3315TIP3    H1 9951   6.110   5.032   3.167 -0.3730 -0.6097  0.7454
 3315TIP3    H2 9952   6.164   5.172   3.193  0.6567 -1.0614  1.0986
 3316TIP3   OH2 9953   4.451   0.692   3.444 -0.0796 -0.0195 -0.7145
 3316TIP3    H1 9954   4.408   0.777   3.439  0.5063  0.3169 -0.0177
 3316TIP3    H2 9955   4.460   0.665   3.352  0.1743  0.8898 -0.9676
 3317TIP3   OH2 9956   4.888   5.731   0.334  0.0195  0.0311  0.5921
 3317TIP3    H1 9957   4.917   5.759   0.247 -2.2124  0.8936  0.0671
 3317TIP3    H2 9958   4.896   5.635   0.332 -1.0769 -0.0699 -1.0166
 3318TIP3   OH2 9959   0.418   3.880   1.153  0.6349 -0.1078 -0.9648
 3318TIP3    H1 9960   0.408   3.841   1.066 -0.8595 -0.4931 -0.6382
 3318TIP3    H2 9961   0.362   3.957   1.151  0.4850 -0.1955 -0.2986
 3319TIP3   OH2 9962   5.717   1.366   3.721  0.1939  0.3131 -0.6009
 3319TIP3    H1 9963   5.643   1.330   3.672 -1.0194  1.6241  0.1888
 3319TIP3    H2 9964   5.790   1.362   3.660 -0.6370 -0.5933 -1.5716
 3320TIP3   OH2 9965   4.375   4.287   3.186  0.2990  0.1898 -0.3139
 3320TIP3    H1 9966   4.297   4.251   3.145  0.7516 -1.0219 -0.1732
 3320TIP3    H2 9967   4.383   4.237   3.268  0.3122  1.4322  0.4639
 3321TIP3   OH2 9968   0.315   5.906   0.748 -0.3583  0.1814  0.3478
 3321TIP3    H1 9969   0.339   5.991   0.785 -0.4065  0.4317 -0.1817
 3321TIP3    H2 9970   0.397   5.856   0.750 -0.3897  0.1410  0.9079
 3322TIP3   OH2 9971   6.146   2.012   2.506  0.2931 -0.2682  0.3353
 3322TIP3    H1 9972   6.131   2.017   2.600  0.9752  0.8872  0.4057
 3322TIP3    H2 9973   6.210   1.942   2.495  1.7988  0.9463  0.9731
 3323TIP3   OH2 9974   4.598   5.493   3.603 -0.0234 -0.5639 -0.2363
 3323TIP3    H1 9975   4.587   5.587   3.585  1.5320 -0.2383  0.3586
 3323TIP3    H2 9976   4.645   5.490   3.686  2.7564 -1.7755 -1.7216
 3324TIP3   OH2 9977   4.910   4.293   2.408 -0.2523  0.1261  0.3815
 3324TIP3    H1 9978   4.999   4.321   2.388 -0.5411  0.4872 -0.4471
 3324TIP3    H2 9979   4.918   4.242   2.488  0.6452  0.4768  0.5242
 3325TIP3   OH2 9980   4.968   3.203   1.167 -0.1002  0.1826 -0.2601
 3325TIP3    H1 9981   5.020   3.219   1.089  0.5922  0.7303  0.3018
 3325TIP3    H2 9982   5.027   3.156   1.226 -0.6220 -0.2448 -0.0619
 3326TIP3   OH2 9983   0.451   4.100   4.776  0.2031  0.1385 -0.2426
 3326TIP3    H1 9984   0.436   4.163   4.846 -1.7830 -0.2801 -0.2430
 3326TIP3    H2 9985   0.539   4.120   4.744  0.4182  1.5305  1.1379
 3327TIP3   OH2 9986   6.132   3.309   2.103 -0.3562  0.5483 -0.0685
 3327TIP3    H1 9987   6.173   3.239   2.051  0.3716  1.0299 -0.1505
 3327TIP3    H2 9988   6.185   3.315   2.182 -1.7219 -0.4912  0.9924
 3328TIP3   OH2 9989   0.471   5.298   0.056 -0.5602 -0.0158  0.1783
 3328TIP3    H1 9990   0.424   5.220   0.082 -2.8692  1.1070 -0.3841
 3328TIP3    H2 9991   0.435   5.368   0.110  1.5701  0.7007  0.8017
 3329TIP3   OH2 9992   3.263   0.257   1.676  0.3054  0.1760  0.0256
 3329TIP3    H1 9993   3.191   0.309   1.710 -0.5658  0.5996 -2.3043
 3329TIP3    H2 9994   3.230   0.167   1.675  0.6486  0.0203  1.0079
 3330TIP3   OH2 9995   5.543   2.817   2.400 -0.0865  0.0150  0.2242
 3330TIP3    H1 9996   5.485   2.765   2.343 -0.0071  1.2325 -1.0281
 3330TIP3    H2 9997   5.487   2.886   2.433  0.4690  0.8222 -0.4757
 3331TIP3   OH2 9998   1.246   2.756   2.190 -0.1469  0.0387 -0.1502
 3331TIP3    H1 9999   1.208   2.753   2.102  0.8954  1.4757 -0.6823
 3331TIP3    H210000   1.341   2.757   2.176  0.0560 -0.2830  1.0285
 3332TIP3   OH210001   3.831   1.370   3.416  0.4597  0.1044 -0.4482
 3332TIP3    H110002   3.811   1.383   3.323 -0.2289  0.6884 -0.2270
 3332TIP3    H210003   3.747   1.384   3.461  0.9260  0.4961  0.3248
 3333TIP3   OH210004   5.938   5.830   0.243  0.4626  0.3889 -0.0067
 3333TIP3    H110005   6.022   5.797   0.211  0.1471 -0.5822  0.1285
 3333TIP3    H210006   5.948   5.836   0.338 -0.6091 -2.8767  0.4345
 3334TIP3   OH210007   3.721   0.854   3.117 -0.2592 -0.2835 -0.5356
 3334TIP3    H110008   3.725   0.871   3.023  0.9059  0.2504 -0.4050
 3334TIP3    H210009   3.732   0.760   3.125  0.7025 -0.2095 -0.8841
 3335TIP3   OH210010   2.677   4.692   2.300 -0.1399 -0.4823  0.4754
 3335TIP3    H110011   2.759   4.721   2.339 -1.3955  2.8880  0.9984
 3335TIP3    H210012   2.623   4.664   2.374 -0.3026 -0.2626  0.4431
 3336TIP3   OH210013   0.446   3.673   0.977 -0.5278 -0.3605  0.7353
 3336TIP3    H110014   0.485   3.711   0.899  0.8794 -1.1444  1.0316
 3336TIP3    H210015   0.475   3.582   0.976 -0.8779 -0.4960  1.9239
 3337TIP3   OH210016   1.363   1.835   1.807  0.4178  0.0010  0.1483
 3337TIP3    H110017   1.273   1.862   1.826  1.0792  1.3137  1.6955
 3337TIP3    H210018   1.354   1.751   1.762 -1.5368 -1.0857  2.3606
 3338TIP3   OH210019   5.689   3.597   1.316 -0.1445  0.0524  0.5134
 3338TIP3    H110020   5.602   3.610   1.353 -0.0557  1.6874  0.2442
 3338TIP3    H210021   5.748   3.604   1.391 -0.1787 -0.0771  0.5530
 3339TIP3   OH210022   2.272   0.607   0.740  0.4600 -0.3383 -0.0623
 3339TIP3    H110023   2.322   0.672   0.788 -1.0318  2.3672 -1.9508
 3339TIP3    H210024   2.201   0.582   0.799 -0.4969  1.8329 -0.2128
 3340TIP3   OH210025   2.489   5.714   3.915 -0.2060 -0.4317 -0.5233
 3340TIP3    H110026   2.545   5.791   3.924 -0.5933 -0.0964 -0.9120
 3340TIP3    H210027   2.515   5.657   3.987 -0.3584  0.3399  0.1617
 3341TIP3   OH210028   4.090   5.841   3.118  0.9764 -0.1359  0.5197
 3341TIP3    H110029   4.002   5.814   3.144  1.2091 -0.5485  0.8942
 3341TIP3    H210030   4.144   5.764   3.134  1.7400  0.6612  2.0200
 3342TIP3   OH210031   1.946   5.003   1.000  0.0474  0.2852 -0.3722
 3342TIP3    H110032   1.957   4.961   1.085 -2.1590  0.9685  0.3223
 3342TIP3    H210033   1.978   5.092   1.012  2.6669 -0.4611 -1.2190
 3343TIP3   OH210034   3.856   3.146   4.632  0.0873 -0.6654 -0.0300
 3343TIP3    H110035   3.915   3.132   4.558  0.2619  0.8897 -0.2354
 3343TIP3    H210036   3.883   3.082   4.697  0.2110 -1.7814 -1.1351
 3344TIP3   OH210037   2.648   0.231   1.193 -0.9369 -0.0024 -0.1899
 3344TIP3    H110038   2.712   0.161   1.207 -0.9262 -0.3410 -1.7084
 3344TIP3    H210039   2.660   0.290   1.267  1.4312  0.1583 -0.6183
 3345TIP3   OH210040   1.601   2.909   0.876  0.0801  0.0572 -0.1139
 3345TIP3    H110041   1.603   2.961   0.956 -1.3551  0.3132 -0.2257
 3345TIP3    H210042   1.687   2.867   0.873 -0.4047 -1.3023  2.4297
 3346TIP3   OH210043   2.821   4.712   1.715  0.0052 -0.4137  0.0750
 3346TIP3    H110044   2.885   4.644   1.736  0.7525 -0.1146 -1.1531
 3346TIP3    H210045   2.873   4.793   1.711 -0.5075 -0.1138 -0.5832
 3347TIP3   OH210046   1.339   3.943   0.923  0.2901  0.5816 -0.0007
 3347TIP3    H110047   1.352   4.033   0.894 -0.8837  0.0926 -2.2243
 3347TIP3    H210048   1.298   3.952   1.009  0.7166  2.1364  0.0751
 3348TIP3   OH210049   5.880   3.883   3.676  0.0777 -0.3668  0.3307
 3348TIP3    H110050   5.792   3.876   3.713 -0.8426 -0.1263 -1.6585
 3348TIP3    H210051   5.903   3.794   3.651 -1.2689  0.0063 -2.6011
 3349TIP3   OH210052   3.922   5.471   1.211  0.1239  0.2802  0.0067
 3349TIP3    H110053   3.905   5.481   1.117  0.0635  2.0054  0.1718
 3349TIP3    H210054   3.924   5.560   1.245 -1.4074 -0.3500  1.9441
 3350TIP3   OH210055   0.820   4.924   4.559  0.5464 -0.3842 -0.1109
 3350TIP3    H110056   0.755   4.994   4.554 -1.6279 -2.3234 -1.9347
 3350TIP3    H210057   0.904   4.968   4.552 -0.5111  2.2464  1.9705
 3351TIP3   OH210058   5.507   2.042   1.731 -0.3019  0.2637  0.1082
 3351TIP3    H110059   5.545   2.064   1.816 -0.1801 -1.0335  0.4105
 3351TIP3    H210060   5.559   1.967   1.700 -0.9975  0.0722 -0.6295
 3352TIP3   OH210061   0.564   3.194   3.963 -0.3031  0.7949  0.0804
 3352TIP3    H110062   0.647   3.218   4.005  0.5335  1.1398 -1.6682
 3352TIP3    H210063   0.528   3.125   4.019  1.0246  0.8273  1.0264
 3353TIP3   OH210064   2.288   3.478   2.906 -0.0365  0.3856 -0.3511
 3353TIP3    H110065   2.267   3.479   2.813  1.4505  0.6395 -0.7218
 3353TIP3    H210066   2.273   3.568   2.935  0.5712  0.5801 -0.6231
 3354TIP3   OH210067   2.923   2.031   3.433  0.1503 -0.2621  0.0904
 3354TIP3    H110068   2.946   2.113   3.476 -2.1657  0.2373  0.4948
 3354TIP3    H210069   2.941   2.046   3.341  2.3578 -0.3026  0.4710
 3355TIP3   OH210070   5.224   3.434   1.251  0.3942 -0.6236  0.0492
 3355TIP3    H110071   5.304   3.385   1.269 -0.3743 -1.4635  1.4025
 3355TIP3    H210072   5.254   3.522   1.226  1.7372 -1.0588  0.0947
 3356TIP3   OH210073   3.923   4.530   4.376  0.4835  0.2409 -0.3891
 3356TIP3    H110074   3.910   4.535   4.281  0.0399  0.3933 -0.3235
 3356TIP3    H210075   3.912   4.620   4.406 -1.3777 -0.1026  0.0473
 3357TIP3   OH210076   5.112   2.510   1.171  0.2085 -0.0992 -0.7426
 3357TIP3    H110077   5.087   2.488   1.261  0.0035 -0.9525 -0.9966
 3357TIP3    H210078   5.139   2.602   1.175  1.7788 -0.5557  0.5320
 3358TIP3   OH210079   6.292   5.684   1.303  0.3003 -0.2734  0.4481
 3358TIP3    H110080   6.378   5.651   1.332 -0.0415 -0.6775  1.0331
 3358TIP3    H210081   6.256   5.612   1.251 -0.5585 -0.9861  1.9435
 3359TIP3   OH210082   3.563   5.352   2.680  0.0189  0.0154  0.3807
 3359TIP3    H110083   3.584   5.303   2.760  1.1047  2.3668  1.6441
 3359TIP3    H210084   3.562   5.444   2.708 -1.4198  0.7969 -1.9635
 3360TIP3   OH210085   3.809   2.671   1.606 -0.1253 -0.3265 -0.0805
 3360TIP3    H110086   3.867   2.627   1.668  0.0475 -1.2330 -0.8713
 3360TIP3    H210087   3.744   2.605   1.583 -0.9276  0.3901  0.0700
 3361TIP3   OH210088   0.537   4.060   3.893 -0.3254 -0.1418  0.1660
 3361TIP3    H110089   0.458   4.106   3.921 -0.3105 -0.4773  0.7867
 3361TIP3    H210090   0.537   4.067   3.798 -1.0351 -0.0301  0.1697
 3362TIP3   OH210091   3.948   2.970   2.670 -0.2533 -0.4385  0.0702
 3362TIP3    H110092   4.037   3.001   2.655 -0.7257  0.9907  0.1251
 3362TIP3    H210093   3.892   3.032   2.624 -1.2134 -1.5888 -0.3567
 3363TIP3   OH210094   6.156   0.955   0.335 -0.4032  0.2760  1.0059
 3363TIP3    H110095   6.224   1.016   0.307 -1.0306  0.9568  0.9397
 3363TIP3    H210096   6.093   1.009   0.382 -0.2853 -0.5403  2.1750
 3364TIP3   OH210097   3.144   2.986   4.345 -0.1922 -0.4121 -0.2211
 3364TIP3    H110098   3.152   3.069   4.297  2.4282  0.0699  0.8543
 3364TIP3    H210099   3.109   2.924   4.280 -0.4300  1.0890 -1.5965
 3365TIP3   OH210100   4.902   4.779   2.377 -0.2351 -0.0255 -0.2148
 3365TIP3    H110101   4.989   4.819   2.379  0.0233 -0.4772 -1.2187
 3365TIP3    H210102   4.911   4.708   2.312 -0.9982 -0.9122  0.6233
 3366TIP3   OH210103   0.507   0.434   2.043 -0.5578 -0.6096 -0.1875
 3366TIP3    H110104   0.577   0.451   2.106 -0.4574 -2.2393  0.1750
 3366TIP3    H210105   0.444   0.505   2.058  0.2637 -0.0148  0.5644
 3367TIP3   OH210106   4.631   5.161   4.578 -0.0693 -0.3024 -0.8201
 3367TIP3    H110107   4.628   5.114   4.494 -0.5242 -1.0103 -0.4247
 3367TIP3    H210108   4.612   5.252   4.555 -0.0674 -0.4648 -1.5032
 3368TIP3   OH210109   6.023   4.211   4.594  0.2589 -0.1434  0.5669
 3368TIP3    H110110   6.012   4.231   4.501 -0.6139  2.1052  1.1084
 3368TIP3    H210111   6.076   4.282   4.628  1.4437 -1.4721  1.6448
 3369TIP3   OH210112   0.155   2.010   4.296  0.3353  0.4324 -0.1410
 3369TIP3    H110113   0.061   1.992   4.302  0.3205 -0.3047 -1.8233
 3369TIP3    H210114   0.196   1.923   4.299  0.6197  0.3120 -3.4429
 3370TIP3   OH210115   5.798   3.766   1.079  0.0608  0.4415 -0.4282
 3370TIP3    H110116   5.744   3.833   1.122  0.2476  0.9036 -0.8973
 3370TIP3    H210117   5.761   3.683   1.109  0.4444  0.7408  0.9344
 3371TIP3   OH210118   2.361   1.900   3.208 -0.3467  0.0332 -0.6401
 3371TIP3    H110119   2.383   1.925   3.298  1.5369  0.0333 -1.0568
 3371TIP3    H210120   2.431   1.840   3.182 -1.8882 -1.5067 -1.4860
 3372TIP3   OH210121   3.755   5.101   2.843 -0.2463  0.3072  0.9998
 3372TIP3    H110122   3.770   5.054   2.924  0.3289  0.8221  1.1966
 3372TIP3    H210123   3.666   5.075   2.816 -0.6112  0.4680  2.0087
 3373TIP3   OH210124   2.816   5.894   0.746  0.4220 -0.2981 -0.2097
 3373TIP3    H110125   2.880   5.957   0.778  0.4774 -0.0398 -0.8118
 3373TIP3    H210126   2.756   5.882   0.819 -0.7777  2.0069 -0.6979
 3374TIP3   OH210127   1.802   3.537   2.871  0.0608  0.3088 -0.3782
 3374TIP3    H110128   1.818   3.471   2.939  0.8339 -0.6387 -1.4381
 3374TIP3    H210129   1.871   3.602   2.884  0.8854 -0.4383 -0.9247
 3375TIP3   OH210130   0.921   0.399   1.419 -0.4076 -0.1134  0.0287
 3375TIP3    H110131   0.838   0.389   1.464 -0.2941 -0.6086  0.1296
 3375TIP3    H210132   0.919   0.490   1.386 -1.3415 -0.3673 -0.6806
 3376TIP3   OH210133   5.894   4.734   4.319  0.0823 -0.3360  0.0287
 3376TIP3    H110134   5.799   4.750   4.319  0.2685  0.8340 -0.5133
 3376TIP3    H210135   5.914   4.710   4.409 -0.4642  1.1171  0.5600
 3377TIP3   OH210136   4.799   1.791   3.412 -0.3452 -0.9418  0.4731
 3377TIP3    H110137   4.727   1.853   3.398  0.1237 -0.3895  0.4285
 3377TIP3    H210138   4.866   1.818   3.350  0.3740 -0.6808  1.3349
 3378TIP3   OH210139   4.160   2.777   1.914  0.1402  0.0537 -0.0078
 3378TIP3    H110140   4.189   2.855   1.867  0.1079 -0.0598 -0.2203
 3378TIP3    H210141   4.229   2.761   1.979  0.2435  0.1468 -0.0933
 3379TIP3   OH210142   1.859   2.597   3.407  0.1686  0.5902  0.8324
 3379TIP3    H110143   1.832   2.576   3.496  0.0767  2.3869  1.2783
 3379TIP3    H210144   1.889   2.514   3.370 -2.2232 -0.6943  1.6312
 3380TIP3   OH210145   1.379   2.685   4.152 -0.3272 -0.0461 -0.2527
 3380TIP3    H110146   1.418   2.736   4.082  2.1557 -1.1099  0.2642
 3380TIP3    H210147   1.297   2.731   4.173  0.4089  2.0396 -1.6924
 3381TIP3   OH210148   2.116   0.898   2.438  0.1226 -0.2530 -0.0135
 3381TIP3    H110149   2.094   0.986   2.468  0.4141  0.1247 -0.8770
 3381TIP3    H210150   2.089   0.897   2.347  2.2786 -0.2528 -0.7080
 3382TIP3   OH210151   6.232   1.346   2.652 -1.0329  0.1867 -0.0246
 3382TIP3    H110152   6.274   1.421   2.695 -0.8402 -0.1779  0.4260
 3382TIP3    H210153   6.146   1.380   2.625 -0.5030  0.9075 -0.8776
 3383TIP3   OH210154   5.527   3.118   1.631  0.2746 -0.1633  0.6024
 3383TIP3    H110155   5.614   3.156   1.640  0.1249 -0.3258  3.8447
 3383TIP3    H210156   5.468   3.193   1.625  0.4501 -0.0277  0.5838
 3384TIP3   OH210157   3.754   3.406   4.608 -0.0318  0.1803  0.3830
 3384TIP3    H110158   3.665   3.386   4.636  0.2071  0.3230  1.2490
 3384TIP3    H210159   3.802   3.324   4.621  0.7465  0.9746  3.1287
 3385TIP3   OH210160   5.337   1.938   2.892  0.7176  0.4748  0.1062
 3385TIP3    H110161   5.382   1.893   2.964 -0.4320 -0.9438 -0.0083
 3385TIP3    H210162   5.374   1.900   2.812 -0.8324 -0.9772  0.0088
 3386TIP3   OH210163   1.180   1.269   1.962  0.0610 -0.1219 -0.4091
 3386TIP3    H110164   1.269   1.277   1.997 -0.2763  1.6088  0.1334
 3386TIP3    H210165   1.130   1.336   2.008 -1.6132 -1.2472 -0.5062
 3387TIP3   OH210166   4.668   2.046   0.108 -0.1390 -0.2606  0.5800
 3387TIP3    H110167   4.667   2.102   0.031  0.7862  0.2226  0.8975
 3387TIP3    H210168   4.761   2.030   0.125 -0.3755 -1.9767  0.4482
 3388TIP3   OH210169   1.888   5.941   3.710 -0.5820 -0.4039  0.1144
 3388TIP3    H110170   1.951   5.990   3.658 -0.1655 -1.0312  0.0186
 3388TIP3    H210171   1.853   5.874   3.651 -0.0324 -1.1826  0.6525
 3389TIP3   OH210172   5.167   5.116   4.772 -0.2264 -0.9220 -0.3868
 3389TIP3    H110173   5.168   5.147   4.862  1.5755 -2.0637  0.0364
 3389TIP3    H210174   5.077   5.086   4.758 -0.6182 -0.4126  0.9015
 3390TIP3   OH210175   5.881   3.904   0.481 -0.1843  0.3044  0.4695
 3390TIP3    H110176   5.909   3.831   0.536  3.2006  0.2271 -1.0924
 3390TIP3    H210177   5.902   3.983   0.531  2.6407  0.2287 -0.3957
 3391TIP3   OH210178   4.395   3.343   2.162  0.2310 -0.2082  0.2386
 3391TIP3    H110179   4.445   3.392   2.096 -0.0660  0.0007  0.1626
 3391TIP3    H210180   4.396   3.253   2.131 -0.5746  0.0125 -0.4828
 3392TIP3   OH210181   2.089   2.990   5.127  0.3679  0.0018 -0.3334
 3392TIP3    H110182   2.076   3.049   5.202  1.1906 -1.1750  0.7669
 3392TIP3    H210183   2.008   2.998   5.076  0.2308  1.6445  0.0831
 3393TIP3   OH210184   3.060   2.580   4.475  0.2953  0.6223 -0.1060
 3393TIP3    H110185   3.093   2.637   4.544 -0.6447  0.9883  0.0489
 3393TIP3    H210186   3.135   2.567   4.417  1.4037 -0.4884  1.4785
 3394TIP3   OH210187   4.369   2.476   0.049  0.3279 -0.0668  0.1654
 3394TIP3    H110188   4.312   2.407   0.083 -0.1399 -0.0132 -0.4977
 3394TIP3    H210189   4.396   2.525   0.126 -1.0388  0.3054  0.4224
 3395TIP3   OH210190   3.023   1.512   1.871 -0.1743 -0.6357  0.4141
 3395TIP3    H110191   3.078   1.456   1.925 -1.1586  0.4638  2.6811
 3395TIP3    H210192   2.959   1.452   1.832  0.9878 -1.5444 -0.1852
 3396TIP3   OH210193   0.641   2.719   4.808  0.2323  0.4120  0.0234
 3396TIP3    H110194   0.601   2.642   4.849  2.9954 -1.3705 -0.3816
 3396TIP3    H210195   0.714   2.742   4.866  1.9419  0.1440 -1.9415
 3397TIP3   OH210196   2.219   3.593   1.866  0.4489 -0.6336 -0.0221
 3397TIP3    H110197   2.149   3.594   1.931 -1.0318  1.2895 -1.5373
 3397TIP3    H210198   2.282   3.659   1.897  0.3228 -0.5338  0.0201
 3398TIP3   OH210199   4.763   1.575   4.773 -0.4887 -0.4481 -0.2585
 3398TIP3    H110200   4.686   1.613   4.730 -0.9982 -0.7471  0.3791
 3398TIP3    H210201   4.731   1.547   4.859  0.0825 -1.5301 -0.3848
 3399TIP3   OH210202   2.640   4.529   4.676  0.2758  0.1660  0.3388
 3399TIP3    H110203   2.601   4.442   4.663 -1.2946  0.8588  0.1284
 3399TIP3    H210204   2.668   4.530   4.767 -1.1990 -0.0275  0.8234
 3400TIP3   OH210205   4.717   5.086   1.358  0.2748  0.0756  0.5456
 3400TIP3    H110206   4.632   5.061   1.394  1.0854 -1.6621  1.3374
 3400TIP3    H210207   4.771   5.008   1.366  1.4476  0.5859 -1.5839
 3401TIP3   OH210208   6.312   5.667   5.124 -0.0140  0.0492  0.3276
 3401TIP3    H110209   6.383   5.611   5.156  2.3830  1.1924 -2.5024
 3401TIP3    H210210   6.342   5.756   5.141 -1.7927  0.5688  0.9460
 3402TIP3   OH210211   4.731   0.510   0.398  0.1594 -0.2473 -0.0764
 3402TIP3    H110212   4.777   0.487   0.317 -1.2104 -1.2721 -0.6181
 3402TIP3    H210213   4.800   0.522   0.463  1.2155 -1.3241 -0.9496
 3403TIP3   OH210214   2.480   2.944   0.312 -0.5659 -0.1769  0.1476
 3403TIP3    H110215   2.472   3.033   0.278  2.5945 -0.1221 -0.7843
 3403TIP3    H210216   2.436   2.889   0.248 -1.2939  0.5726 -0.0112
 3404TIP3   OH210217   4.112   2.422   4.106 -0.1286  0.6174  0.3593
 3404TIP3    H110218   4.174   2.398   4.038 -0.2086  0.4557  0.3427
 3404TIP3    H210219   4.027   2.424   4.061 -0.0887  1.1772  0.3039
 3405TIP3   OH210220   3.055   2.625   4.895 -0.3582 -0.2229  0.4426
 3405TIP3    H110221   3.103   2.641   4.814 -1.3583 -1.5265 -0.4582
 3405TIP3    H210222   3.038   2.712   4.931  0.3420  0.3640 -0.5903
 3406TIP3   OH210223   5.407   0.977   4.137  0.3310  0.5127  0.0573
 3406TIP3    H110224   5.437   1.029   4.211 -2.0197 -0.4531  1.8207
 3406TIP3    H210225   5.466   1.001   4.066  1.3940  3.0796  1.6374
 3407TIP3   OH210226   1.546   5.252   4.325  0.3249  0.3836 -0.1187
 3407TIP3    H110227   1.593   5.177   4.359  0.2663 -0.1579 -1.1918
 3407TIP3    H210228   1.511   5.296   4.402  0.0380 -0.9046  0.5007
 3408TIP3   OH210229   1.472   3.080   3.846 -0.5465 -0.0313 -0.2096
 3408TIP3    H110230   1.536   3.067   3.916  0.9765 -1.5932 -1.7919
 3408TIP3    H210231   1.513   3.145   3.788 -1.3823  0.5698 -0.1483
 3409TIP3   OH210232   0.627   1.087   1.220 -0.3858  0.3650 -0.1883
 3409TIP3    H110233   0.622   1.165   1.275 -1.4036  0.5190 -0.4785
 3409TIP3    H210234   0.720   1.077   1.202 -0.1564  1.0012  0.5793
 3410TIP3   OH210235   4.179   3.332   1.271  0.6289 -0.5426 -0.0810
 3410TIP3    H110236   4.138   3.247   1.289  1.2240 -0.7058  0.5669
 3410TIP3    H210237   4.174   3.341   1.176 -3.2952  0.6931  0.0813
 3411TIP3   OH210238   1.878   1.690   3.721  1.0087 -0.1230 -0.1731
 3411TIP3    H110239   1.818   1.625   3.760  1.5455 -1.7252 -1.8783
 3411TIP3    H210240   1.957   1.685   3.775  0.5270  0.1845  0.5744
 3412TIP3   OH210241   3.285   4.923   1.352 -0.2593 -0.0742 -0.0839
 3412TIP3    H110242   3.206   4.962   1.313 -0.5235 -0.4075  0.1172
 3412TIP3    H210243   3.347   4.920   1.279 -0.2396  0.6980 -0.1137
 3413TIP3   OH210244   0.561   4.707   4.449 -0.0673  0.0798  0.0462
 3413TIP3    H110245   0.599   4.756   4.376 -0.3431 -0.3374 -0.3833
 3413TIP3    H210246   0.637   4.671   4.495  0.1387  0.9485  0.4009
 3414TIP3   OH210247   4.486   2.539   1.538  0.0357 -0.1459  0.1854
 3414TIP3    H110248   4.458   2.515   1.627 -1.6553  0.9953  0.0103
 3414TIP3    H210249   4.476   2.635   1.535  1.8715  0.0644 -0.6654
 3415TIP3   OH210250   3.009   0.381   2.040  0.1839 -0.0878 -0.1739
 3415TIP3    H110251   2.995   0.292   2.007 -0.6986 -0.0413  0.0528
 3415TIP3    H210252   3.007   0.371   2.135  3.5022 -0.3537 -0.0034
 3416TIP3   OH210253   4.559   2.106   2.453  0.0687 -0.2383 -0.0980
 3416TIP3    H110254   4.627   2.094   2.388 -0.6450  0.3931 -0.9786
 3416TIP3    H210255   4.479   2.118   2.403 -0.5758 -0.2053  0.9024
 3417TIP3   OH210256   3.691   0.567   1.101 -0.2512 -0.1655 -0.1243
 3417TIP3    H110257   3.689   0.658   1.129 -0.5667 -0.0387 -0.5507
 3417TIP3    H210258   3.694   0.572   1.005 -1.3870 -0.6138 -0.1975
 3418TIP3   OH210259   6.286   2.131   3.376 -0.2560  0.2066 -0.1868
 3418TIP3    H110260   6.337   2.210   3.356  0.7332  0.7107  3.6430
 3418TIP3    H210261   6.347   2.059   3.361 -0.2982  0.3449 -1.0840
 3419TIP3   OH210262   3.711   4.025   0.338  0.3772 -0.3377  0.9014
 3419TIP3    H110263   3.632   4.026   0.284  1.7282 -0.3033 -1.1649
 3419TIP3    H210264   3.687   3.970   0.413 -0.6106 -3.1703 -1.2878
 3420TIP3   OH210265   0.061   4.854   2.248  0.6053  0.3825  0.3165
 3420TIP3    H110266   0.055   4.843   2.153 -1.4302 -1.0732  0.5460
 3420TIP3    H210267   0.006   4.930   2.267 -0.9549 -0.7319  0.4908
 3421TIP3   OH210268   5.133   3.922   1.737 -0.4556 -0.1898  0.1413
 3421TIP3    H110269   5.050   3.958   1.767 -0.6640 -0.6684  0.1372
 3421TIP3    H210270   5.183   3.908   1.818 -1.6073 -2.9769  0.4751
 3422TIP3   OH210271   2.876   4.979   4.094 -0.6585  0.0181 -0.0274
 3422TIP3    H110272   2.880   5.033   4.173  1.5072 -0.0351 -0.0516
 3422TIP3    H210273   2.868   5.043   4.023 -1.2607  0.1250  0.1247
 3423TIP3   OH210274   4.233   3.191   3.981  0.3378 -0.0466  0.2434
 3423TIP3    H110275   4.154   3.167   3.931  0.0770  0.6176  0.3266
 3423TIP3    H210276   4.292   3.116   3.970  0.3189  0.1180 -1.1426
 3424TIP3   OH210277   3.372   5.325   4.658 -0.2091 -0.2933  0.1926
 3424TIP3    H110278   3.439   5.348   4.723 -0.0456 -0.1203 -0.0349
 3424TIP3    H210279   3.303   5.390   4.670  0.7480  1.0358 -1.1984
 3425TIP3   OH210280   1.682   0.931   4.303  0.1285 -0.3454 -0.0645
 3425TIP3    H110281   1.652   1.021   4.313 -0.4892 -0.5389 -0.1465
 3425TIP3    H210282   1.691   0.918   4.209  2.0790  0.2195 -0.0029
 3426TIP3   OH210283   6.257   4.014   4.180 -0.1007 -0.0392 -0.3047
 3426TIP3    H110284   6.182   4.058   4.140 -0.4676 -1.9669 -1.9072
 3426TIP3    H210285   6.333   4.048   4.133  0.0072  1.3829  0.8325
 3427TIP3   OH210286   3.853   5.177   2.586 -0.1422  0.4969  0.0543
 3427TIP3    H110287   3.842   5.132   2.670 -1.9814 -0.0705 -0.4468
 3427TIP3    H210288   3.935   5.226   2.596  0.3059 -0.5058  1.7328
 3428TIP3   OH210289   4.000   5.612   2.034  0.3231 -0.0131  0.2653
 3428TIP3    H110290   4.004   5.593   2.128 -0.8774 -0.0467  0.3287
 3428TIP3    H210291   4.070   5.560   1.996  1.4566  0.7341  1.2472
 3429TIP3   OH210292   0.780   1.972   3.836  0.5353  0.1914  0.5736
 3429TIP3    H110293   0.719   2.040   3.862  1.1998  0.7420  0.7348
 3429TIP3    H210294   0.754   1.948   3.747 -0.0705  0.2229  0.7384
 3430TIP3   OH210295   4.220   5.597   3.881  0.6077  0.1525 -0.1902
 3430TIP3    H110296   4.208   5.615   3.974  0.5159  1.9087 -0.5024
 3430TIP3    H210297   4.270   5.515   3.878  1.4014  0.5460  1.4097
 3431TIP3   OH210298   5.346   4.130   4.954  0.2966  0.0295 -0.6595
 3431TIP3    H110299   5.440   4.115   4.945  0.2368 -0.4363 -0.5233
 3431TIP3    H210300   5.310   4.110   4.868  0.3640  0.5392 -0.8067
 3432TIP3   OH210301   4.676   0.644   1.740  0.3839 -0.2799  0.1071
 3432TIP3    H110302   4.587   0.635   1.705  0.3865  1.5170 -0.4734
 3432TIP3    H210303   4.665   0.640   1.835 -0.5087  1.0457  0.0899
 3433TIP3   OH210304   5.483   2.225   0.565 -0.3744  0.0656  0.1219
 3433TIP3    H110305   5.523   2.278   0.634  0.1067 -0.2135  0.0675
 3433TIP3    H210306   5.550   2.159   0.544  0.5041  1.5909 -2.2640
 3434TIP3   OH210307   5.005   0.220   2.946  0.0569 -0.5718 -0.0451
 3434TIP3    H110308   5.000   0.125   2.958  0.8430 -0.3787  2.5380
 3434TIP3    H210309   5.013   0.254   3.035  3.1188  1.7045 -1.0506
 3435TIP3   OH210310   1.535   1.465   4.534 -0.2131 -0.1210 -0.0183
 3435TIP3    H110311   1.570   1.552   4.553 -0.5748  0.2335 -0.9028
 3435TIP3    H210312   1.581   1.407   4.594  2.3628  0.2332 -1.5239
 3436TIP3   OH210313   1.380   3.829   2.016 -0.0101 -0.5083  0.2203
 3436TIP3    H110314   1.396   3.909   1.965 -0.8649  1.3353  2.5945
 3436TIP3    H210315   1.441   3.836   2.090 -0.2904 -1.9409  0.6166
 3437TIP3   OH210316   3.139   5.862   1.002 -0.1366  0.1025 -0.5692
 3437TIP3    H110317   3.114   5.885   1.091  1.7706  0.2992 -0.0430
 3437TIP3    H210318   3.121   5.941   0.950  3.4101  1.9462  0.6430
 3438TIP3   OH210319   0.262   1.416   2.856 -0.2070  0.4865  0.4085
 3438TIP3    H110320   0.352   1.393   2.875 -0.3306 -0.4267 -0.0461
 3438TIP3    H210321   0.249   1.387   2.765 -0.8100  1.0508  0.3069
 3439TIP3   OH210322   1.834   3.968   2.139  0.4907 -0.0986  0.4619
 3439TIP3    H110323   1.811   3.879   2.164  1.6283 -0.4701  0.2755
 3439TIP3    H210324   1.768   4.023   2.181 -0.0158 -1.0025  0.8767
 3440TIP3   OH210325   6.013   2.750   3.337 -0.1621 -0.5433  0.2637
 3440TIP3    H110326   6.095   2.711   3.305 -0.5247 -1.8568  0.8355
 3440TIP3    H210327   5.953   2.744   3.262  0.2295  0.3117 -0.1186
 3441TIP3   OH210328   2.013   5.101   0.604 -0.4508  0.1739 -0.0921
 3441TIP3    H110329   2.011   5.043   0.528 -1.0873 -1.0465  0.8146
 3441TIP3    H210330   2.079   5.167   0.583 -1.0284  0.2179 -1.9341
 3442TIP3   OH210331   2.542   2.461   4.363  0.0688  0.1993  0.2284
 3442TIP3    H110332   2.541   2.459   4.267 -0.3240  1.8635  0.1702
 3442TIP3    H210333   2.606   2.528   4.386 -3.5499  3.8780  0.8983
 3443TIP3   OH210334   2.596   0.078   4.450 -0.7229 -0.1416 -0.0619
 3443TIP3    H110335   2.522   0.127   4.416 -1.0278 -1.0421 -0.7455
 3443TIP3    H210336   2.668   0.141   4.452 -1.5531  0.8198  0.8876
 3444TIP3   OH210337   3.275   2.444   3.327  0.6483  0.1565 -0.0233
 3444TIP3    H110338   3.247   2.498   3.253  1.5736 -0.3983 -0.8058
 3444TIP3    H210339   3.368   2.465   3.339  0.7310 -0.4164  0.4001
 3445TIP3   OH210340   5.813   1.826   4.409  0.2976 -0.5117  0.5408
 3445TIP3    H110341   5.885   1.845   4.469  0.4093  1.5183 -0.1779
 3445TIP3    H210342   5.849   1.842   4.322 -1.0415  0.7607  0.1784
 3446TIP3   OH210343   5.358   1.787   2.116  0.2108 -0.2408 -0.1285
 3446TIP3    H110344   5.312   1.845   2.055  1.4720  1.8775  0.8112
 3446TIP3    H210345   5.443   1.828   2.128  1.3963 -2.6070  0.2392
 3447TIP3   OH210346   5.178   0.480   1.543 -0.2249 -0.4476 -0.5278
 3447TIP3    H110347   5.187   0.422   1.619 -0.3354  1.2521  0.8295
 3447TIP3    H210348   5.085   0.476   1.520 -0.7481  1.0360  1.1336
 3448TIP3   OH210349   4.816   1.733   0.649  0.3299  0.2393  0.7367
 3448TIP3    H110350   4.808   1.689   0.565 -1.5086  0.6775  0.6336
 3448TIP3    H210351   4.831   1.663   0.713  1.7310 -0.0936  0.0874
 3449TIP3   OH210352   5.782   0.110   1.332  0.1181 -0.3459  0.5798
 3449TIP3    H110353   5.797   0.205   1.337 -1.2585  0.0141 -1.0742
 3449TIP3    H210354   5.743   0.087   1.416 -1.2753  0.9327  0.3264
 3450TIP3   OH210355   3.860   0.214   2.726  0.4929  0.2520 -0.3533
 3450TIP3    H110356   3.910   0.235   2.647  0.5892 -1.5974 -0.8303
 3450TIP3    H210357   3.850   0.119   2.724 -1.0588  0.3331  0.9442
 3451TIP3   OH210358   5.372   3.691   3.107  0.2745 -0.2750 -0.7756
 3451TIP3    H110359   5.403   3.653   3.025  2.5483  1.1547 -0.6581
 3451TIP3    H210360   5.389   3.784   3.098 -1.9188  0.3064  0.3179
 3452TIP3   OH210361   3.202   3.425   4.785 -0.3871 -0.6499  0.3042
 3452TIP3    H110362   3.235   3.486   4.852  1.2618 -1.6519  0.4684
 3452TIP3    H210363   3.213   3.338   4.824  0.4120 -1.2461 -1.1613
 3453TIP3   OH210364   0.078   0.583   2.549 -0.0677 -0.5030  0.5425
 3453TIP3    H110365   0.169   0.555   2.538 -0.0160  0.1150 -0.8368
 3453TIP3    H210366   0.033   0.507   2.585  0.2290 -2.1673 -2.2780
 3454TIP3   OH210367   0.423   5.302   1.122 -0.6295 -0.1932 -0.7488
 3454TIP3    H110368   0.342   5.353   1.124  0.0257  0.9194  1.8422
 3454TIP3    H210369   0.435   5.273   1.213  1.2074 -1.4422 -1.3374
 3455TIP3   OH210370   4.302   4.496   0.305 -0.2944  0.4803  0.5873
 3455TIP3    H110371   4.345   4.411   0.317  0.2692  0.6459 -0.1650
 3455TIP3    H210372   4.209   4.478   0.314 -0.2194 -0.3354 -0.1797
 3456TIP3   OH210373   2.747   3.646   0.788  0.0868  0.4239 -0.1618
 3456TIP3    H110374   2.814   3.637   0.856 -0.0148  0.4009 -0.0634
 3456TIP3    H210375   2.796   3.646   0.706  0.2200  0.5573 -0.0840
 3457TIP3   OH210376   0.509   4.531   2.712  0.0728 -0.0528  0.1420
 3457TIP3    H110377   0.546   4.616   2.689  2.4928 -1.2864 -1.0272
 3457TIP3    H210378   0.514   4.527   2.807 -0.8698  1.4100  0.2745
 3458TIP3   OH210379   5.523   3.683   0.585 -0.0958  0.0133  0.4683
 3458TIP3    H110380   5.567   3.603   0.556  1.2013  0.8677  0.0072
 3458TIP3    H210381   5.451   3.694   0.523 -0.2069 -0.7108  0.4522
 3459TIP3   OH210382   5.125   4.466   2.815 -0.7729 -0.0071 -0.1894
 3459TIP3    H110383   5.084   4.537   2.767 -0.9256 -0.8997 -1.4462
 3459TIP3    H210384   5.092   4.386   2.772  0.0695 -0.8079  0.6021
 3460TIP3   OH210385   3.434   3.467   0.109 -0.6959 -0.0493  0.2000
 3460TIP3    H110386   3.412   3.435   0.022  0.2725 -0.2153  0.0083
 3460TIP3    H210387   3.484   3.396   0.149 -0.1596  0.4735  0.4674
 3461TIP3   OH210388   5.491   2.321   2.173  0.1485 -0.4943  0.2532
 3461TIP3    H110389   5.447   2.393   2.127  2.0176  0.4481 -0.1432
 3461TIP3    H210390   5.548   2.282   2.107  0.7772 -0.9328  1.0483
 3462TIP3   OH210391   2.409   5.959   5.087 -0.3153  0.7207 -0.1697
 3462TIP3    H110392   2.336   5.989   5.141  0.6594  2.1942  0.4155
 3462TIP3    H210393   2.487   5.990   5.134  0.6715 -0.3024 -1.0661
 3463TIP3   OH210394   4.283   0.118   2.767  0.6008  0.1408  0.0604
 3463TIP3    H110395   4.224   0.093   2.697  1.2101  2.6895 -1.4738
 3463TIP3    H210396   4.356   0.056   2.761  0.5427  0.2020 -1.4347
 3464TIP3   OH210397   2.102   3.893   2.408  0.8023  0.4276 -0.2894
 3464TIP3    H110398   2.048   3.914   2.484  1.0242  0.1250 -0.0463
 3464TIP3    H210399   2.113   3.798   2.412  1.3959  0.4940 -0.3104
 3465TIP3   OH210400   2.169   2.299   4.549  0.1307 -0.7404 -0.1089
 3465TIP3    H110401   2.162   2.352   4.470 -0.4268 -0.3665  0.1875
 3465TIP3    H210402   2.148   2.359   4.621 -2.1981 -1.7469  0.1247
 3466TIP3   OH210403   0.407   5.219   0.504 -0.4306 -0.2924  0.6352
 3466TIP3    H110404   0.418   5.301   0.456 -0.4621 -0.9688 -0.5686
 3466TIP3    H210405   0.400   5.246   0.596 -0.8571  1.0800  0.2314
 3467TIP3   OH210406   0.081   5.877   2.760 -0.3796  0.0754 -0.4857
 3467TIP3    H110407  -0.006   5.861   2.795 -0.4530  1.7377  0.1794
 3467TIP3    H210408   0.088   5.973   2.755  1.9911  0.0741  1.0619
 3468TIP3   OH210409   5.306   1.003   1.253  0.3055 -0.1322  0.1553
 3468TIP3    H110410   5.275   1.026   1.341 -3.8826  0.5389 -1.2649
 3468TIP3    H210411   5.317   0.908   1.255 -2.1672 -0.4782  0.8934
 3469TIP3   OH210412   2.588   2.806   1.294 -0.5827 -0.1837 -0.7496
 3469TIP3    H110413   2.563   2.853   1.374  0.0081  1.5185 -1.5225
 3469TIP3    H210414   2.582   2.872   1.225 -0.4384 -1.4581 -2.0166
 3470TIP3   OH210415   4.545   3.107   1.912 -0.2907 -0.3404 -0.0565
 3470TIP3    H110416   4.591   3.111   1.828  0.5737 -0.7627  0.3820
 3470TIP3    H210417   4.614   3.089   1.976 -0.6756  1.5120  0.9587
 3471TIP3   OH210418   2.194   3.431   4.638  0.3509  0.2385  0.5941
 3471TIP3    H110419   2.276   3.467   4.671  1.1221 -0.2070 -0.7407
 3471TIP3    H210420   2.161   3.497   4.577  0.0360  0.1549  0.6706
 3472TIP3   OH210421   4.656   0.120   1.403  0.3095 -0.0808 -0.3210
 3472TIP3    H110422   4.683   0.087   1.489  0.3407  1.5587  0.3385
 3472TIP3    H210423   4.731   0.102   1.346  0.7801 -0.0876  0.2896
 3473TIP3   OH210424   3.113   3.842   4.594  0.3065  0.3870 -0.2146
 3473TIP3    H110425   3.181   3.844   4.526  0.3307 -0.1010 -0.2088
 3473TIP3    H210426   3.044   3.788   4.556 -0.9284  2.4115 -1.0091
 3474TIP3   OH210427   4.367   5.062   4.385  0.1942 -0.0324  0.2354
 3474TIP3    H110428   4.296   5.109   4.340 -0.7625 -1.6878 -0.0498
 3474TIP3    H210429   4.336   4.972   4.391  1.6423 -0.4790  1.4854
 3475TIP3   OH210430   3.721   2.846   2.765  0.4972 -0.4756 -0.4715
 3475TIP3    H110431   3.802   2.883   2.732  0.9920 -1.7448 -0.7606
 3475TIP3    H210432   3.687   2.794   2.692 -0.3121 -0.3545 -0.1874
 3476TIP3   OH210433   4.862   2.672   4.236 -0.1116  0.1596 -0.0355
 3476TIP3    H110434   4.768   2.693   4.228 -0.2184  0.6299  1.9630
 3476TIP3    H210435   4.865   2.576   4.237 -0.6814  0.1425  0.8173
 3477TIP3   OH210436   3.203   1.232   1.393  0.4071 -0.2276  0.0579
 3477TIP3    H110437   3.252   1.314   1.403 -1.3366  0.7820  0.7461
 3477TIP3    H210438   3.188   1.203   1.483 -1.9669  0.5822 -0.0201
 3478TIP3   OH210439   4.533   5.062   0.930 -0.3199 -0.3157  0.1275
 3478TIP3    H110440   4.602   5.128   0.943  0.2618 -0.7673 -0.6040
 3478TIP3    H210441   4.525   5.019   1.016  0.4400 -0.3808  0.1727
 3479TIP3   OH210442   3.471   0.752   1.073 -0.7670 -0.0518 -0.1927
 3479TIP3    H110443   3.419   0.714   1.144  0.3080 -0.0809  0.6104
 3479TIP3    H210444   3.518   0.825   1.114  1.1073 -1.0602 -0.4535
 3480TIP3   OH210445   6.088   1.733   3.761  0.7444  0.1059 -0.8308
 3480TIP3    H110446   6.157   1.668   3.762  0.9206  0.2803 -1.4873
 3480TIP3    H210447   6.134   1.817   3.760  0.5237  0.2624  0.1638
 3481TIP3   OH210448   6.332   2.817   0.039 -0.7642  0.4044 -0.5285
 3481TIP3    H110449   6.330   2.838   0.133 -1.1362 -0.6720 -0.2835
 3481TIP3    H210450   6.265   2.873   0.001 -0.2687  1.2202 -0.2485
 3482TIP3   OH210451   1.665   5.220   3.361 -0.3447 -0.4656  0.5677
 3482TIP3    H110452   1.711   5.162   3.422 -0.0093  0.4568  1.2161
 3482TIP3    H210453   1.599   5.164   3.320  0.0800 -1.3439  1.0526
 3483TIP3   OH210454   4.068   3.986   3.209 -0.7948 -0.0012  0.4439
 3483TIP3    H110455   4.037   3.935   3.284  1.8514  0.4610  1.9556
 3483TIP3    H210456   4.064   4.077   3.237  1.5003  0.0970  0.6144
 3484TIP3   OH210457   2.197   3.332   0.347  0.3043  0.3269  0.1200
 3484TIP3    H110458   2.110   3.307   0.314  0.2497 -1.8879  1.6491
 3484TIP3    H210459   2.182   3.351   0.440  0.7361  4.5545 -0.5142
 3485TIP3   OH210460   3.279   2.083   4.457 -0.0939 -0.3589  0.5111
 3485TIP3    H110461   3.249   1.993   4.464  1.3981 -1.0027 -0.6368
 3485TIP3    H210462   3.209   2.136   4.496 -0.8450 -2.0210  1.5120
 3486TIP3   OH210463   2.065   5.051   2.962 -0.8680 -0.3714 -0.1652
 3486TIP3    H110464   1.988   5.079   3.011  0.5772  3.2245  0.3600
 3486TIP3    H210465   2.139   5.073   3.019  0.7226  0.7287 -2.4859
 3487TIP3   OH210466   4.342   0.412   3.854  0.1069 -0.1269  0.2707
 3487TIP3    H110467   4.388   0.394   3.936 -1.0093 -1.4372  0.6412
 3487TIP3    H210468   4.308   0.327   3.826 -0.0273  0.3933 -1.2656
 3488TIP3   OH210469   1.679   1.921   2.457 -0.1328 -0.3812 -0.5406
 3488TIP3    H110470   1.601   1.968   2.429 -0.2410  0.0930  0.5053
 3488TIP3    H210471   1.646   1.845   2.505  0.0477 -1.0877 -1.5138
 3489TIP3   OH210472   6.144   1.472   1.215  0.2870  0.7740 -0.5740
 3489TIP3    H110473   6.069   1.456   1.271  0.2226  1.1602 -0.5484
 3489TIP3    H210474   6.153   1.568   1.213  0.0480  0.7819 -1.5404
 3490TIP3   OH210475   2.922   0.291   3.727  0.5172  0.0702  0.1030
 3490TIP3    H110476   2.865   0.367   3.713 -0.2616 -0.6207 -0.5717
 3490TIP3    H210477   2.989   0.300   3.658 -1.3266 -1.4476 -2.0426
 3491TIP3   OH210478   4.423   5.836   0.293  0.1463  0.1586  0.3015
 3491TIP3    H110479   4.483   5.892   0.243  0.1445  0.2199  0.3689
 3491TIP3    H210480   4.480   5.782   0.347  0.1820 -0.4018 -0.2854
 3492TIP3   OH210481   2.573   3.172   1.806 -0.1724 -0.1416  0.2455
 3492TIP3    H110482   2.519   3.106   1.850  0.0747 -0.2583  0.3803
 3492TIP3    H210483   2.618   3.217   1.878  0.3314 -0.4203  0.1127
 3493TIP3   OH210484   4.597   2.787   4.230  0.2629  0.2769  0.2104
 3493TIP3    H110485   4.634   2.862   4.182  2.0738 -0.6718  0.0432
 3493TIP3    H210486   4.529   2.753   4.172  0.0696  1.2103 -0.1305
 3494TIP3   OH210487   4.788   0.286   3.329 -0.5229 -0.4824 -0.2862
 3494TIP3    H110488   4.742   0.218   3.379  0.2857 -1.1729 -0.4805
 3494TIP3    H210489   4.825   0.343   3.396  0.2879 -1.2285 -0.0924
 3495TIP3   OH210490   1.916   4.032   2.621 -0.4760 -0.0068  0.4652
 3495TIP3    H110491   1.896   4.118   2.584 -0.7515 -0.0929  0.4074
 3495TIP3    H210492   1.986   4.048   2.683  0.2176  0.0986 -0.3257
 3496TIP3   OH210493   5.625   5.759   0.505 -0.2252 -0.1678  0.2503
 3496TIP3    H110494   5.604   5.770   0.412 -1.7315 -0.7413  0.5029
 3496TIP3    H210495   5.691   5.826   0.522  1.9868 -1.6273 -1.8163
 3497TIP3   OH210496   0.266   1.784   4.784 -0.4093  0.1779 -0.0276
 3497TIP3    H110497   0.341   1.773   4.843 -1.0633  0.5513  0.8848
 3497TIP3    H210498   0.278   1.871   4.746  0.3694 -0.3247 -0.9811
 3498TIP3   OH210499   4.058   2.534   4.958 -0.5710 -0.2066  0.6932
 3498TIP3    H110500   4.144   2.576   4.955 -0.3122 -0.6973  0.9851
 3498TIP3    H210501   4.009   2.573   4.886  0.5308 -1.2748 -0.7150
 3499TIP3   OH210502   1.984   0.860   3.747 -0.3547  0.0480 -0.1208
 3499TIP3    H110503   1.931   0.823   3.676  0.5894  0.6517 -1.1556
 3499TIP3    H210504   2.069   0.876   3.708  0.2661  0.1719  1.2251
 3500TIP3   OH210505   1.318   0.006   2.304  0.5442  0.1598  0.0540
 3500TIP3    H110506   1.337   0.062   2.380 -0.0889 -0.0622  0.3815
 3500TIP3    H210507   1.387   0.028   2.241  1.3786 -0.0113  0.8736
 3501TIP3   OH210508   4.140   5.403   0.311  0.2837  0.0765  0.3952
 3501TIP3    H110509   4.181   5.485   0.282 -0.1034  0.7390  1.6691
 3501TIP3    H210510   4.116   5.359   0.230  0.5595  1.1889 -0.3174
 3502TIP3   OH210511   3.798   3.216   4.949 -0.4541 -0.1431 -0.3520
 3502TIP3    H110512   3.835   3.161   4.879 -2.1963 -2.0837  0.1653
 3502TIP3    H210513   3.829   3.176   5.030 -0.6817  0.4308  0.0209
 3503TIP3   OH210514   3.585   2.262   0.324 -0.4903 -0.3306  0.2908
 3503TIP3    H110515   3.621   2.219   0.402 -0.0534 -0.1299  0.1978
 3503TIP3    H210516   3.552   2.346   0.356 -0.2474 -0.2186  0.2433
 3504TIP3   OH210517   0.642   5.172   0.679 -0.5644  0.2362 -0.1845
 3504TIP3    H110518   0.571   5.162   0.615 -0.4771 -2.1280 -0.0071
 3504TIP3    H210519   0.598   5.175   0.764 -0.6064  2.2249 -0.2287
 3505TIP3   OH210520   5.844   5.189   3.108 -0.3378 -0.4122 -0.4206
 3505TIP3    H110521   5.931   5.154   3.128 -0.7898 -2.0393 -1.1617
 3505TIP3    H210522   5.856   5.241   3.029  0.5625  2.2015  1.3113
 3506TIP3   OH210523   3.459   1.942   1.769 -0.0249  0.4505 -0.4899
 3506TIP3    H110524   3.546   1.944   1.730  0.3498  0.3652  0.3279
 3506TIP3    H210525   3.431   2.034   1.771  0.3191  0.5454 -0.1420
 3507TIP3   OH210526   2.584   3.267   2.073  0.1680 -0.6483  0.1048
 3507TIP3    H110527   2.675   3.258   2.102  0.6300 -0.2804 -1.1954
 3507TIP3    H210528   2.560   3.357   2.094  0.3094 -0.5568 -0.1296
 3508TIP3   OH210529   2.785   1.123   0.437 -0.4731  0.0516 -0.2264
 3508TIP3    H110530   2.863   1.178   0.427 -0.4824  0.0327 -0.4072
 3508TIP3    H210531   2.782   1.103   0.531 -0.0520 -0.2610 -0.2778
 3509TIP3   OH210532   2.711   5.140   3.639  0.6800  0.0288 -0.2549
 3509TIP3    H110533   2.661   5.096   3.709  2.1104 -0.3866  0.5645
 3509TIP3    H210534   2.783   5.079   3.621  1.7308  1.2630 -0.3233
 3510TIP3   OH210535   2.852   1.668   0.859  0.0756  0.0021  0.1450
 3510TIP3    H110536   2.813   1.581   0.856 -0.4563  0.2501 -0.3182
 3510TIP3    H210537   2.822   1.704   0.943 -2.5065  0.9882 -1.0904
 3511TIP3   OH210538   3.016   4.502   1.768  0.3438 -0.8472  0.0939
 3511TIP3    H110539   3.011   4.407   1.783  2.3228 -0.9260  0.5176
 3511TIP3    H210540   3.037   4.538   1.854 -3.0282  0.3396  0.5704
 3512TIP3   OH210541   2.104   5.191   1.730  0.1958  0.2486  0.2690
 3512TIP3    H110542   2.068   5.214   1.816 -0.3224 -1.2032  0.4579
 3512TIP3    H210543   2.163   5.263   1.710 -0.1643  0.9424  1.5454
 3513TIP3   OH210544   6.095   4.815   4.813  0.7096 -0.0430 -0.0048
 3513TIP3    H110545   6.177   4.823   4.765  1.6595  2.4846  1.7982
 3513TIP3    H210546   6.071   4.905   4.836 -1.5172 -0.8538  1.2409
 3514TIP3   OH210547   1.079   0.168   1.799  0.4240 -0.0958 -0.2430
 3514TIP3    H110548   1.091   0.228   1.726  0.2929 -0.2970 -0.4299
 3514TIP3    H210549   0.985   0.156   1.806  0.3968  0.4195  0.3665
 3515TIP3   OH210550   6.068   3.636   4.042  0.0658 -0.4721 -0.7309
 3515TIP3    H110551   6.060   3.666   4.132 -1.4655 -1.7856 -0.3842
 3515TIP3    H210552   6.079   3.717   3.991  0.9864  0.2818  0.6021
 3516TIP3   OH210553   3.020   0.418   2.709  0.1488 -0.4622  0.4603
 3516TIP3    H110554   2.933   0.383   2.728  0.4202 -1.0402  0.6445
 3516TIP3    H210555   3.079   0.343   2.717  0.5288 -0.3170 -0.7730
 3517TIP3   OH210556   6.290   3.253   4.855 -0.1736 -0.1970 -0.2380
 3517TIP3    H110557   6.217   3.311   4.873  0.4201  0.1697  1.0835
 3517TIP3    H210558   6.249   3.172   4.825 -1.1022  0.1365  0.0869
 3518TIP3   OH210559   4.773   0.059   2.310 -0.5086  0.2864  0.1079
 3518TIP3    H110560   4.800   0.079   2.221 -1.7447  1.4465 -0.0496
 3518TIP3    H210561   4.704   0.123   2.329  0.3361  0.6685  2.2118
 3519TIP3   OH210562   1.830   2.388   2.084 -1.0295  0.3814  0.4743
 3519TIP3    H110563   1.914   2.400   2.128  0.2396  0.3047 -1.7972
 3519TIP3    H210564   1.805   2.476   2.057 -0.1631  0.0757 -1.4314
 3520TIP3   OH210565   0.561   2.593   0.960 -0.5242  0.1121 -0.3278
 3520TIP3    H110566   0.533   2.656   1.027  0.9931 -0.4410  0.9085
 3520TIP3    H210567   0.502   2.519   0.971 -0.9741  0.4654 -0.3429
 3521TIP3   OH210568   2.227   5.149   3.144 -0.2816 -0.6502 -0.2017
 3521TIP3    H110569   2.209   5.106   3.228 -3.2828 -0.3380 -0.5845
 3521TIP3    H210570   2.292   5.216   3.165 -1.8960  0.2910  2.2051
 3522TIP3   OH210571   1.894   0.070   4.132  0.4893 -0.2190  0.0006
 3522TIP3    H110572   1.857  -0.010   4.169  0.4756 -0.7205 -1.0662
 3522TIP3    H210573   1.905   0.129   4.207 -1.0156 -0.6205  0.5564
 3523TIP3   OH210574   3.746   5.212   0.504 -0.1947  0.3826 -0.3915
 3523TIP3    H110575   3.679   5.147   0.526  1.3133 -0.8914  0.7248
 3523TIP3    H210576   3.820   5.190   0.561  0.2468  3.4005  0.3346
 3524TIP3   OH210577   4.158   2.546   3.612 -0.1424 -0.5008  0.0815
 3524TIP3    H110578   4.206   2.595   3.678  0.0172 -0.5422 -0.0020
 3524TIP3    H210579   4.066   2.557   3.634 -0.1292  0.2340 -0.2219
 3525TIP3   OH210580   3.825   4.088   4.613  0.3045 -0.4766 -0.4899
 3525TIP3    H110581   3.896   4.114   4.672 -0.4177  0.9193 -0.2049
 3525TIP3    H210582   3.813   4.163   4.555  0.0743 -1.2968 -1.5301
 3526TIP3   OH210583   4.722   1.049   1.414 -0.4626  0.0808  0.1344
 3526TIP3    H110584   4.745   1.070   1.505 -0.8369  1.9617 -0.1788
 3526TIP3    H210585   4.681   0.963   1.420 -1.3894  0.5763  1.9021
 3527TIP3   OH210586   4.501   3.426   4.279  0.4178 -0.2391 -0.6483
 3527TIP3    H110587   4.417   3.471   4.290  0.2845 -0.9666  1.7725
 3527TIP3    H210588   4.559   3.467   4.343  1.3182 -1.1505 -0.8626
 3528TIP3   OH210589   3.679   2.036   5.066  0.3150 -0.0131  0.0731
 3528TIP3    H110590   3.671   2.037   4.970  2.0259 -0.1678 -0.1110
 3528TIP3    H210591   3.758   1.985   5.082 -0.0142 -0.0807  1.5899
 3529TIP3   OH210592   4.059   5.239   3.808  0.0709  0.7116 -0.5423
 3529TIP3    H110593   4.133   5.224   3.748  0.1559  1.0975 -0.5379
 3529TIP3    H210594   4.093   5.214   3.894 -0.6570 -1.7469 -0.8880
 3530TIP3   OH210595   2.046   4.281   2.584 -0.7604 -0.6166 -0.3512
 3530TIP3    H110596   2.127   4.253   2.628 -0.5288 -1.1580 -1.1114
 3530TIP3    H210597   1.988   4.306   2.656 -0.0115 -0.4631  0.2186
 3531TIP3   OH210598   2.513   2.815   0.825  0.1182 -0.4311  0.0623
 3531TIP3    H110599   2.428   2.794   0.863 -0.0461 -0.9764 -0.5812
 3531TIP3    H210600   2.494   2.842   0.735  0.4535  1.3636  0.4940
 3532TIP3   OH210601   6.195   4.226   3.333  0.2537 -0.1791 -0.2486
 3532TIP3    H110602   6.185   4.155   3.271 -1.3908 -0.2545  0.0646
 3532TIP3    H210603   6.289   4.229   3.351  0.2520 -3.1677  0.7863
 3533TIP3   OH210604   6.297   1.766   2.299  0.8646  0.7993  0.8028
 3533TIP3    H110605   6.321   1.674   2.284  0.2538  0.6109  0.9725
 3533TIP3    H210606   6.273   1.799   2.213 -2.1028 -0.1290  1.1466
 3534TIP3   OH210607   0.289   2.634   1.818  0.6462 -0.2993 -0.4633
 3534TIP3    H110608   0.360   2.677   1.866  0.1296  0.1943 -0.1177
 3534TIP3    H210609   0.213   2.641   1.876  0.2484 -0.5753 -0.9380
 3535TIP3   OH210610   2.235   1.357   0.212 -0.2092 -0.3478  0.4982
 3535TIP3    H110611   2.306   1.297   0.233 -0.5712 -0.6786  0.8098
 3535TIP3    H210612   2.167   1.301   0.173 -0.2158 -0.0050  0.0095
 3536TIP3   OH210613   2.319   5.031   4.896  0.4313 -0.0608 -0.0483
 3536TIP3    H110614   2.273   5.080   4.965  0.2950  0.6045 -0.5988
 3536TIP3    H210615   2.258   5.029   4.823  0.9066  0.0010 -0.4533
 3537TIP3   OH210616   0.932   2.763   0.056 -0.0253  0.0078 -0.0330
 3537TIP3    H110617   1.002   2.786  -0.005 -0.0340  1.9786  0.6295
 3537TIP3    H210618   0.973   2.704   0.119  0.9945  0.9264  0.1951
 3538TIP3   OH210619   5.805   1.022   0.144 -0.3733  0.5454  0.0908
 3538TIP3    H110620   5.755   1.094   0.183 -0.1740  1.1087 -0.6563
 3538TIP3    H210621   5.889   1.061   0.121  0.8429 -0.6419  2.2312
 3539TIP3   OH210622   3.114   0.951   4.724  0.3238  0.2409  0.2466
 3539TIP3    H110623   3.112   0.884   4.793 -0.2131 -0.9119 -0.8476
 3539TIP3    H210624   3.089   1.032   4.768 -2.4220 -0.8911  0.9768
 3540TIP3   OH210625   5.328   5.907   2.638 -0.2071  0.2876  0.1011
 3540TIP3    H110626   5.342   5.846   2.565 -0.9820  0.1823  0.0331
 3540TIP3    H210627   5.350   5.993   2.602  0.7931  0.0673  0.1663
 3541TIP3   OH210628   4.382   3.366   0.008  0.4032  0.0938 -0.0002
 3541TIP3    H110629   4.392   3.360   0.103 -0.6776  0.3939  0.1397
 3541TIP3    H210630   4.334   3.447  -0.007 -1.6097 -1.1354 -0.6231
 3542TIP3   OH210631   0.716   0.498   3.613 -0.2093 -0.3537  1.0463
 3542TIP3    H110632   0.714   0.403   3.627  2.6319 -0.4285  1.5982
 3542TIP3    H210633   0.648   0.532   3.671 -0.9176 -2.0186  1.2539
 3543TIP3   OH210634   0.990   1.952   4.489  0.3768  0.4406 -0.0392
 3543TIP3    H110635   1.039   2.016   4.541 -0.0460  2.7963 -2.3601
 3543TIP3    H210636   0.904   1.950   4.530  0.9637 -0.1976  1.2351
 3544TIP3   OH210637   5.218   2.341   4.441 -0.4267  0.0027 -0.1881
 3544TIP3    H110638   5.235   2.410   4.376  0.0801 -0.0702 -0.1351
 3544TIP3    H210639   5.155   2.381   4.501  0.2099  0.5831  0.1043
 3545TIP3   OH210640   2.194   4.496   0.755  0.5591 -0.2289 -0.1057
 3545TIP3    H110641   2.135   4.466   0.686  0.4626 -1.5166  0.5117
 3545TIP3    H210642   2.152   4.573   0.791 -1.2978 -1.6655  0.9829
 3546TIP3   OH210643   1.279   3.531   3.782  0.2605  0.4046 -0.0280
 3546TIP3    H110644   1.249   3.520   3.692  3.1665 -0.2137 -1.0405
 3546TIP3    H210645   1.240   3.458   3.829 -3.4207  2.1713 -0.0596
 3547TIP3   OH210646   5.561   4.565   0.328  0.4458 -0.2020  0.4898
 3547TIP3    H110647   5.471   4.543   0.305  0.2966  0.4638  0.4169
 3547TIP3    H210648   5.609   4.482   0.321 -0.0651 -0.4650  0.0695
 3548TIP3   OH210649   4.369   0.150   0.823  0.7487  0.1549 -0.0015
 3548TIP3    H110650   4.372   0.065   0.867  3.2463 -1.1608 -2.3697
 3548TIP3    H210651   4.298   0.143   0.760 -1.0354  1.0369  1.8131
 3549TIP3   OH210652   5.060   2.260   0.176 -0.6270 -0.3233  0.5050
 3549TIP3    H110653   5.127   2.249   0.243 -0.3938  0.9189  0.4948
 3549TIP3    H210654   4.991   2.310   0.219 -0.9250 -0.3846  0.1095
 3550TIP3   OH210655   3.652   0.756   0.140 -0.2984 -0.0798  0.2315
 3550TIP3    H110656   3.594   0.778   0.067 -1.4605 -0.2248  1.0905
 3550TIP3    H210657   3.672   0.663   0.127  0.9979  0.3113 -0.8932
 3551TIP3   OH210658   5.714   2.566   2.207 -0.4316 -0.6520 -0.7206
 3551TIP3    H110659   5.778   2.495   2.198 -0.0439 -0.3175 -0.6733
 3551TIP3    H210660   5.767   2.642   2.233 -0.4428  0.2635 -3.0883
 3552TIP3   OH210661   3.575   1.691   0.106  0.1721  0.8509  0.7240
 3552TIP3    H110662   3.593   1.782   0.080 -0.6729  0.4894 -1.2499
 3552TIP3    H210663   3.498   1.666   0.055  1.2266 -1.4354  0.1496
 3553TIP3   OH210664   3.163   4.349   4.905 -0.6379 -0.0830 -0.5585
 3553TIP3    H110665   3.196   4.331   4.993  1.3266  1.1314 -0.9650
 3553TIP3    H210666   3.072   4.375   4.918 -0.0767  1.1957  1.2867
 3554TIP3   OH210667   4.082   1.709   2.187  0.0437  0.1658  0.2220
 3554TIP3    H110668   4.164   1.662   2.204 -1.1571 -2.9376 -1.5727
 3554TIP3    H210669   4.017   1.665   2.241 -0.4630  3.0925  2.2290
 3555TIP3   OH210670   6.180   2.114   1.646  0.0926  0.4847 -0.2423
 3555TIP3    H110671   6.214   2.118   1.557 -0.0543  0.0992 -0.3173
 3555TIP3    H210672   6.106   2.053   1.641  1.0958 -0.8687  0.4615
 3556TIP3   OH210673   0.475   5.977   2.482 -0.7599 -0.5266 -0.2498
 3556TIP3    H110674   0.458   5.944   2.570 -1.9966 -1.2423 -0.7338
 3556TIP3    H210675   0.549   5.926   2.451  1.0948  1.1846  1.1271
 3557TIP3   OH210676   1.491   0.165   0.924  0.0370 -0.1883  0.1773
 3557TIP3    H110677   1.464   0.166   1.016  0.0345 -0.4916  0.1813
 3557TIP3    H210678   1.412   0.137   0.877  0.3678 -1.2126  0.2006
 3558TIP3   OH210679   2.091   2.800   0.613  0.0928  0.2076 -0.4905
 3558TIP3    H110680   2.092   2.705   0.599 -0.3447 -0.1680  1.6350
 3558TIP3    H210681   2.183   2.827   0.601  0.9002 -1.0761  2.0105
 3559TIP3   OH210682   1.183   2.970   1.321 -0.1294  0.2579 -0.3903
 3559TIP3    H110683   1.154   2.900   1.379 -0.9930  0.7695 -0.1875
 3559TIP3    H210684   1.103   3.016   1.297  0.3554  0.7960 -1.0258
 3560TIP3   OH210685   5.547   5.762   1.082  0.5770 -0.4595 -0.4952
 3560TIP3    H110686   5.490   5.838   1.067 -0.2761 -0.8036  0.8274
 3560TIP3    H210687   5.524   5.701   1.011 -0.8298 -0.6460  0.0918
 3561TIP3   OH210688   4.742   0.961   0.955 -0.4511  0.2137  0.2960
 3561TIP3    H110689   4.784   0.906   1.021  2.1506 -0.9970 -2.1291
 3561TIP3    H210690   4.677   1.011   1.003 -0.0091 -1.9096  3.3961
 3562TIP3   OH210691   3.527   5.920   0.049  0.4212 -0.2502 -0.8019
 3562TIP3    H110692   3.618   5.919   0.020  0.2501  1.5874 -1.5105
 3562TIP3    H210693   3.516   6.004   0.093 -1.1021 -0.1461 -1.3183
 3563TIP3   OH210694   3.069   5.730   2.312 -0.1876 -0.3859  0.1007
 3563TIP3    H110695   3.159   5.698   2.310 -0.7018 -1.8689 -1.1672
 3563TIP3    H210696   3.032   5.695   2.393 -0.0968 -1.2396 -0.2109
 3564TIP3   OH210697   2.972   0.108   1.077  0.0176 -0.2047 -0.2206
 3564TIP3    H110698   3.059   0.069   1.084  1.2233  2.5031  1.5447
 3564TIP3    H210699   2.915   0.050   1.128  1.1194 -1.1391 -0.0141
 3565TIP3   OH210700   5.861   5.930   4.741  0.4883 -0.9583 -0.0753
 3565TIP3    H110701   5.956   5.919   4.747  0.6474 -0.9807 -2.0647
 3565TIP3    H210702   5.826   5.841   4.740  0.4786 -0.9578  0.1459
 3566TIP3   OH210703   3.370   4.105   4.745  0.4715 -0.3469 -0.0249
 3566TIP3    H110704   3.293   4.150   4.709  1.2712  0.5425 -0.6769
 3566TIP3    H210705   3.441   4.127   4.685  1.3304 -0.8102  0.7913
 3567TIP3   OH210706   2.067   1.048   1.166 -0.0429 -0.4622  0.0387
 3567TIP3    H110707   2.044   1.022   1.076  0.2319 -0.0324 -0.1613
 3567TIP3    H210708   2.028   1.135   1.176  0.4696 -0.2412  0.1155
 3568TIP3   OH210709   5.319   4.107   4.395  0.7257 -0.2546  0.1825
 3568TIP3    H110710   5.265   4.037   4.359  0.2264  0.3159 -0.1840
 3568TIP3    H210711   5.374   4.135   4.322 -1.7201  2.3244 -0.8379
 3569TIP3   OH210712   5.633   2.897   2.041 -0.7518 -0.4985  0.6512
 3569TIP3    H110713   5.680   2.870   2.120  0.0541 -1.7172 -0.2137
 3569TIP3    H210714   5.702   2.921   1.979 -1.3803  0.4559  0.3069
 3570TIP3   OH210715   0.495   2.642   0.094  0.8380 -0.2216 -0.2958
 3570TIP3    H110716   0.438   2.620   0.167 -0.8715  1.2698 -1.1089
 3570TIP3    H210717   0.570   2.584   0.104  0.8340  0.1599  2.8101
 3571TIP3   OH210718   2.927   4.980   0.968 -0.0484  0.3218 -0.3938
 3571TIP3    H110719   2.908   4.973   0.874 -0.8260  0.9789 -0.2930
 3571TIP3    H210720   2.922   5.073   0.987 -1.4707  0.0605  0.6203
 3572TIP3   OH210721   4.329   3.980   4.383  0.7712  0.1523 -0.3380
 3572TIP3    H110722   4.415   3.979   4.424  0.3850 -2.7179  0.6608
 3572TIP3    H210723   4.344   3.944   4.295  0.6310 -0.2244 -0.2108
 3573TIP3   OH210724   3.183   5.516   4.699 -0.4525 -0.4210  0.0130
 3573TIP3    H110725   3.117   5.582   4.677 -0.2276  0.2486  1.2614
 3573TIP3    H210726   3.143   5.465   4.770 -0.8704 -2.0601 -1.3263
 3574TIP3   OH210727   5.318   1.602   0.107  0.3627  0.0256  0.1469
 3574TIP3    H110728   5.265   1.618   0.029 -0.3627 -1.6335  0.2582
 3574TIP3    H210729   5.268   1.537   0.157  2.1748 -1.0815  0.5926
 3575TIP3   OH210730   2.355   4.271   1.150 -0.1451  0.0742 -0.8669
 3575TIP3    H110731   2.346   4.245   1.059 -1.6454 -2.1432 -0.1543
 3575TIP3    H210732   2.290   4.340   1.162 -0.4469 -0.1361 -1.2843
 3576TIP3   OH210733   4.084   2.721   3.358  0.3377 -0.3565 -0.0691
 3576TIP3    H110734   4.165   2.691   3.318 -0.4919 -1.6371 -0.8429
 3576TIP3    H210735   4.084   2.681   3.445  0.5512 -0.3298 -0.0561
 3577TIP3   OH210736   3.862   1.864   2.757  0.0353 -0.2283 -0.1480
 3577TIP3    H110737   3.896   1.944   2.797  1.1051 -0.0764 -1.3239
 3577TIP3    H210738   3.777   1.850   2.801 -0.0878  1.4287  0.2084
 3578TIP3   OH210739   3.015   0.947   1.639  0.2161  0.2106 -0.1097
 3578TIP3    H110740   3.079   0.901   1.693  1.2272  1.8912  0.1884
 3578TIP3    H210741   2.935   0.894   1.646  1.2392 -1.3429  0.3896
 3579TIP3   OH210742   0.667   0.308   3.132  0.1677  0.2526  0.1303
 3579TIP3    H110743   0.759   0.282   3.137  0.5364  1.6060  1.5773
 3579TIP3    H210744   0.624   0.239   3.081  2.1082 -0.0270 -1.2366
 3580TIP3   OH210745   3.836   1.574   0.113 -0.3266 -0.1056 -0.0684
 3580TIP3    H110746   3.794   1.597   0.196  0.8656 -3.0545  1.5099
 3580TIP3    H210747   3.768   1.586   0.047 -1.5078  1.7371  1.3851
 3581TIP3   OH210748   2.700   2.452   3.931  0.6551 -0.0429  0.6228
 3581TIP3    H110749   2.748   2.436   4.012  1.7903 -1.3768 -0.2666
 3581TIP3    H210750   2.737   2.389   3.868  0.4684  1.5728 -1.1968
 3582TIP3   OH210751   5.446   3.524   2.896  0.8561  1.1650  0.6269
 3582TIP3    H110752   5.487   3.533   2.811  2.1688  0.6117  1.1784
 3582TIP3    H210753   5.412   3.435   2.898  1.8094  0.7918  1.0704
 3583TIP3   OH210754   4.689   5.881   4.059 -0.1212 -0.1645  0.3030
 3583TIP3    H110755   4.751   5.948   4.088  1.0256  0.1349 -2.5768
 3583TIP3    H210756   4.608   5.928   4.041  0.2535  0.2345 -0.3682
 3584TIP3   OH210757   3.871   0.809   2.265  0.1047 -0.0046  0.5117
 3584TIP3    H110758   3.860   0.779   2.355  1.0696  0.7868  0.9249
 3584TIP3    H210759   3.832   0.897   2.264 -2.0589 -0.9115 -0.4909
 3585TIP3   OH210760   1.293   1.409   1.374  0.1356 -0.2268 -0.0954
 3585TIP3    H110761   1.309   1.372   1.287  0.3586 -0.0259 -0.1403
 3585TIP3    H210762   1.227   1.352   1.413 -0.5115  0.1064 -0.6812
 3586TIP3   OH210763   2.162   3.554   4.025  0.2728  0.5615 -0.0547
 3586TIP3    H110764   2.248   3.586   3.999  0.3137  0.0800 -0.5305
 3586TIP3    H210765   2.179   3.473   4.072  0.1396  0.9857  0.7534
 3587TIP3   OH210766   3.955   2.591   2.632 -0.3092 -0.2885 -0.5241
 3587TIP3    H110767   4.002   2.544   2.701  0.8545 -0.0289 -1.1093
 3587TIP3    H210768   3.952   2.682   2.664 -0.2510 -0.2707 -0.5694
 3588TIP3   OH210769   5.879   2.346   2.168 -0.9719 -0.1178 -0.3773
 3588TIP3    H110770   5.850   2.271   2.116 -1.2036  0.7872 -1.5907
 3588TIP3    H210771   5.961   2.316   2.207 -1.4936 -1.3033 -0.1339
 3589TIP3   OH210772   3.322   5.491   4.406  0.2721 -0.1201 -0.0980
 3589TIP3    H110773   3.286   5.579   4.420 -1.3285 -0.7037 -0.4183
 3589TIP3    H210774   3.389   5.483   4.474 -1.6970  0.2052  2.0072
 3590TIP3   OH210775   4.607   0.529   4.733  0.1988  0.1129 -0.4114
 3590TIP3    H110776   4.679   0.466   4.741  0.3781  0.3299 -0.2996
 3590TIP3    H210777   4.633   0.586   4.661 -0.2156 -0.2700 -0.8604
 3591TIP3   OH210778   1.438   0.561   0.400 -0.3877 -0.2481 -0.0747
 3591TIP3    H110779   1.431   0.519   0.486 -0.2895  0.1332  0.1212
 3591TIP3    H210780   1.347   0.569   0.370 -0.4699  0.2148  0.2853
 3592TIP3   OH210781   0.064   1.308   3.128  0.3538  0.1512 -0.1875
 3592TIP3    H110782   0.150   1.271   3.147  0.2818  0.7637  1.4943
 3592TIP3    H210783   0.077   1.403   3.135  0.0321  0.3883 -2.2096
 3593TIP3   OH210784   3.879   1.246   1.708 -1.1558 -0.1384 -0.3017
 3593TIP3    H110785   3.790   1.248   1.744 -0.7425 -0.0077  0.7328
 3593TIP3    H210786   3.919   1.169   1.748 -0.2239  0.8322  0.6959
 3594TIP3   OH210787   0.096   1.026   3.434  0.0764 -0.5819 -0.2864
 3594TIP3    H110788   0.187   1.054   3.440  0.1646 -0.6464 -1.1461
 3594TIP3    H210789   0.094   0.965   3.359 -0.9125  0.4621 -1.1580
 3595TIP3   OH210790   2.922   2.788   3.046 -0.2169 -0.6672 -0.3604
 3595TIP3    H110791   2.909   2.794   2.952 -0.3728  0.0285 -0.2982
 3595TIP3    H210792   2.985   2.857   3.066 -0.6489 -0.4078  0.1287
 3596TIP3   OH210793   0.706   4.161   4.673 -0.7012  0.4726 -0.0122
 3596TIP3    H110794   0.668   4.106   4.604  0.4535 -0.1458 -0.1725
 3596TIP3    H210795   0.748   4.233   4.625 -0.3303  0.3132  0.0739
 3597TIP3   OH210796   2.521   4.943   3.987  0.1105 -0.6535 -0.1903
 3597TIP3    H110797   2.474   4.942   3.904  0.0765 -0.7647 -0.1698
 3597TIP3    H210798   2.592   4.879   3.975  0.0058 -0.7905 -0.0752
 3598TIP3   OH210799   3.195   1.596   0.490 -0.5318 -0.0574 -0.0080
 3598TIP3    H110800   3.141   1.664   0.451  1.3883  1.1510 -0.6930
 3598TIP3    H210801   3.176   1.601   0.584 -1.1710  0.7199 -0.1729
 3599TIP3   OH210802   5.185   3.490   1.620 -0.3773 -0.2456  0.1822
 3599TIP3    H110803   5.104   3.463   1.577  0.5090  0.2151 -1.8706
 3599TIP3    H210804   5.196   3.581   1.595  1.6988 -0.8061 -1.1252
 3600TIP3   OH210805   3.505   5.497   4.201 -0.1487  0.8167  0.2221
 3600TIP3    H110806   3.511   5.439   4.277  0.2747  1.4149  0.6581
 3600TIP3    H210807   3.415   5.529   4.201 -0.1362  0.8511  0.5057
 3601TIP3   OH210808   0.966   1.252   3.760  0.1066 -0.1592 -0.3834
 3601TIP3    H110809   0.920   1.327   3.797  0.2079 -0.9626  1.4296
 3601TIP3    H210810   1.042   1.240   3.816 -0.2399 -2.0090 -0.2544
 3602TIP3   OH210811   2.700   0.540   3.996 -0.4737  0.1162 -0.3107
 3602TIP3    H110812   2.759   0.517   3.925  0.5630  0.7229  0.3247
 3602TIP3    H210813   2.690   0.459   4.046  1.0176  0.3464  0.4054
 3603TIP3   OH210814   3.779   3.200   2.634 -0.1152 -0.0919 -0.0159
 3603TIP3    H110815   3.711   3.242   2.687 -1.1186  1.8849 -2.6398
 3603TIP3    H210816   3.860   3.246   2.656  0.0465 -1.1379  1.7009
 3604TIP3   OH210817   0.991   3.174   1.238  0.1892  0.9077  0.1175
 3604TIP3    H110818   1.000   3.156   1.144 -1.4692  0.8439 -0.0681
 3604TIP3    H210819   1.010   3.267   1.246  0.3334  0.9174 -0.2949
 3605TIP3   OH210820   3.997   3.377   2.030  0.3398 -0.4238  0.6922
 3605TIP3    H110821   4.050   3.360   2.109  0.3511  1.8556  1.2302
 3605TIP3    H210822   3.914   3.410   2.064 -0.0975 -0.5386 -0.2431
 3606TIP3   OH210823   5.817   1.551   0.795  0.1180 -0.3893 -0.2760
 3606TIP3    H110824   5.734   1.591   0.819 -0.7085 -1.4349 -1.3029
 3606TIP3    H210825   5.869   1.622   0.759 -0.7643  0.0512 -0.7010
 3607TIP3   OH210826   0.789   1.775   4.209 -0.5440 -0.0935 -0.2221
 3607TIP3    H110827   0.775   1.682   4.229  1.1474 -0.4070 -0.3243
 3607TIP3    H210828   0.794   1.778   4.113  0.2238 -0.0489 -0.1883
 3608TIP3   OH210829   0.224   0.829   0.233 -0.0396  0.6016  0.1696
 3608TIP3    H110830   0.181   0.913   0.213 -2.0950 -0.4456 -0.1516
 3608TIP3    H210831   0.181   0.767   0.174  0.0442 -1.0232  1.7548
 3609TIP3   OH210832   3.140   4.071   4.386  0.2076 -0.1219  0.0919
 3609TIP3    H110833   3.058   4.026   4.368  0.7352 -1.0239 -0.1203
 3609TIP3    H210834   3.161   4.048   4.477  0.0821  0.3481  0.2438
 3610TIP3   OH210835   0.351   2.422   0.463 -0.3671 -0.1095 -0.0343
 3610TIP3    H110836   0.420   2.360   0.483 -0.2275  0.5887  1.9027
 3610TIP3    H210837   0.308   2.439   0.548 -0.0118  2.8363 -0.3247
 3611TIP3   OH210838   2.972   1.237   4.744  0.4278 -0.4781 -0.2821
 3611TIP3    H110839   2.978   1.332   4.731  1.0188 -0.5485 -0.5570
 3611TIP3    H210840   2.916   1.206   4.673  0.7127 -0.4073 -0.5391
 3612TIP3   OH210841   2.964   3.186   0.397 -0.2940 -0.2147 -0.2587
 3612TIP3    H110842   2.917   3.115   0.353  0.3296 -1.3221  0.8426
 3612TIP3    H210843   3.002   3.146   0.475 -1.4067  1.6955  1.3606
 3613TIP3   OH210844   6.089   0.982   4.326  0.0076  0.0696  0.2494
 3613TIP3    H110845   6.121   1.050   4.266  0.4932  0.1867  0.6438
 3613TIP3    H210846   6.069   1.029   4.407 -1.6335  0.0914 -0.1288
 3614TIP3   OH210847   3.113   3.380   2.710 -0.5188  0.0222 -0.0491
 3614TIP3    H110848   3.069   3.443   2.767  0.8598  0.7094  0.2860
 3614TIP3    H210849   3.203   3.411   2.703  0.0162 -1.4985 -0.4813
 3615TIP3   OH210850   4.101   2.729   0.885  0.0276  0.0943 -0.0857
 3615TIP3    H110851   4.180   2.724   0.831 -0.4032  0.1465 -0.7298
 3615TIP3    H210852   4.130   2.771   0.966  0.6822  0.0084 -0.2673
 3616TIP3   OH210853   0.741   4.460   1.956  0.1223 -0.9803  0.0634
 3616TIP3    H110854   0.820   4.435   2.005  0.7150 -0.9432 -0.8585
 3616TIP3    H210855   0.733   4.554   1.970  0.9126 -0.7765 -0.7799
 3617TIP3   OH210856   0.336   1.802   0.024  0.2464 -0.0267  0.2510
 3617TIP3    H110857   0.315   1.864   0.095 -0.3012  1.2536 -0.9908
 3617TIP3    H210858   0.369   1.857  -0.047 -0.2182 -1.1778 -0.8823
 3618TIP3   OH210859   1.463   2.248   0.815 -0.2610  0.6437  0.2817
 3618TIP3    H110860   1.454   2.155   0.796  0.7110  0.2011  1.8328
 3618TIP3    H210861   1.516   2.283   0.744 -2.1409  0.4453 -1.3199
 3619TIP3   OH210862   4.871   0.341   5.026 -0.1552 -0.2112 -0.5934
 3619TIP3    H110863   4.905   0.387   4.949 -0.5374  0.3754 -0.4203
 3619TIP3    H210864   4.918   0.381   5.099 -0.7906  0.2002 -0.4034
 3620TIP3   OH210865   0.288   5.853   2.102 -0.3839 -0.4511  0.2402
 3620TIP3    H110866   0.378   5.832   2.127 -0.1641  0.9235  0.6827
 3620TIP3    H210867   0.235   5.823   2.175 -0.2264 -0.7599  0.2276
 3621TIP3   OH210868   3.292   3.964   3.569 -0.1605  0.5297 -0.6296
 3621TIP3    H110869   3.269   4.031   3.505 -0.0510 -0.3171 -1.5724
 3621TIP3    H210870   3.383   3.941   3.549  0.0554  0.6298  0.1726
 3622TIP3   OH210871   4.088   2.773   1.358  0.3566 -0.1575  0.2079
 3622TIP3    H110872   4.078   2.700   1.296 -0.5057  0.5957 -0.5648
 3622TIP3    H210873   4.175   2.760   1.396  1.0101 -0.5169 -1.3299
 3623TIP3   OH210874   3.463   1.990   3.562  0.1098  0.1652  0.5991
 3623TIP3    H110875   3.414   2.046   3.503 -0.4668  0.6467  1.5050
 3623TIP3    H210876   3.399   1.927   3.595  0.1274  0.6606  1.6192
 3624TIP3   OH210877   4.667   2.041   4.063  0.0990  0.3753 -0.3681
 3624TIP3    H110878   4.643   2.071   4.151 -0.0078  0.0474 -0.2828
 3624TIP3    H210879   4.584   2.039   4.015 -0.0602 -0.7597 -0.0736
 3625TIP3   OH210880   5.228   2.140   1.047 -0.2613 -0.6697  0.8372
 3625TIP3    H110881   5.286   2.195   0.995 -1.3484 -1.4134 -1.2841
 3625TIP3    H210882   5.286   2.078   1.090  0.6949 -0.0041  0.5305
 3626TIP3   OH210883   0.437   4.010   1.532 -0.5365  0.0963 -1.3242
 3626TIP3    H110884   0.516   3.969   1.567  1.0758  2.2443 -2.2248
 3626TIP3    H210885   0.397   3.942   1.477  0.0722 -1.3714 -0.0355
 3627TIP3   OH210886   2.316   4.232   4.773  0.1368  0.2217  0.2480
 3627TIP3    H110887   2.292   4.148   4.813 -1.1524  1.0120  1.2127
 3627TIP3    H210888   2.273   4.231   4.688  1.0731 -0.5426 -0.2479
 3628TIP3   OH210889   5.123   3.748   1.538  0.3522 -0.7044  0.5234
 3628TIP3    H110890   5.139   3.810   1.609 -0.0118  0.1613 -0.1341
 3628TIP3    H210891   5.122   3.802   1.459 -0.3482 -1.4970 -0.0235
 3629TIP3   OH210892   1.665   4.081   3.626  0.7264  0.0957 -0.5369
 3629TIP3    H110893   1.573   4.105   3.623  0.7824  0.2329 -1.3922
 3629TIP3    H210894   1.709   4.146   3.571  1.5086  0.7864  0.8308
 3630TIP3   OH210895   6.102   2.748   2.156  0.4422  0.1158  0.2094
 3630TIP3    H110896   6.026   2.801   2.179 -0.1349 -0.1048 -1.0840
 3630TIP3    H210897   6.072   2.693   2.083  0.9319 -2.2011  1.6467
 3631TIP3   OH210898   0.616   1.662   3.337  0.0592  0.4726 -0.0788
 3631TIP3    H110899   0.598   1.734   3.276 -1.3739  0.1148 -0.1272
 3631TIP3    H210900   0.542   1.664   3.398 -0.5570 -1.5562 -0.6724
 3632TIP3   OH210901   2.507   0.737   3.945 -0.2330  0.2365 -0.4251
 3632TIP3    H110902   2.581   0.689   3.983  0.8144  0.6542 -1.8649
 3632TIP3    H210903   2.488   0.691   3.864 -2.7319 -0.9085  0.7061
 3633TIP3   OH210904   1.004   1.261   4.576 -0.1646  0.2919  0.2679
 3633TIP3    H110905   0.977   1.214   4.497  0.2440  1.3479 -0.5354
 3633TIP3    H210906   1.096   1.284   4.561 -0.6344  2.2988  0.0924
 3634TIP3   OH210907   5.189   5.175   2.531  0.1175  0.4356  0.0376
 3634TIP3    H110908   5.140   5.231   2.592  0.7083 -0.6615  1.5905
 3634TIP3    H210909   5.280   5.199   2.544  0.1448  1.2649 -1.5784
 3635TIP3   OH210910   4.960   2.799   2.200  0.5083  0.0963  0.3669
 3635TIP3    H110911   5.030   2.858   2.171 -0.9403  1.3649 -0.7435
 3635TIP3    H210912   4.941   2.826   2.289 -1.3726  2.6733 -0.7039
 3636TIP3   OH210913   4.599   3.862   1.083  0.3911  0.6178 -0.3477
 3636TIP3    H110914   4.510   3.840   1.111  0.0132  0.0475 -1.9210
 3636TIP3    H210915   4.597   3.957   1.071 -0.2628  0.5045 -1.2072
 3637TIP3   OH210916   3.324   2.718   3.712  0.2310 -0.6780 -0.2528
 3637TIP3    H110917   3.378   2.762   3.778  0.4578 -0.2332 -0.7309
 3637TIP3    H210918   3.380   2.648   3.679  1.3242  1.0099 -2.1896
 3638TIP3   OH210919   0.243   2.744   3.901  0.6667 -0.2830  0.1088
 3638TIP3    H110920   0.223   2.771   3.991  0.9152 -0.3447  0.1818
 3638TIP3    H210921   0.294   2.664   3.911  0.8946 -0.1619 -0.0807
 3639TIP3   OH210922   1.451   5.723   3.272  0.2373  0.1706 -0.0562
 3639TIP3    H110923   1.470   5.772   3.191  0.3868  0.2327  0.0165
 3639TIP3    H210924   1.369   5.761   3.304 -0.5798 -0.8022 -0.9264
 3640TIP3   OH210925   6.331   0.445   1.084 -0.5045  0.1710 -0.3296
 3640TIP3    H110926   6.323   0.530   1.128  3.6430 -0.1051  1.3561
 3640TIP3    H210927   6.329   0.381   1.155 -1.6701 -1.0719 -1.4137
 3641TIP3   OH210928   5.858   4.887   1.710 -0.0577 -0.3197  0.5115
 3641TIP3    H110929   5.925   4.919   1.771  0.0163  0.8409 -0.1434
 3641TIP3    H210930   5.847   4.795   1.732  1.4821 -0.4334  0.8932
 3642TIP3   OH210931   1.589   3.005   3.596  0.0812  0.6074  0.4470
 3642TIP3    H110932   1.557   3.010   3.686  0.6792  1.0223  0.6429
 3642TIP3    H210933   1.669   3.058   3.596  0.7908 -0.4089 -0.0182
 3643TIP3   OH210934   3.529   3.279   2.288  0.0220 -0.1862  0.0969
 3643TIP3    H110935   3.548   3.357   2.340 -0.3892  0.2784 -0.4329
 3643TIP3    H210936   3.555   3.303   2.199 -0.6278 -0.4488 -0.1725
 3644TIP3   OH210937   5.811   5.787   2.659 -0.5745  0.5501  0.1680
 3644TIP3    H110938   5.839   5.878   2.651  0.7211  0.3228  1.6597
 3644TIP3    H210939   5.770   5.767   2.574  1.8811  1.5770 -1.3676
 3645TIP3   OH210940   4.784   5.274   4.869  0.1519  0.0151 -0.0665
 3645TIP3    H110941   4.799   5.182   4.846  0.7019  0.1784 -0.3697
 3645TIP3    H210942   4.823   5.284   4.956  1.4530  0.3279 -0.6657
 3646TIP3   OH210943   1.979   5.954   4.988  0.3993  0.2361 -0.4329
 3646TIP3    H110944   1.966   5.884   4.923  2.4465 -0.1551 -0.4914
 3646TIP3    H210945   2.063   5.993   4.964  0.9157  0.4963  1.6097
 3647TIP3   OH210946   1.780   0.465   4.995 -0.0964 -0.2793  0.6023
 3647TIP3    H110947   1.702   0.418   4.964 -0.3129  0.4260  0.0592
 3647TIP3    H210948   1.753   0.502   5.079 -0.6786  0.7769 -0.0322
 3648TIP3   OH210949   3.564   4.832   1.876 -0.9381 -0.0649  0.1301
 3648TIP3    H110950   3.522   4.891   1.938  0.7882  0.1328  1.1606
 3648TIP3    H210951   3.537   4.744   1.903  1.6254 -0.2043  2.7890
 3649TIP3   OH210952   0.148   3.092   1.155  0.3235  0.2431  0.5230
 3649TIP3    H110953   0.148   3.078   1.250  0.6527 -0.2623  0.4533
 3649TIP3    H210954   0.190   3.013   1.120 -1.9686 -0.7245 -0.2101
 3650TIP3   OH210955   3.167   5.632   0.876  0.1468  0.2116 -0.4494
 3650TIP3    H110956   3.177   5.717   0.919  1.0603  0.1755 -0.5622
 3650TIP3    H210957   3.083   5.637   0.831 -1.7030 -0.3281  2.6330
 3651TIP3   OH210958   5.273   0.855   1.825 -0.8622 -0.3463 -0.3713
 3651TIP3    H110959   5.366   0.859   1.850 -0.1782  3.8613 -2.6451
 3651TIP3    H210960   5.271   0.797   1.750 -0.2803 -1.2282  0.2759
 3652TIP3   OH210961   3.814   3.997   3.459 -0.3406 -0.1056 -0.3964
 3652TIP3    H110962   3.857   4.076   3.425 -0.2850 -0.0270 -0.1445
 3652TIP3    H210963   3.882   3.954   3.511 -0.3770 -0.3093 -0.5162
 3653TIP3   OH210964   5.415   5.159   1.568  0.1656 -0.0524 -0.1722
 3653TIP3    H110965   5.460   5.222   1.512  1.5260 -0.9709 -0.1732
 3653TIP3    H210966   5.394   5.086   1.510 -1.4387  0.3891 -0.1848
 3654TIP3   OH210967   0.950   2.215   0.891 -0.2977  0.0510 -0.2120
 3654TIP3    H110968   0.858   2.192   0.898 -0.2561  0.0510  0.3513
 3654TIP3    H210969   0.996   2.144   0.936  0.0543 -0.4761 -1.3433
 3655TIP3   OH210970   1.245   4.725   1.850  0.6705 -0.8083 -0.2700
 3655TIP3    H110971   1.193   4.663   1.799 -0.5075 -1.0429  1.1293
 3655TIP3    H210972   1.233   4.809   1.805 -1.3654 -0.7590  0.2424
 3656TIP3   OH210973   0.874   0.369   2.858 -0.7539 -0.1720  0.0223
 3656TIP3    H110974   0.801   0.422   2.825 -1.1420 -0.0429  1.0577
 3656TIP3    H210975   0.937   0.434   2.890 -0.2090 -0.2863 -0.7631
 3657TIP3   OH210976   2.010   1.695   1.590  0.2608 -0.1597  0.4161
 3657TIP3    H110977   2.071   1.625   1.567 -0.4448 -0.3940 -0.8280
 3657TIP3    H210978   1.952   1.655   1.655  0.2280 -0.5541  0.1489
 3658TIP3   OH210979   4.659   0.688   1.329 -0.5971 -0.0549 -0.1972
 3658TIP3    H110980   4.595   0.696   1.258 -0.6755  1.9298  0.0474
 3658TIP3    H210981   4.624   0.743   1.399  0.1338 -0.9637  0.9134
 3659TIP3   OH210982   3.321   3.806   4.103 -0.5923  0.1190  0.1861
 3659TIP3    H110983   3.230   3.835   4.095 -1.4098 -2.1911  0.3478
 3659TIP3    H210984   3.362   3.834   4.021 -1.2175  1.8286  0.4213
 3660TIP3   OH210985   1.103   3.001   3.293  0.4779  0.3249  0.3584
 3660TIP3    H110986   1.096   2.943   3.217 -1.0785  0.4919  0.3269
 3660TIP3    H210987   1.196   3.019   3.301  0.7590 -0.3193 -1.0391
 3661TIP3   OH210988   4.321   4.783   0.873  0.1159  0.3730 -0.0945
 3661TIP3    H110989   4.359   4.737   0.948  0.7471  0.7933 -0.1462
 3661TIP3    H210990   4.338   4.726   0.798  0.6696  0.5566 -0.1179
 3662TIP3   OH210991   0.730   3.329   0.106  0.1709  0.3033 -0.4175
 3662TIP3    H110992   0.819   3.345   0.076  0.4201  0.5463  0.4163
 3662TIP3    H210993   0.741   3.298   0.196 -0.5717  0.0188 -0.4187
 3663TIP3   OH210994   5.599   0.978   2.358 -0.2822  0.1533 -0.0323
 3663TIP3    H110995   5.664   0.973   2.428  2.8243 -0.9056 -2.7029
 3663TIP3    H210996   5.576   0.886   2.340  0.8908  0.1716 -1.9135
 3664TIP3   OH210997   2.197   2.914   2.252 -0.3457 -0.4781 -0.4969
 3664TIP3    H110998   2.290   2.889   2.250 -0.6458 -1.8091  0.4584
 3664TIP3    H210999   2.192   2.992   2.197  1.1986 -0.8510 -1.2401
 3665TIP3   OH211000   4.599   2.491   3.207 -0.5040  0.3170 -0.1653
 3665TIP3    H111001   4.581   2.401   3.233 -1.9702  0.7856  0.5987
 3665TIP3    H211002   4.673   2.517   3.261  0.5295 -0.7019 -1.0582
 3666TIP3   OH211003   1.245   3.175   3.520  0.2142  0.3658 -0.2462
 3666TIP3    H111004   1.322   3.174   3.464 -0.9498  2.1063 -2.0223
 3666TIP3    H211005   1.171   3.181   3.459 -1.4563 -2.1836  1.3222
 3667TIP3   OH211006   1.217   2.745   0.345  0.4367 -0.7639  0.4163
 3667TIP3    H111007   1.281   2.813   0.367  2.7093 -2.5495 -0.2662
 3667TIP3    H211008   1.264   2.663   0.361 -1.1089 -2.1641 -1.7318
 3668TIP3   OH211009   5.296   2.447   5.076 -0.1907 -0.6609 -0.0917
 3668TIP3    H111010   5.366   2.466   5.014 -0.3641 -0.1037 -0.1254
 3668TIP3    H211011   5.251   2.371   5.038 -0.7431  0.1051 -1.0579
 3669TIP3   OH211012   3.642   3.748   4.040  0.0740 -0.7316 -0.4767
 3669TIP3    H111013   3.570   3.728   4.100  1.2076  0.3750  1.3251
 3669TIP3    H211014   3.656   3.842   4.050  1.0994 -0.7461 -1.5695
 3670TIP3   OH211015   6.211   3.494   0.108  0.1738  0.1878 -0.3116
 3670TIP3    H111016   6.192   3.571   0.162 -2.4333 -0.0860 -0.7215
 3670TIP3    H211017   6.306   3.496   0.096  0.6976  1.1291  2.9402
 3671TIP3   OH211018   3.226   1.770   3.445 -0.0324  0.2503 -0.6806
 3671TIP3    H111019   3.179   1.782   3.362 -1.1091 -2.0303 -0.4822
 3671TIP3    H211020   3.160   1.734   3.505  0.9819  0.8975  0.8904
 3672TIP3   OH211021   3.979   4.099   2.046 -0.3068  0.7034 -0.5967
 3672TIP3    H111022   3.966   4.146   2.129  0.6273  0.5466 -0.3581
 3672TIP3    H211023   4.002   4.168   1.983  0.5645  0.6339 -0.3602
 3673TIP3   OH211024   3.865   3.466   0.913  0.0359  0.3113  0.2541
 3673TIP3    H111025   3.904   3.408   0.847  0.4889  0.9373 -0.0362
 3673TIP3    H211026   3.822   3.534   0.862  3.4368  2.9113  0.4900
 3674TIP3   OH211027   3.046   4.261   4.191 -0.0441  0.5206 -0.6716
 3674TIP3    H111028   2.952   4.240   4.193 -1.0759  4.4289 -0.2084
 3674TIP3    H211029   3.082   4.215   4.267 -1.8565 -0.0649 -0.1131
 3675TIP3   OH211030   1.404   0.580   1.036 -0.3059  0.2936 -0.1405
 3675TIP3    H111031   1.314   0.548   1.030  0.2463 -1.4392  0.2498
 3675TIP3    H211032   1.432   0.557   1.124  0.7352  0.1708 -0.4881
 3676TIP3   OH211033   2.676   0.730   4.630 -0.7533  0.2703  0.4146
 3676TIP3    H111034   2.748   0.794   4.633  0.5721 -1.2151  1.6415
 3676TIP3    H211035   2.624   0.757   4.554  1.2028  1.2843 -0.6467
 3677TIP3   OH211036   2.214   4.500   1.102  0.0505  0.1630  0.4328
 3677TIP3    H111037   2.153   4.556   1.150 -0.3237  1.5011 -1.4745
 3677TIP3    H211038   2.274   4.561   1.059  0.5581 -0.9730 -0.5295
 3678TIP3   OH211039   4.360   2.882   2.598 -0.1926 -0.0575  0.0923
 3678TIP3    H111040   4.451   2.854   2.607  0.4124  1.8107  0.0175
 3678TIP3    H211041   4.317   2.807   2.556  1.5274 -0.5527 -0.8919
 3679TIP3   OH211042   3.164   3.769   1.949 -0.4308  0.3658 -0.5946
 3679TIP3    H111043   3.210   3.779   2.032  0.9396 -0.0751 -1.2652
 3679TIP3    H211044   3.080   3.812   1.963  0.0999  1.0325  0.7479
 3680TIP3   OH211045   1.222   4.649   4.592 -0.0182 -0.0161 -0.7573
 3680TIP3    H111046   1.145   4.591   4.591 -0.7077  0.8134  0.5300
 3680TIP3    H211047   1.293   4.593   4.623 -0.3809 -0.4995 -0.7738
 3681TIP3   OH211048   3.836   4.839   2.126 -0.1450  0.5921 -0.3173
 3681TIP3    H111049   3.828   4.863   2.218 -0.9449  1.0247 -0.4896
 3681TIP3    H211050   3.813   4.919   2.078  1.6655  0.8146 -0.9054
 3682TIP3   OH211051   5.636   3.618   4.495 -0.8660 -0.2141 -0.3306
 3682TIP3    H111052   5.662   3.586   4.581 -1.5532  3.1449  1.3103
 3682TIP3    H211053   5.712   3.602   4.440  2.6487  3.6412  2.7347
 3683TIP3   OH211054   0.684   0.115   3.345 -0.4831 -0.6023  0.0447
 3683TIP3    H111055   0.653   0.188   3.291 -0.5219  0.6367  1.6605
 3683TIP3    H211056   0.780   0.118   3.336 -0.3622  0.7086  1.3274
 3684TIP3   OH211057   2.705   1.215   4.268 -0.1137 -0.2869 -0.8914
 3684TIP3    H111058   2.674   1.304   4.284 -0.6472 -0.5072 -0.6733
 3684TIP3    H211059   2.665   1.163   4.338  0.6639 -0.6030 -0.6713
 3685TIP3   OH211060   3.315   1.770   0.803 -0.5787 -0.0237  0.1526
 3685TIP3    H111061   3.231   1.725   0.809 -0.3131 -0.3469  1.9346
 3685TIP3    H211062   3.327   1.811   0.888  2.2508 -2.1965  0.9875
 3686TIP3   OH211063   3.420   3.498   3.981 -0.3813  0.1285  0.0590
 3686TIP3    H111064   3.436   3.544   4.064 -1.6084 -0.9121  0.9145
 3686TIP3    H211065   3.440   3.407   4.001 -0.8568 -0.1549 -0.7466
 3687TIP3   OH211066   5.467   3.127   2.209 -0.0135  0.3079  0.2414
 3687TIP3    H111067   5.560   3.117   2.187  0.1567 -0.7912  1.3554
 3687TIP3    H211068   5.428   3.162   2.129  1.3950  1.0255 -0.1693
 3688TIP3   OH211069   0.557   5.419   4.957 -0.1407  0.5328  0.2675
 3688TIP3    H111070   0.567   5.514   4.960 -0.0329  0.5125  0.5990
 3688TIP3    H211071   0.492   5.403   4.889 -0.0358  0.8360  0.0984
 3689TIP3   OH211072   3.996   4.904   1.332  0.0960 -0.2620  0.1704
 3689TIP3    H111073   3.918   4.894   1.387 -0.4396  0.3347 -0.4605
 3689TIP3    H211074   3.963   4.945   1.251  1.3930  2.1036  0.7649
 3690TIP3   OH211075   3.491   0.295   3.413  0.3411 -0.1052 -1.3434
 3690TIP3    H111076   3.542   0.230   3.364 -0.3027 -1.0642 -0.7780
 3690TIP3    H211077   3.446   0.244   3.480 -0.0902  0.9562 -0.8024
 3691TIP3   OH211078   0.906   3.075   4.602  0.3048 -0.3908 -0.0820
 3691TIP3    H111079   0.991   3.102   4.638  0.1555 -2.0700  1.7371
 3691TIP3    H211080   0.923   2.988   4.565 -0.3624 -0.2319 -0.7580
 3692TIP3   OH211081   5.170   3.252   0.397 -0.0078  0.4473 -0.7901
 3692TIP3    H111082   5.097   3.289   0.347 -0.8458 -1.1598 -0.8192
 3692TIP3    H211083   5.140   3.165   0.423  1.2251  0.4305  0.7370
 3693TIP3   OH211084   2.291   2.843   0.088 -0.3041  0.3919  0.8228
 3693TIP3    H111085   2.353   2.770   0.086 -1.7034 -0.8347 -1.2329
 3693TIP3    H211086   2.294   2.879  -0.001 -1.1077  1.5845  1.2532
 3694TIP3   OH211087   2.954   5.324   4.154  0.3851 -0.0401  0.7143
 3694TIP3    H111088   2.890   5.278   4.208 -0.2774 -0.8580 -0.6910
 3694TIP3    H211089   3.027   5.343   4.213 -0.9179  0.4442  2.2197
 3695TIP3   OH211090   1.430   4.202   5.136  0.0655  0.2730 -0.3178
 3695TIP3    H111091   1.430   4.115   5.177 -0.3682 -0.4651 -1.8289
 3695TIP3    H211092   1.344   4.238   5.158 -0.2936 -0.2518 -0.8423
 3696TIP3   OH211093   0.581   2.964   0.585  0.5498 -0.1194  0.1760
 3696TIP3    H111094   0.540   2.931   0.665  0.0519 -2.4730 -0.9539
 3696TIP3    H211095   0.543   2.911   0.515  3.1676 -0.2413 -1.2960
 3697TIP3   OH211096   5.612   1.897   2.105  0.1795  0.4073  0.0476
 3697TIP3    H111097   5.670   1.846   2.049 -0.7441 -1.3487  0.6279
 3697TIP3    H211098   5.669   1.934   2.172  0.7294 -0.8538  0.3021
 3698TIP3   OH211099   4.723   4.320   1.183  0.3861 -0.0677 -0.0247
 3698TIP3    H111100   4.727   4.380   1.109  1.4801  0.7982  0.7036
 3698TIP3    H211101   4.794   4.257   1.167 -0.7476 -1.2053 -0.7804
 3699TIP3   OH211102   2.359   0.144   4.753 -0.3090 -0.3086  0.3047
 3699TIP3    H111103   2.358   0.230   4.795 -1.1230  0.5472 -1.3511
 3699TIP3    H211104   2.310   0.088   4.812 -1.7070  0.9355  0.3880
 3700TIP3   OH211105   3.682   2.209   1.125 -0.4210  0.3644  0.0147
 3700TIP3    H111106   3.608   2.262   1.157 -1.0412  0.0382 -0.8596
 3700TIP3    H211107   3.654   2.177   1.040  0.1927 -0.8818  0.2577
 3701TIP3   OH211108   2.489   4.665   2.496 -0.3326 -0.1794  0.4813
 3701TIP3    H111109   2.518   4.740   2.548 -0.8481  0.2899  0.0959
 3701TIP3    H211110   2.407   4.693   2.456 -0.1847 -0.7037 -0.2063
 3702TIP3   OH211111   3.685   4.350   0.600 -0.1963  0.1099 -0.8593
 3702TIP3    H111112   3.688   4.393   0.686  0.8027  1.2151 -1.4129
 3702TIP3    H211113   3.724   4.264   0.616 -2.2667 -0.6958  0.2751
 3703TIP3   OH211114   3.172   4.977   0.279 -0.2123 -0.4780 -0.3665
 3703TIP3    H111115   3.105   5.044   0.294  0.5200 -0.1567  1.9526
 3703TIP3    H211116   3.251   5.028   0.260 -0.0952 -0.7586 -0.6235
 3704TIP3   OH211117   3.149   4.247   4.647 -0.1513  0.3293 -0.1640
 3704TIP3    H111118   3.072   4.287   4.608  0.0700  0.8463 -0.0778
 3704TIP3    H211119   3.160   4.293   4.731 -0.6798 -0.8297  0.5678
 3705TIP3   OH211120   3.493   1.456   0.757  0.0763  0.3481 -0.0366
 3705TIP3    H111121   3.501   1.550   0.740 -0.6939  0.0902 -2.1803
 3705TIP3    H211122   3.442   1.451   0.838  1.6666  1.7468  1.1257
 3706TIP3   OH211123   5.590   0.173   0.196 -0.0362  0.2280 -0.1632
 3706TIP3    H111124   5.577   0.214   0.281  1.4049 -0.3371  0.3500
 3706TIP3    H211125   5.662   0.222   0.156 -0.9216  0.7148 -1.2309
 3707TIP3   OH211126   1.823   4.362   4.190 -0.7682 -0.2887  0.1794
 3707TIP3    H111127   1.771   4.436   4.222 -1.8804 -0.7614 -0.4680
 3707TIP3    H211128   1.772   4.284   4.213  1.2000 -1.0231  2.3738
 3708TIP3   OH211129   3.161   1.629   4.174  0.3604 -0.5844 -0.0256
 3708TIP3    H111130   3.073   1.650   4.144  0.1126 -0.0928  1.0206
 3708TIP3    H211131   3.149   1.557   4.236  0.6475 -0.2536  0.4202
 3709TIP3   OH211132   4.690   4.235   4.760  0.5913  0.0324  0.1714
 3709TIP3    H111133   4.688   4.331   4.756 -2.6870  0.0271 -1.0792
 3709TIP3    H211134   4.776   4.211   4.726  0.4167  2.4825 -2.3000
 3710TIP3   OH211135   3.324   0.636   4.005  0.2645  0.1185 -0.2077
 3710TIP3    H111136   3.328   0.720   3.960  1.3306  0.4610  0.4828
 3710TIP3    H211137   3.268   0.652   4.081  0.0176  0.0522 -0.3747
 3711TIP3   OH211138   3.010   4.888   2.101  0.5165 -0.0734 -0.5612
 3711TIP3    H111139   2.966   4.933   2.173  2.3657 -0.8814  1.2065
 3711TIP3    H211140   2.961   4.912   2.023 -3.0193 -0.9260  1.2006
 3712TIP3   OH211141   3.735   1.010   0.260  0.1767 -0.3298 -0.3450
 3712TIP3    H111142   3.726   1.000   0.354  2.6066 -0.9692 -0.1148
 3712TIP3    H211143   3.727   0.921   0.225 -1.3494 -0.0243 -0.8473
 3713TIP3   OH211144   1.835   2.937   2.832  0.4353  0.1488 -0.2173
 3713TIP3    H111145   1.877   2.959   2.749  0.3041 -0.9531 -0.5887
 3713TIP3    H211146   1.907   2.908   2.888  0.3943 -0.0663 -0.2764
 3714TIP3   OH211147   6.090   5.362   5.111  0.7383 -0.0409  0.3522
 3714TIP3    H111148   6.080   5.433   5.048 -1.1947 -0.5827 -0.0180
 3714TIP3    H211149   6.074   5.404   5.196  0.9791  0.2219  0.2713
 3715TIP3   OH211150   0.047   1.141   2.225 -0.1022  0.0270 -0.5311
 3715TIP3    H111151   0.101   1.071   2.261 -1.6954 -0.2185  1.5584
 3715TIP3    H211152   0.033   1.201   2.299 -3.2228 -0.3014 -0.7121
 3716TIP3   OH211153   2.580   5.209   5.042  0.1755  0.4516 -0.0027
 3716TIP3    H111154   2.492   5.238   5.066  0.9754  1.5880  1.7666
 3716TIP3    H211155   2.634   5.229   5.119  2.1089  0.3616 -1.2599
 3717TIP3   OH211156   0.878   2.937   3.475 -0.2037 -0.2382 -0.0254
 3717TIP3    H111157   0.938   2.992   3.425  1.0392 -0.8517  0.7497
 3717TIP3    H211158   0.908   2.945   3.565 -2.0335  0.3726  0.5703
 3718TIP3   OH211159   4.425   1.437   4.555 -0.0912  0.6271  0.1147
 3718TIP3    H111160   4.362   1.480   4.611  0.0109 -0.9865  1.5525
 3718TIP3    H211161   4.377   1.364   4.516  0.8537 -0.6941  1.3205
 3719TIP3   OH211162   5.643   4.745   3.492 -0.3524 -0.6397  0.1125
 3719TIP3    H111163   5.577   4.684   3.460 -0.2018 -1.9100  2.0645
 3719TIP3    H211164   5.718   4.730   3.434 -0.9917 -0.8570 -0.6760
 3720TIP3   OH211165   4.087   0.086   2.575  0.5029  0.3927 -0.0267
 3720TIP3    H111166   4.149   0.061   2.506  0.4399  0.6668 -0.1826
 3720TIP3    H211167   4.037   0.158   2.537  0.4550  0.5316  0.3010
 3721TIP3   OH211168   5.283   5.208   0.712  0.2883 -0.1320 -0.0788
 3721TIP3    H111169   5.225   5.136   0.737  0.0866  0.4926  1.3533
 3721TIP3    H211170   5.262   5.278   0.773  2.2060  0.2771  0.1719
 3722TIP3   OH211171   6.243   0.399   2.970  0.1103  0.0225  0.4555
 3722TIP3    H111172   6.243   0.304   2.983 -0.5312 -0.0681 -0.1706
 3722TIP3    H211173   6.177   0.415   2.902  1.0478  0.8053 -0.3041
 3723TIP3   OH211174   0.213   4.534   2.878  0.1832 -0.0132  0.0878
 3723TIP3    H111175   0.201   4.530   2.783  0.0525  0.2092  0.0939
 3723TIP3    H211176   0.255   4.619   2.894 -0.6237  0.3509  0.3113
 3724TIP3   OH211177   4.594   4.413   1.422 -0.5701  0.7602  0.0733
 3724TIP3    H111178   4.630   4.386   1.337 -1.9085 -0.9335  0.0088
 3724TIP3    H211179   4.657   4.379   1.486 -1.3053 -1.0428 -0.1034
 3725TIP3   OH211180   1.613   3.745   2.891  0.0436  0.8295 -0.4811
 3725TIP3    H111181   1.639   3.824   2.937  2.3911  0.7500 -1.5389
 3725TIP3    H211182   1.673   3.677   2.923 -2.1309 -0.6757  0.6592
 3726TIP3   OH211183   4.960   1.787   1.650  0.6203 -0.2544 -0.3263
 3726TIP3    H111184   4.986   1.878   1.665  0.2147  0.2483 -2.3241
 3726TIP3    H211185   5.035   1.735   1.679  1.9028  0.8800 -1.4302
 3727TIP3   OH211186   2.738   3.472   3.981 -0.1007 -0.0288  0.4016
 3727TIP3    H111187   2.833   3.475   3.967 -0.3129 -2.3646 -2.7204
 3727TIP3    H211188   2.706   3.556   3.950  0.8876  0.5813  0.9894
 3728TIP3   OH211189   2.385   5.204   0.074 -0.1127  0.1632 -0.0901
 3728TIP3    H111190   2.372   5.180   0.166 -0.1219  0.5527  0.0124
 3728TIP3    H211191   2.468   5.251   0.073 -0.0065 -0.0256 -0.3182
 3729TIP3   OH211192   3.236   1.386   4.374 -0.6004 -0.0203  0.2306
 3729TIP3    H111193   3.227   1.292   4.388  1.7163 -0.2328  0.8009
 3729TIP3    H211194   3.289   1.394   4.295 -1.2949  0.8459 -0.1666
 3730TIP3   OH211195   1.620   4.026   4.945 -0.0760 -0.2077  0.0464
 3730TIP3    H111196   1.655   4.087   4.880  3.2780 -0.1248  1.6899
 3730TIP3    H211197   1.574   4.080   5.008  1.2798  0.4413  0.5112
 3731TIP3   OH211198   5.540   4.242   4.555 -0.1287 -0.4576  0.9776
 3731TIP3    H111199   5.597   4.276   4.486 -1.0184 -0.6122  0.1335
 3731TIP3    H211200   5.489   4.318   4.584 -2.3474 -1.0196 -1.1343
 3732TIP3   OH211201   1.188   2.843   3.095  0.3376  0.4181  0.2069
 3732TIP3    H111202   1.245   2.906   3.051  0.9486 -0.1800  0.1323
 3732TIP3    H211203   1.247   2.777   3.130 -0.2237  0.3598  1.0792
 3733TIP3   OH211204   4.798   5.719   2.277 -0.2236  0.1186  0.3363
 3733TIP3    H111205   4.810   5.695   2.185  1.2799  0.1090  0.5141
 3733TIP3    H211206   4.747   5.800   2.274 -2.5789 -1.2633 -0.3809
 3734TIP3   OH211207   2.183   0.563   1.369  0.0814 -0.3795 -0.5764
 3734TIP3    H111208   2.118   0.627   1.397  1.2791  0.4834  0.3535
 3734TIP3    H211209   2.202   0.512   1.448  0.1073 -1.0237 -0.9880
 3735TIP3   OH211210   1.918   4.154   0.832  0.2874  0.0760  0.4164
 3735TIP3    H111211   1.974   4.188   0.902  1.0522  1.4444 -0.8074
 3735TIP3    H211212   1.853   4.223   0.818 -0.0690 -0.3379  0.0032
 3736TIP3   OH211213   6.256   3.459   1.665  0.4587 -0.2495  0.0455
 3736TIP3    H111214   6.197   3.468   1.740 -0.3811  0.6813 -0.7011
 3736TIP3    H211215   6.199   3.469   1.589  1.3125 -1.0745 -0.7246
 3737TIP3   OH211216   6.048   4.235   1.331 -0.2037 -0.0537  0.5610
 3737TIP3    H111217   6.116   4.243   1.398  0.0464 -0.0282  0.3055
 3737TIP3    H211218   6.012   4.323   1.323  1.8554  0.6889 -1.5193
 3738TIP3   OH211219   1.217   5.662   4.067  0.1450 -0.9824  0.5140
 3738TIP3    H111220   1.126   5.631   4.069 -1.0779  1.6325 -3.1839
 3738TIP3    H211221   1.250   5.635   3.982  1.3070  1.7299 -0.0126
 3739TIP3   OH211222   5.327   2.898   4.335  0.7061  0.5515 -0.7914
 3739TIP3    H111223   5.267   2.973   4.343  0.4162  0.1566  1.6257
 3739TIP3    H211224   5.299   2.853   4.256 -2.3387  0.3413  0.2462
 3740TIP3   OH211225   4.309   1.287   2.057  0.1252  0.0364 -0.0462
 3740TIP3    H111226   4.338   1.323   1.973  2.2702 -1.6782 -0.1286
 3740TIP3    H211227   4.317   1.192   2.047 -0.9483 -0.2779  1.6471
 3741TIP3   OH211228   4.883   2.350   1.647 -0.1072  0.1556 -0.4924
 3741TIP3    H111229   4.857   2.343   1.739 -0.9875  0.5441 -0.6982
 3741TIP3    H211230   4.852   2.437   1.620 -0.8435 -0.3779 -1.4418
 3742TIP3   OH211231   5.433   5.106   4.618  0.4961 -0.2978 -0.4977
 3742TIP3    H111232   5.354   5.052   4.609  0.0419  0.2427  0.1340
 3742TIP3    H211233   5.502   5.054   4.578  0.0876 -1.3975  0.1682
 3743TIP3   OH211234   5.585   1.481   0.349  0.3841 -0.2390 -0.1529
 3743TIP3    H111235   5.627   1.550   0.297 -1.3219  1.2924  0.3624
 3743TIP3    H211236   5.600   1.507   0.440  1.3778 -1.6472  0.1091
 3744TIP3   OH211237   0.165   3.828   4.597 -0.1169 -1.3714  0.0565
 3744TIP3    H111238   0.109   3.896   4.559  2.6586  0.6368 -0.7538
 3744TIP3    H211239   0.158   3.842   4.692  1.7852  1.4145 -0.0976
 3745TIP3   OH211240   4.069   5.876   4.921  0.0045 -0.1296 -0.4012
 3745TIP3    H111241   3.980   5.863   4.890  0.6736 -0.0454 -2.5233
 3745TIP3    H211242   4.121   5.813   4.872  1.4024  1.2941 -0.8312
 3746TIP3   OH211243   4.287   0.355   3.513  0.1446  0.1151  0.0353
 3746TIP3    H111244   4.231   0.389   3.443  1.8664  2.3705 -0.3775
 3746TIP3    H211245   4.356   0.421   3.522  0.9525 -0.9623  2.6925
 3747TIP3   OH211246   3.449   2.808   2.222  0.6008  0.5411  0.2988
 3747TIP3    H111247   3.355   2.793   2.219  0.4901  1.1520 -2.7259
 3747TIP3    H211248   3.486   2.725   2.252 -0.8036 -0.6537 -1.1275
 3748TIP3   OH211249   4.888   4.513   1.748 -0.1839  0.7445 -0.2881
 3748TIP3    H111250   4.980   4.535   1.760 -0.1641 -0.1833  1.7828
 3748TIP3    H211251   4.863   4.471   1.831 -1.9271 -0.8832 -1.5569
 3749TIP3   OH211252   4.101   1.927   0.209  0.1745  0.0075 -0.2609
 3749TIP3    H111253   4.155   1.975   0.146 -0.2376  0.6806 -0.1086
 3749TIP3    H211254   4.025   1.983   0.223  0.7992  0.4340  1.7163
 3750TIP3   OH211255   2.218   4.131   0.605  0.2633 -0.5262 -0.3938
 3750TIP3    H111256   2.145   4.071   0.619  1.0014 -1.6708 -1.2962
 3750TIP3    H211257   2.226   4.137   0.510  0.8858  0.1575 -0.3039
 3751TIP3   OH211258   3.698   0.048   1.091 -0.1480 -0.2085 -0.0702
 3751TIP3    H111259   3.761   0.014   1.155  0.0266 -1.3887 -0.8339
 3751TIP3    H211260   3.653   0.119   1.136  1.2512  0.1952  0.7299
 3752TIP3   OH211261   0.570   4.155   1.912 -0.0876  0.1691 -0.3548
 3752TIP3    H111262   0.573   4.067   1.949 -2.5718  0.0366 -0.3098
 3752TIP3    H211263   0.515   4.205   1.972  2.2232  2.1788  0.2941
 3753TIP3   OH211264   5.832   5.740   3.403  0.0822  0.7602 -0.7136
 3753TIP3    H111265   5.806   5.650   3.426 -1.7343  0.5458 -3.1099
 3753TIP3    H211266   5.890   5.729   3.327  2.1247  1.5666  0.6663
 3754TIP3   OH211267   1.361   3.667   3.383 -0.3339  0.0855  0.1249
 3754TIP3    H111268   1.326   3.755   3.368 -0.0568  0.4627  1.5151
 3754TIP3    H211269   1.290   3.608   3.356 -1.7225  0.8130  1.9699
 3755TIP3   OH211270   5.671   3.087   0.345 -0.6849 -0.1711 -0.4348
 3755TIP3    H111271   5.676   3.109   0.438  0.8475  2.5561 -1.0761
 3755TIP3    H211272   5.577   3.090   0.324 -0.8737  2.0228  0.4644
 3756TIP3   OH211273   0.989   4.456   2.089  0.3267 -0.9390 -0.0462
 3756TIP3    H111274   1.075   4.494   2.074 -0.4984  2.3011  2.2790
 3756TIP3    H211275   0.981   4.449   2.184 -1.9643 -1.1707 -0.1845
 3757TIP3   OH211276   4.077   2.175   4.586 -0.0695 -0.3291  0.5916
 3757TIP3    H111277   4.102   2.100   4.532 -1.1404  0.0376 -0.4654
 3757TIP3    H211278   3.984   2.188   4.568 -0.1087  0.7300  1.4113
 3758TIP3   OH211279   1.888   4.566   1.835  0.0421 -0.1001  0.3714
 3758TIP3    H111280   1.812   4.618   1.808  0.6421  1.3225  1.3251
 3758TIP3    H211281   1.892   4.576   1.930 -0.4781 -2.8742  0.7736
 3759TIP3   OH211282   0.463   4.468   0.230 -0.4123 -0.4204 -0.5790
 3759TIP3    H111283   0.498   4.409   0.296  0.8234  1.4112  0.4611
 3759TIP3    H211284   0.392   4.417   0.189 -0.9318 -1.7863  1.8057
 3760TIP3   OH211285   4.926   1.470   4.232 -0.3026 -0.0018 -0.0131
 3760TIP3    H111286   4.893   1.402   4.173 -1.1873  2.2577 -2.3134
 3760TIP3    H211287   4.853   1.532   4.239  1.1980  1.8069  0.1908
 3761TIP3   OH211288   4.761   2.017   0.729  0.0491  0.1109 -0.6873
 3761TIP3    H111289   4.678   1.973   0.747  1.2757 -1.8577  0.4877
 3761TIP3    H211290   4.826   1.947   0.727  2.0292  1.7822  0.6364
 3762TIP3   OH211291   5.376   4.028   0.365  0.5403  0.1500 -0.8651
 3762TIP3    H111292   5.416   4.005   0.281  1.8276  2.4224 -0.9790
 3762TIP3    H211293   5.448   4.021   0.428  0.1789  0.6935 -0.3818
 3763TIP3   OH211294   1.002   1.699   3.547  0.0731 -0.2565  0.4619
 3763TIP3    H111295   1.074   1.642   3.521 -1.1368 -1.9049  0.5857
 3763TIP3    H211296   0.984   1.675   3.638 -1.9671 -1.4111 -0.1806
 3764TIP3   OH211297   1.185   1.773   3.291 -0.2143 -0.0300 -0.0183
 3764TIP3    H111298   1.092   1.795   3.292 -0.2593 -0.1827 -0.5057
 3764TIP3    H211299   1.226   1.840   3.345 -0.4160  0.9251 -1.0193
 3765TIP3   OH211300   3.703   4.622   1.115 -0.1216 -0.3094 -0.1321
 3765TIP3    H111301   3.745   4.707   1.123  1.3106 -0.8686 -1.2333
 3765TIP3    H211302   3.775   4.559   1.123 -0.6588 -1.2858 -2.3088
 3766TIP3   OH211303   2.326   3.087   4.426 -0.4532  0.0946 -0.4751
 3766TIP3    H111304   2.365   3.005   4.395 -0.9651 -0.5764  0.6257
 3766TIP3    H211305   2.391   3.124   4.486  0.0147  0.7952 -1.3774
 3767TIP3   OH211306   3.269   1.875   4.088  0.0457  0.1296  0.3219
 3767TIP3    H111307   3.226   1.803   4.136 -0.8634 -0.1558 -0.8694
 3767TIP3    H211308   3.215   1.951   4.106  0.1909  0.2081  0.4288
 3768TIP3   OH211309   3.934   3.843   0.527 -0.1259  0.3257  0.3390
 3768TIP3    H111310   3.922   3.825   0.620  0.4281  0.3602  0.4192
 3768TIP3    H211311   4.011   3.793   0.502 -0.7979 -0.4123 -0.3220
 3769TIP3   OH211312   4.492   3.176   1.251  0.1767 -0.1074 -0.1016
 3769TIP3    H111313   4.523   3.204   1.165 -1.8693  0.7026 -0.6294
 3769TIP3    H211314   4.443   3.251   1.285 -1.9059 -1.5491  0.2802
 3770TIP3   OH211315   1.696   4.440   3.197 -0.2114  0.2751 -0.4413
 3770TIP3    H111316   1.616   4.430   3.146  0.3170 -1.4696 -1.0265
 3770TIP3    H211317   1.766   4.414   3.137  0.7163  0.9411  0.3190
 3771TIP3   OH211318   3.111   5.282   1.444 -0.1942  0.3273  0.8230
 3771TIP3    H111319   3.068   5.296   1.528  1.1283  0.1231  1.5568
 3771TIP3    H211320   3.189   5.231   1.465 -0.1696 -0.2758 -0.6169
 3772TIP3   OH211321   3.093   4.645   1.511 -0.1596  0.6528 -0.4090
 3772TIP3    H111322   3.074   4.603   1.594 -0.7270  2.3222  0.3588
 3772TIP3    H211323   3.177   4.689   1.525  0.1742  0.2263 -1.0197
 3773TIP3   OH211324   1.965   4.868   1.242  0.3670  0.5215 -0.3613
 3773TIP3    H111325   1.878   4.858   1.281 -0.4861 -1.6807 -2.5187
 3773TIP3    H211326   2.008   4.784   1.261  2.0233  1.5528  0.5938
 3774TIP3   OH211327   0.588   0.062   1.764  0.1783  0.6338 -0.3017
 3774TIP3    H111328   0.654   0.075   1.833 -1.2451 -2.7815  1.9430
 3774TIP3    H211329   0.536   0.142   1.766  0.4273  0.8340  2.3853
 3775TIP3   OH211330   2.131   0.774   1.199  0.0011 -0.0319  0.3532
 3775TIP3    H111331   2.223   0.754   1.219  0.2394  0.6523 -0.0039
 3775TIP3    H211332   2.130   0.870   1.189 -0.4192 -0.1894 -1.2978
 3776TIP3   OH211333   3.800   2.005   2.174 -0.3992 -0.5079  0.2123
 3776TIP3    H111334   3.797   1.910   2.161  1.0076 -0.2908 -2.2911
 3776TIP3    H211335   3.746   2.040   2.104  1.7187  0.6151 -0.9377
 3777TIP3   OH211336   2.684   2.751   3.899  0.1812  0.3344  0.3315
 3777TIP3    H111337   2.591   2.751   3.920 -0.2617 -0.2820 -1.4497
 3777TIP3    H211338   2.712   2.660   3.910  0.2264  0.2409 -0.5018
 3778TIP3   OH211339   2.717   5.382   0.121 -0.3343  0.2902  0.1329
 3778TIP3    H111340   2.731   5.288   0.109  1.8284  0.3042  1.9010
 3778TIP3    H211341   2.636   5.387   0.173 -0.0270 -0.6549  0.7347
 3779TIP3   OH211342   0.711   2.505   0.183 -0.2261 -0.2258  0.0957
 3779TIP3    H111343   0.761   2.457   0.249  2.9349  1.0257 -1.2055
 3779TIP3    H211344   0.723   2.597   0.207 -1.2032  0.1478 -0.7854
 3780TIP3   OH211345   1.245   0.405   0.634 -0.5610 -0.5920  0.0387
 3780TIP3    H111346   1.194   0.483   0.612  0.3861  0.2984  0.8681
 3780TIP3    H211347   1.193   0.332   0.600 -1.3315  0.4060 -1.0171
 3781TIP3   OH211348   1.856   1.685   1.339 -0.4530 -0.0104  0.1300
 3781TIP3    H111349   1.888   1.651   1.422  0.3675 -0.1834 -0.2491
 3781TIP3    H211350   1.916   1.756   1.316 -0.8499  0.2405 -0.1710
 3782TIP3   OH211351   3.191   5.198   2.432 -0.7080  0.1922  0.6848
 3782TIP3    H111352   3.240   5.242   2.501 -1.1773 -1.0806  1.8825
 3782TIP3    H211353   3.112   5.252   2.421  0.4439  1.7030 -0.5685
 3783TIP3   OH211354   5.683   5.589   0.720  0.1238 -0.0616 -0.1844
 3783TIP3    H111355   5.693   5.652   0.649  0.4639  0.6686  0.4989
 3783TIP3    H211356   5.744   5.618   0.787 -1.5696  0.4175  1.2196
 3784TIP3   OH211357   5.915   2.611   3.632  0.1154  0.1125 -0.3582
 3784TIP3    H111358   5.869   2.685   3.672  0.8303  0.7816 -0.7456
 3784TIP3    H211359   5.977   2.651   3.572  1.0828 -0.7687  0.0166
 3785TIP3   OH211360   3.755   1.567   1.662 -0.3553  0.2474  0.1994
 3785TIP3    H111361   3.835   1.545   1.710 -0.3628 -0.4371 -0.0920
 3785TIP3    H211362   3.771   1.653   1.625  1.3538 -0.9733 -2.1710
 3786TIP3   OH211363   0.211   5.439   4.928 -0.5611  0.6116  0.2899
 3786TIP3    H111364   0.211   5.351   4.892 -1.6862 -0.1306  1.9519
 3786TIP3    H211365   0.168   5.493   4.862  0.5578  0.0455 -0.9510
 3787TIP3   OH211366   3.031   5.449   0.519  0.3084 -0.0887 -0.2684
 3787TIP3    H111367   3.109   5.496   0.548  2.4297 -2.9809 -0.8376
 3787TIP3    H211368   3.039   5.446   0.423 -0.2907 -0.7386 -0.3070
 3788TIP3   OH211369   5.714   0.402   1.228  0.1039 -0.1906 -0.2807
 3788TIP3    H111370   5.666   0.424   1.308 -0.1948 -0.6608 -0.3281
 3788TIP3    H211371   5.649   0.413   1.158  0.7474  1.7049 -0.6531
 3789TIP3   OH211372   3.885   2.730   5.103  0.2418 -0.1009  0.5417
 3789TIP3    H111373   3.892   2.691   5.190  0.8768 -0.1453  0.4734
 3789TIP3    H211374   3.864   2.657   5.045  1.5757 -0.3900  0.3899
 3790TIP3   OH211375   5.159   1.398   2.763 -0.4968 -0.4549 -0.1790
 3790TIP3    H111376   5.226   1.350   2.810  0.6430  0.4644 -0.8007
 3790TIP3    H211377   5.207   1.466   2.715 -1.8439  0.0821 -0.8350
 3791TIP3   OH211378   5.410   2.716   0.011 -0.4325  0.2233 -0.1250
 3791TIP3    H111379   5.339   2.695  -0.050  0.1179  0.2171 -0.7744
 3791TIP3    H211380   5.370   2.708   0.098 -1.1274 -0.1419 -0.4700
 3792TIP3   OH211381   0.908   3.610   2.691 -0.0470  0.5350  0.1403
 3792TIP3    H111382   0.874   3.699   2.697 -1.4327 -0.0080  0.7217
 3792TIP3    H211383   0.920   3.583   2.782  2.4894  0.8680 -0.0291
 3793TIP3   OH211384   2.877   5.238   0.625  0.1338  0.0137 -0.8842
 3793TIP3    H111385   2.809   5.275   0.682  1.0110 -0.2609  0.3815
 3793TIP3    H211386   2.923   5.313   0.590  2.3989  0.2780  2.2612
 3794TIP3   OH211387   1.731   4.361   0.819 -0.0874  0.2639  0.1352
 3794TIP3    H111388   1.671   4.366   0.893 -0.1535 -1.1478  0.2033
 3794TIP3    H211389   1.675   4.364   0.741  0.0023  2.0349  0.1079
 3795TIP3   OH211390   3.811   0.870   1.567  0.2727 -0.0415  0.0527
 3795TIP3    H111391   3.722   0.885   1.600 -0.2101  0.1809 -1.2636
 3795TIP3    H211392   3.823   0.939   1.501  0.9331 -0.8427 -0.6779
 3796TIP3   OH211393   0.547   5.304   1.961  0.2029 -0.3060 -0.1159
 3796TIP3    H111394   0.538   5.324   1.868 -0.2694 -0.7389 -0.1666
 3796TIP3    H211395   0.510   5.381   2.006  0.7002  0.0325 -0.2749
 3797TIP3   OH211396   1.270   5.489   4.511  0.1476  0.2947 -0.1477
 3797TIP3    H111397   1.294   5.565   4.564  0.6592  0.6766 -0.9018
 3797TIP3    H211398   1.331   5.420   4.538 -1.4310 -0.4334  1.7961
 3798TIP3   OH211399   1.805   2.096   0.394 -0.0266 -0.7437  0.2226
 3798TIP3    H111400   1.901   2.103   0.400 -0.0751  0.2650  0.0349
 3798TIP3    H211401   1.777   2.072   0.482  0.4165 -1.4414  0.1883
 3799TIP3   OH211402   5.299   3.743   0.369 -0.3084 -0.3519 -0.2270
 3799TIP3    H111403   5.279   3.830   0.335  1.2000  1.4263  2.9617
 3799TIP3    H211404   5.376   3.715   0.320  0.9597  1.4940  0.5788
 3800TIP3   OH211405   3.490   2.033   4.712  0.6486  0.3825 -0.3891
 3800TIP3    H111406   3.544   1.969   4.666 -0.4978 -0.9216  0.0096
 3800TIP3    H211407   3.425   2.060   4.648  1.1795  1.2407 -0.5827
 3801TIP3   OH211408   2.472   4.736   0.459 -0.3588  0.3230 -0.6171
 3801TIP3    H111409   2.442   4.820   0.493  0.9399  1.1843 -1.5270
 3801TIP3    H211410   2.562   4.728   0.490 -0.7368 -1.1860  0.2179
 3802TIP3   OH211411   4.952   1.065   4.954  0.5972 -0.7649  0.6806
 3802TIP3    H111412   4.947   0.970   4.942 -0.2875 -0.7783  1.0289
 3802TIP3    H211413   4.888   1.100   4.892  0.1605 -0.4739  1.2830
 3803TIP3   OH211414   5.546   1.130   4.331 -0.5836  0.1510 -0.0746
 3803TIP3    H111415   5.501   1.208   4.364  0.3430  0.0316  1.5867
 3803TIP3    H211416   5.605   1.164   4.263 -0.5535  0.8284  0.2799
 3804TIP3   OH211417   2.070   0.888   1.815 -0.0368  0.2292  0.0210
 3804TIP3    H111418   2.158   0.881   1.780  0.6680 -2.6717  2.0827
 3804TIP3    H211419   2.075   0.958   1.880  0.7212  0.0812  0.1234
 3805TIP3   OH211420   4.639   3.105   3.857  0.1831 -0.1666 -0.0075
 3805TIP3    H111421   4.653   3.185   3.805 -0.3387  0.2953  0.5425
 3805TIP3    H211422   4.660   3.131   3.946 -0.6462 -0.4452  0.2794
 3806TIP3   OH211423   0.450   5.020   3.207  0.3643  0.7710 -0.3603
 3806TIP3    H111424   0.441   4.941   3.261 -1.7120 -0.8320 -2.8403
 3806TIP3    H211425   0.500   5.080   3.262  2.0240 -2.1941  1.7065
 3807TIP3   OH211426   3.410   0.860   0.331  0.0482  0.1941 -0.4879
 3807TIP3    H111427   3.384   0.948   0.358 -0.9659 -0.4871  0.8815
 3807TIP3    H211428   3.408   0.809   0.412 -0.3657 -1.3076 -1.4166
 3808TIP3   OH211429   4.063   3.910   2.664 -0.1748  0.7178 -0.7232
 3808TIP3    H111430   4.013   3.843   2.616  0.6405  0.3508 -1.0691
 3808TIP3    H211431   4.112   3.861   2.729 -1.1138  1.1935  0.3871
 3809TIP3   OH211432   5.857   1.342   1.276  0.6817 -0.2063  0.6120
 3809TIP3    H111433   5.935   1.288   1.291  0.7131 -0.3577 -0.0721
 3809TIP3    H211434   5.861   1.365   1.183  0.5030  0.7224  0.8266
 3810TIP3   OH211435   4.867   1.199   4.084  0.0372 -0.0036 -0.0574
 3810TIP3    H111436   4.896   1.125   4.137 -0.4100 -0.2795 -0.1961
 3810TIP3    H211437   4.791   1.166   4.037 -0.1731  0.5536 -0.1068
 3811TIP3   OH211438   2.669   1.500   0.025 -0.0766 -0.3381 -0.5104
 3811TIP3    H111439   2.586   1.504  -0.023  1.0531  0.5496 -2.5351
 3811TIP3    H211440   2.683   1.407   0.041 -1.0382 -0.5668 -0.9315
 3812TIP3   OH211441   0.342   5.722   1.428 -0.0495  0.1785  0.0929
 3812TIP3    H111442   0.275   5.657   1.408 -1.0687  1.7030 -1.7269
 3812TIP3    H211443   0.422   5.686   1.389 -0.1390 -0.8766  0.8385
 3813TIP3   OH211444   5.175   3.933   0.756 -0.1922  0.6302 -0.4658
 3813TIP3    H111445   5.195   3.864   0.692 -1.0766  1.2995 -1.5079
 3813TIP3    H211446   5.244   3.998   0.741  1.7541 -0.7573  1.7791
 3814TIP3   OH211447   2.566   3.830   1.487  0.0678  0.4470 -0.1942
 3814TIP3    H111448   2.586   3.916   1.526 -0.9625  0.7422 -0.2975
 3814TIP3    H211449   2.651   3.799   1.454  0.2026  2.2437 -1.7698
 3815TIP3   OH211450   4.296  -0.020   4.821  0.1145  0.2805 -0.1362
 3815TIP3    H111451   4.364   0.047   4.819  0.2906  0.2187  1.7794
 3815TIP3    H211452   4.227   0.014   4.763  1.4124  0.7119 -1.4748
 3816TIP3   OH211453   3.060   5.350   4.876  0.3922  0.8690 -0.4274
 3816TIP3    H111454   3.088   5.372   4.965  1.4438  2.4684 -1.1308
 3816TIP3    H211455   3.122   5.283   4.847  0.2843  0.6273 -0.1053
 3817TIP3   OH211456   4.694   2.955   1.006  0.3654 -0.3721 -0.3329
 3817TIP3    H111457   4.681   3.049   0.999 -0.0266 -0.4278 -0.4045
 3817TIP3    H211458   4.770   2.936   0.952 -0.5878 -0.3354 -1.7408
 3818TIP3   OH211459   2.559   3.451   0.165  0.2794  0.2744  0.3255
 3818TIP3    H111460   2.632   3.427   0.222  0.9168  1.4332  0.0188
 3818TIP3    H211461   2.510   3.516   0.214  0.6275  1.0128 -0.2812
 3819TIP3   OH211462   0.912   5.182   0.656  0.0924 -0.2080  1.0980
 3819TIP3    H111463   0.819   5.168   0.672 -0.4070  2.3295  0.8835
 3819TIP3    H211464   0.925   5.157   0.565 -0.4712 -0.1908  1.0084
 3820TIP3   OH211465   4.918   2.413   4.242 -0.0113  0.1640 -0.1762
 3820TIP3    H111466   4.937   2.352   4.170 -0.5525 -0.2448  0.0231
 3820TIP3    H211467   4.840   2.377   4.283  0.6895  0.0037  1.0510
 3821TIP3   OH211468   2.741   1.189   4.588 -0.7008  0.0526 -0.0859
 3821TIP3    H111469   2.687   1.111   4.570 -1.4464  0.9241 -1.9117
 3821TIP3    H211470   2.681   1.250   4.631 -0.7158  0.4053 -0.6023
 3822TIP3   OH211471   0.506   5.138   0.914 -0.0078 -0.0228  1.2484
 3822TIP3    H111472   0.424   5.106   0.877  0.3542 -0.7275  1.0226
 3822TIP3    H211473   0.481   5.188   0.991 -0.8672  2.2794 -0.4267
 3823TIP3   OH211474   5.616   2.014   0.820 -0.6611  0.1652 -0.6098
 3823TIP3    H111475   5.550   2.050   0.760 -0.0920 -0.5417 -1.6938
 3823TIP3    H211476   5.641   1.930   0.780  1.1892  0.6002 -0.4646
 3824TIP3   OH211477   3.976   1.024   1.826  0.0333  0.1365 -0.4048
 3824TIP3    H111478   3.990   0.930   1.832  1.0913  0.3593  1.2525
 3824TIP3    H211479   3.958   1.052   1.916 -0.7854  1.4499 -0.9431
 3825TIP3   OH211480   2.028   3.346   0.018 -0.3546 -0.0270 -0.7765
 3825TIP3    H111481   1.964   3.399  -0.029 -2.2057 -1.1367  0.3864
 3825TIP3    H211482   2.000   3.349   0.109  1.5018 -0.2347 -0.1597
 3826TIP3   OH211483   3.297   0.730   4.661 -0.8512  0.2898  0.3405
 3826TIP3    H111484   3.333   0.817   4.675 -1.7118  0.6958  0.1016
 3826TIP3    H211485   3.321   0.681   4.740 -0.2308  0.6862  0.4101
 3827TIP3   OH211486   1.444   0.963   1.126  0.1412 -0.5347 -0.1533
 3827TIP3    H111487   1.536   0.954   1.104  0.5746  0.2476  1.1646
 3827TIP3    H211488   1.422   1.053   1.102 -0.0061 -0.4192  0.3828
 3828TIP3   OH211489   0.205   4.713   4.874  0.0048  0.6666  0.8468
 3828TIP3    H111490   0.179   4.675   4.958 -0.6116  0.7486  0.6971
 3828TIP3    H211491   0.300   4.721   4.880 -0.0412  0.7662  1.5788
 3829TIP3   OH211492   3.161   0.962   2.457 -0.1166 -0.8535 -0.3920
 3829TIP3    H111493   3.224   0.973   2.386  0.8727  1.1290  0.6855
 3829TIP3    H211494   3.215   0.942   2.534 -1.0620 -1.8310  0.0498
 3830TIP3   OH211495   0.027   0.114   0.238  0.7014 -0.1917  0.1367
 3830TIP3    H111496  -0.041   0.180   0.245  0.7292 -0.3431  2.5781
 3830TIP3    H211497   0.105   0.155   0.276  1.9421 -0.1605 -2.2374
 3831TIP3   OH211498   1.435   5.464   4.893 -0.1041  0.4765 -0.0620
 3831TIP3    H111499   1.428   5.396   4.959 -4.1077 -0.0877 -0.8194
 3831TIP3    H211500   1.468   5.418   4.815  0.5343  0.2092  0.3581
 3832TIP3   OH211501   5.892   4.705   4.977 -0.2467 -0.5762 -0.4854
 3832TIP3    H111502   5.965   4.764   4.956  0.0873 -1.0445 -0.6465
 3832TIP3    H211503   5.815   4.762   4.977 -0.0154 -0.2442 -1.2702
 3833TIP3   OH211504   0.012   2.067   1.865  0.1782  0.0834 -0.4032
 3833TIP3    H111505  -0.062   2.031   1.816  0.0927  0.0237 -0.2281
 3833TIP3    H211506   0.062   1.991   1.894 -1.5785 -0.0921  2.4977
 3834TIP3   OH211507   3.400   0.827   0.644 -0.1058  0.6895  0.8126
 3834TIP3    H111508   3.379   0.774   0.721 -0.0941  0.2623  0.5241
 3834TIP3    H211509   3.383   0.917   0.672  0.8631  0.6302  1.6273
 3835TIP3   OH211510   3.299   4.618   4.533  0.0386 -0.0488  0.6321
 3835TIP3    H111511   3.208   4.635   4.509  0.3437 -0.2820 -0.7535
 3835TIP3    H211512   3.295   4.594   4.626 -1.4288 -0.9304  0.3713
 3836TIP3   OH211513   0.728   4.846   4.290 -0.3903  0.2370  0.2703
 3836TIP3    H111514   0.773   4.815   4.212  1.2345  0.4542  1.0644
 3836TIP3    H211515   0.799   4.873   4.349 -1.5360 -0.3226  1.9873
 3837TIP3   OH211516   2.887   0.948   3.243  0.1753  0.2256  0.2131
 3837TIP3    H111517   2.910   1.038   3.217  1.6383  0.2118  1.3268
 3837TIP3    H211518   2.919   0.894   3.171  0.6144  0.4909  0.2018
 3838TIP3   OH211519   1.359   5.210   4.999 -0.0622 -0.3083 -0.5044
 3838TIP3    H111520   1.375   5.170   4.914  1.7532 -2.4934  0.7235
 3838TIP3    H211521   1.276   5.173   5.028  1.3491 -3.0389  0.3931
 3839TIP3   OH211522   0.857   5.721   0.884 -0.1876  0.1803 -0.4165
 3839TIP3    H111523   0.904   5.694   0.964  0.7766  1.4439 -0.5215
 3839TIP3    H211524   0.906   5.679   0.813 -0.9666 -0.8357 -0.3767
 3840TIP3   OH211525   6.348   2.529   1.224 -0.1442 -0.6461  0.0394
 3840TIP3    H111526   6.253   2.527   1.236 -0.0362 -1.6802  0.8808
 3840TIP3    H211527   6.383   2.496   1.307  0.8631 -2.6021 -1.0836
 3841TIP3   OH211528   1.852   1.335   1.456  0.0336 -0.1397  0.8609
 3841TIP3    H111529   1.846   1.420   1.500 -1.2950  1.2891 -1.7642
 3841TIP3    H211530   1.760   1.311   1.440  0.2870 -3.0472  3.0878
 3842TIP3   OH211531   3.068   0.917   0.425  0.3493 -0.0493 -0.3239
 3842TIP3    H111532   3.115   0.834   0.429  0.0914 -0.2305 -0.8554
 3842TIP3    H211533   3.053   0.941   0.516 -0.3217 -1.0286 -0.1552
 3843TIP3   OH211534   1.423   3.525   0.319  0.4600  0.2405  0.5676
 3843TIP3    H111535   1.493   3.512   0.255  1.3141 -0.4172  1.6072
 3843TIP3    H211536   1.425   3.447   0.374  0.7579  1.4336  2.3349
 3844TIP3   OH211537   5.633   2.496   3.283 -0.5742  0.8018  0.5422
 3844TIP3    H111538   5.650   2.499   3.378  0.8283 -0.4698  0.3771
 3844TIP3    H211539   5.598   2.408   3.268 -0.5692  0.9160 -0.1471
 3845TIP3   OH211540   5.017   2.764   0.679 -0.0213  0.0224 -0.1062
 3845TIP3    H111541   4.991   2.675   0.700 -1.1897  0.6111  1.0676
 3845TIP3    H211542   4.977   2.782   0.593 -0.6348 -0.2432  0.1230
 3846TIP3   OH211543   0.024   2.664   0.667  0.0040  0.0661 -0.0597
 3846TIP3    H111544   0.065   2.580   0.646  1.1999  0.1915  1.5582
 3846TIP3    H211545  -0.047   2.642   0.727 -0.3504  0.1373 -0.4438
 3847TIP3   OH211546   4.739   3.192   2.239  0.3446 -0.0278  0.2859
 3847TIP3    H111547   4.718   3.117   2.294 -2.2231  0.4821  0.0896
 3847TIP3    H211548   4.693   3.266   2.280  0.2666  0.8191 -1.2430
 3848TIP3   OH211549   5.497   4.287   2.017  0.2351  0.0623 -0.2302
 3848TIP3    H111550   5.403   4.267   2.009  0.3178  0.3542 -2.9046
 3848TIP3    H211551   5.536   4.205   2.046 -1.0005  0.5419  3.3747
 3849TIP3   OH211552   3.907   3.318   4.304  0.4430  0.3837  0.3827
 3849TIP3    H111553   3.959   3.239   4.318 -1.4305 -1.1323 -0.6842
 3849TIP3    H211554   3.946   3.384   4.361  1.1755 -1.7229  2.4404
 3850TIP3   OH211555   2.831   3.442   3.379 -0.1871  0.0436 -0.9074
 3850TIP3    H111556   2.875   3.525   3.359  3.0659 -1.5788 -1.1004
 3850TIP3    H211557   2.756   3.439   3.319 -1.3673  3.4452  0.1785
 3851TIP3   OH211558   3.909   5.279   0.948 -0.3282  0.2496 -0.2334
 3851TIP3    H111559   3.866   5.362   0.927  0.5332  0.4205 -1.3700
 3851TIP3    H211560   3.932   5.241   0.864  0.3840 -0.5672  0.3109
 3852TIP3   OH211561   5.986   0.167   4.371  0.4776 -0.1320  0.3322
 3852TIP3    H111562   6.014   0.201   4.456 -0.9182 -0.0624  0.7846
 3852TIP3    H211563   5.999   0.240   4.311 -0.7850  0.6557  0.9604
 3853TIP3   OH211564   6.109   0.274   2.600  0.3706 -0.1070 -0.2183
 3853TIP3    H111565   6.105   0.305   2.510 -1.5262  1.3283  0.3036
 3853TIP3    H211566   6.109   0.178   2.592  1.0209 -0.0057 -1.7332
 3854TIP3   OH211567   5.563   0.959   1.500  0.2291 -0.0282 -0.0883
 3854TIP3    H111568   5.469   0.975   1.512  0.2500  0.6419 -0.7853
 3854TIP3    H211569   5.605   1.025   1.555  0.3048  1.7911 -2.2220
 3855TIP3   OH211570   3.420   5.036   4.248  0.1564  0.5658  0.1952
 3855TIP3    H111571   3.361   5.002   4.181 -0.7360  0.3313  1.0721
 3855TIP3    H211572   3.449   4.959   4.297  0.4916  0.7678  0.3193
 3856TIP3   OH211573   4.164   1.169   5.111 -0.5994  0.2127 -0.4444
 3856TIP3    H111574   4.156   1.258   5.145 -1.3869  0.3362 -0.9256
 3856TIP3    H211575   4.148   1.178   5.017  1.3648 -0.1399 -0.8577
 3857TIP3   OH211576   3.630   3.042   2.414  0.5792  0.6882 -0.4410
 3857TIP3    H111577   3.596   3.116   2.365  1.5960  1.5718  0.1630
 3857TIP3    H211578   3.677   3.081   2.488  2.2892 -0.4944 -0.8494
 3858TIP3   OH211579   4.430   5.634   4.162  1.1741 -0.9174  0.2424
 3858TIP3    H111580   4.497   5.575   4.197  2.1292 -0.8317 -1.3516
 3858TIP3    H211581   4.441   5.629   4.067  1.6378  2.2217  0.0305
 3859TIP3   OH211582   2.475   1.230   3.891 -0.1758  0.1881 -0.2669
 3859TIP3    H111583   2.497   1.141   3.864 -0.1685  0.9153 -2.8855
 3859TIP3    H211584   2.555   1.263   3.933  0.7044 -0.2155 -1.5738
 3860TIP3   OH211585   1.664   4.213   4.716  0.2170 -0.3644 -0.2575
 3860TIP3    H111586   1.739   4.210   4.658  0.2065 -3.1115 -0.2704
 3860TIP3    H211587   1.589   4.232   4.659  0.5156 -0.6136 -0.7317
 3861TIP3   OH211588   4.043   1.680   0.477  0.4784 -0.0105 -0.1402
 3861TIP3    H111589   4.130   1.716   0.495  0.0896  0.4035  1.0146
 3861TIP3    H211590   4.056   1.622   0.402  1.5538  0.8161 -0.6250
 3862TIP3   OH211591   0.498   1.307   2.944  0.4452 -0.4160 -0.2982
 3862TIP3    H111592   0.574   1.301   2.887  0.7996 -0.1080  0.1349
 3862TIP3    H211593   0.534   1.319   3.032 -0.0903  1.4464 -0.2789
 3863TIP3   OH211594   4.999   5.428   2.616  0.0156 -0.3413 -0.5188
 3863TIP3    H111595   5.053   5.422   2.695 -1.2964 -1.9758  0.3356
 3863TIP3    H211596   5.059   5.455   2.547  1.6600 -0.9603  0.6177
 3864TIP3   OH211597   4.265   1.413   2.544 -0.4078  0.4265  0.2864
 3864TIP3    H111598   4.248   1.356   2.619  0.2756  0.2069  0.2803
 3864TIP3    H211599   4.180   1.421   2.500 -0.8318  0.6027  1.1081
 3865TIP3   OH211600   2.327   3.913   0.387 -0.2762  0.2055 -0.0444
 3865TIP3    H111601   2.278   3.985   0.346 -0.5453  0.6002  0.9430
 3865TIP3    H211602   2.260   3.863   0.435  0.1510  0.2047  0.5522
 3866TIP3   OH211603   3.551   5.557   4.543 -0.0814 -0.4265 -0.5721
 3866TIP3    H111604   3.608   5.585   4.615  0.2215 -2.5846  0.0964
 3866TIP3    H211605   3.514   5.638   4.510  1.2789  0.8162  0.7480
 3867TIP3   OH211606   2.979   3.783   2.279 -0.7633 -0.2083 -0.1684
 3867TIP3    H111607   2.939   3.864   2.246 -0.6040  0.0423  0.2418
 3867TIP3    H211608   3.051   3.813   2.334 -1.1435 -0.6023  0.5651
 3868TIP3   OH211609   0.559   1.664   4.646  0.2540 -0.0576 -0.2376
 3868TIP3    H111610   0.626   1.713   4.597 -0.5157  3.7053  2.0394
 3868TIP3    H211611   0.566   1.698   4.736 -3.5289 -0.7229  0.4720
 3869TIP3   OH211612   3.877   5.015   1.094  0.0223 -0.5479  0.3671
 3869TIP3    H111613   3.847   5.101   1.124 -0.0908 -0.8777  1.2282
 3869TIP3    H211614   3.928   5.034   1.016  0.2729  0.3414  0.7262
 3870TIP3   OH211615   0.932   1.677   1.284  0.3457 -0.0827  0.2782
 3870TIP3    H111616   0.911   1.767   1.258  2.4843  0.9967  1.9602
 3870TIP3    H211617   1.022   1.664   1.254  0.2618 -1.4725  0.5581
 3871TIP3   OH211618   5.172   4.347   4.389 -0.7304  0.2280 -0.3678
 3871TIP3    H111619   5.229   4.277   4.421  0.5604  0.6931 -1.5770
 3871TIP3    H211620   5.089   4.332   4.434  0.1051 -0.9161  0.8685
 3872TIP3   OH211621   6.214   0.738   4.445  0.1788 -0.1773  0.3131
 3872TIP3    H111622   6.308   0.755   4.441 -0.1553  1.7385 -2.1944
 3872TIP3    H211623   6.174   0.824   4.453 -1.4013 -1.0113  2.1988
 3873TIP3   OH211624   3.501   1.820   4.948  0.1278 -0.2801 -0.3089
 3873TIP3    H111625   3.422   1.847   4.901 -1.1654 -2.2897  0.5720
 3873TIP3    H211626   3.494   1.860   5.034  0.6690  0.4423 -0.5856
 3874TIP3   OH211627   3.390   3.268   0.763  0.6731  0.3639  0.1707
 3874TIP3    H111628   3.450   3.311   0.825 -1.1948  1.1604  1.5380
 3874TIP3    H211629   3.385   3.329   0.689  0.8762  0.7248  0.4477
 3875TIP3   OH211630   4.272   3.605   4.237 -0.0506 -0.0374 -0.1690
 3875TIP3    H111631   4.343   3.668   4.225  0.8738 -0.9896  0.1399
 3875TIP3    H211632   4.224   3.606   4.153  1.7118 -1.0436 -1.2436
 3876TIP3   OH211633   2.376   2.992   1.864  0.4539  0.2610 -0.2421
 3876TIP3    H111634   2.401   2.900   1.857 -0.9904 -0.2616  1.0116
 3876TIP3    H211635   2.311   3.005   1.795  0.6159  0.3298 -0.3824
 3877TIP3   OH211636   5.693   4.183   1.716 -0.2173 -0.2470 -0.5981
 3877TIP3    H111637   5.652   4.113   1.665 -1.5304 -0.1820  0.3527
 3877TIP3    H211638   5.623   4.220   1.769  0.2962  2.2013 -1.4913
 3878TIP3   OH211639   2.645   2.124   0.817  0.8670  0.4388  0.5987
 3878TIP3    H111640   2.656   2.213   0.784 -1.2494  0.6752  0.4462
 3878TIP3    H211641   2.692   2.123   0.900  0.0045  2.0389  1.1356
 3879TIP3   OH211642   5.118   2.805   1.649  0.2206  0.1125 -1.0770
 3879TIP3    H111643   5.136   2.879   1.707 -0.4007  0.7893 -1.7479
 3879TIP3    H211644   5.200   2.754   1.650  0.3092  0.2400  0.1872
 3880TIP3   OH211645   5.456   5.673   4.840  0.3540 -0.1393 -0.1374
 3880TIP3    H111646   5.497   5.705   4.921  1.1299  0.3740 -0.7158
 3880TIP3    H211647   5.489   5.731   4.772 -1.8749  0.7082 -0.5652
 3881TIP3   OH211648   0.094   4.221   3.117 -0.0300 -0.5455 -0.0135
 3881TIP3    H111649   0.104   4.138   3.162  3.1747 -0.9112 -1.1223
 3881TIP3    H211650   0.180   4.237   3.076 -0.8235  2.7874 -0.7164
 3882TIP3   OH211651   4.430   4.656   3.538 -0.0201  0.2310  0.2157
 3882TIP3    H111652   4.429   4.561   3.530 -1.6222  0.3899 -2.7248
 3882TIP3    H211653   4.460   4.688   3.453 -0.4430  2.3834  0.8013
 3883TIP3   OH211654   6.096   0.290   2.333 -0.5671 -0.9073 -0.1255
 3883TIP3    H111655   6.085   0.222   2.267 -0.8582  0.8797 -2.0365
 3883TIP3    H211656   6.173   0.339   2.305 -1.7940  1.0509 -0.2642
 3884TIP3   OH211657   1.087   2.634   0.908  0.1404  0.0656  0.3731
 3884TIP3    H111658   1.106   2.541   0.892 -0.5648 -0.0552  0.1792
 3884TIP3    H211659   1.137   2.680   0.840  0.5126 -0.1678  0.4835
 3885TIP3   OH211660   3.770   1.763   1.969 -0.2408 -0.4090  0.1570
 3885TIP3    H111661   3.857   1.790   1.938  0.0322 -0.3530  0.9459
 3885TIP3    H211662   3.717   1.842   1.962 -0.2137 -0.4285 -0.2761
 3886TIP3   OH211663   0.782   5.763   3.669 -0.2500  0.0202 -0.8310
 3886TIP3    H111664   0.732   5.698   3.620  0.4356  0.0309 -1.5615
 3886TIP3    H211665   0.837   5.805   3.603 -1.5932  2.2615 -0.6181
 3887TIP3   OH211666   1.218   1.882   0.252  0.1247  0.3565 -0.1798
 3887TIP3    H111667   1.281   1.818   0.219  0.4421  0.5630  0.0184
 3887TIP3    H211668   1.222   1.954   0.189 -0.0256  0.3063 -0.2483
 3888TIP3   OH211669   0.474   4.965   3.866 -0.6897 -0.3263  0.4295
 3888TIP3    H111670   0.469   4.998   3.956 -0.1295 -1.8962  1.0822
 3888TIP3    H211671   0.386   4.932   3.848 -0.3177 -1.9009  1.2291
 3889TIP3   OH211672   1.823   3.474   1.204 -0.3826 -0.6843  0.3351
 3889TIP3    H111673   1.765   3.550   1.208 -0.9653 -0.9737 -1.5674
 3889TIP3    H211674   1.911   3.511   1.198 -0.6936 -0.1245 -1.0388
 3890TIP3   OH211675   3.560   4.814   5.043 -0.0597 -0.1170  0.2176
 3890TIP3    H111676   3.635   4.862   5.008 -0.2455 -0.6113 -0.8916
 3890TIP3    H211677   3.599   4.737   5.085  0.1924  0.6699  1.4846
 3891TIP3   OH211678   3.376   3.487   2.690 -0.1631 -0.3249  0.3915
 3891TIP3    H111679   3.437   3.535   2.634 -1.1578 -0.8283 -1.1931
 3891TIP3    H211680   3.397   3.516   2.779  1.8337  0.0914 -0.1695
 3892TIP3   OH211681   6.139   2.304   0.085  0.4523 -0.0634 -0.2347
 3892TIP3    H111682   6.085   2.245   0.138  1.8039  0.2707  1.6104
 3892TIP3    H211683   6.134   2.268  -0.004 -0.5516 -1.6344  0.4112
 3893TIP3   OH211684   1.963   4.806   5.007 -0.0469  0.2416  0.7273
 3893TIP3    H111685   2.047   4.766   5.030  0.5187  0.8971 -0.1432
 3893TIP3    H211686   1.901   4.734   5.008  0.4484 -0.1905  1.7510
 3894TIP3   OH211687   0.040   1.754   4.617 -0.2509 -0.0246 -0.6282
 3894TIP3    H111688  -0.006   1.694   4.676  0.1595  0.3133  0.0421
 3894TIP3    H211689   0.133   1.741   4.637 -0.2104  2.2075  0.9234
 3895TIP3   OH211690   0.923   1.479   3.120 -0.1841 -0.0141  0.5568
 3895TIP3    H111691   0.952   1.430   3.197 -1.0449  1.0738  1.6342
 3895TIP3    H211692   0.947   1.570   3.139 -0.0387  0.2224 -0.6676
 3896TIP3   OH211693   5.406   3.629   1.149 -0.1405  0.1737  0.6174
 3896TIP3    H111694   5.486   3.594   1.109 -0.6438 -0.2614 -0.0208
 3896TIP3    H211695   5.421   3.723   1.155  1.0415 -0.0570  1.9185
 3897TIP3   OH211696   4.365   2.696   0.790 -0.2298 -0.0022  0.1035
 3897TIP3    H111697   4.412   2.618   0.820 -0.7653 -0.6632 -0.7170
 3897TIP3    H211698   4.407   2.768   0.837 -0.9585 -0.9371  2.3529
 3898TIP3   OH211699   1.249   1.938   2.880 -0.1522  0.0174 -0.0048
 3898TIP3    H111700   1.318   1.950   2.815  0.1298  0.7800  0.4233
 3898TIP3    H211701   1.169   1.928   2.828  0.2181 -0.4943 -0.4908
 3899TIP3   OH211702   3.339   0.988   1.688  0.2288 -0.5186 -0.0416
 3899TIP3    H111703   3.283   0.917   1.721 -0.0960 -0.1225  0.2751
 3899TIP3    H211704   3.282   1.065   1.689  1.4929  0.5161  2.9308
 3900TIP3   OH211705   2.965   4.126   3.594  0.1176 -0.4516  0.0740
 3900TIP3    H111706   2.901   4.160   3.531 -0.2563  1.6955  1.5233
 3900TIP3    H211707   2.918   4.122   3.677  0.6494 -3.0819  0.3564
 3901TIP3   OH211708   3.638   4.873   0.786  0.3911  0.1789 -0.6337
 3901TIP3    H111709   3.626   4.964   0.816  1.3366  0.4465 -1.0442
 3901TIP3    H211710   3.549   4.839   0.781  0.1351  0.0665  2.5333
 3902TIP3   OH211711   2.920   0.465   3.109  0.0251  0.1291  0.3345
 3902TIP3    H111712   2.954   0.390   3.159  1.2672  2.3611  3.1327
 3902TIP3    H211713   2.990   0.530   3.113 -1.9340  2.3697  0.1979
 3903TIP3   OH211714   5.154   2.238   1.613 -0.0792  0.7174 -0.2813
 3903TIP3    H111715   5.131   2.157   1.568 -0.1626 -0.3673  1.6190
 3903TIP3    H211716   5.072   2.286   1.622 -0.3391  0.2023  0.1091
 3904TIP3   OH211717   6.033   1.714   2.372 -0.1910  0.5256  0.3630
 3904TIP3    H111718   5.969   1.754   2.313 -0.9699  1.2567  1.6724
 3904TIP3    H211719   6.117   1.754   2.347 -0.6857  1.6818  0.4676
 3905TIP3   OH211720   0.066   2.194   2.813  0.5498 -0.1308  0.2790
 3905TIP3    H111721  -0.016   2.236   2.788 -0.9030 -2.5603  0.6522
 3905TIP3    H211722   0.053   2.167   2.903  0.8990 -2.4004 -0.2988
 3906TIP3   OH211723   5.831   1.020   2.493 -0.3546 -0.4885  0.2871
 3906TIP3    H111724   5.926   1.017   2.484 -0.4186  1.5697 -2.0768
 3906TIP3    H211725   5.816   1.054   2.581  1.1653  0.4576  0.2113
 3907TIP3   OH211726   5.222   2.124   4.678  0.6327  0.4862 -0.1231
 3907TIP3    H111727   5.233   2.189   4.609 -1.8515 -0.0126 -1.0919
 3907TIP3    H211728   5.201   2.043   4.632  1.3817 -0.4583  1.1432
 3908TIP3   OH211729   2.206   2.568   0.491 -0.2657  0.3220  0.4100
 3908TIP3    H111730   2.165   2.597   0.410 -0.4970 -0.5056  0.2205
 3908TIP3    H211731   2.262   2.494   0.464  0.0484  0.3678  0.9265
 3909TIP3   OH211732   0.523   3.799   4.843  0.4240 -0.0813 -0.4568
 3909TIP3    H111733   0.488   3.884   4.816  0.7857  0.0540 -0.5070
 3909TIP3    H211734   0.505   3.794   4.937  0.9986  0.3430 -0.3209
 3910TIP3   OH211735   3.075   5.501   3.671  0.3643  0.6212 -0.1285
 3910TIP3    H111736   3.136   5.519   3.743  1.4602  0.9380 -1.1034
 3910TIP3    H211737   3.082   5.577   3.614  0.2228 -0.0321 -1.0455
 3911TIP3   OH211738   5.116   3.223   4.848 -0.5084 -0.0976  0.0973
 3911TIP3    H111739   5.069   3.211   4.930  0.6251 -1.0188  0.6403
 3911TIP3    H211740   5.158   3.309   4.857 -1.5354  0.4359 -0.1235
 3912TIP3   OH211741   2.157   0.044   0.967  0.0941 -0.7962  0.1689
 3912TIP3    H111742   2.187   0.078   1.052 -1.4037  0.4107  0.2739
 3912TIP3    H211743   2.224  -0.018   0.940  0.9221 -0.7269  1.9447
 3913TIP3   OH211744   1.179   5.426   1.163 -0.5370 -0.5452  0.1704
 3913TIP3    H111745   1.257   5.479   1.175 -1.4003  0.7937  0.0905
 3913TIP3    H211746   1.199   5.370   1.088  0.0465  0.3647 -0.3706
 3914TIP3   OH211747   3.600   0.767   4.609 -0.0383  0.3404 -0.0936
 3914TIP3    H111748   3.543   0.796   4.537  1.0391  0.1980 -1.0513
 3914TIP3    H211749   3.632   0.849   4.648 -2.0132  0.4475  1.4346
 3915TIP3   OH211750   4.946   3.556   3.889  0.0606  0.2071  0.3318
 3915TIP3    H111751   4.937   3.522   3.978  2.7920 -0.6592  0.3788
 3915TIP3    H211752   4.965   3.478   3.836  1.5995  1.0607 -0.4246
 3916TIP3   OH211753   0.143   2.004   0.638 -0.2533 -0.2270  0.0823
 3916TIP3    H111754   0.146   2.040   0.727 -1.4098 -1.3840  0.6234
 3916TIP3    H211755   0.050   1.989   0.621  0.0954 -1.9553 -0.5113
 3917TIP3   OH211756   5.379   2.484   4.243 -0.1936  0.5448  0.5021
 3917TIP3    H111757   5.452   2.479   4.305  0.1519  0.6758  0.1133
 3917TIP3    H211758   5.388   2.570   4.202 -0.7632  0.6928  0.6832
 3918TIP3   OH211759   4.230   4.417   2.857  0.0418  0.5959  0.7485
 3918TIP3    H111760   4.255   4.367   2.780 -0.7117  0.4063  0.6185
 3918TIP3    H211761   4.185   4.494   2.823 -0.9699  0.1418  0.9893
 3919TIP3   OH211762   3.022   3.500   4.288 -0.5126  0.1394  0.3360
 3919TIP3    H111763   3.089   3.455   4.339 -1.1693 -1.3833 -0.0879
 3919TIP3    H211764   2.948   3.439   4.288 -0.9400  0.6158 -1.4248
 3920TIP3   OH211765   1.515   5.588   0.883 -0.8583 -0.1484  0.7137
 3920TIP3    H111766   1.594   5.534   0.882 -0.2580  0.6953 -0.7538
 3920TIP3    H211767   1.546   5.676   0.863 -1.9167  0.6428  2.3289
 3921TIP3   OH211768   1.847   2.829   0.104 -0.3418 -0.1221 -0.8860
 3921TIP3    H111769   1.886   2.913   0.077  1.2589 -0.8774 -1.0487
 3921TIP3    H211770   1.753   2.843   0.096 -0.2311  2.2724  0.8806
 3922TIP3   OH211771   0.446   1.945   1.979 -0.0304  0.1075  0.1425
 3922TIP3    H111772   0.536   1.925   1.953 -0.0837  0.4500 -0.3066
 3922TIP3    H211773   0.452   1.962   2.073  0.2439 -0.6366  0.2654
 3923TIP3   OH211774   2.953   4.150   1.000  0.3116  0.6028  0.3564
 3923TIP3    H111775   2.903   4.231   0.991 -0.7792  0.1204  1.6291
 3923TIP3    H211776   2.899   4.095   1.057  1.4645 -0.6612  0.2869
 3924TIP3   OH211777   2.006   3.112   0.252  0.6451 -0.2518  0.6601
 3924TIP3    H111778   2.071   3.050   0.283  0.0798 -1.2766 -0.1554
 3924TIP3    H211779   2.007   3.104   0.157 -0.2802  0.1124  0.6033
 3925TIP3   OH211780   0.389   2.191   1.055  0.5114  0.4173 -0.9438
 3925TIP3    H111781   0.456   2.125   1.070 -1.6429 -1.8536 -0.7775
 3925TIP3    H211782   0.384   2.197   0.959  1.2641  0.9965 -0.9617
 3926TIP3   OH211783   2.305   0.968   4.110  0.2645 -0.0664  0.3251
 3926TIP3    H111784   2.353   0.994   4.189  0.0699 -1.3613  0.8803
 3926TIP3    H211785   2.342   0.884   4.085  0.2813  0.2909 -0.9525
 3927TIP3   OH211786   4.961   3.155   1.727  0.1131 -0.0497 -0.4745
 3927TIP3    H111787   4.916   3.190   1.804 -2.6822  1.0226 -2.4222
 3927TIP3    H211788   4.894   3.106   1.680  2.0740 -1.7987 -1.6322
 3928TIP3   OH211789   2.731   4.981   4.713 -0.0914 -0.0468  0.3237
 3928TIP3    H111790   2.811   4.986   4.765 -0.7885  0.5109  1.3897
 3928TIP3    H211791   2.664   5.020   4.769 -0.9560  0.2257 -0.8602
 3929TIP3   OH211792   0.408   4.212   2.147  0.3043 -0.2994  0.2175
 3929TIP3    H111793   0.316   4.191   2.132  0.8224 -1.9286 -1.0822
 3929TIP3    H211794   0.410   4.307   2.156 -1.5332 -0.2615  0.6037
 3930TIP3   OH211795   4.410   5.730   4.552  1.1374 -0.0483 -0.0175
 3930TIP3    H111796   4.471   5.660   4.575  0.0354 -0.8351  0.5763
 3930TIP3    H211797   4.381   5.709   4.464 -0.3376 -1.2224  0.7041
 3931TIP3   OH211798   3.376   5.066   2.263  0.1276  0.0973 -0.5585
 3931TIP3    H111799   3.325   5.127   2.316 -0.3879 -0.8692  0.0854
 3931TIP3    H211800   3.437   5.025   2.325 -0.5362 -1.0990 -0.6705
 3932TIP3   OH211801   3.003   1.694   2.600  0.0018 -0.0158 -0.1426
 3932TIP3    H111802   2.951   1.713   2.679 -0.6527 -0.6648 -0.4100
 3932TIP3    H211803   3.056   1.618   2.625 -0.6628 -0.6121 -0.5225
 3933TIP3   OH211804   1.658   5.817   1.320 -0.0179 -0.3517  0.0477
 3933TIP3    H111805   1.656   5.777   1.408  0.4832  0.6139  0.5098
 3933TIP3    H211806   1.719   5.763   1.271  0.0547 -0.6267  0.4288
 3934TIP3   OH211807   6.221   3.620   3.612 -0.3007 -0.0996 -0.7223
 3934TIP3    H111808   6.293   3.633   3.674 -0.5161 -3.6431  0.4902
 3934TIP3    H211809   6.263   3.612   3.527  0.2766  1.8840 -0.6691
 3935TIP3   OH211810   5.337   2.950   3.836 -0.0876  0.3413 -0.3253
 3935TIP3    H111811   5.361   2.958   3.928 -0.8182 -0.8309 -0.0123
 3935TIP3    H211812   5.402   3.003   3.789  2.4837 -1.8557  0.5564
 3936TIP3   OH211813  -0.017   3.821   1.783 -0.0464 -0.3130 -0.8794
 3936TIP3    H111814  -0.035   3.813   1.689 -0.2042  1.3957 -1.0115
 3936TIP3    H211815   0.077   3.840   1.787 -0.1873  0.3481 -0.7345
 3937TIP3   OH211816   5.575   1.729   0.136  0.2108 -0.6543  0.2999
 3937TIP3    H111817   5.562   1.824   0.136 -0.4793 -0.7216 -0.9450
 3937TIP3    H211818   5.487   1.693   0.143  0.4090 -1.1915  0.1072
 3938TIP3   OH211819   5.719   2.785   0.568 -0.4545  0.0070  0.1140
 3938TIP3    H111820   5.648   2.781   0.505 -0.8085 -1.2743  0.5634
 3938TIP3    H211821   5.676   2.799   0.653 -0.3505 -2.3140  0.6086
 3939TIP3   OH211822   1.548   2.509   3.070  0.5321  0.2091  0.0957
 3939TIP3    H111823   1.643   2.519   3.062  0.8418 -1.5515  1.1021
 3939TIP3    H211824   1.525   2.444   3.003 -0.0359  0.9187 -0.4122
 3940TIP3   OH211825   6.001   3.087   1.433 -0.4876  0.0139 -0.5313
 3940TIP3    H111826   6.016   3.024   1.503 -0.6796  0.2288 -0.2933
 3940TIP3    H211827   6.082   3.087   1.382  0.8528  2.0279  1.4179
 3941TIP3   OH211828   3.562   3.943   4.315  0.2634  0.0351  0.4915
 3941TIP3    H111829   3.538   4.013   4.375  2.1685  1.1943 -0.0143
 3941TIP3    H211830   3.651   3.964   4.287 -0.4163 -0.5621 -2.5468
 3942TIP3   OH211831   0.571   2.256   0.479 -0.2386 -0.1300  0.2254
 3942TIP3    H111832   0.639   2.215   0.425 -1.6055 -1.1770 -0.7788
 3942TIP3    H211833   0.517   2.183   0.509 -2.5547  0.8223 -1.3302
 3943TIP3   OH211834   6.321   1.244   1.170 -0.7172 -0.2284  0.2924
 3943TIP3    H111835   6.407   1.253   1.128 -0.1677  0.1423  1.4625
 3943TIP3    H211836   6.301   1.332   1.203 -0.9795 -0.5875  1.1041
 3944TIP3   OH211837   2.088   1.470   4.028  0.0972 -0.6074  0.5708
 3944TIP3    H111838   2.003   1.499   3.997  0.4938  0.6903  0.6565
 3944TIP3    H211839   2.075   1.378   4.052 -1.1429 -0.5583  0.1300
 3945TIP3   OH211840   6.276   0.148   0.825  0.8220 -0.0378 -0.1166
 3945TIP3    H111841   6.210   0.217   0.819  0.5607 -0.3993 -1.9344
 3945TIP3    H211842   6.323   0.152   0.742  1.3421 -1.5216  0.0749
 3946TIP3   OH211843   3.457   4.492   2.355 -0.4459  0.0618  0.0383
 3946TIP3    H111844   3.485   4.507   2.445 -2.5151 -1.2020  0.9536
 3946TIP3    H211845   3.413   4.407   2.358 -1.1453  0.3064 -2.0471
 3947TIP3   OH211846   0.833   5.415   4.303  0.1706  0.3874  0.1260
 3947TIP3    H111847   0.925   5.391   4.309 -0.4189 -1.7963  1.2882
 3947TIP3    H211848   0.800   5.364   4.228 -0.2603  0.5798  0.1827
 3948TIP3   OH211849   5.209   4.419   3.454 -0.4090  0.4200  0.3627
 3948TIP3    H111850   5.147   4.492   3.450 -0.9276  0.1128  2.2076
 3948TIP3    H211851   5.255   4.423   3.370 -4.0565 -0.3848 -1.9015
 3949TIP3   OH211852   3.375   1.457   0.290 -0.4041  0.3694 -0.0694
 3949TIP3    H111853   3.470   1.464   0.295 -0.1432 -2.8010  2.2634
 3949TIP3    H211854   3.343   1.525   0.350  0.5713 -0.2501  1.2000
 3950TIP3   OH211855   4.631   3.262   4.107 -0.2190 -0.5541 -0.3237
 3950TIP3    H111856   4.709   3.227   4.149  1.2531  1.4681 -1.1704
 3950TIP3    H211857   4.584   3.308   4.177 -0.5574 -1.5938  0.1449
 3951TIP3   OH211858   5.023   5.782   1.369 -0.2746  0.4683  0.9451
 3951TIP3    H111859   5.033   5.857   1.427  0.3536  1.6949 -0.6610
 3951TIP3    H211860   4.931   5.781   1.345 -0.1445  1.2408  0.3653
 3952TIP3   OH211861   3.045   3.513   0.786 -0.5802 -0.7304 -0.1012
 3952TIP3    H111862   3.100   3.561   0.724 -0.2568 -0.1384  0.6257
 3952TIP3    H211863   2.999   3.448   0.733  1.1250 -1.5142 -0.6740
 3953TIP3   OH211864   4.836   0.386   2.068 -0.2375  0.0312  0.0546
 3953TIP3    H111865   4.838   0.388   1.973  0.1817 -1.9536 -0.0303
 3953TIP3    H211866   4.805   0.298   2.089 -1.1111  0.7002  1.7580
 3954TIP3   OH211867   0.778   0.474   0.666  0.2669  0.1746  0.2117
 3954TIP3    H111868   0.692   0.433   0.674 -0.0004  0.7341  0.2832
 3954TIP3    H211869   0.819   0.462   0.751  0.4880 -0.5828  0.0047
 3955TIP3   OH211870   4.334   4.299   0.686  0.5696  0.3105  0.1509
 3955TIP3    H111871   4.245   4.281   0.717  0.1856 -1.0307 -1.5381
 3955TIP3    H211872   4.390   4.278   0.760 -0.4044 -0.9095  0.5766
 3956TIP3   OH211873   0.159   2.390   0.676 -0.4423  0.3557 -0.2196
 3956TIP3    H111874   0.205   2.334   0.738  0.7089  0.1388 -1.2305
 3956TIP3    H211875   0.092   2.334   0.637  0.4302 -0.2066 -0.9222
 3957TIP3   OH211876   6.169   3.464   0.481  0.3362  0.0141  0.0359
 3957TIP3    H111877   6.192   3.539   0.426  0.5757 -0.2680 -0.2592
 3957TIP3    H211878   6.078   3.478   0.506  0.7945  1.1286  1.1634
 3958TIP3   OH211879   5.753   0.961   0.729  0.8864  0.8377  0.5273
 3958TIP3    H111880   5.814   0.919   0.789  2.3679  2.9416  0.6387
 3958TIP3    H211881   5.752   0.905   0.651 -0.4409 -1.4894  2.1159
 3959TIP3   OH211882   4.461   1.768   2.267 -0.3170  0.0588  0.4706
 3959TIP3    H111883   4.417   1.689   2.238 -1.5000  1.2457 -1.1517
 3959TIP3    H211884   4.505   1.743   2.348  1.0414 -2.7627 -1.0286
 3960TIP3   OH211885   1.800   5.162   4.026  0.0234 -0.2731 -0.0492
 3960TIP3    H111886   1.849   5.194   3.950  0.1111  1.8176  0.8378
 3960TIP3    H211887   1.711   5.196   4.014 -0.0851 -0.3273  0.5559
 3961TIP3   OH211888   0.106   1.824   3.668  0.2533  0.0063  0.6170
 3961TIP3    H111889   0.169   1.850   3.601  0.8004 -0.7564  0.8209
 3961TIP3    H211890   0.160   1.787   3.738 -0.3597  0.2040  1.1942
 3962TIP3   OH211891   0.484   0.696   1.387 -0.0118  0.2298 -0.6605
 3962TIP3    H111892   0.533   0.728   1.311 -0.2272  0.9901 -0.4876
 3962TIP3    H211893   0.488   0.768   1.450  0.1719 -0.3921  0.0564
 3963TIP3   OH211894   6.177   0.050   5.172  0.0481 -0.1223  0.2136
 3963TIP3    H111895   6.183   0.143   5.147  0.2620 -0.4758 -1.1605
 3963TIP3    H211896   6.178   0.003   5.088 -0.6523 -1.3429  0.8652
 3964TIP3   OH211897   2.547   2.645   0.429 -0.1960  0.2693 -0.1975
 3964TIP3    H111898   2.503   2.561   0.426  0.4551 -0.0594 -0.8277
 3964TIP3    H211899   2.549   2.674   0.338  0.8525  0.2881 -0.1753
 3965TIP3   OH211900   4.589   5.690   0.445 -0.4691 -0.3261  0.3632
 3965TIP3    H111901   4.684   5.696   0.437 -0.5866 -0.3887 -1.5150
 3965TIP3    H211902   4.574   5.601   0.477  0.1291  0.1494  2.0857
 3966TIP3   OH211903   5.137  -0.004   1.644 -0.1376 -0.2554  0.0715
 3966TIP3    H111904   5.083   0.070   1.616 -2.0096 -2.4812 -2.7255
 3966TIP3    H211905   5.152   0.011   1.737 -3.8639  1.5908  0.5458
 3967TIP3   OH211906   5.191   2.890   3.507 -0.0557  0.6923  0.3390
 3967TIP3    H111907   5.166   2.841   3.585 -0.6581  0.0205 -0.2580
 3967TIP3    H211908   5.284   2.873   3.496 -0.1564  0.0635  0.4129
 3968TIP3   OH211909   2.890   1.455   3.180 -0.2330 -0.2885 -0.1995
 3968TIP3    H111910   2.911   1.401   3.256  1.2034  1.0528  0.4210
 3968TIP3    H211911   2.898   1.395   3.105  1.0484 -1.0267  0.4873
 3969TIP3   OH211912   1.868   3.233   5.172  0.4016  0.2017 -0.5641
 3969TIP3    H111913   1.903   3.227   5.084  1.0795  2.1630 -0.4786
 3969TIP3    H211914   1.881   3.325   5.197  0.6948 -0.4007  1.7600
 3970TIP3   OH211915   2.580   4.264   4.387  0.9706  0.1443 -0.0581
 3970TIP3    H111916   2.488   4.281   4.369  0.7010 -1.6116 -0.4986
 3970TIP3    H211917   2.582   4.239   4.479  1.1783  1.1281  0.2233
 3971TIP3   OH211918   4.869   4.301   3.753  0.3297 -0.1363 -0.3314
 3971TIP3    H111919   4.825   4.321   3.836  0.3133  1.3074 -0.6549
 3971TIP3    H211920   4.887   4.207   3.757 -0.3659 -0.2386  0.9675
 3972TIP3   OH211921   3.758   4.936   3.078  0.9248 -0.0239 -0.2928
 3972TIP3    H111922   3.752   4.842   3.061  0.9811  0.0995 -1.0394
 3972TIP3    H211923   3.819   4.943   3.151  0.0679 -0.6269  0.5016
 3973TIP3   OH211924   5.794   0.866   3.566  0.3511  0.2430  0.3533
 3973TIP3    H111925   5.736   0.924   3.615 -0.5013  0.0736 -0.4337
 3973TIP3    H211926   5.868   0.922   3.541 -0.9757  1.3356 -1.3621
 3974TIP3   OH211927   2.645   5.252   1.335  0.3520  0.4216 -0.1245
 3974TIP3    H111928   2.731   5.210   1.339  0.6471  1.0863  1.3846
 3974TIP3    H211929   2.660   5.342   1.363 -0.9113  0.3837  0.8055
 3975TIP3   OH211930   3.011   0.245   3.263  0.3623 -0.7486 -0.3345
 3975TIP3    H111931   2.976   0.247   3.352  2.2733 -0.2402  0.4418
 3975TIP3    H211932   3.016   0.152   3.241 -0.3094 -0.8691 -0.0205
 3976TIP3   OH211933   5.386   4.901   0.265 -0.0861 -0.3103 -0.1494
 3976TIP3    H111934   5.412   4.939   0.181  0.7010 -0.5602 -0.0333
 3976TIP3    H211935   5.381   4.807   0.247  0.4587 -0.4050  0.1654
 3977TIP3   OH211936   3.681   3.294   0.179  0.4262  0.4035 -0.0415
 3977TIP3    H111937   3.723   3.264   0.098 -1.5085  0.8437 -1.2600
 3977TIP3    H211938   3.657   3.213   0.225 -0.7359  0.0834 -1.1558
 3978TIP3   OH211939   0.897   1.715   1.855  0.3105 -0.2966  0.1651
 3978TIP3    H111940   0.843   1.794   1.852 -0.2920 -0.6138  1.6927
 3978TIP3    H211941   0.895   1.681   1.765  0.2064  1.1621 -0.4050
 3979TIP3   OH211942   5.966   4.777   0.431 -0.3161  0.1786  0.1723
 3979TIP3    H111943   5.994   4.834   0.359  0.3422 -1.1892 -0.7087
 3979TIP3    H211944   6.035   4.786   0.497  0.2377 -0.2602 -0.3423
 3980TIP3   OH211945   2.935   0.900   0.182 -0.5576 -0.5692  0.0474
 3980TIP3    H111946   2.975   0.923   0.266  0.7603  0.9606 -0.9349
 3980TIP3    H211947   2.870   0.834   0.203  2.1603 -2.9106  1.8611
 3981TIP3   OH211948   5.189   3.896   4.244 -0.0476 -0.5066  0.4937
 3981TIP3    H111949   5.227   3.818   4.285  0.7967 -0.6531 -0.5370
 3981TIP3    H211950   5.161   3.865   4.157 -2.9145 -0.5173  1.3167
 3982TIP3   OH211951   5.605   2.085   4.665  0.7925 -0.2591 -0.7521
 3982TIP3    H111952   5.611   2.041   4.580  0.3180 -1.2675 -0.2752
 3982TIP3    H211953   5.527   2.047   4.706  1.1150  0.0994  0.2082
 3983TIP3   OH211954   5.169   1.850   3.680  0.1497 -0.0859  0.4423
 3983TIP3    H111955   5.192   1.928   3.630 -0.1999 -0.7618 -0.8339
 3983TIP3    H211956   5.253   1.814   3.709  0.4070  0.0543 -0.1074
 3984TIP3   OH211957   3.197   2.524   2.340 -0.1325 -0.5691 -0.1338
 3984TIP3    H111958   3.148   2.443   2.326  1.4588 -1.3857 -1.3393
 3984TIP3    H211959   3.212   2.559   2.252 -0.2079  0.6746  0.3307
 3985TIP3   OH211960   0.973   0.413   0.445  0.3694 -0.3255 -0.0267
 3985TIP3    H111961   0.935   0.427   0.532  1.8919  2.9909  0.2623
 3985TIP3    H211962   0.898   0.414   0.386 -0.6404 -2.1543  1.1234
 3986TIP3   OH211963   4.791   3.259   0.972 -0.1507 -0.8379  0.1091
 3986TIP3    H111964   4.837   3.231   1.051 -0.6691 -1.0067  0.3570
 3986TIP3    H211965   4.717   3.310   1.004 -0.7499 -1.4756 -0.2290
 3987TIP3   OH211966   6.201   1.665   1.471 -0.0733  0.4382 -0.7324
 3987TIP3    H111967   6.148   1.594   1.508  0.5303 -0.2358 -1.1274
 3987TIP3    H211968   6.285   1.657   1.517  0.1241  0.6466 -1.0603
 3988TIP3   OH211969   5.900   1.705   1.136  0.7206 -0.3702 -0.4504
 3988TIP3    H111970   5.994   1.710   1.154  0.7041 -0.2070 -0.4037
 3988TIP3    H211971   5.894   1.690   1.041  0.7899  0.0556 -0.5276
 3989TIP3   OH211972   5.573   1.751   0.692  0.1556  0.4102 -0.9167
 3989TIP3    H111973   5.563   1.656   0.697  1.1509  0.3268  0.2925
 3989TIP3    H211974   5.486   1.784   0.671 -0.4858 -0.7059 -0.1194
 3990TIP3   OH211975   0.036   3.828   0.641 -0.3580  0.4138  0.4256
 3990TIP3    H111976  -0.020   3.848   0.566 -0.7680 -0.3813  0.5126
 3990TIP3    H211977   0.115   3.880   0.626 -0.2870  0.0063 -0.7522
 3991TIP3   OH211978   3.772   4.783   4.476 -0.3842  0.0786 -0.1291
 3991TIP3    H111979   3.679   4.802   4.488 -0.3516  1.4770 -1.8147
 3991TIP3    H211980   3.790   4.806   4.385  1.9435  1.2118  0.5463
 3992TIP3   OH211981   3.605   0.292   0.802 -0.1576 -0.0876 -0.2991
 3992TIP3    H111982   3.633   0.355   0.869 -1.3639 -0.6416  0.7766
 3992TIP3    H211983   3.683   0.278   0.749  0.1109  2.4257 -0.6896
 3993TIP3   OH211984   6.113   5.755   4.243 -0.1641 -0.3718 -0.1597
 3993TIP3    H111985   6.163   5.689   4.292 -2.2082 -2.2282 -0.4299
 3993TIP3    H211986   6.027   5.755   4.285 -0.4283  1.6668 -0.6314
 3994TIP3   OH211987   2.924   2.784   1.126  0.3549  0.1160  0.0148
 3994TIP3    H111988   2.891   2.811   1.212 -0.6521  1.5389 -0.7783
 3994TIP3    H211989   3.004   2.836   1.114  0.4795 -0.0609  0.0843
 3995TIP3   OH211990   0.967   4.473   2.369 -0.1318 -0.2184 -0.2527
 3995TIP3    H111991   0.884   4.437   2.401  1.2772 -1.9969  1.6752
 3995TIP3    H211992   0.963   4.566   2.390 -0.4910 -0.7843  2.6569
 3996TIP3   OH211993   6.168   5.410   0.039 -0.5223  0.3357  0.3063
 3996TIP3    H111994   6.124   5.469  -0.022 -0.1559  0.6037  0.2982
 3996TIP3    H211995   6.132   5.433   0.125  1.0037  1.9377  0.5896
 3997TIP3   OH211996   2.249   0.686   3.651 -0.1529 -0.2572  0.3696
 3997TIP3    H111997   2.324   0.639   3.687 -0.6692 -1.2662  0.1600
 3997TIP3    H211998   2.251   0.771   3.694 -0.0196 -0.9846  1.8610
 3998TIP3   OH211999   5.960   4.511   1.344 -0.5979  0.0533  0.1205
 3998TIP3    H112000   5.868   4.491   1.359 -0.4605 -0.4642  0.2900
 3998TIP3    H212001   5.993   4.537   1.430 -0.4052 -0.5044  0.2190
 3999TIP3   OH212002   6.339   0.495   2.283 -0.5307  0.2694 -0.6193
 3999TIP3    H112003   6.342   0.554   2.358 -0.5538 -0.1938 -0.2444
 3999TIP3    H212004   6.299   0.546   2.213 -3.1446 -0.1026  0.4604
 4000TIP3   OH212005   4.098   0.735   1.202 -0.4626 -0.2943  0.0304
 4000TIP3    H112006   4.070   0.737   1.293  0.0504  1.7146  0.1812
 4000TIP3    H212007   4.143   0.818   1.188  1.2945 -1.4032 -1.4980
 4001TIP3   OH212008   3.968   5.455   4.556  0.6054 -0.5946 -0.1312
 4001TIP3    H112009   3.997   5.515   4.487  2.2469 -1.8395 -0.5866
 4001TIP3    H212010   3.900   5.402   4.513  0.6104 -0.4207 -0.3589
 4002TIP3   OH212011   2.139   0.354   2.336  0.4553  0.0356 -0.9209
 4002TIP3    H112012   2.220   0.383   2.294 -0.1197  0.6714 -1.6222
 4002TIP3    H212013   2.093   0.305   2.268  0.0720  0.0217 -0.6540
 4003TIP3   OH212014   3.545   3.388   4.316  0.3320 -0.2251  0.0653
 4003TIP3    H112015   3.626   3.420   4.355 -0.4766 -0.1718  1.8100
 4003TIP3    H212016   3.504   3.466   4.279  1.1112 -0.2753 -0.9494
 4004TIP3   OH212017   2.869   2.244   1.378  0.6706  0.6754 -0.7846
 4004TIP3    H112018   2.806   2.189   1.424 -0.4924  1.4083 -1.4500
 4004TIP3    H212019   2.941   2.184   1.356 -0.2835 -0.4424 -0.9700
 4005TIP3   OH212020   2.715   1.806   4.276 -0.5245  0.3546  0.1714
 4005TIP3    H112021   2.729   1.884   4.330  0.0701  0.5965 -0.3097
 4005TIP3    H212022   2.714   1.733   4.338  3.0195  0.2744  0.3611
 4006TIP3   OH212023   2.716   4.434   2.822  0.4270  0.3227 -0.5760
 4006TIP3    H112024   2.742   4.359   2.876 -2.1728 -1.5757 -1.7520
 4006TIP3    H212025   2.670   4.492   2.883 -3.2703 -2.2033 -0.6171
 4007TIP3   OH212026   0.169   0.723   0.587  0.5715 -0.5910 -0.2487
 4007TIP3    H112027   0.139   0.813   0.595  0.9237 -0.4273 -0.7181
 4007TIP3    H212028   0.103   0.671   0.634  1.3251  0.0744  1.6648
 4008TIP3   OH212029   1.695   3.260   1.627  0.7316  0.0004 -0.6032
 4008TIP3    H112030   1.755   3.195   1.588  1.1277 -0.4543  0.7005
 4008TIP3    H212031   1.629   3.276   1.559  1.0571 -1.2003 -1.2293
 4009TIP3   OH212032   1.937   5.277   3.770  0.2354 -0.0504 -0.3312
 4009TIP3    H112033   1.962   5.251   3.681 -0.9704 -1.5992 -0.2517
 4009TIP3    H212034   1.882   5.354   3.758 -0.6972 -0.7997 -1.0353
 4010TIP3   OH212035   3.938   1.427   3.147  0.2373 -0.3388 -0.3721
 4010TIP3    H112036   3.979   1.497   3.197 -0.9952  0.3617 -0.2853
 4010TIP3    H212037   4.003   1.356   3.145  0.4209 -0.3058  2.0159
 4011TIP3   OH212038   6.177   2.648   2.571  0.4169 -0.1779  0.1697
 4011TIP3    H112039   6.259   2.604   2.549  0.0276 -0.1657 -1.4462
 4011TIP3    H212040   6.111   2.604   2.517 -0.6554 -0.1328  1.3741
 4012TIP3   OH212041   3.421   5.840   1.121  0.3285 -0.5217 -0.6963
 4012TIP3    H112042   3.332   5.858   1.090  0.7011  0.0464 -1.4673
 4012TIP3    H212043   3.477   5.859   1.046  1.0465 -1.6772 -0.4793
 4013TIP3   OH212044   5.395   0.520   5.012 -0.2781  0.2794 -0.5342
 4013TIP3    H112045   5.356   0.552   4.931 -0.5495 -0.2630 -0.6260
 4013TIP3    H212046   5.379   0.589   5.076 -0.5791  0.4547 -0.7993
 4014TIP3   OH212047   3.141   2.970   0.135  0.6363 -0.3522  0.3930
 4014TIP3    H112048   3.065   2.930   0.177  1.5030 -0.4944  1.8942
 4014TIP3    H212049   3.135   3.063   0.159 -0.3190  0.1286 -1.4812
 4015TIP3   OH212050   0.629   5.456   3.525 -0.3235 -0.1857 -0.2901
 4015TIP3    H112051   0.621   5.483   3.616 -0.9385  0.4270 -0.5192
 4015TIP3    H212052   0.631   5.360   3.529  1.7503 -0.1719  0.5144
 4016TIP3   OH212053   4.996   1.358   3.033 -0.1040 -0.3722  0.0759
 4016TIP3    H112054   5.013   1.264   3.039  3.8567  0.0592 -1.5896
 4016TIP3    H212055   4.915   1.364   2.983  1.2142 -2.9932 -2.6948
 4017TIP3   OH212056   0.491   3.657   4.365 -0.0749 -0.0245  0.4337
 4017TIP3    H112057   0.399   3.663   4.393 -0.8718 -1.5257 -1.6025
 4017TIP3    H212058   0.506   3.737   4.315 -0.0153  0.5831  1.4032
 4018TIP3   OH212059   2.444   5.836   3.053 -0.7740  0.2682 -0.0734
 4018TIP3    H112060   2.443   5.928   3.079 -1.1239  0.6178 -1.2525
 4018TIP3    H212061   2.365   5.799   3.093  0.4884 -0.1075  2.2659
 4019TIP3   OH212062   1.623   1.573   3.217 -0.3051  0.3099 -0.4393
 4019TIP3    H112063   1.689   1.608   3.157 -0.6374  1.0613 -0.3828
 4019TIP3    H212064   1.673   1.552   3.296  0.1991 -1.0709 -1.1073
 4020TIP3   OH212065   1.107   2.737   1.477 -0.4032  0.0683 -0.0358
 4020TIP3    H112066   1.174   2.678   1.442 -0.0388  0.7097 -0.4436
 4020TIP3    H212067   1.027   2.712   1.432 -0.2373 -0.0591 -0.2629
 4021TIP3   OH212068   1.981   2.344   3.300 -0.4316 -0.0016 -0.7252
 4021TIP3    H112069   1.901   2.303   3.266 -0.7243  2.1197 -2.9001
 4021TIP3    H212070   2.052   2.302   3.251 -0.4574 -0.0040 -0.7608
 4022TIP3   OH212071   3.239   0.712   3.637  0.6517  0.0855 -0.2859
 4022TIP3    H112072   3.297   0.636   3.633  0.8944 -0.1052  3.4285
 4022TIP3    H212073   3.294   0.785   3.609  2.4949 -0.2468  2.1510
 4023TIP3   OH212074   3.294   1.397   2.902  0.0838 -0.4174  0.3933
 4023TIP3    H112075   3.384   1.371   2.921  0.7565  1.5702  0.1709
 4023TIP3    H212076   3.249   1.394   2.986 -0.0077 -2.5094  0.3409
 4024TIP3   OH212077   0.815   5.608   3.174 -0.2025  0.2114 -0.2962
 4024TIP3    H112078   0.892   5.639   3.127 -1.2626  0.0860 -2.2290
 4024TIP3    H212079   0.824   5.512   3.177 -0.6254  0.1364 -1.1941
 4025TIP3   OH212080   1.007   3.615   1.832 -0.0790  0.0754 -0.4353
 4025TIP3    H112081   1.103   3.611   1.827  0.0421  2.7971 -3.9258
 4025TIP3    H212082   0.989   3.677   1.902  0.8653  1.0701 -1.0316
 4026TIP3   OH212083   0.184   4.090   1.612  0.5392 -0.0910  0.0115
 4026TIP3    H112084   0.143   4.068   1.528 -0.5354 -2.6711  1.1083
 4026TIP3    H212085   0.276   4.103   1.591  0.4975 -1.7978 -1.4539
 4027TIP3   OH212086   3.165   3.388   3.300  0.1771 -0.3127 -1.0023
 4027TIP3    H112087   3.109   3.329   3.351 -0.9304  0.4342 -1.3174
 4027TIP3    H212088   3.163   3.471   3.348 -0.3643  0.2126 -1.9023
 4028TIP3   OH212089   0.435   4.819   3.407  0.0789 -0.0806 -0.2887
 4028TIP3    H112090   0.348   4.828   3.446  0.0621  0.1484 -0.3804
 4028TIP3    H212091   0.496   4.849   3.475  0.0843 -0.2088 -0.2368
 4029TIP3   OH212092   1.284   4.027   2.370  0.5474 -0.1201  0.0057
 4029TIP3    H112093   1.251   3.997   2.286  2.8612 -1.2006 -0.6031
 4029TIP3    H212094   1.348   4.095   2.349 -1.5524  2.4052  1.1776
 4030TIP3   OH212095   4.338   3.361   4.614  0.2652  0.1408 -0.6130
 4030TIP3    H112096   4.292   3.428   4.563 -0.2295 -0.0313 -0.3972
 4030TIP3    H212097   4.277   3.337   4.683  0.9739  0.4492  0.1344
 4031TIP3   OH212098   3.452   4.631   2.076  0.4745  0.0643  0.1355
 4031TIP3    H112099   3.378   4.682   2.107  0.1142 -0.4615  0.1454
 4031TIP3    H212100   3.504   4.613   2.155  0.4442  0.1608  0.1771
 4032TIP3   OH212101   2.460   0.944   0.448 -0.1689  0.0526 -0.6824
 4032TIP3    H112102   2.525   0.897   0.500  0.3502  0.2297 -1.1565
 4032TIP3    H212103   2.390   0.880   0.433 -0.2850 -0.0258  0.1475
 4033TIP3   OH212104   0.943   0.773   5.018  0.9824  0.2146  0.6508
 4033TIP3    H112105   0.859   0.813   4.992  2.3258  1.4438 -2.3337
 4033TIP3    H212106   0.965   0.815   5.101 -0.5623  1.1095  0.6588
 4034TIP3   OH212107   1.283   4.108   4.273 -0.1040 -0.9832 -0.5364
 4034TIP3    H112108   1.266   4.172   4.204 -0.9978 -0.4969  0.1214
 4034TIP3    H212109   1.206   4.111   4.329  1.2139 -0.2812  1.3444
 4035TIP3   OH212110   1.648   0.855   2.184 -0.1954 -0.3218  0.1567
 4035TIP3    H112111   1.557   0.873   2.159 -0.2371  1.6151  1.5123
 4035TIP3    H212112   1.653   0.760   2.191 -2.4965 -0.4030  1.3894
 4036TIP3   OH212113   2.251   5.577   4.170 -0.7968 -0.0939  0.1792
 4036TIP3    H112114   2.342   5.554   4.155 -0.0523  2.0988  0.8806
 4036TIP3    H212115   2.205   5.550   4.091  0.6519 -0.3351 -0.6023
 4037TIP3   OH212116   1.757   1.418   2.615 -0.2546 -0.0520 -1.1714
 4037TIP3    H112117   1.701   1.414   2.538 -2.1371  1.5223 -0.0051
 4037TIP3    H212118   1.719   1.354   2.676 -0.1580  0.2842 -0.7488
 4038TIP3   OH212119   3.936   1.581   2.384  0.0422  0.0686  0.6297
 4038TIP3    H112120   3.955   1.595   2.477 -1.1883 -0.1323  0.9191
 4038TIP3    H212121   3.848   1.616   2.371  0.3374  0.4123 -0.5469
 4039TIP3   OH212122   4.131   5.593   1.481 -0.2433 -0.5192  0.3911
 4039TIP3    H112123   4.076   5.578   1.558 -0.5021 -1.1744  0.0857
 4039TIP3    H212124   4.145   5.506   1.445  1.5387 -0.4481  0.8245
 4040TIP3   OH212125   4.412   1.658   4.098 -0.5487  0.5645  0.0948
 4040TIP3    H112126   4.442   1.606   4.024  1.4312  0.9660  0.5632
 4040TIP3    H212127   4.361   1.729   4.058 -0.1453  0.3490 -0.8324
 4041TIP3   OH212128   0.164   3.253   3.288 -0.5892 -0.1645 -0.7766
 4041TIP3    H112129   0.194   3.216   3.371  0.1288  1.3357 -0.3319
 4041TIP3    H212130   0.072   3.227   3.283 -0.4535 -0.8847  0.1308
 4042TIP3   OH212131   5.525   0.547   1.678 -0.3859 -0.1510 -0.0839
 4042TIP3    H112132   5.465   0.620   1.665  0.0438  0.3225  0.5221
 4042TIP3    H212133   5.507   0.488   1.605  0.1522  1.1689 -1.3451
 4043TIP3   OH212134   2.973   5.356   2.361  0.2553 -0.4009 -0.0200
 4043TIP3    H112135   2.955   5.423   2.295 -2.0781 -1.6175 -0.7413
 4043TIP3    H212136   2.893   5.351   2.414  0.6490 -2.0542  0.5069
 4044TIP3   OH212137   1.719   0.559   2.850  0.8015  0.7344 -0.1425
 4044TIP3    H112138   1.743   0.530   2.938  1.4999  0.9683 -0.2530
 4044TIP3    H212139   1.743   0.486   2.793  1.0531  0.8852 -0.2296
 4045TIP3   OH212140   1.008   2.022   3.465  0.5457  0.1746  0.1071
 4045TIP3    H112141   0.942   2.027   3.396 -0.7081 -0.9643  1.1705
 4045TIP3    H212142   1.043   2.110   3.471  0.0619  0.4965 -1.3840
 4046TIP3   OH212143   2.787   1.969   2.908 -0.1273 -0.0845 -0.1681
 4046TIP3    H112144   2.865   2.024   2.902  0.3889 -0.8414 -0.5766
 4046TIP3    H212145   2.724   2.021   2.959  2.1784 -1.2124  4.3289
 4047TIP3   OH212146   2.134   5.840   2.144  0.0085 -0.0187  0.4535
 4047TIP3    H112147   2.222   5.830   2.107 -0.9190  0.2982 -1.9918
 4047TIP3    H212148   2.116   5.756   2.185  0.5737 -0.9479 -1.1107
 4048TIP3   OH212149   4.064   4.595   3.603  0.0342  0.0368  0.6783
 4048TIP3    H112150   3.977   4.577   3.567  0.3328  0.8690 -0.5305
 4048TIP3    H212151   4.081   4.687   3.580  1.0757 -0.0014  1.2268
 4049TIP3   OH212152   3.409   1.881   0.420 -0.3872  0.3113 -0.1581
 4049TIP3    H112153   3.400   1.949   0.353 -1.5875 -0.2288 -0.5807
 4049TIP3    H212154   3.485   1.830   0.391 -0.5799  0.3961 -0.8477
 4050TIP3   OH212155   4.869   3.566   0.829 -0.7666 -0.6776 -0.3447
 4050TIP3    H112156   4.893   3.516   0.907  0.2312  0.9017  0.4152
 4050TIP3    H212157   4.776   3.584   0.840 -1.2246 -2.5447 -0.7752
 4051TIP3   OH212158   0.809   3.569   1.666 -0.5265  0.2189  0.2450
 4051TIP3    H112159   0.747   3.625   1.711 -0.6024  0.0133  0.3973
 4051TIP3    H212160   0.888   3.571   1.721 -0.2902  0.7229 -0.1056
 4052TIP3   OH212161   5.223   4.292   1.013  0.0702 -0.5477  0.1313
 4052TIP3    H112162   5.196   4.201   1.029  3.3592 -1.4877  1.1924
 4052TIP3    H212163   5.231   4.297   0.917 -1.6020 -0.8545 -0.0538
 4053TIP3   OH212164   6.328   4.324   1.234 -0.3970 -0.0918  0.3587
 4053TIP3    H112165   6.379   4.246   1.214  0.7342  0.5070  0.8288
 4053TIP3    H212166   6.322   4.371   1.151  0.5908  0.2675  0.4789
 4054TIP3   OH212167   0.138   3.684   3.134  0.3556 -0.0310 -0.1899
 4054TIP3    H112168   0.057   3.639   3.110  1.3144 -1.4815 -0.8731
 4054TIP3    H212169   0.197   3.614   3.162  1.1698  1.0606  0.9488
 4055TIP3   OH212170   4.525   2.962   4.444  0.0480  0.1611  0.1559
 4055TIP3    H112171   4.546   2.877   4.406  2.2645  0.2512  1.0343
 4055TIP3    H212172   4.485   3.011   4.373 -4.6092 -2.5877  0.3963
 4056TIP3   OH212173   2.825   0.092   0.142  0.1600 -0.3478  0.4619
 4056TIP3    H112174   2.874   0.163   0.101 -0.1587  0.8986  2.1225
 4056TIP3    H212175   2.800   0.035   0.069  0.7976  1.0103 -0.8802
 4057TIP3   OH212176   2.663   2.920   0.027  0.0742  0.2156  0.4364
 4057TIP3    H112177   2.629   2.831   0.035  0.2702  0.2165  1.3916
 4057TIP3    H212178   2.629   2.952  -0.056  0.9996 -1.1925 -0.5261
 4058TIP3   OH212179   2.682   1.363   4.017 -0.3272 -0.6558 -0.0866
 4058TIP3    H112180   2.637   1.444   4.039  2.2294  1.1840 -1.1531
 4058TIP3    H212181   2.697   1.368   3.922  1.2611 -1.5859  0.0706
 4059TIP3   OH212182   4.106   3.124   0.933  0.6882  0.3400  0.4268
 4059TIP3    H112183   4.120   3.056   0.999 -2.0259  0.9013  1.7561
 4059TIP3    H212184   4.021   3.102   0.895  2.4921 -0.4276 -3.6421
 4060TIP3   OH212185   6.065   4.834   2.552 -0.2594 -0.3601  0.3237
 4060TIP3    H112186   6.097   4.921   2.527 -0.1290 -0.1508  1.1841
 4060TIP3    H212187   6.136   4.797   2.605 -0.5932 -0.7247  0.5186
 4061TIP3   OH212188   5.344   5.950   4.728  0.4578 -0.6263  0.3303
 4061TIP3    H112189   5.254   5.931   4.703  0.3970 -0.0696  0.1130
 4061TIP3    H212190   5.351   5.918   4.818 -0.0790 -0.2848  0.4944
 4062TIP3   OH212191   5.170   1.569   0.435  0.1820  0.1053  0.5025
 4062TIP3    H112192   5.246   1.558   0.379 -0.8779 -1.1983 -0.7738
 4062TIP3    H212193   5.205   1.566   0.524  2.0499  3.3866  0.0132
 4063TIP3   OH212194   1.585   0.049   1.351 -0.6346 -0.1034 -0.0587
 4063TIP3    H112195   1.592   0.130   1.301 -1.1163 -1.0801 -1.7679
 4063TIP3    H212196   1.661   0.050   1.409 -0.3179  1.2893 -0.4635
 4064TIP3   OH212197   3.014   2.041   0.877  0.7545 -0.1771  0.8844
 4064TIP3    H112198   3.063   2.123   0.875  0.8999 -0.1919  2.4469
 4064TIP3    H212199   3.072   1.980   0.924 -0.0279 -0.7017  1.1812
 4065TIP3   OH212200   0.346   3.934   0.051  0.2336 -0.5090  0.0128
 4065TIP3    H112201   0.396   3.877  -0.008  0.0161 -0.8601  0.1666
 4065TIP3    H212202   0.291   3.987  -0.008  0.1903 -0.6926 -0.1126
 4066TIP3   OH212203   5.930   1.129   1.602  0.0193 -0.4042  0.3324
 4066TIP3    H112204   5.977   1.170   1.529 -1.2338 -0.7037 -0.6823
 4066TIP3    H212205   5.988   1.058   1.631  1.4914  1.0415  1.0690
 4067TIP3   OH212206   1.788   4.216   3.424  0.0988 -0.3446 -0.5037
 4067TIP3    H112207   1.846   4.177   3.358  0.4858 -0.7478  0.0685
 4067TIP3    H212208   1.835   4.293   3.455  0.2454 -0.5642 -0.1768
 4068TIP3   OH212209   2.678   5.736   1.781 -0.0509 -0.0426  0.6035
 4068TIP3    H112210   2.627   5.655   1.780  1.5606 -1.1664  2.5047
 4068TIP3    H212211   2.750   5.720   1.720 -0.9626  0.9041 -0.7907
 4069TIP3   OH212212   3.842   3.377   1.742 -0.3314  0.4708 -0.1639
 4069TIP3    H112213   3.897   3.455   1.733  1.3818 -0.8020 -1.5588
 4069TIP3    H212214   3.876   3.334   1.821  0.4533 -0.1077 -0.7985
 4070TIP3   OH212215   4.549   4.652   1.190  0.2705  0.0682 -0.2091
 4070TIP3    H112216   4.467   4.619   1.153 -0.6265 -0.7692  2.2779
 4070TIP3    H212217   4.617   4.599   1.148 -0.4197  0.6551 -2.1799
 4071TIP3   OH212218   0.470   2.785   1.958 -0.3387 -0.2419  0.2010
 4071TIP3    H112219   0.509   2.799   2.044 -0.7792  0.5597  0.2859
 4071TIP3    H212220   0.539   2.810   1.896 -0.5868  0.8417  0.3447
 4072TIP3   OH212221   1.194   0.624   4.318 -0.0960  0.1927 -0.0398
 4072TIP3    H112222   1.204   0.719   4.308 -0.1557  0.1583 -0.4214
 4072TIP3    H212223   1.122   0.614   4.380 -0.9170  0.3919 -0.9349
 4073TIP3   OH212224   3.867   5.718   0.394  0.6643 -0.6557  0.3595
 4073TIP3    H112225   3.958   5.738   0.372  0.1174  0.4446 -1.0771
 4073TIP3    H212226   3.847   5.775   0.468  1.4026 -1.6365  1.3628
 4074TIP3   OH212227   4.659   2.282   3.782 -0.6580  0.1181  0.1030
 4074TIP3    H112228   4.586   2.314   3.835 -0.5890 -0.5040  0.5859
 4074TIP3    H212229   4.720   2.356   3.779 -0.4685  0.0358  1.2592
 4075TIP3   OH212230   0.727   2.330   2.307  0.1014 -0.1358 -0.2469
 4075TIP3    H112231   0.723   2.276   2.228  2.1197 -0.3469 -0.2528
 4075TIP3    H212232   0.753   2.269   2.376 -0.6301  0.2511  0.3802
 4076TIP3   OH212233   1.852   3.367   3.091 -0.4650  0.4070 -0.1799
 4076TIP3    H112234   1.782   3.382   3.154 -0.8366  1.3345 -0.7892
 4076TIP3    H212235   1.883   3.279   3.110 -0.3183  0.7906  1.5320
 4077TIP3   OH212236   6.186   3.658   3.300  0.0575  0.2866  0.2999
 4077TIP3    H112237   6.101   3.689   3.268  0.5329  1.1637 -0.1273
 4077TIP3    H212238   6.221   3.732   3.349  0.9446  0.2105 -0.2184
 4078TIP3   OH212239   2.291   4.421   3.839 -0.1197 -0.6565 -0.0574
 4078TIP3    H112240   2.325   4.376   3.916  0.3386 -0.3343 -0.0639
 4078TIP3    H212241   2.368   4.432   3.782  0.0315  1.1307  0.4294
 4079TIP3   OH212242   1.032   5.414   3.805 -0.0640  0.7734  0.4234
 4079TIP3    H112243   1.073   5.500   3.801  0.2562  0.6309  0.5916
 4079TIP3    H212244   1.054   5.373   3.721  1.0769  0.2843  0.9348
 4080TIP3   OH212245   1.744   2.638   4.355 -0.0979  0.8273  0.0189
 4080TIP3    H112246   1.662   2.598   4.385  1.3955 -1.0086  1.9661
 4080TIP3    H212247   1.717   2.705   4.292 -3.1439  0.9489  1.2985
 4081TIP3   OH212248   1.789   2.476   3.691  0.2149  0.6879  0.1632
 4081TIP3    H112249   1.754   2.565   3.698 -1.1657  0.0602  2.1578
 4081TIP3    H212250   1.872   2.479   3.738  0.3724  1.0385 -0.1425
 4082TIP3   OH212251   3.685  -0.031   2.192 -0.3998  0.6472  0.5205
 4082TIP3    H112252   3.691   0.045   2.249  0.6390  1.1271 -0.2060
 4082TIP3    H212253   3.677   0.005   2.104 -0.5800 -0.0826  0.2280
 4083TIP3   OH212254   4.931   1.273   0.331 -0.6288  0.1580  0.1557
 4083TIP3    H112255   4.928   1.327   0.252 -0.2443 -0.1236 -0.0529
 4083TIP3    H212256   4.896   1.330   0.400 -1.5507  0.2017 -0.3321
 4084TIP3   OH212257   0.296   1.224   0.534  0.0162 -0.1274 -0.0543
 4084TIP3    H112258   0.347   1.147   0.559 -1.5588 -1.8328 -1.6841
 4084TIP3    H212259   0.297   1.222   0.438 -0.7006  1.4489 -0.1167
 4085TIP3   OH212260   4.181   5.675   1.049  0.0750 -0.3352  0.1069
 4085TIP3    H112261   4.154   5.721   0.970 -0.8771  0.8654  1.0973
 4085TIP3    H212262   4.161   5.735   1.120  1.6528 -1.0622  1.2220
 4086TIP3   OH212263   2.687   0.556   2.212 -0.0253  0.0700 -0.1395
 4086TIP3    H112264   2.672   0.650   2.204 -0.6099 -0.0679 -0.7609
 4086TIP3    H212265   2.716   0.528   2.125 -0.9308 -0.4982 -0.2785
 4087TIP3   OH212266   6.215   5.928   0.679  0.2278 -0.0725 -0.0932
 4087TIP3    H112267   6.214   6.010   0.728  0.1820 -0.1694  0.0691
 4087TIP3    H212268   6.201   5.954   0.588  0.9260  0.1687 -0.1421
 4088TIP3   OH212269   3.029   0.347   1.202 -0.5227 -0.5124 -0.0422
 4088TIP3    H112270   2.975   0.276   1.166 -0.2390 -0.5742 -0.3483
 4088TIP3    H212271   3.054   0.317   1.289 -3.0220  0.5521  1.1419
 4089TIP3   OH212272   1.290   5.223   4.223  0.1268  0.1329 -0.2254
 4089TIP3    H112273   1.380   5.230   4.254  0.5323 -1.5701 -0.9125
 4089TIP3    H212274   1.298   5.213   4.128 -0.6221 -2.0711 -0.1117
 4090TIP3   OH212275   3.176   0.806   1.821  0.1015  0.3963 -0.0990
 4090TIP3    H112276   3.244   0.762   1.871 -0.7219 -1.2967 -0.4113
 4090TIP3    H212277   3.095   0.785   1.867 -0.2637  2.3574  0.2484
 4091TIP3   OH212278   2.392   0.283   0.536  0.2948  0.1282 -0.3984
 4091TIP3    H112279   2.450   0.246   0.469  0.1234 -1.0524  0.0741
 4091TIP3    H212280   2.323   0.327   0.486  0.4487 -0.2873 -0.9973
 4092TIP3   OH212281   3.685   1.040   3.699  0.2477  0.1785 -0.1715
 4092TIP3    H112282   3.595   1.037   3.667  1.0274 -1.5613 -2.5160
 4092TIP3    H212283   3.712   1.131   3.685 -0.3943  0.1467 -1.8838
 4093TIP3   OH212284   4.666   5.958   0.316 -0.4122 -0.4511  0.1377
 4093TIP3    H112285   4.760   5.955   0.298 -0.6335 -0.1013 -1.1765
 4093TIP3    H212286   4.658   5.919   0.403  0.9216 -0.6973  0.1848
 4094TIP3   OH212287   1.826   4.892   4.026 -0.3659  0.2068  0.0639
 4094TIP3    H112288   1.818   4.980   4.062  2.1240  0.6795 -0.3500
 4094TIP3    H212289   1.737   4.857   4.028 -1.3136  2.4715  0.8517
 4095TIP3   OH212290   2.121   4.171   2.321  0.3129 -0.7009  0.2850
 4095TIP3    H112291   2.057   4.210   2.380  0.0528  0.2800 -0.6024
 4095TIP3    H212292   2.131   4.081   2.351 -0.6500 -0.5388  1.1198
 4096TIP3   OH212293   4.624   4.841   2.433 -0.1382 -0.1093 -0.5946
 4096TIP3    H112294   4.710   4.815   2.401  0.0177 -0.2486 -0.0702
 4096TIP3    H212295   4.594   4.907   2.370  0.0516 -0.5555 -1.1608
 4097TIP3   OH212296   0.771   3.989   3.465 -0.0136  0.6416  0.0048
 4097TIP3    H112297   0.815   3.933   3.528  0.0429  1.5241  0.7680
 4097TIP3    H212298   0.841   4.037   3.421  0.0462 -0.8600 -1.6471
 4098TIP3   OH212299   3.039   1.298   0.476  0.4651  0.0753 -0.1064
 4098TIP3    H112300   3.111   1.360   0.465 -1.3413  2.0427 -1.7542
 4098TIP3    H212301   3.012   1.309   0.567  0.9527  0.8104 -0.0355
 4099TIP3   OH212302   1.780   1.261   2.153 -0.3863 -0.3316  0.5435
 4099TIP3    H112303   1.741   1.206   2.222 -0.2033 -1.6029 -0.3210
 4099TIP3    H212304   1.795   1.200   2.080  1.8460  0.4133  0.3132
 4100TIP3   OH212305   0.404   1.553   1.168 -0.2690  0.1757 -0.0180
 4100TIP3    H112306   0.440   1.633   1.207 -0.0345  0.3503 -0.5768
 4100TIP3    H212307   0.472   1.487   1.183 -0.7358 -0.0886  1.0114
 4101TIP3   OH212308   6.210   2.891   2.405 -0.0288 -0.3834  0.1691
 4101TIP3    H112309   6.157   2.814   2.427  0.1556 -0.6135 -0.2013
 4101TIP3    H212310   6.294   2.875   2.448  0.3851 -0.9051 -0.8155
 4102TIP3   OH212311   1.644   5.936   2.682 -0.2134 -0.9599  0.0422
 4102TIP3    H112312   1.710   5.870   2.705  0.9350  1.1011  3.2367
 4102TIP3    H212313   1.568   5.914   2.736 -0.2851 -0.3924  0.1728
 4103TIP3   OH212314   5.575   3.865   2.456  0.0373  0.0799  0.2481
 4103TIP3    H112315   5.543   3.878   2.545 -2.2537  1.2641 -0.6486
 4103TIP3    H212316   5.613   3.949   2.431 -0.6686  0.2416 -0.3425
 4104TIP3   OH212317   4.787   4.296   0.021 -0.3083  0.0620 -0.2048
 4104TIP3    H112318   4.862   4.264  -0.029 -0.3240  0.0936 -0.2487
 4104TIP3    H212319   4.825   4.334   0.100 -0.2412  0.5186 -0.4552
 4105TIP3   OH212320   1.368   4.849   4.369  0.4457 -0.2682 -0.1922
 4105TIP3    H112321   1.422   4.893   4.435  0.9911 -0.5540 -0.4380
 4105TIP3    H212322   1.309   4.793   4.420 -0.1008  0.5661  0.1086
 4106TIP3   OH212323   1.303   3.660   5.007  0.6586  0.4680  0.2420
 4106TIP3    H112324   1.336   3.724   4.944  0.3092  1.2044  0.7959
 4106TIP3    H212325   1.209   3.655   4.988  0.9196 -1.0437 -0.8182
 4107TIP3   OH212326   2.675   2.880   4.167 -0.3112 -0.1921  0.0020
 4107TIP3    H112327   2.732   2.955   4.153 -0.0781 -0.4718 -0.6169
 4107TIP3    H212328   2.617   2.880   4.091  0.0534 -0.9516 -0.2879
 4108TIP3   OH212329   1.444   4.902   0.600  0.3216  0.5906  0.1239
 4108TIP3    H112330   1.484   4.894   0.686 -1.8067  0.6485  1.1835
 4108TIP3    H212331   1.462   4.819   0.557  2.4818  1.0100  0.0736
 4109TIP3   OH212332   2.836   1.145   3.841 -0.5695  0.3056 -0.3132
 4109TIP3    H112333   2.811   1.218   3.786 -0.0792  0.6653 -0.0708
 4109TIP3    H212334   2.854   1.073   3.780 -0.9070  0.4316 -0.5595
 4110TIP3   OH212335   5.631   1.829   1.620 -0.2908  0.1493  0.8028
 4110TIP3    H112336   5.663   1.758   1.564 -1.2013 -0.4126  0.9772
 4110TIP3    H212337   5.685   1.904   1.596 -0.6652 -0.0574 -0.8597
 4111TIP3   OH212338   1.974   4.122   1.538  0.2408 -0.6089  0.1215
 4111TIP3    H112339   1.901   4.167   1.496 -1.1880 -0.9286  2.0886
 4111TIP3    H212340   2.052   4.172   1.512 -1.1635  2.6192  1.5807
 4112TIP3   OH212341   2.770   2.277   3.261  0.3648  1.1833  0.3948
 4112TIP3    H112342   2.852   2.248   3.222 -0.0582  0.0291  0.3053
 4112TIP3    H212343   2.782   2.370   3.278  1.2853  1.2655 -0.6311
 4113TIP3   OH212344   4.364   2.557   0.339  0.0379  0.5181 -0.1292
 4113TIP3    H112345   4.272   2.584   0.334  0.2325  1.1987 -0.1204
 4113TIP3    H212346   4.361   2.467   0.372 -0.6007  0.6985  0.3172
 4114TIP3   OH212347   2.247   4.947   1.595  0.2679  0.2711  0.2400
 4114TIP3    H112348   2.289   4.865   1.618 -0.7908 -0.8681 -1.6901
 4114TIP3    H212349   2.320   5.009   1.583  1.1244 -0.6064  0.7884
 4115TIP3   OH212350   0.423   1.368   0.868  0.3749  0.1372 -0.1254
 4115TIP3    H112351   0.446   1.458   0.845  1.2756  0.0298  0.3134
 4115TIP3    H212352   0.362   1.376   0.941 -0.0810  0.4030 -0.5328
 4116TIP3   OH212353   4.886   2.124   4.738 -0.3849  0.0487 -0.5045
 4116TIP3    H112354   4.899   2.043   4.689 -0.6073  0.6375 -1.5795
 4116TIP3    H212355   4.906   2.194   4.675 -1.6229  0.8469 -0.0645
 4117TIP3   OH212356   1.598   5.651   4.098 -0.2724 -0.4856  0.4543
 4117TIP3    H112357   1.612   5.556   4.102  1.0215 -0.3494 -0.2422
 4117TIP3    H212358   1.529   5.668   4.162 -0.0565 -1.8188  1.0727
 4118TIP3   OH212359   5.770   5.327   2.587 -0.1245 -0.0172 -0.6869
 4118TIP3    H112360   5.765   5.422   2.580 -0.2310 -0.0270 -0.7490
 4118TIP3    H212361   5.739   5.307   2.675  0.7648  0.0698 -0.3448
 4119TIP3   OH212362   0.929   5.508   4.661 -0.3231  0.2737  0.5004
 4119TIP3    H112363   0.925   5.603   4.648  0.2405  0.1174 -0.9636
 4119TIP3    H212364   1.012   5.494   4.707 -0.5090  0.4931  0.9135
 4120TIP3   OH212365   2.290   0.936   4.759 -0.2702  0.1490 -0.1505
 4120TIP3    H112366   2.265   1.005   4.820 -0.9341 -1.3170  1.3058
 4120TIP3    H212367   2.249   0.961   4.676 -2.6188  0.2535  0.9778
 4121TIP3   OH212368   1.683   0.638   0.647  0.1133  0.6357 -0.2986
 4121TIP3    H112369   1.601   0.614   0.690  0.0951 -1.1252 -1.2064
 4121TIP3    H212370   1.733   0.684   0.715 -2.0701  2.9473 -0.1012
 4122TIP3   OH212371   5.280   0.071   4.564  0.6024 -0.0783  0.1680
 4122TIP3    H112372   5.296  -0.019   4.534  0.6265 -0.3192  0.8887
 4122TIP3    H212373   5.317   0.074   4.652 -2.2260 -0.3204  1.4673
 4123TIP3   OH212374   0.112   5.030   1.896  0.3816 -0.2800 -0.5558
 4123TIP3    H112375   0.047   5.092   1.929  0.7689 -0.1186 -0.0847
 4123TIP3    H212376   0.195   5.076   1.903  0.6012 -0.6381 -0.7645
 4124TIP3   OH212377   0.233   4.991   0.474  0.0543 -0.2531 -0.0287
 4124TIP3    H112378   0.165   5.058   0.471  1.2600  0.9824 -1.4017
 4124TIP3    H212379   0.315   5.040   0.485  0.9742 -1.4832 -0.9841
 4125TIP3   OH212380   1.041   2.477   1.702  0.1622  0.2105 -0.6223
 4125TIP3    H112381   1.070   2.568   1.691  0.9888  0.0861  0.3517
 4125TIP3    H212382   0.955   2.474   1.660  0.7170  1.0946 -1.8678
 4126TIP3   OH212383   4.094   1.047   0.648 -0.6574 -0.1338 -0.0751
 4126TIP3    H112384   4.099   1.007   0.734  1.0727 -1.5429 -0.7522
 4126TIP3    H212385   4.095   0.972   0.587  0.2609  0.8626 -1.3419
 4127TIP3   OH212386   0.091   2.113   2.212 -0.8904 -0.0633 -0.0034
 4127TIP3    H112387   0.150   2.066   2.154 -2.0457 -1.2883 -0.2218
 4127TIP3    H212388   0.095   2.067   2.296 -1.3431 -0.0107  0.0545
 4128TIP3   OH212389   6.188   2.342   2.734  0.2944  0.1937  0.7353
 4128TIP3    H112390   6.099   2.365   2.763  0.4278  1.1441  0.4143
 4128TIP3    H212391   6.194   2.378   2.646  0.8371 -0.3106  0.5619
 4129TIP3   OH212392   5.261   5.012   2.163  0.5334 -0.7774  0.0312
 4129TIP3    H112393   5.240   4.970   2.079 -1.0604 -0.4524  0.2444
 4129TIP3    H212394   5.356   5.022   2.161  0.5358 -0.8625 -1.6986
 4130TIP3   OH212395   2.074   3.182   1.772  0.4549  0.0993 -0.2252
 4130TIP3    H112396   2.150   3.241   1.776  1.3076 -0.9730 -0.1576
 4130TIP3    H212397   1.998   3.241   1.775  1.2738  1.2056 -0.3976
 4131TIP3   OH212398   2.129   2.344   3.576 -0.1501  1.0000  0.0926
 4131TIP3    H112399   2.058   2.343   3.512 -0.3360 -0.2473  0.2858
 4131TIP3    H212400   2.204   2.309   3.528 -0.4492 -0.5550  0.6920
 4132TIP3   OH212401   1.680   4.693   1.043 -0.1060  0.0791  0.5342
 4132TIP3    H112402   1.753   4.637   1.069  0.4456  0.0388 -0.9864
 4132TIP3    H212403   1.610   4.672   1.105  1.5035  0.9774  2.7812
 4133TIP3   OH212404   2.124   2.037   3.452 -0.3704 -0.6349  0.2868
 4133TIP3    H112405   2.112   2.047   3.547  0.9649  1.4327  0.3025
 4133TIP3    H212406   2.191   1.970   3.444 -0.3561 -0.6949  0.8220
 4134TIP3   OH212407   3.426   2.384   1.589 -0.4270 -0.2539  0.6314
 4134TIP3    H112408   3.379   2.466   1.574 -0.7158 -0.4641  0.3703
 4134TIP3    H212409   3.490   2.405   1.658  0.9983  0.7860 -0.9159
 4135TIP3   OH212410   2.616   5.198   1.066 -0.1232 -0.3154 -0.2420
 4135TIP3    H112411   2.640   5.236   1.151  1.8374 -0.3194 -0.7401
 4135TIP3    H212412   2.603   5.105   1.085  1.0744 -0.4633 -0.0420
 4136TIP3   OH212413   5.258   1.122   1.778 -0.4325  0.1744 -0.1911
 4136TIP3    H112414   5.247   1.036   1.819 -1.1615  0.3929  0.0902
 4136TIP3    H212415   5.298   1.176   1.846  1.7115 -0.3889 -0.9342
 4137TIP3   OH212416   6.294   1.940   0.968  0.3539 -0.0884  0.3166
 4137TIP3    H112417   6.319   2.023   0.929  0.0897  0.6361  1.6291
 4137TIP3    H212418   6.358   1.925   1.037  0.3123 -0.9083  0.1946
 4138TIP3   OH212419   5.178   4.016   1.018 -0.2567 -0.6765  0.1854
 4138TIP3    H112420   5.149   3.974   0.937  0.9543 -2.4003  0.5845
 4138TIP3    H212421   5.251   3.962   1.048  0.7632  1.2145  1.2698
 4139TIP3   OH212422   4.472   4.121   2.003  0.0914  0.1169  0.6863
 4139TIP3    H112423   4.447   4.038   1.963  1.2399  0.3995 -0.7153
 4139TIP3    H212424   4.442   4.188   1.941  2.0869  0.5550  0.0966
 4140TIP3   OH212425   6.085   5.729   2.781  0.3915  0.3768  0.2687
 4140TIP3    H112426   6.031   5.761   2.853 -0.8881 -0.1691 -0.4116
 4140TIP3    H212427   6.026   5.728   2.705  1.7307  1.0519 -0.8256
 4141TIP3   OH212428   4.302   1.582   4.887  0.3302  0.0620  0.2792
 4141TIP3    H112429   4.227   1.623   4.844 -0.0549 -1.0873 -0.1955
 4141TIP3    H212430   4.329   1.645   4.954 -0.7890  0.6792  0.1773
 4142TIP3   OH212431   2.537   4.944   2.572 -0.2779 -0.0066 -0.0632
 4142TIP3    H112432   2.500   4.988   2.649  2.3210  1.0639  0.7047
 4142TIP3    H212433   2.589   5.012   2.529  2.8757 -1.9167  0.4265
 4143TIP3   OH212434   0.214   2.331   1.489  0.0934  0.1359  0.3590
 4143TIP3    H112435   0.188   2.336   1.581  1.9415 -1.1623  1.0112
 4143TIP3    H212436   0.271   2.407   1.476 -1.0713  0.9664 -0.0736
 4144TIP3   OH212437   2.273   5.291   2.868  0.1544 -0.2465 -0.4155
 4144TIP3    H112438   2.202   5.353   2.852 -0.3650 -0.6681  0.2215
 4144TIP3    H212439   2.305   5.313   2.955 -1.2659 -2.0351  0.6118
 4145TIP3   OH212440   3.234   4.810   1.843  0.3769  0.5403  0.0948
 4145TIP3    H112441   3.216   4.835   1.934  0.7082  1.6963 -0.1418
 4145TIP3    H212442   3.203   4.884   1.791  0.3341 -0.0477 -0.7277
 4146TIP3   OH212443   4.966   5.381   3.611 -0.1139 -0.1566  0.0794
 4146TIP3    H112444   5.043   5.425   3.576  0.0111 -1.8827 -1.9858
 4146TIP3    H212445   4.892   5.416   3.561 -0.1827 -1.1526 -0.5583
 4147TIP3   OH212446   4.893   4.504   4.201  0.8037 -0.3426  0.3377
 4147TIP3    H112447   4.952   4.580   4.201 -0.1553  0.5573 -2.9872
 4147TIP3    H212448   4.845   4.512   4.284 -0.2383  3.5795 -0.4385
 4148TIP3   OH212449   2.686   3.631   4.659  0.3790  0.0999 -0.4478
 4148TIP3    H112450   2.724   3.707   4.703 -1.5277  1.4985 -1.0877
 4148TIP3    H212451   2.749   3.608   4.591  1.7379  0.0625  0.7878
 4149TIP3   OH212452   0.776   0.378   0.228 -0.1491  0.2738 -0.3000
 4149TIP3    H112453   0.737   0.465   0.233  0.4688  0.5067  0.8022
 4149TIP3    H212454   0.842   0.386   0.158 -0.2162  0.6433 -0.3258
 4150TIP3   OH212455   1.475   0.049   4.935 -0.2079  0.1161  0.2842
 4150TIP3    H112456   1.532   0.028   5.009 -0.7502 -0.4351  0.5558
 4150TIP3    H212457   1.518   0.010   4.859 -0.0332  0.0267  0.4290
 4151TIP3   OH212458   3.639   0.482   2.893  0.9882  0.0293  0.2025
 4151TIP3    H112459   3.729   0.458   2.869  1.1509  1.8336 -1.2542
 4151TIP3    H212460   3.648   0.533   2.973  0.8519 -2.6257  2.0339
 4152TIP3   OH212461   4.395   3.683   2.320 -0.5631  0.5051 -0.0481
 4152TIP3    H112462   4.380   3.758   2.378 -2.4908  0.2419 -0.1589
 4152TIP3    H212463   4.321   3.625   2.337  1.1877 -1.6981  0.4789
 4153TIP3   OH212464   3.632   3.157   3.655 -0.5945 -0.0270 -0.4434
 4153TIP3    H112465   3.682   3.223   3.608  0.2113 -0.0825  0.3161
 4153TIP3    H212466   3.558   3.205   3.693 -0.1799  0.3777 -0.1525
 4154TIP3   OH212467   0.914   1.724   3.297  0.3667  0.0980  0.0022
 4154TIP3    H112468   0.946   1.713   3.386  0.1335  2.9783  0.5238
 4154TIP3    H212469   0.822   1.700   3.302  0.1009  1.2056  0.8113
 4155TIP3   OH212470   0.404   3.777   3.454  0.2655 -0.3415  0.0287
 4155TIP3    H112471   0.380   3.691   3.421 -0.8529 -1.2976  3.0253
 4155TIP3    H212472   0.475   3.761   3.515  1.4422  1.1865 -0.8487
 4156TIP3   OH212473   4.665   4.656   3.236  0.3050 -0.2496  0.2229
 4156TIP3    H112474   4.633   4.738   3.275 -0.4201  0.0908 -1.0172
 4156TIP3    H212475   4.594   4.594   3.252 -0.3700  0.1135 -1.2394
 4157TIP3   OH212476   1.363   5.995   4.871 -0.2263 -0.7299  0.0926
 4157TIP3    H112477   1.385   6.055   4.942  0.9904  1.0364 -1.6662
 4157TIP3    H212478   1.387   5.908   4.904  0.9521  0.1273  1.5859
 4158TIP3   OH212479   0.889   3.581   2.280 -0.0367  0.0806  0.2430
 4158TIP3    H112480   0.813   3.635   2.300  1.4861  1.9480  1.2508
 4158TIP3    H212481   0.894   3.519   2.353  0.4428  1.1758  1.1777
 4159TIP3   OH212482   3.012   5.671   2.585 -0.0820 -0.0575 -0.0268
 4159TIP3    H112483   3.032   5.746   2.641  0.2158 -0.4361  0.3797
 4159TIP3    H212484   2.933   5.633   2.622 -1.2097  1.0330 -1.2278
 4160TIP3   OH212485   2.951   2.479   1.151 -0.3233 -0.2005  0.3826
 4160TIP3    H112486   3.009   2.439   1.216  0.5173  0.3901  0.0046
 4160TIP3    H212487   2.966   2.573   1.160 -3.0175  0.1750  1.9737
 4161TIP3   OH212488   3.407   5.171   1.201 -0.5739 -0.3817 -0.0378
 4161TIP3    H112489   3.491   5.165   1.247 -0.5023 -1.4085 -0.2709
 4161TIP3    H212490   3.378   5.261   1.216  0.3334 -0.1525  0.4530
 4162TIP3   OH212491   0.499   0.371   5.061 -0.6226 -0.0570  0.3026
 4162TIP3    H112492   0.498   0.397   5.152 -0.7422  1.8320 -0.2023
 4162TIP3    H212493   0.469   0.280   5.061 -0.3920 -0.1535  2.1433
 4163TIP3   OH212494   1.171   3.341   2.125  0.3655 -0.5368 -0.0976
 4163TIP3    H112495   1.167   3.259   2.076 -0.4893 -0.7811  0.3734
 4163TIP3    H212496   1.082   3.376   2.122  0.6803  0.2857 -0.1360
 4164TIP3   OH212497   2.880   1.335   3.434  0.0928 -0.1763 -0.3842
 4164TIP3    H112498   2.795   1.360   3.470 -0.5341 -0.4037 -1.6361
 4164TIP3    H212499   2.904   1.257   3.483 -1.1842 -1.0309 -1.0523
 4165TIP3   OH212500   1.447   1.333   4.870 -0.7262 -0.7791  0.5351
 4165TIP3    H112501   1.362   1.299   4.896 -1.6628  0.5764 -0.6537
 4165TIP3    H212502   1.456   1.310   4.778 -0.6289  0.6693  0.1693
 4166TIP3   OH212503   4.611   2.837   1.548  0.4898  0.8372 -0.0828
 4166TIP3    H112504   4.695   2.853   1.591 -0.3057  2.0118  1.1131
 4166TIP3    H212505   4.626   2.865   1.457  1.2834  1.4149  0.2102
 4167TIP3   OH212506   4.640   1.324   4.671 -0.4954 -0.2441 -0.2527
 4167TIP3    H112507   4.727   1.339   4.635 -0.3912  0.4722  0.2817
 4167TIP3    H212508   4.581   1.371   4.612 -0.5017 -0.5060 -0.4600
 4168TIP3   OH212509   0.064   4.652   0.812  0.8844  0.1459  0.6048
 4168TIP3    H112510  -0.011   4.709   0.829  0.9190 -0.0128  1.3199
 4168TIP3    H212511   0.081   4.661   0.718 -0.4066 -0.2835  0.3152
 4169TIP3   OH212512   1.335   2.442   2.617  0.3285 -0.2438  0.0434
 4169TIP3    H112513   1.305   2.456   2.527  0.8762  1.3337  0.0704
 4169TIP3    H212514   1.318   2.525   2.661  1.8781 -0.3241  0.8698
 4170TIP3   OH212515   2.238   2.894   4.733  0.2382  0.3070 -0.1021
 4170TIP3    H112516   2.181   2.970   4.720  1.2901  1.1566  0.1561
 4170TIP3    H212517   2.322   2.931   4.758  0.6673 -0.9678  0.4109
 4171TIP3   OH212518   4.762   5.308   2.640  0.1733 -0.2543  0.1844
 4171TIP3    H112519   4.848   5.347   2.625 -0.0516 -0.3784 -1.6118
 4171TIP3    H212520   4.773   5.215   2.617 -0.4574 -0.2404 -0.2048
 4172TIP3   OH212521   4.170   4.687   2.731 -0.0133  0.3024 -0.2788
 4172TIP3    H112522   4.118   4.684   2.651 -0.1983 -0.3748 -0.1340
 4172TIP3    H212523   4.248   4.737   2.707  0.5093 -0.9192 -1.2211
 4173TIP3   OH212524   3.240   3.507   1.009 -0.2352  0.5268 -0.3982
 4173TIP3    H112525   3.190   3.446   1.063  0.6850 -0.3002 -0.4504
 4173TIP3    H212526   3.178   3.537   0.943 -1.0000  0.4902  0.2898
 4174TIP3   OH212527   6.039   5.699   2.101 -0.0583 -0.1834 -0.2802
 4174TIP3    H112528   6.040   5.763   2.173 -2.4549  0.6357 -0.8824
 4174TIP3    H212529   6.074   5.619   2.140  2.8037  1.3392  0.5651
 4175TIP3   OH212530   3.921   4.688   2.895 -0.1525 -0.2037  0.1808
 4175TIP3    H112531   4.004   4.703   2.850  0.1276  0.5833  0.9278
 4175TIP3    H212532   3.905   4.769   2.944 -1.5175 -0.2212 -0.1852
 4176TIP3   OH212533   1.176   4.379   5.122  0.4925  0.0301 -0.5008
 4176TIP3    H112534   1.108   4.313   5.130  0.6136 -0.0532 -0.1788
 4176TIP3    H212535   1.165   4.434   5.199  3.0161 -2.0354  1.4980
 4177TIP3   OH212536   2.669   4.914   2.116  0.1798  0.4218 -0.1225
 4177TIP3    H112537   2.577   4.934   2.097  0.2468  0.9696  0.1050
 4177TIP3    H212538   2.666   4.830   2.163 -0.0738 -0.3854 -1.5255
 4178TIP3   OH212539   4.090   3.664   0.984 -0.1210 -0.2096  0.0343
 4178TIP3    H112540   4.082   3.676   1.079 -0.7409  0.5049 -0.0986
 4178TIP3    H212541   4.053   3.577   0.969 -0.3581 -0.1801  0.4081
 4179TIP3   OH212542   4.560   0.133   3.495 -0.2163 -0.4487 -0.9723
 4179TIP3    H112543   4.465   0.121   3.491 -0.5719  1.9378 -1.3456
 4179TIP3    H212544   4.571   0.226   3.515  2.0610 -1.3771  2.9494
 4180TIP3   OH212545   5.500   1.756   2.389 -0.0918 -0.1741 -0.4330
 4180TIP3    H112546   5.464   1.842   2.411  0.8204  0.7736 -2.3882
 4180TIP3    H212547   5.468   1.737   2.301 -2.4084 -3.1085  0.8671
 4181TIP3   OH212548   3.785   5.966   5.096  0.4728  0.1580 -0.0720
 4181TIP3    H112549   3.748   6.050   5.067 -2.4495 -0.5727  1.1371
 4181TIP3    H212550   3.795   5.915   5.016  0.5103  1.0330 -0.6373
 4182TIP3   OH212551   5.451   1.850   4.695 -0.2028 -0.5349  0.1248
 4182TIP3    H112552   5.364   1.809   4.688  0.1594 -1.0206 -3.8620
 4182TIP3    H212553   5.512   1.777   4.691  0.4524 -0.0858  1.4405
 4183TIP3   OH212554   4.504   5.263   5.070  0.3063 -0.0330 -0.7656
 4183TIP3    H112555   4.434   5.212   5.030  0.9879 -0.5513 -1.3238
 4183TIP3    H212556   4.486   5.353   5.043  0.0826 -0.2184 -1.2557
 4184TIP3   OH212557   0.492   0.807   0.348  0.3430 -0.0647  0.9305
 4184TIP3    H112558   0.405   0.813   0.307  1.4193 -1.2860 -1.7276
 4184TIP3    H212559   0.476   0.757   0.429 -1.1922 -2.1485 -0.5228
 4185TIP3   OH212560   5.178   2.518   4.789 -0.4291  0.2609 -0.3588
 4185TIP3    H112561   5.164   2.425   4.805  2.2560 -0.3994 -1.3391
 4185TIP3    H212562   5.272   2.531   4.801 -0.5546  2.6272 -1.3251
 4186TIP3   OH212563   4.754   0.438   3.775 -0.5390 -0.1160  0.1560
 4186TIP3    H112564   4.815   0.365   3.767  0.8831  1.0865 -0.6087
 4186TIP3    H212565   4.780   0.481   3.856 -1.5511 -0.5991  0.7476
 4187TIP3   OH212566   2.823   3.864   0.173  0.3395 -0.0573  0.0190
 4187TIP3    H112567   2.832   3.797   0.105  0.8583 -1.6259  1.5349
 4187TIP3    H212568   2.730   3.886   0.173 -0.3600 -2.6258  1.0418
 4188TIP3   OH212569   6.088   1.190   3.706  0.2419 -0.0108 -0.1295
 4188TIP3    H112570   6.075   1.255   3.775  0.0625 -0.4392  0.2424
 4188TIP3    H212571   6.056   1.108   3.743 -3.0366  0.3204 -1.8448
 4189TIP3   OH212572   3.974   1.605   0.729  0.2606 -0.1612  0.2455
 4189TIP3    H112573   3.966   1.644   0.642  0.0587 -0.5615  0.0800
 4189TIP3    H212574   3.961   1.511   0.714  0.5941 -0.2757  0.6534
 4190TIP3   OH212575   5.157   1.757   1.393 -0.3703 -0.2614  0.3601
 4190TIP3    H112576   5.242   1.739   1.433 -0.1296  0.2245  0.0832
 4190TIP3    H212577   5.099   1.690   1.428 -0.0148 -0.2345  1.0229
 4191TIP3   OH212578   1.394   1.291   2.151  0.0996  0.0840  0.6747
 4191TIP3    H112579   1.425   1.377   2.178  1.4511  0.1241 -0.8770
 4191TIP3    H212580   1.368   1.248   2.233 -0.1703  1.7792  1.5149
 4192TIP3   OH212581   3.381   2.943   2.487 -0.2073  0.3136  0.3140
 4192TIP3    H112582   3.390   3.020   2.543 -2.1039  1.5369 -0.9355
 4192TIP3    H212583   3.435   2.963   2.410 -0.0321  0.0034  0.3543
 4193TIP3   OH212584   0.523   3.178   2.592  0.3987 -0.1082 -0.3223
 4193TIP3    H112585   0.505   3.112   2.525  1.9482 -0.2888 -0.6007
 4193TIP3    H212586   0.446   3.236   2.589 -1.2216 -2.1031  0.2562
 4194TIP3   OH212587   3.177   2.239   2.393  0.4112 -0.0909 -0.1625
 4194TIP3    H112588   3.235   2.167   2.420 -0.3374 -0.4208  0.6120
 4194TIP3    H212589   3.131   2.264   2.474 -1.2818 -0.5272 -0.9445
 4195TIP3   OH212590   4.884   0.359   2.708 -0.0473 -0.5640 -0.0647
 4195TIP3    H112591   4.881   0.274   2.663  1.7903 -0.9631  0.4679
 4195TIP3    H212592   4.951   0.347   2.776  3.0767  2.3293 -2.3202
 4196TIP3   OH212593   2.429   2.397   3.041  0.1198  0.4692 -0.2444
 4196TIP3    H112594   2.476   2.315   3.053  0.8163  0.4999 -2.2859
 4196TIP3    H212595   2.400   2.395   2.950 -1.4561  1.6995  0.1787
 4197TIP3   OH212596   5.280   4.453   0.299 -0.1998  0.1523 -0.6243
 4197TIP3    H112597   5.243   4.377   0.255 -1.6014 -0.1253  0.9037
 4197TIP3    H212598   5.228   4.461   0.379  0.7724  1.9471 -0.1238
 4198TIP3   OH212599   0.741   5.368   1.465  0.0198 -0.3737 -0.4288
 4198TIP3    H112600   0.835   5.387   1.453 -0.2769  0.7175 -1.2561
 4198TIP3    H212601   0.701   5.400   1.384 -1.3394  1.2754  0.8259
 4199TIP3   OH212602   5.232   4.203   2.153 -0.0772  0.0107 -0.1157
 4199TIP3    H112603   5.183   4.240   2.080 -1.1665 -0.1533  0.5076
 4199TIP3    H212604   5.226   4.109   2.141  0.7473 -0.0029 -0.4533
 4200TIP3   OH212605   2.403   5.780   1.505 -0.0570 -0.3400  0.3263
 4200TIP3    H112606   2.490   5.799   1.470 -0.2756  0.8277  0.3547
 4200TIP3    H212607   2.344   5.793   1.431 -0.5789  2.6728  1.1058
 4201TIP3   OH212608   1.684   1.044   2.625  0.1493  0.3699  0.3270
 4201TIP3    H112609   1.708   0.953   2.645  1.5390  0.3027 -1.4012
 4201TIP3    H212610   1.598   1.056   2.667 -1.0782 -2.4225 -1.0939
 4202TIP3   OH212611   0.538   4.870   1.944  0.3474 -0.6504  0.1283
 4202TIP3    H112612   0.458   4.851   1.895  0.5036  1.6090 -1.1171
 4202TIP3    H212613   0.592   4.922   1.884  1.6465  0.0617  1.8284
 4203TIP3   OH212614   3.038   3.618   5.119 -0.2962  0.0536  0.3371
 4203TIP3    H112615   3.092   3.649   5.046 -2.0203 -0.2674 -1.1602
 4203TIP3    H212616   3.080   3.536   5.146 -1.7725 -2.0960 -3.1367
 4204TIP3   OH212617   0.769   1.841   1.469 -0.1582  0.2642  0.5710
 4204TIP3    H112618   0.817   1.759   1.465  0.7949  0.8274  0.0375
 4204TIP3    H212619   0.796   1.888   1.390  0.1868  1.5611  1.4281
 4205TIP3   OH212620   2.075   5.550   0.780  0.3628 -0.0382  0.1896
 4205TIP3    H112621   2.078   5.545   0.684  0.7131  0.5597  0.1628
 4205TIP3    H212622   1.992   5.508   0.804 -0.6300  1.4386 -0.5047
 4206TIP3   OH212623   2.206   2.483   4.348 -0.5667  0.3888  0.5790
 4206TIP3    H112624   2.232   2.437   4.269  0.0814 -0.8644  1.4909
 4206TIP3    H212625   2.130   2.535   4.321 -3.1876 -3.2704  0.0238
 4207TIP3   OH212626   4.618   5.493   1.907  0.6867  0.6884 -0.1638
 4207TIP3    H112627   4.642   5.463   1.819  2.0387  1.3517 -0.0506
 4207TIP3    H212628   4.538   5.543   1.894  0.7527  0.6010 -1.0002
 4208TIP3   OH212629   6.172   5.768   1.549 -0.3070  0.4654  0.4010
 4208TIP3    H112630   6.171   5.678   1.583 -1.1401  0.1097 -0.5317
 4208TIP3    H212631   6.220   5.761   1.467 -0.8973  0.7662  0.0310
 4209TIP3   OH212632   4.276   4.266   3.978 -0.1458 -0.0595  0.0621
 4209TIP3    H112633   4.365   4.234   3.966  0.6789  1.8675  0.6595
 4209TIP3    H212634   4.287   4.356   4.009 -2.3024  0.1331  0.3994
 4210TIP3   OH212635   1.446   4.647   1.166  0.6235 -0.2672 -0.6671
 4210TIP3    H112636   1.425   4.564   1.207  0.1101 -0.8921 -2.1131
 4210TIP3    H212637   1.432   4.713   1.235  2.2707 -1.4398  0.8731
 4211TIP3   OH212638   2.444   5.895   4.254  0.1980 -0.6037 -0.1833
 4211TIP3    H112639   2.392   5.895   4.335  2.7493  4.4174  1.9007
 4211TIP3    H212640   2.504   5.822   4.264  0.1103 -0.4315  2.3440
 4212TIP3   OH212641   2.124   3.932   1.647  0.2250 -0.3811  0.7236
 4212TIP3    H112642   2.121   3.969   1.735 -0.7329 -3.1014  1.9547
 4212TIP3    H212643   2.057   3.980   1.599 -0.0031  0.4254  1.7948
 4213TIP3   OH212644   2.570   1.355   2.335  0.1701 -0.0643  0.2009
 4213TIP3    H112645   2.660   1.347   2.369 -0.3955  0.8630  2.0478
 4213TIP3    H212646   2.521   1.286   2.380 -0.2507  0.0971 -0.0072
 4214TIP3   OH212647   5.878   1.325   0.655  0.1767  0.5690 -0.2861
 4214TIP3    H112648   5.932   1.374   0.717 -0.7435  1.4507 -0.1638
 4214TIP3    H212649   5.795   1.372   0.653 -0.6332 -0.8326 -0.3976
 4215TIP3   OH212650   5.869   3.512   4.309  0.1962  0.4495 -0.5407
 4215TIP3    H112651   5.921   3.589   4.284  0.9979 -0.2881 -1.2206
 4215TIP3    H212652   5.812   3.495   4.234 -1.9567  1.9552  0.6497
 4216TIP3   OH212653   4.817   4.740   1.608  0.4129  0.2571  0.2293
 4216TIP3    H112654   4.863   4.663   1.575 -1.6333 -1.3907  0.9876
 4216TIP3    H212655   4.784   4.713   1.694 -1.1684  1.6278  0.1058
 4217TIP3   OH212656   2.700   3.727   2.875  0.2446  0.5319  0.1195
 4217TIP3    H112657   2.771   3.667   2.854  0.3902  0.5966  0.4165
 4217TIP3    H212658   2.657   3.744   2.792  0.2225  0.0429  0.0301
 4218TIP3   OH212659   2.782   0.270   4.465 -0.2354 -0.0315  0.0484
 4218TIP3    H112660   2.801   0.355   4.506  1.0896 -0.4418  0.3276
 4218TIP3    H212661   2.832   0.207   4.517 -1.6018 -1.0756  0.1690
 4219TIP3   OH212662   3.393   4.893   1.087 -0.1077 -0.4940  0.2422
 4219TIP3    H112663   3.301   4.900   1.065 -0.4537 -0.3354  1.6622
 4219TIP3    H212664   3.433   4.972   1.050 -0.5785 -0.4566 -0.1845
 4220TIP3   OH212665   3.272   2.303   3.686  0.3888  0.4280  0.1987
 4220TIP3    H112666   3.342   2.360   3.654  0.8743 -0.8649 -1.1749
 4220TIP3    H212667   3.280   2.307   3.781  3.4872 -0.9507  0.1370
 4221TIP3   OH212668   5.125   2.294   2.171 -0.2727 -0.1087 -0.3735
 4221TIP3    H112669   5.065   2.270   2.101 -0.9305  0.8311 -0.1611
 4221TIP3    H212670   5.086   2.372   2.210  0.3087 -0.3519  0.7536
 4222TIP3   OH212671   3.320   0.287   4.885 -0.1844 -0.3288 -0.1746
 4222TIP3    H112672   3.402   0.269   4.931  0.2357  0.4906 -0.5946
 4222TIP3    H212673   3.301   0.206   4.837  0.3282 -0.5502 -0.0057
 4223TIP3   OH212674   4.158   4.389   4.327  0.3120 -0.1586 -0.5374
 4223TIP3    H112675   4.088   4.445   4.363  0.0229 -0.8494  0.0002
 4223TIP3    H212676   4.168   4.419   4.237 -0.4468  0.1875 -0.5196
 4224TIP3   OH212677   5.540   5.172   0.760  0.4290  0.2098  0.1912
 4224TIP3    H112678   5.581   5.105   0.705 -2.1920 -0.2530 -1.4119
 4224TIP3    H212679   5.450   5.178   0.727  0.0843  3.4243  1.3209
 4225TIP3   OH212680   4.095   0.764   3.317  0.3083  0.2019  0.2251
 4225TIP3    H112681   4.170   0.816   3.346 -0.0493  2.2035 -2.1692
 4225TIP3    H212682   4.019   0.810   3.352  0.0566  0.1216 -0.2181
 4226TIP3   OH212683   5.685   1.307   4.699 -0.5155  0.3266 -0.0759
 4226TIP3    H112684   5.631   1.236   4.665 -1.5777  1.1802 -0.2040
 4226TIP3    H212685   5.627   1.355   4.758  0.5916  0.2990  1.0786
 4227TIP3   OH212686   4.971   0.618   1.326 -0.5897  0.0450  0.0181
 4227TIP3    H112687   4.936   0.561   1.257  1.7365 -1.2302 -0.2190
 4227TIP3    H212688   4.918   0.598   1.403 -1.0318 -1.0805 -0.5464
 4228TIP3   OH212689   3.952   3.523   2.863 -0.1227  0.4550  0.1399
 4228TIP3    H112690   3.981   3.432   2.871 -0.3980  0.4193  0.8444
 4228TIP3    H212691   3.973   3.563   2.948  0.0337  1.0611 -0.1763
 4229TIP3   OH212692   6.094   0.640   1.616 -0.1491 -0.2363  0.7060
 4229TIP3    H112693   6.163   0.609   1.674  1.1991 -0.1927 -0.8083
 4229TIP3    H212694   6.108   0.592   1.535 -2.1473 -0.4896  0.4643
 4230TIP3   OH212695   0.325   3.640   0.666 -0.2299  0.2047  0.1666
 4230TIP3    H112696   0.269   3.640   0.588  0.0808 -0.8224 -0.0776
 4230TIP3    H212697   0.268   3.612   0.737  0.1436 -1.7393 -0.2473
 4231TIP3   OH212698   5.157   5.952   3.025  0.0332 -0.2836  0.1581
 4231TIP3    H112699   5.128   5.909   3.105  0.7303 -0.1650  0.4857
 4231TIP3    H212700   5.078   5.959   2.971 -0.4780 -0.2032  0.9001
 4232TIP3   OH212701   4.749   2.457   2.722  0.0828  0.0351 -0.2452
 4232TIP3    H112702   4.682   2.518   2.751 -0.8914 -0.3540 -1.5820
 4232TIP3    H212703   4.712   2.370   2.741  2.3112 -0.3344  3.6709
 4233TIP3   OH212704   5.702   4.500   4.051  0.0307 -0.0081  0.5733
 4233TIP3    H112705   5.659   4.442   3.988  2.9115 -0.8598 -0.7893
 4233TIP3    H212706   5.717   4.446   4.128  0.5201 -0.3592  0.2376
 4234TIP3   OH212707   4.546   1.802   3.834 -0.7945 -0.0351  0.6221
 4234TIP3    H112708   4.493   1.851   3.898 -1.3275  0.9108 -0.5103
 4234TIP3    H212709   4.543   1.855   3.755 -1.2477 -1.8369 -0.6180
 4235TIP3   OH212710   1.587   5.392   3.165 -0.3339 -0.0150  0.0299
 4235TIP3    H112711   1.641   5.470   3.179 -0.6032  0.5840 -1.9164
 4235TIP3    H212712   1.620   5.329   3.228  2.1905  0.5679 -0.5578
 4236TIP3   OH212713   4.105   2.640   0.332 -0.6045 -0.4194  0.3663
 4236TIP3    H112714   4.053   2.572   0.374 -0.4588 -1.5269 -1.1402
 4236TIP3    H212715   4.047   2.677   0.265 -0.1563 -0.1772  0.1061
 4237TIP3   OH212716   6.336   2.447   3.475 -0.3619  0.3697  0.0232
 4237TIP3    H112717   6.337   2.514   3.544 -1.9196  0.2566  0.1824
 4237TIP3    H212718   6.254   2.399   3.489  0.3604 -1.1006 -0.5543
 4238TIP3   OH212719   0.393   5.715   1.787  0.3419 -0.4411 -0.2026
 4238TIP3    H112720   0.301   5.733   1.773 -0.4756 -2.7116  1.5536
 4238TIP3    H212721   0.415   5.762   1.868  0.0193 -1.7477  0.6843
 4239TIP3   OH212722   0.140   1.366   4.523  0.6521 -0.0158 -0.5940
 4239TIP3    H112723   0.214   1.313   4.495  0.3481 -1.1175  0.5728
 4239TIP3    H212724   0.180   1.447   4.556  1.4553 -0.9326  0.8087
 4240TIP3   OH212725   1.187   2.692   3.673 -0.2795  0.3276 -0.0203
 4240TIP3    H112726   1.106   2.676   3.722 -0.7025  0.4265 -0.6643
 4240TIP3    H212727   1.157   2.710   3.583  0.4549  0.4244 -0.2532
 4241TIP3   OH212728   3.528   0.416   0.547 -0.4056  0.3759 -0.3917
 4241TIP3    H112729   3.537   0.338   0.602  1.6220 -0.9929 -2.4574
 4241TIP3    H212730   3.444   0.454   0.572 -1.9256 -2.9694  0.1314
 4242TIP3   OH212731   2.951   1.214   4.421  0.6585  0.6052 -0.0024
 4242TIP3    H112732   2.939   1.278   4.350  0.9452  0.0377 -0.5756
 4242TIP3    H212733   2.869   1.217   4.470  0.5838  1.2514 -0.1493
 4243TIP3   OH212734   5.937   5.100   4.421  0.5369  0.4368 -0.1612
 4243TIP3    H112735   5.992   5.041   4.472 -0.2136 -0.5655 -0.4827
 4243TIP3    H212736   5.849   5.089   4.459  0.2040  0.6153 -0.8678
 4244TIP3   OH212737   5.004   0.082   4.637  0.5174 -0.0544 -0.5441
 4244TIP3    H112738   5.092   0.072   4.601  1.4263  1.8204  0.9518
 4244TIP3    H212739   4.996   0.176   4.655 -2.3709  0.0742 -1.9732
 4245TIP3   OH212740   4.016   4.699   1.041  0.4613 -0.0208 -0.1874
 4245TIP3    H112741   4.084   4.732   0.981 -0.5015  0.0136 -1.2977
 4245TIP3    H212742   3.935   4.702   0.989 -0.0561 -1.9473  0.4471
 4246TIP3   OH212743   0.598   2.383   0.717 -0.3194  0.1013  0.2790
 4246TIP3    H112744   0.667   2.448   0.730 -0.6081  0.6706 -0.8840
 4246TIP3    H212745   0.604   2.360   0.625 -0.3519 -1.3995  0.6298
 4247TIP3   OH212746   0.806   1.970   4.819  0.2017  0.2604  0.2763
 4247TIP3    H112747   0.848   1.895   4.863 -0.3533 -0.2213  0.0004
 4247TIP3    H212748   0.769   1.933   4.739 -0.5451  0.7226  0.3997
 4248TIP3   OH212749   4.289   0.913   2.701  0.3180 -0.3721 -0.8433
 4248TIP3    H112750   4.248   0.909   2.787  2.3124  3.4618  0.5389
 4248TIP3    H212751   4.364   0.855   2.706 -0.4434 -1.3622 -0.6133
 4249TIP3   OH212752   0.319   4.037   4.446  0.1446 -0.9961 -0.6818
 4249TIP3    H112753   0.285   3.968   4.502 -0.1094  1.3505  2.3326
 4249TIP3    H212754   0.257   4.109   4.456  1.7725  0.6038 -1.4445
 4250TIP3   OH212755   1.524   3.534   4.036  0.8324 -0.5364 -0.2881
 4250TIP3    H112756   1.456   3.600   4.026  1.4508  0.1636  0.0573
 4250TIP3    H212757   1.595   3.564   3.980  1.4837 -0.4082  0.5986
 4251TIP3   OH212758   5.313   0.636   1.000  0.0981  0.0438 -0.2451
 4251TIP3    H112759   5.252   0.569   0.972  0.4465 -0.4189  0.0789
 4251TIP3    H212760   5.263   0.717   0.998 -0.5347 -0.3307  0.0394
 4252TIP3   OH212761   2.796   2.827   2.781 -0.9334 -0.0376 -0.2515
 4252TIP3    H112762   2.745   2.782   2.715 -0.3534 -1.3255  0.1417
 4252TIP3    H212763   2.733   2.850   2.849 -1.1832 -0.6134 -0.2824
 4253TIP3   OH212764   6.116   3.140   3.914  0.3711  0.4933 -0.0457
 4253TIP3    H112765   6.112   3.205   3.985  1.2334  0.3509  0.1530
 4253TIP3    H212766   6.135   3.058   3.959  0.7543  0.3712 -0.4297
 4254TIP3   OH212767   4.940   3.890   0.065 -0.2993 -0.6165 -0.2480
 4254TIP3    H112768   5.032   3.912   0.081 -0.3388 -0.4768 -0.2130
 4254TIP3    H212769   4.938   3.858  -0.025 -0.1530 -0.9713 -0.1255
 4255TIP3   OH212770   1.101   0.625   0.643  0.5442 -0.1800  0.5258
 4255TIP3    H112771   1.025   0.666   0.602  1.2605 -1.8125 -2.7835
 4255TIP3    H212772   1.176   0.671   0.607  1.2453  0.1516  2.2789
 4256TIP3   OH212773   4.493   4.287   1.758 -0.0050 -0.2470  0.0633
 4256TIP3    H112774   4.455   4.372   1.782 -0.2026 -0.5903  1.0139
 4256TIP3    H212775   4.587   4.300   1.768 -0.0002 -0.0138 -0.2419
 4257TIP3   OH212776   6.217   3.053   0.629  0.3912 -0.0854  0.1023
 4257TIP3    H112777   6.165   2.980   0.663 -0.8257  0.5742 -0.2603
 4257TIP3    H212778   6.307   3.023   0.633  0.1195 -0.7734  2.0428
 4258TIP3   OH212779   2.223   4.713   2.139  0.0363 -0.3553  0.0976
 4258TIP3    H112780   2.159   4.713   2.067  0.6062  0.9834 -0.4400
 4258TIP3    H212781   2.299   4.667   2.104  1.1946  2.1921 -1.0664
 4259TIP3   OH212782   0.183   5.806   4.817  0.2649 -0.4741 -0.3383
 4259TIP3    H112783   0.182   5.720   4.774  0.4236  0.4553 -2.3247
 4259TIP3    H212784   0.125   5.860   4.763  0.3216  0.7182  0.7582
 4260TIP3   OH212785   3.342   0.505   3.318  0.2537  0.1272  0.4304
 4260TIP3    H112786   3.397   0.437   3.357  1.3241  0.6146 -0.1680
 4260TIP3    H212787   3.395   0.585   3.325  0.1283  0.3927 -1.2122
 4261TIP3   OH212788   4.347   5.019   1.594  0.1931  0.5199 -0.0728
 4261TIP3    H112789   4.441   5.011   1.610 -0.0217 -1.2216  0.5207
 4261TIP3    H212790   4.339   5.029   1.499  0.9415 -0.3472 -0.2345
 4262TIP3   OH212791   5.491   4.185   1.058 -0.1229  0.5592 -0.0074
 4262TIP3    H112792   5.416   4.235   1.027 -0.3276  1.1665  1.4225
 4262TIP3    H212793   5.469   4.094   1.037 -0.7022  0.8393 -0.6779
 4263TIP3   OH212794   2.234   5.123   4.646 -0.2089  0.2935 -0.1606
 4263TIP3    H112795   2.214   5.145   4.555 -1.6938  1.1590  0.3414
 4263TIP3    H212796   2.264   5.206   4.685  1.7748 -0.3658 -0.1681
 4264TIP3   OH212797   0.285   4.164   2.766 -0.2085 -0.2466 -0.1505
 4264TIP3    H112798   0.302   4.202   2.852  0.1424 -2.6245  0.9353
 4264TIP3    H212799   0.367   4.120   2.743 -0.7885 -0.9521 -0.9515
 4265TIP3   OH212800   3.791   2.313   3.623 -0.5352 -0.0424  0.3031
 4265TIP3    H112801   3.751   2.246   3.679  1.3076 -0.1605  1.5704
 4265TIP3    H212802   3.882   2.317   3.652 -0.5771  3.0313  0.2910
 4266TIP3   OH212803   6.319   4.120   1.776 -0.6273  0.3550 -0.4770
 4266TIP3    H112804   6.400   4.101   1.728  1.3326  1.5016  2.1185
 4266TIP3    H212805   6.311   4.215   1.772 -1.1507  0.3547  0.3096
 4267TIP3   OH212806   2.786   1.152   2.217  0.1965 -0.2147 -0.0532
 4267TIP3    H112807   2.828   1.067   2.215 -0.6416 -0.6702  0.7154
 4267TIP3    H212808   2.707   1.142   2.164  1.4952  0.9152 -2.3258
 4268TIP3   OH212809   5.105   4.257   4.143 -0.1610  0.2487 -0.1610
 4268TIP3    H112810   5.017   4.289   4.165  0.0785 -0.4653  2.0820
 4268TIP3    H212811   5.160   4.286   4.217  0.7422 -2.3006  0.2490
 4269TIP3   OH212812   0.849   1.093   3.548 -0.3922  0.1001 -0.7384
 4269TIP3    H112813   0.769   1.143   3.532 -0.7841  0.5568  2.0803
 4269TIP3    H212814   0.895   1.143   3.615  0.2035 -2.2393  0.7218
 4270TIP3   OH212815   5.728   3.742   4.990 -0.5067  0.3276  0.4869
 4270TIP3    H112816   5.634   3.753   5.002 -0.3049 -0.1157  3.0001
 4270TIP3    H212817   5.746   3.653   5.020  0.8438  0.7317  0.9418
 4271TIP3   OH212818   5.252   5.487   3.965 -0.1327 -0.1007  0.0111
 4271TIP3    H112819   5.187   5.418   3.982  0.1476 -0.6906 -1.2068
 4271TIP3    H212820   5.200   5.564   3.942 -0.4293 -0.3291 -0.0918
 4272TIP3   OH212821   5.561   2.739   4.758  0.3054  0.3296 -0.2461
 4272TIP3    H112822   5.473   2.776   4.747  0.1242  0.0953  0.3653
 4272TIP3    H212823   5.598   2.738   4.670  0.6817  2.8493 -0.1683
 4273TIP3   OH212824   2.341   4.985   0.505 -0.2267 -0.7136  0.1884
 4273TIP3    H112825   2.268   5.029   0.461  0.3565 -0.2140 -0.2935
 4273TIP3    H212826   2.379   5.052   0.562 -0.3741 -1.0802  0.7181
 4274TIP3   OH212827   5.809   5.539   5.065 -0.0024  1.0057  0.4383
 4274TIP3    H112828   5.777   5.517   5.152 -0.4530  2.1653  0.5816
 4274TIP3    H212829   5.741   5.596   5.028  0.1374  0.4557 -0.7052
 4275TIP3   OH212830   4.960   5.230   3.305 -0.0242 -0.0806 -0.2962
 4275TIP3    H112831   4.899   5.238   3.378  0.6413  0.8440  0.1917
 4275TIP3    H212832   4.931   5.153   3.257 -0.1005 -1.0961  1.3031
 4276TIP3   OH212833   4.848   0.971   2.439 -0.1479 -0.1267  0.0905
 4276TIP3    H112834   4.775   1.029   2.460 -0.8839 -1.4072  1.2072
 4276TIP3    H212835   4.838   0.953   2.346  1.2179  2.9960 -0.8033
 4277TIP3   OH212836   1.242   4.268   4.558  0.6265  0.2361 -0.2727
 4277TIP3    H112837   1.148   4.254   4.551  0.8538 -0.7931 -1.5877
 4277TIP3    H212838   1.260   4.269   4.652 -0.5597 -0.5087 -0.0279
 4278TIP3   OH212839   5.587   3.482   2.435  0.2920 -0.1519 -0.1828
 4278TIP3    H112840   5.595   3.387   2.441 -0.5794 -0.2658 -0.5882
 4278TIP3    H212841   5.653   3.507   2.370  0.4388 -0.4936 -0.1688
 4279TIP3   OH212842   3.092   0.306   4.401 -0.1354 -0.1227  0.7037
 4279TIP3    H112843   3.055   0.227   4.440  1.0026 -0.7233  0.5938
 4279TIP3    H212844   3.140   0.348   4.472  0.4119 -0.2520  0.4116
 4280TIP3   OH212845   1.866   4.695   4.707 -0.5183 -0.5270 -0.3661
 4280TIP3    H112846   1.845   4.783   4.677 -0.1197 -0.6665 -1.0812
 4280TIP3    H212847   1.798   4.674   4.771  0.7065  1.2139  1.6434
 4281TIP3   OH212848   5.700   5.911   2.887  0.2300 -0.3603 -0.3395
 4281TIP3    H112849   5.742   5.846   2.943 -0.0509 -0.4589 -0.2398
 4281TIP3    H212850   5.725   5.887   2.798 -0.7441 -1.2520 -0.3877
 4282TIP3   OH212851   5.892   4.647   0.201 -0.2382 -0.0497  0.5037
 4282TIP3    H112852   5.914   4.657   0.294 -1.4620  0.5665  0.7460
 4282TIP3    H212853   5.833   4.720   0.182 -1.6291 -1.2888 -0.2089
 4283TIP3   OH212854   4.355   4.284   4.922 -0.0445 -0.1101  0.4050
 4283TIP3    H112855   4.327   4.360   4.971 -0.2111 -0.5543  1.0121
 4283TIP3    H212856   4.425   4.316   4.864 -0.1060  0.4913  0.6626
 4284TIP3   OH212857   3.033   4.920   1.214 -0.8409 -0.1910 -0.1075
 4284TIP3    H112858   2.983   4.948   1.137 -0.4109 -1.0773 -0.7289
 4284TIP3    H212859   3.081   4.843   1.184  0.9777  0.6886  0.4561
 4285TIP3   OH212860   1.588   4.176   4.187 -0.2692  0.6076  0.3616
 4285TIP3    H112861   1.603   4.099   4.133  0.0000 -0.2222  1.5742
 4285TIP3    H212862   1.493   4.184   4.191 -0.3209 -0.0449  0.7121
 4286TIP3   OH212863   6.097   5.074   4.937  0.1674 -0.0274 -0.4556
 4286TIP3    H112864   6.091   5.146   4.874 -1.0290  0.4831  0.2168
 4286TIP3    H212865   6.021   5.086   4.994 -0.0736 -1.8285 -0.3443
 4287TIP3   OH212866   6.181   1.829   1.800  0.0015 -0.5400  0.4766
 4287TIP3    H112867   6.212   1.739   1.807  0.1303 -0.6522 -1.2688
 4287TIP3    H212868   6.131   1.832   1.719 -0.7179  0.7727  0.9276
 4288TIP3   OH212869   1.384   1.816   2.301  0.3564  0.3044 -0.6031
 4288TIP3    H112870   1.311   1.842   2.356 -1.4921 -0.9673 -2.2693
 4288TIP3    H212871   1.404   1.893   2.248  1.0283  1.0031  0.6178
 4289TIP3   OH212872   4.377   3.577   1.067  0.2632 -0.4127 -0.0421
 4289TIP3    H112873   4.351   3.668   1.086  1.3588 -0.2314  0.6357
 4289TIP3    H212874   4.319   3.551   0.995  1.0329  1.4073 -1.4078
 4290TIP3   OH212875   0.588   5.912   3.245  0.5102 -0.8017  0.0617
 4290TIP3    H112876   0.508   5.939   3.289  0.2681 -1.1733 -0.1500
 4290TIP3    H212877   0.576   5.819   3.227  1.6950 -1.3058  1.5942
 4291TIP3   OH212878   2.491   0.475   5.005  0.1347  0.7263 -0.3756
 4291TIP3    H112879   2.471   0.524   4.925  1.4546 -1.4481 -2.1438
 4291TIP3    H212880   2.412   0.424   5.023  0.4735 -0.1968 -1.4294
 4292TIP3   OH212881   1.688   5.820   4.339 -0.6899  0.3042 -0.1734
 4292TIP3    H112882   1.631   5.762   4.390 -1.8470  0.5001 -1.2002
 4292TIP3    H212883   1.702   5.773   4.257 -2.1059  1.6686 -1.2554
 4293TIP3   OH212884   2.554   5.247   4.783  0.3023  0.1436 -0.0554
 4293TIP3    H112885   2.462   5.265   4.798  0.0223 -0.6571 -0.6965
 4293TIP3    H212886   2.594   5.249   4.870 -0.3147  0.4975  0.2255
 4294TIP3   OH212887   0.376   1.052   4.295 -0.1104  0.3138 -0.0136
 4294TIP3    H112888   0.372   1.124   4.357  2.6100 -0.1086  0.8061
 4294TIP3    H212889   0.451   1.000   4.323 -0.3313 -1.3432 -2.1650
 4295TIP3   OH212890   2.994   2.379   1.586  0.2094  0.2713 -0.1712
 4295TIP3    H112891   2.950   2.347   1.508 -2.0432  1.2244  0.6429
 4295TIP3    H212892   3.030   2.300   1.628 -0.2974 -0.4744 -1.1074
 4296TIP3   OH212893   2.398   0.796   1.273  0.4325  1.0962 -0.1084
 4296TIP3    H112894   2.438   0.862   1.217 -0.9940  2.1837  0.1143
 4296TIP3    H212895   2.473   0.749   1.311  1.4558  1.9846 -0.9522
 4297TIP3   OH212896   4.360   4.927   4.919 -0.4966 -0.2262  0.2182
 4297TIP3    H112897   4.424   4.924   4.847 -1.4764 -1.5895 -0.6635
 4297TIP3    H212898   4.325   5.016   4.916  1.7120  0.7567  1.1121
 4298TIP3   OH212899   4.982   1.384   3.945  0.0813 -0.1135  0.1281
 4298TIP3    H112900   4.956   1.367   3.854 -1.9414  0.1905  0.5848
 4298TIP3    H212901   4.951   1.307   3.993  1.8922 -0.6672  0.4785
 4299TIP3   OH212902   0.145   1.415   1.695  0.0192  0.3910 -0.0350
 4299TIP3    H112903   0.169   1.437   1.786 -0.0273 -0.0258  0.0801
 4299TIP3    H212904   0.195   1.336   1.676 -0.8536 -0.1879  0.0259
 4300TIP3   OH212905   3.728   5.500   5.211  0.1884 -0.1788  0.3910
 4300TIP3    H112906   3.717   5.595   5.196  0.2742 -0.0865  0.9013
 4300TIP3    H212907   3.773   5.469   5.133 -0.8460  0.0005 -0.3078
 4301TIP3   OH212908   1.460   3.094   3.351  0.1226  0.3777  0.8866
 4301TIP3    H112909   1.478   3.046   3.432 -0.5540  0.2555  0.9671
 4301TIP3    H212910   1.497   3.038   3.282  0.2469  0.2333  1.0689
 4302TIP3   OH212911   1.136   5.760   0.468  0.1033  0.2022 -0.8592
 4302TIP3    H112912   1.053   5.748   0.515  0.2478 -0.1590 -0.6901
 4302TIP3    H212913   1.161   5.672   0.442  0.6066  0.2741 -0.6136
 4303TIP3   OH212914   4.547   1.670   4.663 -0.4187 -0.0291  0.5600
 4303TIP3    H112915   4.477   1.691   4.725 -1.7110  0.0884 -0.8811
 4303TIP3    H212916   4.511   1.600   4.609  0.4735  0.2300 -0.4073
 4304TIP3   OH212917   3.773   5.880   4.834  0.7831 -0.1855  0.1606
 4304TIP3    H112918   3.790   5.798   4.787  0.4679  0.5799 -1.3208
 4304TIP3    H212919   3.683   5.903   4.811  1.2840  1.2261 -0.4760
 4305TIP3   OH212920   4.128   1.455   3.839  0.4907  0.1964 -0.2104
 4305TIP3    H112921   4.121   1.480   3.931 -1.3623 -0.0082 -0.2581
 4305TIP3    H212922   4.089   1.368   3.835  1.0441 -0.0215 -1.1152
 4306TIP3   OH212923   3.435   3.229   4.072  0.5602 -0.4138  0.7161
 4306TIP3    H112924   3.494   3.154   4.066  0.1993 -0.7009  0.7192
 4306TIP3    H212925   3.439   3.254   4.164 -0.4457 -1.3661  1.0499
 4307TIP3   OH212926   4.682   5.191   2.942  0.1814 -0.2519  0.1529
 4307TIP3    H112927   4.719   5.170   2.856 -0.1545  0.4712 -0.1725
 4307TIP3    H212928   4.592   5.218   2.924  0.4322  0.9387  0.5997
 4308TIP3   OH212929   1.173   2.188   0.387  0.1652  0.5223 -0.3692
 4308TIP3    H112930   1.190   2.145   0.470  2.1711  1.4242 -0.2587
 4308TIP3    H212931   1.164   2.281   0.408 -1.6549  0.5209 -0.9101
 4309TIP3   OH212932   1.405   2.736   2.749  0.5844 -0.4144  0.8414
 4309TIP3    H112933   1.479   2.733   2.811  0.2661  1.0536  1.3397
 4309TIP3    H212934   1.445   2.759   2.665  0.6449  1.0855  1.2581
 4310TIP3   OH212935   4.011   4.339   3.086 -0.4686 -0.1043  0.0141
 4310TIP3    H112936   4.072   4.398   3.042  0.0999 -0.4888  0.2724
 4310TIP3    H212937   3.942   4.324   3.022 -1.2777  1.7963  0.3478
 4311TIP3   OH212938   5.887   1.199   4.071  0.8492  0.1301 -0.0432
 4311TIP3    H112939   5.963   1.222   4.124  0.9082  2.8717 -1.1665
 4311TIP3    H212940   5.847   1.283   4.049 -1.2595 -1.1243 -1.3198
 4312TIP3   OH212941   6.150   4.139   0.887 -0.0254 -0.5007  0.1566
 4312TIP3    H112942   6.218   4.073   0.902 -0.5343 -1.3860 -1.2028
 4312TIP3    H212943   6.095   4.135   0.966  0.3169 -1.2659  0.3643
 4313TIP3   OH212944   3.383   4.983   5.177 -0.1945  0.0494 -0.2402
 4313TIP3    H112945   3.462   5.018   5.217 -0.2733  0.1603 -0.1825
 4313TIP3    H212946   3.413   4.943   5.096  0.1992 -1.4790  0.6165
 4314TIP3   OH212947   3.702   5.260   1.113  0.4589 -0.1363 -0.1796
 4314TIP3    H112948   3.652   5.336   1.082  0.2908 -0.5697 -0.9792
 4314TIP3    H212949   3.782   5.261   1.062  0.1742 -0.8651 -0.6478
 4315TIP3   OH212950   1.538   5.190   0.810 -0.4625  0.3592 -0.4635
 4315TIP3    H112951   1.486   5.254   0.760 -1.6378 -1.8443 -2.2707
 4315TIP3    H212952   1.472   5.136   0.855  0.4529 -0.1686  0.2854
 4316TIP3   OH212953   3.949   1.884   1.065 -0.4251 -0.1380 -0.1857
 4316TIP3    H112954   3.919   1.797   1.092 -0.5037  0.0319  0.2919
 4316TIP3    H212955   3.868   1.933   1.049 -0.4554  0.4608  1.5519
 4317TIP3   OH212956   0.839   3.227   0.576  0.0622  0.0980 -0.0222
 4317TIP3    H112957   0.789   3.220   0.657  0.4638 -0.0588  0.2164
 4317TIP3    H212958   0.774   3.222   0.506 -0.3666  1.0311  0.3033
 4318TIP3   OH212959   5.918   2.680   1.413  0.3047 -0.1526  0.2008
 4318TIP3    H112960   5.958   2.595   1.429 -1.2320 -1.3222 -1.7820
 4318TIP3    H212961   5.884   2.707   1.498 -1.8297 -2.9788  0.3845
 4319TIP3   OH212962   1.584   5.893   3.084  0.3301  0.0145  0.1311
 4319TIP3    H112963   1.636   5.833   3.031 -1.0444 -0.9609 -0.1718
 4319TIP3    H212964   1.511   5.917   3.027 -0.3910  0.0988  1.0839
 4320TIP3   OH212965   5.752   5.441   2.315 -0.3985  0.2269  0.0571
 4320TIP3    H112966   5.767   5.358   2.360 -1.6410 -0.7529 -1.2427
 4320TIP3    H212967   5.805   5.435   2.235 -0.4151  0.7285  0.0038
 4321TIP3   OH212968   0.384   4.361   4.459 -0.4315 -0.0564 -0.1056
 4321TIP3    H112969   0.311   4.299   4.466 -0.1184 -0.3661  0.4229
 4321TIP3    H212970   0.445   4.320   4.398  0.2686 -0.7713  1.0461
 4322TIP3   OH212971   4.016   3.592   3.393  0.2146 -0.5941 -0.1025
 4322TIP3    H112972   4.043   3.512   3.439  0.1443  0.3541  1.6715
 4322TIP3    H212973   3.921   3.590   3.396  0.2022  0.4176  1.6221
 4323TIP3   OH212974   6.255   3.677   0.313 -0.1226  0.1283 -0.8677
 4323TIP3    H112975   6.312   3.728   0.255  0.1413 -1.0699 -1.6997
 4323TIP3    H212976   6.228   3.740   0.380  1.5216  0.9471 -0.8992
 4324TIP3   OH212977   1.498   0.264   1.656 -0.4483 -0.3537  0.4762
 4324TIP3    H112978   1.435   0.215   1.604 -1.0586 -2.0550  2.6681
 4324TIP3    H212979   1.562   0.296   1.593 -1.0530 -2.4334 -1.2833
 4325TIP3   OH212980   2.505   4.289   3.975  0.0174  0.0524 -0.1465
 4325TIP3    H112981   2.585   4.271   3.927  0.3415 -0.4688  0.5657
 4325TIP3    H212982   2.529   4.357   4.038  0.1846 -0.8025  0.7452
 4326TIP3   OH212983   0.741   5.222   4.126 -0.1573 -0.3005 -0.1865
 4326TIP3    H112984   0.707   5.170   4.199 -1.5624  2.4585  1.3001
 4326TIP3    H212985   0.670   5.222   4.062  0.5790 -1.6820 -1.0332
 4327TIP3   OH212986   4.401   0.622   1.604  0.4649  0.6293  0.0907
 4327TIP3    H112987   4.372   0.603   1.514 -2.6767 -0.0898  1.1143
 4327TIP3    H212988   4.338   0.575   1.659  2.0638  1.3644  2.6965
 4328TIP3   OH212989   1.710   1.010   4.691 -0.3306  0.3844  0.1862
 4328TIP3    H112990   1.651   0.980   4.622  0.1948  0.0221 -0.1139
 4328TIP3    H212991   1.663   0.992   4.772 -1.2789  1.5131 -0.0866
 4329TIP3   OH212992   2.430   4.072   3.470 -0.3981  0.1280  0.0429
 4329TIP3    H112993   2.416   3.981   3.495 -1.1164  0.3600  0.5427
 4329TIP3    H212994   2.504   4.070   3.410 -1.1088 -0.9250 -0.8513
 4330TIP3   OH212995   0.814   2.658   1.751 -0.4475  0.1318  0.7414
 4330TIP3    H112996   0.765   2.594   1.700  0.5185  0.6013 -0.8547
 4330TIP3    H212997   0.860   2.606   1.817 -1.2243 -0.5700  0.7422
 4331TIP3   OH212998   4.246   1.176   2.734 -0.6879 -0.2270  0.1790
 4331TIP3    H112999   4.172   1.205   2.787  0.4927  1.3102  1.0647
 4331TIP3    H213000   4.245   1.081   2.741  0.3305 -0.0995  4.3422
 4332TIP3   OH213001   1.777   3.246   0.461  0.0624 -0.0229  0.5839
 4332TIP3    H113002   1.767   3.217   0.551 -0.9952  0.0792  0.5166
 4332TIP3    H213003   1.693   3.225   0.420  0.5385 -0.0955 -0.3842
 4333TIP3   OH213004   0.567   5.811   0.762  0.1166 -0.4626 -0.1765
 4333TIP3    H113005   0.641   5.762   0.798  2.3010  3.0412  0.5812
 4333TIP3    H213006   0.592   5.830   0.672 -0.5040 -0.3916 -0.3407
 4334TIP3   OH213007   5.632   5.717   3.061 -0.0971  0.2849  0.0373
 4334TIP3    H113008   5.607   5.800   3.103 -0.9479 -0.9383  2.1195
 4334TIP3    H213009   5.561   5.698   3.001 -0.6091  0.3871  0.6022
 4335TIP3   OH213010   3.818   4.976   4.016 -0.7122 -0.1555  0.3361
 4335TIP3    H113011   3.770   4.925   3.951 -1.6235  0.2324  0.6823
 4335TIP3    H213012   3.768   5.057   4.025 -0.2356  0.0772  1.0385
 4336TIP3   OH213013   1.351   5.708   2.964  0.2339  0.0468  0.4911
 4336TIP3    H113014   1.337   5.614   2.978  0.9878  0.1749  2.4236
 4336TIP3    H213015   1.445   5.716   2.949  0.4930  0.6532  2.2359
 4337TIP3   OH213016   1.939   0.172   1.237  0.0168  0.1982  0.1935
 4337TIP3    H113017   1.878   0.127   1.179 -2.6701  1.6213  1.7483
 4337TIP3    H213018   1.999   0.103   1.267 -1.8622 -1.6539 -0.0872
 4338TIP3   OH213019   2.804   4.496   1.296 -0.3991  0.3316  0.0275
 4338TIP3    H113020   2.787   4.435   1.367  0.2839 -0.1448 -0.2089
 4338TIP3    H213021   2.838   4.574   1.339  0.2741 -0.0566  0.2031
 4339TIP3   OH213022   5.629   5.721   4.087 -0.5069 -0.0332  0.5242
 4339TIP3    H113023   5.571   5.797   4.091 -0.9169 -0.2960 -0.3183
 4339TIP3    H213024   5.584   5.654   4.139  0.1180  0.4576  1.7336
 4340TIP3   OH213025   1.375   3.560   2.971  0.5891  0.2205  0.4067
 4340TIP3    H113026   1.386   3.566   2.876  0.3503 -0.5020  0.3271
 4340TIP3    H213027   1.409   3.643   3.004  1.8084 -0.0196 -0.1979
 4341TIP3   OH213028   4.005   1.499   1.065 -0.0244 -0.0515 -0.0972
 4341TIP3    H113029   3.948   1.543   1.127  2.0011  1.5421  0.7506
 4341TIP3    H213030   3.971   1.522   0.978  0.1850  2.1586  0.3551
 4342TIP3   OH213031   3.172   2.924   1.150  0.4963 -0.0936 -0.2884
 4342TIP3    H113032   3.232   2.954   1.082  0.9824 -0.4061  0.0022
 4342TIP3    H213033   3.225   2.917   1.229  0.1220 -0.5486 -0.0700
 4343TIP3   OH213034   0.108   1.032   4.378  0.0230 -0.3339 -0.3246
 4343TIP3    H113035   0.088   0.973   4.451 -0.0833 -0.5735 -0.5432
 4343TIP3    H213036   0.196   1.007   4.351  0.4820  0.4573  0.3856
 4344TIP3   OH213037   3.619   5.934   3.743 -0.0202 -0.1387 -0.4487
 4344TIP3    H113038   3.670   5.881   3.804 -1.0765  0.6766  1.2129
 4344TIP3    H213039   3.549   5.876   3.714 -1.7774  0.5138  2.1456
 4345TIP3   OH213040   1.348   1.806   0.900 -0.0010 -0.2526 -0.7033
 4345TIP3    H113041   1.320   1.714   0.902 -1.1558  0.0795  0.8514
 4345TIP3    H213042   1.432   1.807   0.945 -1.8829 -0.0869  3.2167
 4346TIP3   OH213043   0.686   4.784   5.154  0.0406 -0.4341  0.2133
 4346TIP3    H113044   0.739   4.842   5.100 -1.4095 -0.1636 -0.9990
 4346TIP3    H213045   0.694   4.820   5.242 -1.5777  2.3399 -0.6295
 4347TIP3   OH213046   1.855   5.286   1.263  0.1344 -0.0680  0.0830
 4347TIP3    H113047   1.770   5.317   1.231 -0.1525 -2.0600 -1.2346
 4347TIP3    H213048   1.913   5.293   1.187  0.8828  0.1999  0.6638
 4348TIP3   OH213049   3.179   3.512   2.434  0.3240  0.3582 -0.0871
 4348TIP3    H113050   3.142   3.428   2.463 -0.0118  0.2861 -0.7227
 4348TIP3    H213051   3.233   3.490   2.358  1.2681  0.5406  0.5051
 4349TIP3   OH213052   3.600   5.166   1.392 -0.1800  0.3808  0.4791
 4349TIP3    H113053   3.667   5.209   1.339 -0.1974 -1.8570 -1.5069
 4349TIP3    H213054   3.647   5.099   1.441 -0.6761  0.0315  0.4916
 4350TIP3   OH213055   3.750   4.096   0.921  0.3292  1.1814  0.3377
 4350TIP3    H113056   3.656   4.098   0.905  0.4236 -1.5024 -0.9504
 4350TIP3    H213057   3.761   4.031   0.990  1.3767 -0.3484 -1.1970
 4351TIP3   OH213058   3.003   2.492   3.404 -0.1591 -0.2054 -0.6295
 4351TIP3    H113059   3.095   2.509   3.387  0.1471 -1.4951 -0.3938
 4351TIP3    H213060   2.957   2.526   3.327  0.6313 -0.6270 -1.3036
 4352TIP3   OH213061   2.446   1.411   3.150 -0.0634  0.3086 -0.0230
 4352TIP3    H113062   2.402   1.481   3.102  0.9467  1.3374  0.4749
 4352TIP3    H213063   2.505   1.371   3.086 -0.6585 -0.0981 -0.3161
 4353TIP3   OH213064   5.212   5.600   2.758  0.5993 -0.0372 -0.3778
 4353TIP3    H113065   5.262   5.669   2.802 -2.2473  1.1120  1.3949
 4353TIP3    H213066   5.179   5.642   2.678 -0.8131  0.6420  0.5095
 4354TIP3   OH213067   5.413   0.551   2.676  0.4188 -0.5492  0.1211
 4354TIP3    H113068   5.354   0.627   2.682  1.0345 -0.0031 -0.5093
 4354TIP3    H213069   5.355   0.478   2.654 -0.0653 -0.0625 -0.2880
 4355TIP3   OH213070   1.083   0.063   0.062  0.7299 -0.0979 -0.0295
 4355TIP3    H113071   1.148   0.061  -0.008  1.1000  1.2135  0.2593
 4355TIP3    H213072   1.123   0.014   0.134  1.0949  0.1010 -0.0995
 4356TIP3   OH213073   5.882   1.472   2.171 -0.2496 -0.3670  0.5622
 4356TIP3    H113074   5.825   1.515   2.235 -1.9021  0.9950 -1.6956
 4356TIP3    H213075   5.895   1.538   2.103 -0.2359 -2.4073 -1.5011
 4357TIP3   OH213076   0.878   2.423   4.303 -0.3380 -0.0601 -0.3344
 4357TIP3    H113077   0.963   2.466   4.313 -0.1054 -0.8371  1.2917
 4357TIP3    H213078   0.822   2.489   4.262  1.3243  0.0796 -2.5878
 4358TIP3   OH213079   2.029   1.299   4.663 -0.0687  0.3137  0.8484
 4358TIP3    H113080   2.089   1.313   4.736  1.3633  2.0078 -0.5473
 4358TIP3    H213081   2.084   1.261   4.594 -0.7482  1.1551 -0.1947
 4359TIP3   OH213082   5.156   2.922   5.167 -0.0354 -0.5196  0.6656
 4359TIP3    H113083   5.211   2.970   5.104 -1.9957 -0.4914 -1.1406
 4359TIP3    H213084   5.197   2.836   5.174  0.8081 -0.1709  0.1791
 4360TIP3   OH213085   0.144   0.873   1.463 -0.5412  0.5881  0.1804
 4360TIP3    H113086   0.141   0.799   1.401 -0.9890  1.7119 -1.1893
 4360TIP3    H213087   0.190   0.942   1.415 -1.9639  1.9041  0.6232
 4361TIP3   OH213088   4.099   2.094   3.319  0.1297 -0.9541  0.7303
 4361TIP3    H113089   4.058   2.054   3.242 -1.1637  2.1218 -0.3387
 4361TIP3    H213090   4.032   2.090   3.387 -0.4682  0.3797  0.2487
 4362TIP3   OH213091   4.280   0.914   1.396  0.3668 -0.7381  0.3103
 4362TIP3    H113092   4.370   0.898   1.426  0.9317  2.4185  0.6429
 4362TIP3    H213093   4.240   0.966   1.466 -0.2285  1.6596 -1.6834
 4363TIP3   OH213094   0.814   3.019   2.765  0.1981 -0.3896  0.3799
 4363TIP3    H113095   0.833   2.967   2.844  0.8559  0.5062  0.8192
 4363TIP3    H213096   0.897   3.059   2.742 -0.5087  1.3240  0.6672
 4364TIP3   OH213097   3.344   5.146   1.507 -0.0198  0.1888 -0.1765
 4364TIP3    H113098   3.416   5.174   1.564 -0.1467  0.8158 -0.3191
 4364TIP3    H213099   3.386   5.128   1.423 -0.0074  0.3883 -0.2120
 4365TIP3   OH213100   1.051   3.121   2.681 -0.2178 -0.1190 -0.4676
 4365TIP3    H113101   1.114   3.185   2.647  0.0682  0.2388  0.7077
 4365TIP3    H213102   1.105   3.050   2.715 -0.3205  0.7929  1.7994
 4366TIP3   OH213103   1.932   2.830   2.190  0.4886 -0.3191  0.4960
 4366TIP3    H113104   2.014   2.870   2.217  0.7495 -1.7020  1.8829
 4366TIP3    H213105   1.916   2.864   2.102  0.8560  2.4891  1.4116
 4367TIP3   OH213106   2.620   3.645   1.126 -0.1946  0.8465  0.6362
 4367TIP3    H113107   2.689   3.609   1.071 -0.5640 -1.3306  1.5068
 4367TIP3    H213108   2.578   3.712   1.071  0.9600  0.4179 -0.8236
 4368TIP3   OH213109   1.227   2.732   0.677 -0.1716 -0.1403 -0.0851
 4368TIP3    H113110   1.297   2.693   0.730  2.1299  1.0764 -2.0184
 4368TIP3    H213111   1.272   2.795   0.621 -3.0715  1.7943 -0.4474
 4369TIP3   OH213112   4.618   2.985   2.347 -0.1557 -0.0545 -0.2788
 4369TIP3    H113113   4.612   2.922   2.275  2.4402 -1.1237  0.3108
 4369TIP3    H213114   4.643   2.931   2.423 -1.5694  1.2081  1.1458
 4370TIP3   OH213115   5.986   2.013   3.208  0.0864  0.2166 -0.0922
 4370TIP3    H113116   6.012   2.089   3.261  0.2058  0.1081  0.0052
 4370TIP3    H213117   5.963   2.050   3.123 -0.3258  0.4201  0.1056
 4371TIP3   OH213118   1.481   0.130   2.073 -0.3350 -0.4406  0.2931
 4371TIP3    H113119   1.410   0.194   2.066 -0.8282 -1.0484 -0.4108
 4371TIP3    H213120   1.497   0.102   1.983  2.8062  1.7720  0.0140
 4372TIP3   OH213121   0.772   3.010   0.101  0.2648  0.6259  0.2386
 4372TIP3    H113122   0.827   3.045   0.171  0.4319  0.6940  0.0753
 4372TIP3    H213123   0.825   2.940   0.062 -0.2455 -0.1150  0.8540
 4373TIP3   OH213124   3.739   0.551   0.835 -0.0373 -0.0570 -0.0565
 4373TIP3    H113125   3.732   0.633   0.786  0.9435 -0.1375 -0.3353
 4373TIP3    H213126   3.791   0.493   0.779 -2.1528 -1.4975 -0.6799
 4374TIP3   OH213127   0.609   0.943   4.370 -0.7860 -0.0747  0.0348
 4374TIP3    H113128   0.678   0.891   4.329 -1.0658 -1.3158  1.0535
 4374TIP3    H213129   0.651   1.026   4.392  0.3665 -0.7568  0.5106
 4375TIP3   OH213130   3.214   1.433   3.614 -0.0355 -0.3481 -0.1108
 4375TIP3    H113131   3.306   1.457   3.624  0.3611 -2.5408  3.2526
 4375TIP3    H213132   3.168   1.517   3.616  1.7212  0.6853  1.8722
 4376TIP3   OH213133   4.335   3.082   2.084 -0.3196  1.0270  0.2348
 4376TIP3    H113134   4.273   3.050   2.018  0.4000  0.3383 -0.1080
 4376TIP3    H213135   4.420   3.082   2.040  0.1013  0.9742  1.0289
 4377TIP3   OH213136   1.748   5.607   0.694 -0.0457 -0.0502 -0.1973
 4377TIP3    H113137   1.743   5.589   0.600  0.4374  0.8793 -0.4122
 4377TIP3    H213138   1.797   5.533   0.731 -0.5569 -0.6034 -0.6150
 4378TIP3   OH213139   6.251   2.303   2.095 -0.0762 -0.4541 -0.1394
 4378TIP3    H113140   6.319   2.237   2.103  0.4366  0.0487 -0.3120
 4378TIP3    H213141   6.279   2.375   2.151 -1.1060 -0.7616  0.8024
 4379TIP3   OH213142   0.934   3.686   0.129 -0.5149 -0.0671  0.1048
 4379TIP3    H113143   0.956   3.638   0.050 -3.3351  1.1351 -1.5598
 4379TIP3    H213144   0.937   3.778   0.103 -0.0035  0.4711  1.8738
 4380TIP3   OH213145   3.117   4.941   5.166  0.2621 -0.1323  0.4934
 4380TIP3    H113146   3.085   4.861   5.124  1.5286  0.1929 -1.1977
 4380TIP3    H213147   3.213   4.932   5.164  0.4113  1.2570  0.6003
 4381TIP3   OH213148   4.838   1.729   5.105 -0.0052 -0.1523  0.2240
 4381TIP3    H113149   4.763   1.683   5.068 -1.0896  2.0789 -0.4708
 4381TIP3    H213150   4.804   1.774   5.182  0.4592  1.2818 -0.3700
 4382TIP3   OH213151   3.966   5.157   0.709 -0.4502 -0.1945 -0.7007
 4382TIP3    H113152   4.003   5.071   0.727 -1.5665 -0.4745  0.3720
 4382TIP3    H213153   4.023   5.194   0.641  2.9318  0.1704  2.0793
 4383TIP3   OH213154   1.413   5.671   4.334 -0.1743 -0.0595 -0.0358
 4383TIP3    H113155   1.466   5.638   4.406  0.0559  0.4778  0.0492
 4383TIP3    H213156   1.325   5.638   4.351 -0.1623  0.2171  0.5973
 4384TIP3   OH213157   1.592   1.561   3.801 -0.2611  0.1592  0.2533
 4384TIP3    H113158   1.529   1.613   3.852 -1.8293 -0.0482 -1.3306
 4384TIP3    H213159   1.610   1.485   3.855  0.5332  1.3784  1.7738
 4385TIP3   OH213160   5.531   2.371   1.693 -0.1061 -0.4499  0.0198
 4385TIP3    H113161   5.543   2.278   1.709  0.2549  0.0444  3.1093
 4385TIP3    H213162   5.495   2.406   1.774 -0.4322  2.1047 -1.1068
 4386TIP3   OH213163   4.857   3.065   4.893 -0.0062 -0.3455 -0.2735
 4386TIP3    H113164   4.848   3.137   4.830 -1.8317 -0.4262 -0.1460
 4386TIP3    H213165   4.821   2.989   4.848  2.9965 -1.5781 -0.8733
 4387TIP3   OH213166   2.183   2.394   4.864 -0.3401 -0.1661 -0.1119
 4387TIP3    H113167   2.132   2.475   4.859  0.6262  0.4476 -0.2707
 4387TIP3    H213168   2.195   2.378   4.958  1.8611  1.4581 -0.0373
 4388TIP3   OH213169   6.306   5.367   4.733 -0.1483 -0.0689 -0.0238
 4388TIP3    H113170   6.249   5.404   4.799 -0.4436 -0.1248 -0.2464
 4388TIP3    H213171   6.249   5.312   4.679 -0.2905  1.3437 -1.4040
 4389TIP3   OH213172   4.589   4.815   3.732 -0.1436  0.1669  0.0923
 4389TIP3    H113173   4.679   4.813   3.701  0.4066  0.7166  1.5428
 4389TIP3    H213174   4.536   4.824   3.653  0.9517 -1.7463 -0.9260
 4390TIP3   OH213175   5.185   3.940   2.183 -0.1006  0.3065 -0.0515
 4390TIP3    H113176   5.109   3.920   2.238 -0.0293 -0.2610 -0.1543
 4390TIP3    H213177   5.258   3.897   2.227 -0.2287 -1.1347 -1.1725
 4391TIP3   OH213178   1.884   4.184   3.826 -0.2517 -0.1562 -0.0537
 4391TIP3    H113179   1.789   4.171   3.826 -0.2428 -0.2223  0.1423
 4391TIP3    H213180   1.895   4.274   3.858 -0.3167  0.3916 -1.4703
 4392TIP3   OH213181   1.970   1.937   4.132  0.0742  0.4881  0.0340
 4392TIP3    H113182   2.006   1.976   4.212 -0.8312 -0.0763  0.7327
 4392TIP3    H213183   1.905   1.873   4.163 -0.0861  0.0518 -1.1442
 4393TIP3   OH213184   6.352   4.297   0.189  0.1232  0.7450 -0.4022
 4393TIP3    H113185   6.281   4.360   0.201 -1.9139 -1.2848 -1.1427
 4393TIP3    H213186   6.309   4.218   0.157  2.7034 -0.7019 -0.5571
 4394TIP3   OH213187   5.920   3.695   4.600  0.0734 -0.3166  0.8154
 4394TIP3    H113188   5.896   3.743   4.680  1.2002 -0.7565  1.4516
 4394TIP3    H213189   5.914   3.603   4.625 -1.1692 -0.5090 -0.1220
 4395TIP3   OH213190   6.218   1.431   4.547 -0.0515 -0.3403 -0.0260
 4395TIP3    H113191   6.205   1.524   4.524  0.6209  0.3071  2.0262
 4395TIP3    H213192   6.312   1.416   4.534 -0.3013 -1.0064 -1.1877
 4396TIP3   OH213193   0.379   5.522   0.197  0.1046  0.0607  0.1919
 4396TIP3    H113194   0.365   5.591   0.262 -3.0783  2.1950 -2.4700
 4396TIP3    H213195   0.308   5.459   0.214 -1.8136  1.4576 -1.9621
 4397TIP3   OH213196   1.413   3.963   0.222  0.2261 -0.1919 -0.4272
 4397TIP3    H113197   1.487   3.929   0.273  0.4061 -0.5565 -0.9219
 4397TIP3    H213198   1.343   3.900   0.237 -0.2243  0.5385  0.6229
 4398TIP3   OH213199   1.742   2.647   2.197 -0.0777  0.3403 -0.5995
 4398TIP3    H113200   1.697   2.670   2.278  0.3738 -0.3529 -0.1480
 4398TIP3    H213201   1.830   2.684   2.206 -0.1436  0.5883 -0.9370
 4399TIP3   OH213202   1.937   1.847   2.919  0.0856 -0.1816 -0.2366
 4399TIP3    H113203   1.917   1.791   2.994 -0.0499  0.8764  0.5283
 4399TIP3    H213204   1.917   1.935   2.949  0.9934  0.3624 -1.1874
 4400TIP3   OH213205   3.177   2.948   1.459 -0.1311 -0.4842 -0.3673
 4400TIP3    H113206   3.235   2.925   1.530  0.4178 -0.4854 -0.8128
 4400TIP3    H213207   3.115   2.875   1.453 -0.1998 -0.4671  0.1251
 4401TIP3   OH213208   5.369   2.489   1.948  0.2294  0.1320 -0.6198
 4401TIP3    H113209   5.294   2.433   1.930  0.2375 -0.1974  0.3056
 4401TIP3    H213210   5.352   2.569   1.898  0.7063 -1.0398 -2.7597
 4402TIP3   OH213211   6.062   5.973   1.016  0.2744 -0.1774  0.2236
 4402TIP3    H113212   5.968   5.956   1.028 -0.4061  2.3481 -0.8542
 4402TIP3    H213213   6.067   6.026   0.936  2.5842  0.2444  0.5745
 4403TIP3   OH213214   3.061   2.643   0.559  0.4741  0.5476  0.4075
 4403TIP3    H113215   3.154   2.648   0.582  0.3217  0.9489  0.9559
 4403TIP3    H213216   3.015   2.659   0.641 -0.0833  0.3689  0.1361
 4404TIP3   OH213217   1.584   2.311   4.169 -0.3452 -0.0288  0.8227
 4404TIP3    H113218   1.616   2.333   4.081 -0.8562  0.4769  0.7588
 4404TIP3    H213219   1.578   2.395   4.214 -0.9897 -0.1882  1.0359
 4405TIP3   OH213220   0.605   4.076   1.061 -0.7449  0.2508  0.7436
 4405TIP3    H113221   0.682   4.100   1.112 -0.4626 -1.9667  1.4884
 4405TIP3    H213222   0.531   4.093   1.119 -0.4379 -2.0776  1.9367
 4406TIP3   OH213223   0.749   5.455   2.200  0.6457 -0.2109  0.6698
 4406TIP3    H113224   0.837   5.472   2.165  0.5145  0.7473  0.7977
 4406TIP3    H213225   0.690   5.484   2.131  0.4157 -1.1635  0.4460
 4407TIP3   OH213226   4.260   0.900   4.527  0.0470 -0.1973  0.5120
 4407TIP3    H113227   4.232   0.928   4.441 -0.2725  1.9623  1.2545
 4407TIP3    H213228   4.255   0.805   4.525 -2.1028 -0.1144 -1.1181
 4408TIP3   OH213229   3.725   2.007   0.739 -0.4469 -0.1906 -0.1744
 4408TIP3    H113230   3.699   1.939   0.676 -0.7874 -1.7978  1.6306
 4408TIP3    H213231   3.672   1.990   0.817  0.1528  1.5918  0.6879
 4409TIP3   OH213232   0.859   2.333   0.339  0.0017 -0.3021 -0.6255
 4409TIP3    H113233   0.891   2.254   0.296  0.5735 -0.3613 -0.1011
 4409TIP3    H213234   0.846   2.308   0.430  1.6082  0.5778 -0.1206
 4410TIP3   OH213235   0.363   4.520   4.674  0.2555  0.0674  0.3053
 4410TIP3    H113236   0.352   4.462   4.749  1.6842  0.8081  1.1291
 4410TIP3    H213237   0.375   4.461   4.599  1.1755 -0.7145  1.0395
 4411TIP3   OH213238   2.564   4.161   2.891  0.0064  0.3315 -0.6975
 4411TIP3    H113239   2.480   4.124   2.918  0.2157 -0.8111 -1.5110
 4411TIP3    H213240   2.552   4.256   2.895 -1.5701  0.1901 -1.5169
 4412TIP3   OH213241   5.939   4.804   2.026  0.0577 -0.4897  0.2007
 4412TIP3    H113242   5.852   4.843   2.023 -0.4545 -1.5242  1.2376
 4412TIP3    H213243   5.963   4.806   2.118  0.9088 -0.7106 -0.0102
 4413TIP3   OH213244   4.967   4.201   5.004 -0.1063 -0.4336 -0.1871
 4413TIP3    H113245   4.893   4.252   4.971 -0.2946 -0.6444 -0.0916
 4413TIP3    H213246   4.953   4.196   5.098 -0.1085 -0.6951 -0.2016
 4414TIP3   OH213247   4.811   0.894   2.176 -0.1769  0.8451  0.2525
 4414TIP3    H113248   4.806   0.799   2.180 -0.4334  0.8943  1.2460
 4414TIP3    H213249   4.884   0.912   2.116  0.8674  0.0160  1.2462
 4415TIP3   OH213250   0.295   1.092   3.013 -0.2543  0.2777  0.0774
 4415TIP3    H113251   0.300   1.116   3.106  1.5435 -1.7112  0.5759
 4415TIP3    H213252   0.382   1.113   2.979 -0.2263 -0.8940 -0.6196
 4416TIP3   OH213253   5.674   1.148   1.704 -0.6594  0.6223  0.3745
 4416TIP3    H113254   5.663   1.090   1.780 -0.0167  0.5261  0.4015
 4416TIP3    H213255   5.768   1.158   1.696 -0.7115  0.4277 -0.5716
 4417TIP3   OH213256   5.151   0.404   0.948  0.0946  0.4167  0.3342
 4417TIP3    H113257   5.165   0.310   0.955  0.4983  0.5274  1.1802
 4417TIP3    H213258   5.085   0.414   0.879 -3.0775 -0.7836  2.9151
 4418TIP3   OH213259   2.553   2.500   1.927 -0.2507  0.3121  0.5034
 4418TIP3    H113260   2.511   2.571   1.975 -0.1546  1.0575 -0.4681
 4418TIP3    H213261   2.577   2.540   1.843 -0.7060 -1.0095 -0.2839
 4419TIP3   OH213262   0.229   1.898   0.256  0.0835  0.0191  0.1055
 4419TIP3    H113263   0.288   1.833   0.295 -0.8654 -1.5369 -0.9507
 4419TIP3    H213264   0.179   1.933   0.331  0.7347 -0.3179  0.7104
 4420TIP3   OH213265   4.436   0.161   4.197  0.2848  0.1339  0.0793
 4420TIP3    H113266   4.479   0.172   4.112  1.0033 -0.5830  0.3291
 4420TIP3    H213267   4.479   0.083   4.235  0.1938  0.6220  1.2180
 4421TIP3   OH213268   3.465   0.371   2.078  0.4832 -0.0914  0.3512
 4421TIP3    H113269   3.481   0.455   2.121 -0.3260  0.9812 -1.3673
 4421TIP3    H213270   3.503   0.380   1.991  0.3106 -1.4917  0.0982
 4422TIP3   OH213271   4.786   2.967   0.128 -0.5054  0.2181 -0.1007
 4422TIP3    H113272   4.841   3.009   0.062  0.2270  0.0134  0.3654
 4422TIP3    H213273   4.763   3.038   0.188 -1.4698  0.4785 -0.7569
 4423TIP3   OH213274   4.395   2.302   0.898 -0.9069  0.6226  0.3690
 4423TIP3    H113275   4.434   2.376   0.944 -0.1308  0.5336 -0.1404
 4423TIP3    H213276   4.419   2.315   0.806  0.7332 -1.1646  0.4880
 4424TIP3   OH213277   5.101   3.735   2.765  0.1040  0.5830  0.0741
 4424TIP3    H113278   5.179   3.738   2.709 -1.1887 -0.0193 -1.8789
 4424TIP3    H213279   5.028   3.746   2.704 -1.3624  0.9071  1.8188
 4425TIP3   OH213280   0.165   1.964   3.996  0.3454 -0.4499 -0.4432
 4425TIP3    H113281   0.128   2.027   3.935  0.3440 -1.7984 -1.8752
 4425TIP3    H213282   0.135   1.994   4.082  1.0091  1.9396 -0.9650
 4426TIP3   OH213283   1.443   2.451   1.008  0.1507  0.3518 -0.2236
 4426TIP3    H113284   1.455   2.382   0.943 -2.1351 -1.4296  1.0496
 4426TIP3    H213285   1.460   2.532   0.961 -3.3889 -0.6179 -3.7698
 4427TIP3   OH213286   0.829   5.929   0.318 -0.0577 -0.0120  0.1653
 4427TIP3    H113287   0.814   5.986   0.242 -2.6932  1.0329  1.3406
 4427TIP3    H213288   0.810   5.841   0.286 -1.2897  0.4275 -0.3905
 4428TIP3   OH213289   0.342   0.117   5.110  0.0619 -0.2355 -0.2698
 4428TIP3    H113290   0.278   0.068   5.058 -1.1924  1.8207 -0.7527
 4428TIP3    H213291   0.290   0.180   5.159  1.5961  0.4291  0.5800
 4429TIP3   OH213292   1.268   0.932   4.387 -0.0812  0.2194 -0.2266
 4429TIP3    H113293   1.200   0.963   4.446  0.7800  0.7380  0.5161
 4429TIP3    H213294   1.261   0.989   4.310  0.2719  1.0547  0.3469
 4430TIP3   OH213295   1.473   5.723   3.698  0.2211  0.1815 -0.0429
 4430TIP3    H113296   1.538   5.746   3.764  1.6934  0.3584 -1.4753
 4430TIP3    H213297   1.439   5.807   3.667  0.4865  0.1594 -0.4028
 4431TIP3   OH213298   5.841   2.422   0.203  0.7761 -0.1185  0.0881
 4431TIP3    H113299   5.819   2.437   0.294 -0.0164  0.3478 -0.1724
 4431TIP3    H213300   5.907   2.488   0.182 -0.1377  0.7703 -0.0809
 4432TIP3   OH213301   2.750   2.831   0.433  0.6366  0.8522 -0.1789
 4432TIP3    H113302   2.697   2.910   0.422  0.1915  0.7068  0.8825
 4432TIP3    H213303   2.688   2.758   0.425  1.1746  0.5413 -2.0350
 4433TIP3   OH213304   1.745   2.664   4.002 -0.0714  0.7609  0.3310
 4433TIP3    H113305   1.685   2.674   3.928 -1.4031 -0.2293  1.2167
 4433TIP3    H213306   1.722   2.735   4.062 -0.7545  0.1034  0.8879
 4434TIP3   OH213307   3.938   2.321   4.289 -0.2088 -0.2105  0.5217
 4434TIP3    H113308   4.003   2.347   4.224 -0.0853  0.4685  0.9112
 4434TIP3    H213309   3.950   2.226   4.298 -0.2086 -0.3145 -0.4140
 4435TIP3   OH213310   4.682   2.326   4.348  0.2941 -0.0414  0.8247
 4435TIP3    H113311   4.648   2.237   4.344  1.7859 -0.7585  2.7513
 4435TIP3    H213312   4.613   2.376   4.392 -1.3990  0.2987 -1.9668
 4436TIP3   OH213313   3.711   1.569   4.501  0.0495  0.0581  0.1108
 4436TIP3    H113314   3.761   1.497   4.463  0.0684  0.0214  0.2041
 4436TIP3    H213315   3.670   1.530   4.579 -1.0760 -0.2403 -0.5989
 4437TIP3   OH213316   0.286   1.584   4.583 -0.4821  0.3987  0.1005
 4437TIP3    H113317   0.303   1.660   4.638 -0.1246 -0.4960  1.2620
 4437TIP3    H213318   0.372   1.550   4.559 -0.5316  2.0339 -2.9377
 4438TIP3   OH213319   3.104   1.405   0.191 -0.1903  0.1586 -0.1716
 4438TIP3    H113320   3.130   1.336   0.130 -0.5327  0.3111 -0.4934
 4438TIP3    H213321   3.179   1.415   0.250  0.0148 -0.2109 -0.3691
 4439TIP3   OH213322   5.731   5.108   1.592 -0.1865  0.0695  0.2335
 4439TIP3    H113323   5.747   5.016   1.613  1.2174 -0.2050 -1.8002
 4439TIP3    H213324   5.706   5.147   1.676  2.0738 -1.5241  1.7700
 4440TIP3   OH213325   5.067   4.177   1.633 -0.0227  0.0502 -0.0495
 4440TIP3    H113326   5.088   4.083   1.639  0.5835  0.1259 -0.7874
 4440TIP3    H213327   5.113   4.206   1.554  0.9261  1.2705  0.9112
 4441TIP3   OH213328   3.552   5.439   1.919  0.2226 -0.5652  0.0331
 4441TIP3    H113329   3.623   5.500   1.903  1.5819 -2.0355  0.2586
 4441TIP3    H213330   3.559   5.418   2.012 -0.7359 -0.4773  0.1380
 4442TIP3   OH213331   4.416   2.028   3.949  0.1612  0.0822 -0.1287
 4442TIP3    H113332   4.399   2.122   3.949 -1.1425 -0.0942  1.7950
 4442TIP3    H213333   4.330   1.988   3.958  0.7364 -1.2871 -0.4267
 4443TIP3   OH213334   0.547   3.336   1.887  0.0484  0.8116 -0.3755
 4443TIP3    H113335   0.617   3.300   1.942  0.2476  0.5589 -0.7848
 4443TIP3    H213336   0.556   3.289   1.804  0.1998  1.6696 -0.8594
 4444TIP3   OH213337   4.978   3.359   3.675  1.0234  0.2088  0.4665
 4444TIP3    H113338   5.014   3.270   3.674  0.8557  0.1400  0.4524
 4444TIP3    H213339   4.974   3.383   3.582 -0.6718 -0.4849  0.3290
 4445TIP3   OH213340   4.657   4.377   0.284 -0.0230  0.0142 -0.5395
 4445TIP3    H113341   4.572   4.339   0.262  0.5855 -1.5766 -0.3077
 4445TIP3    H213342   4.653   4.393   0.378 -0.1262  0.1213 -0.5618
 4446TIP3   OH213343   4.017   4.133   4.374  0.0199  0.0151 -0.3681
 4446TIP3    H113344   4.104   4.172   4.380 -0.0044  0.0986 -0.5697
 4446TIP3    H213345   4.017   4.065   4.441  0.6782 -0.8263 -1.2038
 4447TIP3   OH213346   2.251   1.756   4.378 -0.3698 -0.4546 -0.3662
 4447TIP3    H113347   2.250   1.761   4.283  1.2892 -0.0959 -0.4010
 4447TIP3    H213348   2.204   1.834   4.407 -0.5349 -0.3590 -0.8851
 4448TIP3   OH213349   4.485   4.084   4.660  0.1649 -0.1980 -0.2725
 4448TIP3    H113350   4.559   4.131   4.700  0.5340 -0.0242 -1.1383
 4448TIP3    H213351   4.454   4.143   4.591 -0.0412 -0.7678 -0.6694
 4449TIP3   OH213352   3.098   3.506   1.524  0.0596  0.0668 -0.0884
 4449TIP3    H113353   3.064   3.532   1.609  1.7533  0.2114  0.5693
 4449TIP3    H213354   3.153   3.430   1.541  0.7545  0.3462 -0.9828
 4450TIP3   OH213355   0.410   3.616   4.657  0.8527 -0.6901  0.2194
 4450TIP3    H113356   0.459   3.684   4.702 -0.7408  1.6576 -1.3829
 4450TIP3    H213357   0.323   3.618   4.698  0.7828 -1.8386  0.1748
 4451TIP3   OH213358   4.120   4.550   1.561 -0.2625 -0.0888  0.0565
 4451TIP3    H113359   4.098   4.567   1.469 -2.5436  0.0554  0.5722
 4451TIP3    H213360   4.166   4.628   1.590 -0.5718  0.3657 -0.6557
 4452TIP3   OH213361   1.361   4.321   2.544  0.1017 -0.6422 -0.0496
 4452TIP3    H113362   1.265   4.322   2.552  0.1922  0.1122  1.1972
 4452TIP3    H213363   1.377   4.290   2.455 -1.2714 -1.8345  0.0880
 4453TIP3   OH213364   4.483   4.900   3.345 -0.0382 -0.4915 -0.5608
 4453TIP3    H113365   4.441   4.917   3.429 -0.8747 -3.4047 -0.2762
 4453TIP3    H213366   4.432   4.952   3.282 -0.0616  0.9021  0.5643
 4454TIP3   OH213367   2.821   5.589   4.494 -0.2978 -0.0091  0.2339
 4454TIP3    H113368   2.797   5.510   4.542 -1.0493  0.6847  1.0512
 4454TIP3    H213369   2.902   5.618   4.535  1.0601 -1.3652 -1.3347
 4455TIP3   OH213370   5.987   4.673   3.783 -0.1070 -0.7893  0.2243
 4455TIP3    H113371   5.991   4.711   3.871  1.7035  1.5217 -0.7453
 4455TIP3    H213372   5.907   4.620   3.783  0.0058 -1.1248  3.3204
 4456TIP3   OH213373   0.279   2.943   0.382 -0.2560 -0.1769  0.4482
 4456TIP3    H113374   0.304   3.035   0.380  0.4622 -0.3764 -0.9549
 4456TIP3    H213375   0.361   2.896   0.400 -0.5363 -0.5669  0.7257
 4457TIP3   OH213376   4.630   4.364   3.064  0.1904  0.0546  0.3236
 4457TIP3    H113377   4.635   4.447   3.112 -1.5046  0.4499 -0.0858
 4457TIP3    H213378   4.541   4.333   3.082  0.5159 -1.2299 -0.2476
 4458TIP3   OH213379   0.903   1.657   4.551 -0.3447  0.3185 -0.8309
 4458TIP3    H113380   0.957   1.644   4.629 -1.0692  0.3751 -0.3063
 4458TIP3    H213381   0.928   1.744   4.519  0.7686 -0.1704 -1.3285
 4459TIP3   OH213382   2.359   4.091   3.056  0.0480 -0.2699 -0.2486
 4459TIP3    H113383   2.348   4.031   3.130 -1.3867 -1.4779 -1.3731
 4459TIP3    H213384   2.283   4.074   3.000  0.2074  1.7908 -1.1935
 4460TIP3   OH213385   1.734   4.772   1.661  0.6353  0.3764  0.0801
 4460TIP3    H113386   1.654   4.728   1.632  2.2812 -2.2683 -0.8516
 4460TIP3    H213387   1.717   4.796   1.752 -0.8870 -0.9821  0.1930
 4461TIP3   OH213388   5.064   0.155   1.044  0.2042 -0.3296  0.0355
 4461TIP3    H113389   5.052   0.099   0.967  0.2654 -2.0717  1.2371
 4461TIP3    H213390   4.977   0.160   1.084  0.1523  0.6489 -0.1633
 4462TIP3   OH213391   5.937   5.079   1.416  0.1338 -0.1895  0.3476
 4462TIP3    H113392   5.849   5.089   1.451  0.9417  2.8852  1.9259
 4462TIP3    H213393   5.993   5.123   1.480  2.2711  1.7202 -2.5698
 4463TIP3   OH213394   0.147   2.283   3.928 -0.2298 -0.1036  0.1322
 4463TIP3    H113395   0.060   2.258   3.960 -0.6689 -0.0443 -0.9677
 4463TIP3    H213396   0.153   2.244   3.841  1.2466 -0.9182  0.5654
 4464TIP3   OH213397   4.087   2.238   2.033  0.0586  0.9394  0.2335
 4464TIP3    H113398   4.089   2.327   2.067  2.2818  0.6794  0.9827
 4464TIP3    H213399   4.117   2.184   2.106 -0.3044 -0.3125 -0.5124
 4465TIP3   OH213400   1.975   0.566   2.087 -0.4156  0.2594  0.1305
 4465TIP3    H113401   1.951   0.474   2.085 -0.3872  0.2606 -0.2796
 4465TIP3    H213402   1.940   0.602   2.005 -1.5951  0.9067  0.8841
 4466TIP3   OH213403   5.116   1.213   0.902 -0.1105 -0.3102  0.0638
 4466TIP3    H113404   5.150   1.131   0.939 -0.8097 -0.6908 -0.1235
 4466TIP3    H213405   5.031   1.190   0.866 -2.0685  1.2469  3.2447
 4467TIP3   OH213406   0.273   5.375   4.175 -0.3497 -0.2464  0.0018
 4467TIP3    H113407   0.325   5.433   4.120  0.2642  0.8356  1.6338
 4467TIP3    H213408   0.191   5.422   4.188 -1.0425 -1.1292 -1.0956
 4468TIP3   OH213409   4.388   2.808   0.476 -0.5201  0.3512 -0.3670
 4468TIP3    H113410   4.406   2.715   0.491 -0.1183  0.4576 -0.1749
 4468TIP3    H213411   4.293   2.813   0.471 -0.6889  0.2281  1.7928
 4469TIP3   OH213412   0.815   2.834   1.535  0.3204  1.2938 -0.1950
 4469TIP3    H113413   0.887   2.896   1.522  0.5010  0.8234 -1.5849
 4469TIP3    H213414   0.853   2.765   1.589  1.4825  0.1764 -2.3321
 4470TIP3   OH213415   1.576   2.259   4.891 -0.1665  0.1428  0.0021
 4470TIP3    H113416   1.506   2.194   4.897 -0.1571 -0.1595 -2.3788
 4470TIP3    H213417   1.580   2.281   4.798  2.2854  0.8541  0.2244
 4471TIP3   OH213418   0.513   3.867   1.910 -0.5757 -0.2030  0.2654
 4471TIP3    H113419   0.542   3.787   1.866 -0.7624  0.6016 -1.3825
 4471TIP3    H213420   0.437   3.896   1.860  0.8411  2.2351 -0.6265
 4472TIP3   OH213421   1.732   0.357   0.948 -0.0667 -0.1770  0.0533
 4472TIP3    H113422   1.677   0.279   0.935 -1.1878  0.5371  0.3723
 4472TIP3    H213423   1.756   0.384   0.860  1.4260 -1.6216 -0.0212
 4473TIP3   OH213424   2.301   4.792   3.385 -0.4184  0.4742 -0.0985
 4473TIP3    H113425   2.385   4.798   3.430 -1.0255  1.2447  0.9606
 4473TIP3    H213426   2.308   4.712   3.332  0.6567  0.0535  0.6516
 4474TIP3   OH213427   5.195   3.215   1.595 -0.0421 -0.3184 -0.3182
 4474TIP3    H113428   5.215   3.308   1.583  0.3960 -0.2303  0.9669
 4474TIP3    H213429   5.112   3.214   1.644  0.2922 -0.5919  0.2491
 4475TIP3   OH213430   3.792   1.994   4.789  0.7049 -0.0001  0.1323
 4475TIP3    H113431   3.825   1.905   4.778  0.9754 -0.3939  3.1171
 4475TIP3    H213432   3.701   1.989   4.760  0.2902 -1.7019  1.4986
 4476TIP3   OH213433   0.693   3.026   2.332 -0.2762 -0.5949 -0.6604
 4476TIP3    H113434   0.684   3.112   2.292 -1.5713 -0.5623 -0.3569
 4476TIP3    H213435   0.780   3.025   2.370 -0.0240  0.3544 -1.1965
 4477TIP3   OH213436   2.517   0.693   3.439  0.6380  0.4101  0.1399
 4477TIP3    H113437   2.432   0.716   3.402  0.7243  2.4266  1.0794
 4477TIP3    H213438   2.576   0.689   3.363 -0.3757 -1.7417 -0.6058
 4478TIP3   OH213439   0.150   0.561   3.477 -0.4406  0.0581 -0.2115
 4478TIP3    H113440   0.183   0.596   3.395 -1.8311 -1.5257 -1.5085
 4478TIP3    H213441   0.201   0.481   3.491  0.2178  0.6345  0.8286
 4479TIP3   OH213442   4.196   1.456   5.130 -0.3479 -0.0706 -0.6631
 4479TIP3    H113443   4.133   1.525   5.150  0.8949  1.1228 -0.6783
 4479TIP3    H213444   4.206   1.460   5.035  3.5098  3.4175 -0.4214
 4480TIP3   OH213445   3.998   1.476   2.037 -0.4272 -0.4228  0.3879
 4480TIP3    H113446   4.030   1.565   2.055 -0.4167 -0.3974  0.2410
 4480TIP3    H213447   3.902   1.484   2.041 -0.5322  0.0953 -1.9218
 4481TIP3   OH213448   1.872   0.344   2.696  0.1139  0.2970 -0.2703
 4481TIP3    H113449   1.965   0.367   2.704  0.2327 -0.3527  0.2764
 4481TIP3    H213450   1.859   0.275   2.761 -0.5859 -0.1250 -0.8517
 4482TIP3   OH213451   5.131   5.682   4.807 -0.0958  0.1454  0.2048
 4482TIP3    H113452   5.147   5.718   4.894 -1.0151 -1.2645  0.9974
 4482TIP3    H213453   5.188   5.605   4.802 -0.6862 -0.2859 -0.0732
 4483TIP3   OH213454   2.587   4.415   0.387 -0.1688 -0.3846  0.1247
 4483TIP3    H113455   2.576   4.323   0.363 -1.7701 -0.5720  1.3616
 4483TIP3    H213456   2.542   4.423   0.472  0.0854  1.4917  0.1239
 4484TIP3   OH213457   0.093   1.467   4.953  0.0801 -0.3652  0.3253
 4484TIP3    H113458   0.183   1.499   4.961  0.0264 -0.1306  0.0072
 4484TIP3    H213459   0.047   1.537   4.906  0.4923 -1.8500 -2.4581
 4485TIP3   OH213460   0.491   5.869   0.175  0.2091 -0.4076 -0.4815
 4485TIP3    H113461   0.525   5.910   0.095 -0.7403  1.0879 -0.1626
 4485TIP3    H213462   0.553   5.799   0.195  1.0185 -0.1445 -1.9548
 4486TIP3   OH213463   1.972   0.954   4.705 -0.1858  0.2974 -0.6274
 4486TIP3    H113464   2.006   0.981   4.620 -2.2950  1.8599 -1.0574
 4486TIP3    H213465   1.877   0.952   4.694 -0.4148 -2.8092  0.7926
 4487TIP3   OH213466   5.407   2.597   2.916  0.1729  0.0405 -0.2987
 4487TIP3    H113467   5.424   2.503   2.911 -2.3392 -0.4378 -1.5620
 4487TIP3    H213468   5.322   2.604   2.959  0.1069  1.7183 -0.6162
 4488TIP3   OH213469   0.753   3.856   0.997 -0.4149  0.5985 -0.0094
 4488TIP3    H113470   0.714   3.841   0.911  1.1821 -1.4797 -0.4616
 4488TIP3    H213471   0.695   3.919   1.039 -1.1827  1.7822 -2.6347
 4489TIP3   OH213472   0.893   5.986   2.341 -0.2131 -0.1164  0.0582
 4489TIP3    H113473   0.857   5.901   2.366 -1.4451  0.8246  1.7107
 4489TIP3    H213474   0.954   6.008   2.412 -1.8262  1.4541  1.0758
 4490TIP3   OH213475   5.590   4.533   3.358  0.2834  0.4392 -0.2019
 4490TIP3    H113476   5.598   4.544   3.263  2.0396  0.9969 -0.0216
 4490TIP3    H213477   5.603   4.439   3.373  1.5843  0.5804 -0.3907
 4491TIP3   OH213478   5.218   1.960   4.919  0.1461 -0.0057  0.5887
 4491TIP3    H113479   5.273   1.966   4.841  0.5594 -1.5612  0.7249
 4491TIP3    H213480   5.271   1.911   4.981 -0.7004  0.0714  1.3881
 4492TIP3   OH213481   4.174   1.730   1.633 -0.1325 -0.0430 -0.2802
 4492TIP3    H113482   4.154   1.721   1.540 -1.1426  0.0862 -0.0933
 4492TIP3    H213483   4.171   1.641   1.668  0.5833 -0.1274 -0.4343
 4493TIP3   OH213484   4.739   3.657   3.130 -0.1663 -0.1382 -0.0177
 4493TIP3    H113485   4.825   3.655   3.172  0.7137 -1.9006 -1.7454
 4493TIP3    H213486   4.677   3.650   3.202  1.0214  2.3654  1.3912
 4494TIP3   OH213487   1.003   5.723   1.705  0.0758  0.3509 -0.5478
 4494TIP3    H113488   1.039   5.651   1.654 -0.6270  0.2760 -0.9439
 4494TIP3    H213489   0.911   5.702   1.716  0.2274  0.3020  0.8721
 4495TIP3   OH213490   4.911   4.945   3.913 -0.0708 -0.0299  0.2095
 4495TIP3    H113491   4.896   5.009   3.843  0.9197  0.2467  0.2390
 4495TIP3    H213492   4.881   4.989   3.993 -0.1560  0.0806  0.1172
 4496TIP3   OH213493   1.705   4.465   2.015 -0.0271 -0.9368 -0.3532
 4496TIP3    H113494   1.768   4.531   2.044 -1.0323 -0.8081  1.6645
 4496TIP3    H213495   1.626   4.515   1.995 -0.1876 -1.3362 -0.7299
 4497TIP3   OH213496   2.763   2.071   4.346  0.0548 -0.3769  0.1170
 4497TIP3    H113497   2.771   2.140   4.411 -1.0131 -0.5832  0.5014
 4497TIP3    H213498   2.723   2.113   4.270  1.7508 -0.0254 -0.6248
 4498TIP3   OH213499   5.821   2.870   3.994  0.0502 -0.2233  0.1016
 4498TIP3    H113500   5.767   2.793   3.979  0.8328 -0.6987 -0.3194
 4498TIP3    H213501   5.906   2.849   3.954  0.2442  0.8889 -0.1070
 4499TIP3   OH213502   2.449   4.131   1.740  0.4731  0.0443 -0.5930
 4499TIP3    H113503   2.384   4.094   1.799 -0.0209  1.0799 -0.4672
 4499TIP3    H213504   2.422   4.222   1.729  1.8340  0.4645 -0.6312
 4500TIP3   OH213505   6.259   0.532   1.417  0.2680  0.1190  0.4371
 4500TIP3    H113506   6.262   0.445   1.378 -0.4300  0.7241 -1.0618
 4500TIP3    H213507   6.339   0.538   1.469 -0.0344 -1.6669  1.1937
 4501TIP3   OH213508   1.956   5.237   2.493  0.2091  0.2383  0.6947
 4501TIP3    H113509   2.051   5.246   2.489  0.1240  1.2940  0.8308
 4501TIP3    H213510   1.935   5.239   2.586  0.1375 -1.2340  0.7458
 4502TIP3   OH213511   4.472   2.559   4.400 -0.7423 -0.1987 -0.1028
 4502TIP3    H113512   4.377   2.549   4.402 -0.7623 -0.4533 -1.2952
 4502TIP3    H213513   4.491   2.593   4.312  0.3964 -1.9837 -0.6217
 4503TIP3   OH213514   5.321   0.721   1.608 -0.5456 -0.0755 -0.9858
 4503TIP3    H113515   5.257   0.654   1.584  0.0353 -0.8343 -0.4516
 4503TIP3    H213516   5.341   0.765   1.525  0.0173 -1.4151 -1.5884
 4504TIP3   OH213517   0.959   0.005   4.461 -0.4198  0.3190  0.2246
 4504TIP3    H113518   0.912   0.088   4.463  0.9746  1.1671 -0.6056
 4504TIP3    H213519   1.007   0.007   4.378  0.1976 -0.9987  0.5304
 4505TIP3   OH213520   5.076   2.618   3.329 -0.0756  0.2091 -1.2662
 4505TIP3    H113521   5.092   2.704   3.290  1.3170 -0.1516 -1.5256
 4505TIP3    H213522   5.156   2.597   3.376 -1.7705  0.7679  2.2043
 4506TIP3   OH213523   0.542   2.500   2.809 -0.5172 -0.2613 -0.8695
 4506TIP3    H113524   0.504   2.459   2.887  0.3802 -0.6852 -0.6479
 4506TIP3    H213525   0.622   2.542   2.840 -1.2333  1.4204 -1.1570
 4507TIP3   OH213526   5.736   5.500   3.962  0.5975 -0.6958 -0.4893
 4507TIP3    H113527   5.743   5.582   4.010 -0.1440 -1.5188  1.1250
 4507TIP3    H213528   5.796   5.509   3.888  1.4153  0.8185  0.3289
 4508TIP3   OH213529   2.965   0.463   3.955  0.2485  0.0154 -0.3249
 4508TIP3    H113530   2.953   0.434   4.046  0.6937  0.7016 -0.0349
 4508TIP3    H213531   3.020   0.541   3.963 -1.2430  1.1884 -1.0320
 4509TIP3   OH213532   3.820   0.714   3.932  0.5826 -0.1395  0.6326
 4509TIP3    H113533   3.730   0.698   3.961  0.4758  1.7268  1.4797
 4509TIP3    H213534   3.875   0.670   3.997  0.2995  0.0756  1.0161
 4510TIP3   OH213535   4.021   1.679   4.814 -0.1402 -0.2030  0.3668
 4510TIP3    H113536   4.072   1.749   4.856  1.1828 -0.1750 -1.1808
 4510TIP3    H213537   4.012   1.707   4.723 -2.2824 -0.6129  0.3873
 4511TIP3   OH213538   0.233   4.308   1.365  0.1714 -0.1885  0.3350
 4511TIP3    H113539   0.191   4.378   1.314 -1.7596 -1.2461  0.3639
 4511TIP3    H213540   0.254   4.348   1.449 -0.0307  0.5938  0.0226
 4512TIP3   OH213541   1.190   2.317   1.510 -0.0209 -0.6288  0.3080
 4512TIP3    H113542   1.120   2.319   1.575 -0.7943  2.3112 -0.4456
 4512TIP3    H213543   1.147   2.294   1.428  0.4991 -1.8166  0.3427
 4513TIP3   OH213544   1.618   1.356   2.402  0.1493 -0.5773  0.1798
 4513TIP3    H113545   1.608   1.261   2.403  0.8023 -0.6509  0.5533
 4513TIP3    H213546   1.611   1.380   2.310 -2.1465 -0.7294  0.2608
 4514TIP3   OH213547   2.483   3.935   0.666  0.3834 -0.3774  0.0231
 4514TIP3    H113548   2.513   3.901   0.581  3.3556  2.7233 -0.3786
 4514TIP3    H213549   2.447   4.021   0.646 -0.1049 -0.1514  1.7644
 4515TIP3   OH213550   1.455   1.531   3.568 -0.1508 -0.7519  0.4288
 4515TIP3    H113551   1.499   1.563   3.647 -1.1545 -0.5443  0.9187
 4515TIP3    H213552   1.369   1.573   3.570 -0.5056 -1.4176 -0.3295
 4516TIP3   OH213553   5.912   0.632   2.575  0.2680 -0.1589  0.0646
 4516TIP3    H113554   5.817   0.645   2.570  0.1273 -1.0709  0.1773
 4516TIP3    H213555   5.947   0.677   2.498 -0.0098  2.2391  1.2451
 4517TIP3   OH213556   4.945   1.130   1.933 -0.1911 -0.4873 -0.2595
 4517TIP3    H113557   4.990   1.046   1.925  0.9895  0.2079 -1.3624
 4517TIP3    H213558   5.015   1.193   1.949 -1.1575  0.1801  1.7443
 4518TIP3   OH213559   3.846   1.465   4.751 -0.3093 -0.1628  0.2492
 4518TIP3    H113560   3.815   1.411   4.824  2.1215 -1.9518  0.0874
 4518TIP3    H213561   3.904   1.529   4.792  1.5698 -1.5753 -0.0776
 4519TIP3   OH213562   1.489   0.412   3.074  0.0389 -0.4733 -0.3830
 4519TIP3    H113563   1.472   0.408   2.980 -0.7057 -1.3866 -0.2335
 4519TIP3    H213564   1.402   0.424   3.113  0.4173  0.5882  0.1593
 4520TIP3   OH213565   0.892   0.389   0.900  0.1407 -0.4204  0.0507
 4520TIP3    H113566   0.843   0.318   0.941 -0.7813  1.1683  1.9179
 4520TIP3    H213567   0.977   0.351   0.878 -0.5326 -2.2225  0.4113
 4521TIP3   OH213568   2.227   3.656   3.699  0.6680  0.6062 -0.1282
 4521TIP3    H113569   2.281   3.658   3.777 -0.0930  0.1419  0.4269
 4521TIP3    H213570   2.149   3.706   3.722 -0.7485 -1.6897  0.3495
 4522TIP3   OH213571   2.436   2.820   3.977  0.2857 -0.4200 -0.3917
 4522TIP3    H113572   2.399   2.897   3.934 -0.3574 -0.4222  0.1552
 4522TIP3    H213573   2.375   2.799   4.047  1.4066 -0.3070  0.6627
 4523TIP3   OH213574   1.912   5.851   2.725 -0.4443  0.2370 -0.0057
 4523TIP3    H113575   1.964   5.793   2.670 -0.8805 -1.0750  0.8864
 4523TIP3    H213576   1.928   5.938   2.691 -0.5796 -0.4919 -2.1012
 4524TIP3   OH213577   0.679   3.190   3.586 -0.2750  0.0393 -0.2300
 4524TIP3    H113578   0.680   3.255   3.516  1.2554 -0.2568 -0.5184
 4524TIP3    H213579   0.772   3.174   3.605 -0.5971 -2.2273 -0.3464
 4525TIP3   OH213580   2.276   2.784   4.242  0.0948  0.7387 -0.1423
 4525TIP3    H113581   2.255   2.709   4.297  0.7715  1.0521  0.5669
 4525TIP3    H213582   2.352   2.825   4.284  0.4899  1.1279 -1.1803
 4526TIP3   OH213583   2.503   0.969   3.809 -0.0301 -0.1179  0.0962
 4526TIP3    H113584   2.560   0.939   3.738  0.3470  0.2824  0.2230
 4526TIP3    H213585   2.492   0.893   3.865  0.5798 -0.1431  0.1957
 4527TIP3   OH213586   1.974   5.207   2.765  0.4829  0.4850 -0.1256
 4527TIP3    H113587   1.880   5.199   2.781  0.5393  0.5292  0.2451
 4527TIP3    H213588   2.014   5.149   2.829  0.6350 -1.2319 -1.7078
 4528TIP3   OH213589   4.073   4.284   3.798 -0.5899  0.0161  0.2324
 4528TIP3    H113590   4.152   4.259   3.846 -0.2358 -0.5097 -0.6070
 4528TIP3    H213591   4.087   4.376   3.776 -0.0622 -0.1510 -0.1696
 4529TIP3   OH213592   5.878   2.095   2.001 -0.3625 -0.6973  0.3437
 4529TIP3    H113593   5.949   2.118   1.942 -0.7128 -1.3244 -0.3385
 4529TIP3    H213594   5.921   2.075   2.084 -0.0500  2.6759  1.1277
 4530TIP3   OH213595   0.941   3.260   3.678 -0.1287  0.1918 -0.4026
 4530TIP3    H113596   0.910   3.310   3.753 -0.5092  1.1166 -1.1494
 4530TIP3    H213597   1.009   3.203   3.713  0.1722  1.0898  0.5187
 4531TIP3   OH213598   5.412   3.690   4.096  0.2330 -0.0902 -0.0861
 4531TIP3    H113599   5.483   3.677   4.033  0.3353  0.9356 -0.2117
 4531TIP3    H213600   5.335   3.708   4.043  0.4226  1.2709  0.0595
 4532TIP3   OH213601   5.124   5.332   1.220  0.2218 -0.5949  0.4846
 4532TIP3    H113602   5.042   5.364   1.258  0.4177 -0.4220  0.7611
 4532TIP3    H213603   5.191   5.394   1.250  0.3273 -0.2516 -0.4258
 4533TIP3   OH213604   0.172   1.151   1.976  0.0007  0.5756 -0.9367
 4533TIP3    H113605   0.095   1.155   2.033 -0.7340 -0.7690 -1.7752
 4533TIP3    H213606   0.139   1.115   1.893  1.5729 -0.3069 -1.2201
 4534TIP3   OH213607   4.985   1.202   1.419 -0.1157 -0.8477  0.1210
 4534TIP3    H113608   5.011   1.230   1.507  1.3072 -3.3796  0.6264
 4534TIP3    H213609   4.898   1.166   1.430 -2.3396  3.5763 -0.6920
 4535TIP3   OH213610   5.052   1.872   0.643  0.1895 -0.2738  0.6266
 4535TIP3    H113611   5.064   1.930   0.567  0.2523 -1.0688  0.0199
 4535TIP3    H213612   4.967   1.831   0.628  0.7478 -1.3534  0.3596
 4536TIP3   OH213613   4.534   0.549   0.659  0.1644  0.0856 -0.3522
 4536TIP3    H113614   4.597   0.544   0.588 -0.4765 -0.2253 -0.9083
 4536TIP3    H213615   4.541   0.639   0.691  0.0760  0.3898 -1.1698
 4537TIP3   OH213616   5.421   4.497   2.600 -0.2959  0.0332  0.2728
 4537TIP3    H113617   5.492   4.472   2.541 -0.5139 -0.0064  0.0253
 4537TIP3    H213618   5.351   4.434   2.583 -0.4722  0.2001  0.3612
 4538TIP3   OH213619   4.206   1.800   2.947  0.1922  0.4409  0.3950
 4538TIP3    H113620   4.296   1.781   2.973 -0.3565 -1.4040  1.0550
 4538TIP3    H213621   4.166   1.715   2.933 -1.4954  1.2227  0.1916
 4539TIP3   OH213622   4.264   5.614   2.706 -0.0029 -0.3275 -0.2789
 4539TIP3    H113623   4.357   5.637   2.701  0.7019 -2.7237  0.4110
 4539TIP3    H213624   4.245   5.571   2.623  0.1111 -1.6976  0.3722
 4540TIP3   OH213625   6.329   4.739   1.149 -0.0502  0.2578 -0.1247
 4540TIP3    H113626   6.313   4.827   1.182 -1.2171 -0.5123  1.4791
 4540TIP3    H213627   6.262   4.725   1.082 -0.9224  0.0175  0.7810
 4541TIP3   OH213628   4.102   0.475   3.325 -0.4469 -0.6559  0.2414
 4541TIP3    H113629   4.104   0.569   3.309 -1.7416 -1.0181 -2.8215
 4541TIP3    H213630   4.010   0.456   3.343 -1.0491 -1.7158 -3.1814
 4542TIP3   OH213631   5.531   3.946   4.670 -0.1983 -0.2628 -0.4856
 4542TIP3    H113632   5.547   3.853   4.686  1.4558  0.0370 -0.2736
 4542TIP3    H213633   5.441   3.960   4.700 -0.6238 -1.8629 -0.8880
 4543TIP3   OH213634   2.787   5.730   5.042  0.3202  0.4379  0.4909
 4543TIP3    H113635   2.859   5.721   5.104  0.1557 -0.8270  0.5285
 4543TIP3    H213636   2.708   5.719   5.096  0.1268  0.8638  0.2987
 4544TIP3   OH213637   5.572   2.221   0.266 -0.4328  0.3921 -0.6575
 4544TIP3    H113638   5.555   2.276   0.343 -0.5398  1.1085 -1.1817
 4544TIP3    H213639   5.572   2.282   0.193  1.3223 -0.0372 -1.0604
 4545TIP3   OH213640   4.950   2.522   0.015 -0.3370 -0.0517 -0.3921
 4545TIP3    H113641   4.976   2.514  -0.077 -2.5831 -0.4621 -1.0519
 4545TIP3    H213642   5.012   2.466   0.062 -0.2936 -1.3442 -1.9016
 4546TIP3   OH213643   2.797   4.125   4.182  0.2304 -0.2608 -0.7523
 4546TIP3    H113644   2.811   4.089   4.270 -0.6918  0.4693 -0.2778
 4546TIP3    H213645   2.705   4.108   4.164  0.5426 -0.8797 -1.8238
 4547TIP3   OH213646   2.844   3.982   4.437 -0.2327  0.0969  0.4145
 4547TIP3    H113647   2.759   3.965   4.478 -2.9765  2.5255 -3.5705
 4547TIP3    H213648   2.879   3.895   4.419 -2.9260 -1.0856  0.3164
 4548TIP3   OH213649   0.180   0.107   2.541  0.1030 -0.3686 -0.1137
 4548TIP3    H113650   0.121   0.068   2.476  1.0126 -0.9224 -0.6220
 4548TIP3    H213651   0.266   0.073   2.519  0.6851  0.7253  0.4029
 4549TIP3   OH213652   1.406   4.297   3.667 -0.2117 -0.1120  0.4829
 4549TIP3    H113653   1.315   4.271   3.652 -0.4479  0.7210  0.3957
 4549TIP3    H213654   1.446   4.296   3.580 -0.4523  0.6306  0.3561
 4550TIP3   OH213655   0.771   2.364   3.180 -0.1033 -0.1056 -0.5556
 4550TIP3    H113656   0.836   2.324   3.238  1.0397 -1.7747 -2.7994
 4550TIP3    H213657   0.761   2.453   3.213  2.0181 -0.3249  0.9390
 4551TIP3   OH213658   4.532   3.429   3.904 -0.2032  0.0420 -0.7946
 4551TIP3    H113659   4.569   3.384   3.828  0.8974 -0.2892 -0.0894
 4551TIP3    H213660   4.575   3.388   3.979 -1.2813  0.3535  0.0138
 4552TIP3   OH213661   3.224   0.069   4.751 -0.5126  0.0688  0.3803
 4552TIP3    H113662   3.306   0.028   4.778 -0.7190 -1.1864 -0.7749
 4552TIP3    H213663   3.219   0.050   4.657 -1.7273  0.8419  0.2807
 4553TIP3   OH213664   2.704   2.053   0.437 -0.1891 -0.0229 -0.6566
 4553TIP3    H113665   2.768   2.018   0.499 -0.8662  0.0828  0.1137
 4553TIP3    H213666   2.628   2.074   0.490 -0.4934  0.8359 -1.3991
 4554TIP3   OH213667   2.152   2.371   5.137  0.1927  0.1343 -0.3537
 4554TIP3    H113668   2.063   2.391   5.166 -0.0547  0.7240 -1.4747
 4554TIP3    H213669   2.207   2.434   5.184  0.1377 -0.8040  1.0151
 4555TIP3   OH213670   2.335   5.722   0.204  0.5483 -0.5074  0.5931
 4555TIP3    H113671   2.283   5.793   0.244  1.2231  1.3072 -1.5578
 4555TIP3    H213672   2.424   5.758   0.200  1.5150 -2.5808  1.8739
 4556TIP3   OH213673   4.043   3.251   2.744  0.8607 -0.8234 -0.0767
 4556TIP3    H113674   4.081   3.208   2.668  2.0472  1.6551 -1.0033
 4556TIP3    H213675   4.117   3.262   2.804  0.7854  0.5254 -0.2028
 4557TIP3   OH213676   2.767   0.199   3.980 -0.0279  0.1716 -0.2903
 4557TIP3    H113677   2.690   0.219   3.928  1.6148  0.3403 -2.8559
 4557TIP3    H213678   2.745   0.118   4.026 -1.3551 -0.3962 -1.8316
 4558TIP3   OH213679   5.439   0.467   0.449 -0.1135  0.0890  0.3253
 4558TIP3    H113680   5.399   0.541   0.493 -1.2810  0.3008 -1.0175
 4558TIP3    H213681   5.429   0.486   0.356 -1.3719 -2.2126 -0.0767
 4559TIP3   OH213682   6.077   0.509   5.075 -0.1516 -0.2358  0.1724
 4559TIP3    H113683   6.024   0.485   5.000 -0.9832 -0.5424  0.8436
 4559TIP3    H213684   6.071   0.605   5.079  0.3966 -0.1683 -0.5026
 4560TIP3   OH213685   1.283   3.964   3.384 -0.3583  0.3166  0.7784
 4560TIP3    H113686   1.298   3.979   3.477 -0.1673  2.1241  0.5019
 4560TIP3    H213687   1.356   4.008   3.341 -0.7659  0.0230 -0.2439
 4561TIP3   OH213688   4.199   0.502   1.108  0.1034 -0.2208  0.0406
 4561TIP3    H113689   4.133   0.461   1.163 -0.9345 -0.1559 -1.1301
 4561TIP3    H213690   4.177   0.595   1.109  2.1322  0.3337  2.2556
 4562TIP3   OH213691   5.848   4.634   1.009  0.4719 -0.2236 -0.0694
 4562TIP3    H113692   5.847   4.671   1.097 -0.9455 -0.7287  0.1510
 4562TIP3    H213693   5.777   4.678   0.963  1.7142  0.6345 -1.2500
 4563TIP3   OH213694   1.614   3.779   4.432  0.1422 -0.2139 -0.1517
 4563TIP3    H113695   1.653   3.719   4.369  0.9775 -0.1035  0.2463
 4563TIP3    H213696   1.634   3.741   4.517  1.4135  1.0409  0.1424
 4564TIP3   OH213697   4.216   1.227   3.640  0.2869  0.2321 -0.0313
 4564TIP3    H113698   4.254   1.210   3.726 -2.7296 -0.1886  1.3605
 4564TIP3    H213699   4.163   1.149   3.621  0.7197  0.3920 -2.2271
 4565TIP3   OH213700   1.340   1.226   1.135 -0.0033  0.0801 -0.2885
 4565TIP3    H113701   1.397   1.296   1.103 -0.3539  1.1661  1.3041
 4565TIP3    H213702   1.282   1.207   1.062 -1.4405  3.1359 -0.1122
 4566TIP3   OH213703   5.883   3.881   4.826 -0.0096  0.0311 -0.7864
 4566TIP3    H113704   5.948   3.909   4.890  1.2469 -0.2947 -1.8682
 4566TIP3    H213705   5.807   3.855   4.879  1.3406 -1.2266  0.6608
 4567TIP3   OH213706   4.955   0.804   4.070 -0.3354 -0.1132 -0.2762
 4567TIP3    H113707   4.877   0.858   4.058 -0.7582 -0.8099 -0.7424
 4567TIP3    H213708   4.998   0.841   4.147 -0.6472  0.8418 -0.5468
 4568TIP3   OH213709   0.515   3.420   4.205 -0.3454 -0.0401 -0.0846
 4568TIP3    H113710   0.532   3.495   4.262  3.3489 -2.0578  1.8533
 4568TIP3    H213711   0.534   3.453   4.116 -0.9324  1.7983  0.4188
 4569TIP3   OH213712   1.196   4.765   0.437 -0.3527  0.2436 -0.2319
 4569TIP3    H113713   1.148   4.694   0.395  1.4386 -2.6716  2.1948
 4569TIP3    H213714   1.169   4.761   0.529  2.0913  0.6113  0.5677
 4570TIP3   OH213715   0.940   5.944   3.097  0.4335  0.2244  0.0459
 4570TIP3    H113716   0.965   5.983   3.013  0.3065 -1.1336 -0.6509
 4570TIP3    H213717   1.023   5.929   3.142  0.5622  0.0774 -0.2414
 4571TIP3   OH213718   5.088   3.047   1.400  0.2351 -0.4141 -0.4520
 4571TIP3    H113719   5.107   3.113   1.467  0.8943 -1.2935  0.2398
 4571TIP3    H213720   5.172   3.005   1.382  0.2402  0.2897 -2.4062
 4572TIP3   OH213721   0.758   4.087   0.623 -0.5242  0.0941  0.2986
 4572TIP3    H113722   0.679   4.052   0.665 -0.5153  0.1331  0.3479
 4572TIP3    H213723   0.829   4.034   0.659 -0.6702 -0.9408 -0.8529
 4573TIP3   OH213724   2.762   5.561   0.565 -0.2290  0.0027  0.4281
 4573TIP3    H113725   2.857   5.561   0.578 -0.1649 -2.6072  0.4788
 4573TIP3    H213726   2.751   5.578   0.471  0.2484  0.7664  0.5019
 4574TIP3   OH213727   5.805   2.816   2.607 -0.0045  0.0916 -0.3665
 4574TIP3    H113728   5.793   2.798   2.514  4.2678 -0.1290 -1.1046
 4574TIP3    H213729   5.812   2.911   2.613 -3.1653  0.3764  0.3356
 4575TIP3   OH213730   6.320   4.752   1.975  0.9524 -0.0384  0.0901
 4575TIP3    H113731   6.234   4.710   1.977 -0.7436  3.1742  1.1644
 4575TIP3    H213732   6.330   4.783   1.885  0.8205 -0.0848  0.0607
 4576TIP3   OH213733   1.761   2.916   2.430  0.4579 -0.2666 -0.1749
 4576TIP3    H113734   1.819   2.888   2.360  1.2715 -0.0164  0.3839
 4576TIP3    H213735   1.779   3.010   2.440  1.4042 -0.5701  1.3091
 4577TIP3   OH213736   1.572   0.186   2.378 -0.0406  0.3894  0.3747
 4577TIP3    H113737   1.662   0.186   2.410  1.4999 -1.1353 -3.3239
 4577TIP3    H213738   1.566   0.267   2.326 -1.1424  0.9025  1.2648
 4578TIP3   OH213739   5.945   3.630   3.608  0.0702  0.2366  0.5111
 4578TIP3    H113740   6.040   3.624   3.604  0.2784  2.2502  1.3550
 4578TIP3    H213741   5.915   3.539   3.615  1.9423 -0.3958  0.7002
 4579TIP3   OH213742   1.652   4.053   0.600 -0.0761  0.0859 -0.4091
 4579TIP3    H113743   1.647   3.992   0.674 -0.0285  0.6308  0.0515
 4579TIP3    H213744   1.561   4.070   0.577 -0.1044  0.4228 -0.0504
 4580TIP3   OH213745   6.106   1.071   3.114 -0.8697  0.5373  0.0458
 4580TIP3    H113746   6.131   1.101   3.201  0.3411 -0.1242 -0.0647
 4580TIP3    H213747   6.147   1.134   3.054  0.7318 -0.6281 -0.1393
 4581TIP3   OH213748   2.141   3.600   4.404 -0.2222 -0.6288  0.0127
 4581TIP3    H113749   2.230   3.625   4.377  0.4162 -3.2787 -0.6466
 4581TIP3    H213750   2.085   3.668   4.366  1.2863 -0.5193 -2.2334
 4582TIP3   OH213751   5.466   4.767   2.467  0.3657 -0.9092  0.1307
 4582TIP3    H113752   5.439   4.696   2.526  1.2172 -0.2977  1.2784
 4582TIP3    H213753   5.416   4.843   2.497  2.1959 -0.1277  1.3248
 4583TIP3   OH213754   4.581   0.041   1.878  0.1597 -0.9105 -0.4732
 4583TIP3    H113755   4.492   0.071   1.864 -0.0850 -1.4325 -0.0924
 4583TIP3    H213756   4.617   0.028   1.790  0.2171  0.2881 -0.6389
 4584TIP3   OH213757   2.967   3.713   3.825 -0.0785  0.2091 -0.0344
 4584TIP3    H113758   2.975   3.765   3.745 -3.5573 -0.7388 -1.1567
 4584TIP3    H213759   3.048   3.661   3.828  0.9110  1.5300 -1.9595
 4585TIP3   OH213760   6.367   2.839   1.068 -0.5634  0.2607 -0.8762
 4585TIP3    H113761   6.295   2.776   1.060 -0.5794  0.3962 -1.9574
 4585TIP3    H213762   6.341   2.912   1.012  0.2075  0.5224 -0.9027
 4586TIP3   OH213763   1.012   5.118   0.163 -0.4652 -0.5501  0.0137
 4586TIP3    H113764   1.065   5.039   0.174  0.6876 -0.1385 -2.1380
 4586TIP3    H213765   0.926   5.085   0.137  0.1382 -1.1418 -1.3547
 4587TIP3   OH213766   2.519   4.003   2.573  0.0362  0.3847 -0.1308
 4587TIP3    H113767   2.591   3.955   2.535  1.4476  1.8267  0.5823
 4587TIP3    H213768   2.554   4.091   2.589 -1.0510  0.4468  2.5637
 4588TIP3   OH213769   3.017   5.732   0.333 -0.5614  0.2622 -0.4114
 4588TIP3    H113770   3.038   5.821   0.360 -0.2261  0.3382 -0.8983
 4588TIP3    H213771   3.101   5.687   0.332 -0.8165 -0.2573  0.5085
 4589TIP3   OH213772   0.721   2.760   5.148  0.1756  0.4237 -0.7122
 4589TIP3    H113773   0.694   2.841   5.190  0.8119  0.9277 -1.2454
 4589TIP3    H213774   0.788   2.724   5.206 -0.1638  0.2385 -0.4351
 4590TIP3   OH213775   4.588   2.919   1.266 -0.0762  0.0074  0.8283
 4590TIP3    H113776   4.629   2.908   1.180  2.2062  1.4180  1.6495
 4590TIP3    H213777   4.535   2.998   1.257 -0.5353 -0.3320  0.4993
 4591TIP3   OH213778   5.775   3.189   1.053  0.8029  0.4860  0.8005
 4591TIP3    H113779   5.783   3.139   1.134  1.3371 -0.0277  0.4351
 4591TIP3    H213780   5.865   3.201   1.022  0.7205  2.0529  1.1024
 4592TIP3   OH213781   1.051   4.001   0.216  0.5900  0.2982  0.3810
 4592TIP3    H113782   0.956   4.003   0.210  0.5831  0.0681  0.4178
 4592TIP3    H213783   1.070   4.022   0.307  0.5560 -0.1895  0.5001
 4593TIP3   OH213784   4.956   5.795   1.966  0.6493  0.1766 -0.2924
 4593TIP3    H113785   5.034   5.814   1.914  0.5963 -1.4917 -1.0078
 4593TIP3    H213786   4.950   5.700   1.969 -1.4284  0.2562 -0.3376
 4594TIP3   OH213787   0.333   5.982   3.333  0.3057 -0.2974  0.1509
 4594TIP3    H113788   0.336   5.914   3.400  0.1089 -2.9426 -2.3552
 4594TIP3    H213789   0.241   5.985   3.306  0.7895 -1.2384 -1.7846
 4595TIP3   OH213790   3.823   4.228   4.964  0.0694 -0.2161 -1.0624
 4595TIP3    H113791   3.885   4.237   4.892 -0.2470 -0.0321 -1.3128
 4595TIP3    H213792   3.843   4.142   5.002  0.1683 -0.3563 -1.4335
 4596TIP3   OH213793   4.123   5.203   2.779 -0.6713  0.3180 -0.1089
 4596TIP3    H113794   4.110   5.120   2.733 -1.0712 -0.0992  0.7443
 4596TIP3    H213795   4.171   5.179   2.859 -0.7480  0.9155  0.1204
 4597TIP3   OH213796   2.079   3.168   1.019 -0.1291 -0.1270 -0.2200
 4597TIP3    H113797   1.996   3.215   1.012  0.0137  0.6284  2.1199
 4597TIP3    H213798   2.145   3.237   1.027  0.4698 -0.7168  0.0426
 4598TIP3   OH213799   3.306   5.590   1.446  0.4867 -0.0432  0.2261
 4598TIP3    H113800   3.345   5.549   1.523 -0.5416 -0.6581  0.4525
 4598TIP3    H213801   3.344   5.677   1.442 -0.0240  0.2913  1.9105
 4599TIP3   OH213802   1.187   5.023   2.147 -0.8868 -0.2746 -0.8342
 4599TIP3    H113803   1.252   5.015   2.217 -0.3228 -1.2764 -1.4629
 4599TIP3    H213804   1.121   5.082   2.183 -0.1536 -0.0598  0.2027
 4600TIP3   OH213805   5.371   3.630   2.547 -0.0937  0.0974  0.5901
 4600TIP3    H113806   5.414   3.688   2.610 -0.3633  0.4128  0.4862
 4600TIP3    H213807   5.440   3.568   2.521  0.7916  1.5703 -0.7813
 4601TIP3   OH213808   0.554   4.997   2.688 -0.5005  0.5797 -0.3402
 4601TIP3    H113809   0.524   5.033   2.772 -1.9916 -0.8557 -0.1950
 4601TIP3    H213810   0.488   5.026   2.625  0.4186  1.3418 -0.9666
 4602TIP3   OH213811   1.821   4.270   2.774 -0.0592  0.4712  0.0855
 4602TIP3    H113812   1.826   4.319   2.856  2.1274 -0.0202  0.3028
 4602TIP3    H213813   1.770   4.192   2.795  1.4486 -0.2132  1.3047
 4603TIP3   OH213814   1.938   4.596   1.035 -0.1783  0.3805  0.0094
 4603TIP3    H113815   1.897   4.546   0.964 -1.1844  1.2071 -0.0161
 4603TIP3    H213816   1.998   4.656   0.990 -1.5668  1.6256 -0.2802
 4604TIP3   OH213817   2.375   5.453   1.348  0.1524 -0.4753  0.0756
 4604TIP3    H113818   2.460   5.456   1.392 -0.5581  0.1814  1.4463
 4604TIP3    H213819   2.395   5.481   1.258  1.4061 -0.4539  0.3311
 4605TIP3   OH213820   3.184   1.379   3.148  0.8067  0.4505 -0.1558
 4605TIP3    H113821   3.158   1.467   3.176  0.2550  0.0033  0.7962
 4605TIP3    H213822   3.273   1.368   3.182  0.0003 -0.2337  1.8793
 4606TIP3   OH213823   5.646   4.905   4.032  0.0882  0.2920  0.5082
 4606TIP3    H113824   5.591   4.827   4.025  1.6407 -0.8109  0.0425
 4606TIP3    H213825   5.593   4.966   4.084 -0.8804 -1.3504  1.5845
 4607TIP3   OH213826   5.047   0.262   4.235  0.1952 -0.3395 -0.1350
 4607TIP3    H113827   5.030   0.168   4.224 -0.3974  0.0646 -5.4403
 4607TIP3    H213828   5.141   0.272   4.220  0.4020 -0.0675  1.1901
 4608TIP3   OH213829   1.401   3.808   4.795  0.9178 -0.0384  0.4234
 4608TIP3    H113830   1.490   3.843   4.789  0.2761  1.6027  0.1973
 4608TIP3    H213831   1.346   3.873   4.753 -0.4618 -0.8600  0.8793
 4609TIP3   OH213832   4.133   0.044   4.610 -0.0774  0.2325 -0.3746
 4609TIP3    H113833   4.072   0.118   4.614 -1.2842 -0.8018  2.6515
 4609TIP3    H213834   4.078  -0.033   4.598  1.0411 -0.3951 -1.8550
 4610TIP3   OH213835   0.094   0.156   1.554 -0.6173 -0.2852 -0.2932
 4610TIP3    H113836   0.078   0.067   1.523  0.4093 -0.2938 -0.8349
 4610TIP3    H213837   0.116   0.205   1.475  2.3329 -0.3754  0.3848
 4611TIP3   OH213838   0.601   1.395   3.192  0.9841 -0.0338  0.5240
 4611TIP3    H113839   0.691   1.420   3.170 -0.1228  3.2032 -1.0463
 4611TIP3    H213840   0.565   1.473   3.236 -1.6924 -0.2448 -1.0652
 4612TIP3   OH213841   6.095   0.753   1.042  0.2129  0.1334 -0.0367
 4612TIP3    H113842   6.092   0.833   1.096 -3.2527 -1.1407  2.0159
 4612TIP3    H213843   6.169   0.704   1.077  0.0268  0.7925  1.3807
 4613TIP3   OH213844   1.878   1.753   0.962 -0.2170 -0.0271  0.0168
 4613TIP3    H113845   1.968   1.750   0.930  0.2091  1.0622  1.0237
 4613TIP3    H213846   1.871   1.838   1.005 -1.9595  0.2178 -0.6686
 4614TIP3   OH213847   0.867   0.717   0.553  0.3987 -0.5029  0.1614
 4614TIP3    H113848   0.822   0.648   0.602 -0.4981  0.2755  0.4729
 4614TIP3    H213849   0.891   0.781   0.620 -0.6435  0.4678 -0.3619
 4615TIP3   OH213850   1.497   2.112   0.089  0.6666  0.1888 -0.4094
 4615TIP3    H113851   1.503   2.165   0.168  1.9863  0.8835 -0.9412
 4615TIP3    H213852   1.553   2.036   0.106 -1.8553 -1.5602  0.6708
 4616TIP3   OH213853   6.085   1.410   3.913  0.8025 -0.2550  0.3957
 4616TIP3    H113854   6.103   1.390   4.005  1.6481 -1.4447  0.0037
 4616TIP3    H213855   6.151   1.476   3.890  0.0267  0.6963  0.8651
 4617TIP3   OH213856   2.129   1.770   0.861  0.3457  0.2530 -0.4678
 4617TIP3    H113857   2.190   1.758   0.935 -0.1086  0.3860 -0.0673
 4617TIP3    H213858   2.162   1.711   0.793  0.4243 -0.3185  0.0570
 4618TIP3   OH213859   4.555   3.903   3.909 -0.4773 -0.1188  0.3908
 4618TIP3    H113860   4.475   3.912   3.857  0.4766  1.6049 -0.9071
 4618TIP3    H213861   4.607   3.839   3.861 -0.1275  0.5359 -0.1387
 4619TIP3   OH213862   6.089   4.957   1.850 -0.4328 -0.4821 -0.4892
 4619TIP3    H113863   6.108   5.043   1.889 -0.9332  0.0022 -1.2878
 4619TIP3    H213864   6.051   4.907   1.922  0.3814 -0.2355  0.1404
 4620TIP3   OH213865   3.020   3.853   3.595 -0.1374  0.4240  0.2902
 4620TIP3    H113866   2.997   3.946   3.596 -1.6820  0.0657  1.1146
 4620TIP3    H213867   3.115   3.852   3.586 -0.2653  2.0276 -2.5278
 4621TIP3   OH213868   0.978   4.646   0.340  0.6169  0.1217  0.6719
 4621TIP3    H113869   0.954   4.656   0.248  1.0570  0.4011  0.5787
 4621TIP3    H213870   0.928   4.714   0.385  2.2674  1.6894  0.2801
 4622TIP3   OH213871   3.852   2.263   2.264 -0.4808  0.4988 -0.9550
 4622TIP3    H113872   3.806   2.263   2.348 -0.2479  1.1846 -0.8168
 4622TIP3    H213873   3.827   2.181   2.223 -0.0475 -0.1691  0.0773
 4623TIP3   OH213874   5.685   0.547   0.268 -0.4188  0.0114 -0.1287
 4623TIP3    H113875   5.720   0.576   0.184  0.1585  1.7035  0.6469
 4623TIP3    H213876   5.600   0.590   0.275 -0.6408 -0.4464 -0.0317
 4624TIP3   OH213877   5.622   2.137   3.914 -0.7208  0.5156  0.4446
 4624TIP3    H113878   5.545   2.151   3.859 -0.1458 -0.2300 -0.6010
 4624TIP3    H213879   5.588   2.133   4.003 -1.7803  1.0184  0.0806
 4625TIP3   OH213880   3.364   0.250   4.299  0.3785  0.0651 -0.1060
 4625TIP3    H113881   3.398   0.340   4.303  0.3917  0.0935 -0.7910
 4625TIP3    H213882   3.283   0.254   4.350  0.4797  0.4211  0.0346
 4626TIP3   OH213883   1.228   4.735   2.391 -0.1378 -0.0998  0.2580
 4626TIP3    H113884   1.224   4.704   2.301  0.2431 -2.0211  0.8489
 4626TIP3    H213885   1.322   4.737   2.411 -0.1775  1.0720  0.3846
 4627TIP3   OH213886   4.023   4.046   1.397  0.5098  0.0346  0.5609
 4627TIP3    H113887   4.005   4.133   1.433 -0.0613  0.3453 -0.4222
 4627TIP3    H213888   3.953   3.991   1.432 -1.4296  0.8289 -1.7458
 4628TIP3   OH213889   5.592   0.557   4.226 -0.3084 -0.5472 -0.4175
 4628TIP3    H113890   5.548   0.619   4.285 -0.2164 -0.7928 -0.0913
 4628TIP3    H213891   5.655   0.512   4.281 -0.5536 -1.1135 -0.5980
 4629TIP3   OH213892   4.352   4.975   3.581 -0.1891 -0.3671 -0.3713
 4629TIP3    H113893   4.296   4.950   3.654  3.6130 -0.4470  2.8772
 4629TIP3    H213894   4.363   5.069   3.589 -2.3532  0.2578 -3.1247
 4630TIP3   OH213895   1.341   3.733   0.734  0.2677  0.6952  0.1307
 4630TIP3    H113896   1.436   3.739   0.726  0.1970  0.3019 -1.3789
 4630TIP3    H213897   1.317   3.806   0.790  1.4854  0.5968  0.8197
 4631TIP3   OH213898   1.252   2.309   4.505  0.4758  0.2682  0.2767
 4631TIP3    H113899   1.185   2.246   4.531  0.3657  0.4206  0.3592
 4631TIP3    H213900   1.318   2.256   4.460  0.6346  0.0171  0.8018
 4632TIP3   OH213901   4.762   2.818   4.802 -0.0394 -0.0365  0.5608
 4632TIP3    H113902   4.718   2.763   4.737 -1.3718  2.3155 -0.6689
 4632TIP3    H213903   4.833   2.763   4.836 -1.2794 -2.4763 -0.5254
 4633TIP3   OH213904   3.335   4.611   0.451  0.1945 -0.2098  0.4770
 4633TIP3    H113905   3.395   4.683   0.471  2.2296 -1.8537  0.6167
 4633TIP3    H213906   3.347   4.549   0.523 -1.2407 -0.8612  0.1805
 4634TIP3   OH213907   3.824   1.985   3.774 -0.4733  0.4060 -0.4288
 4634TIP3    H113908   3.898   2.023   3.822  0.2160 -0.2708 -0.9341
 4634TIP3    H213909   3.748   2.032   3.807  0.2177  1.3622 -0.1469
 4635TIP3   OH213910   6.242   3.049   1.287  0.0725 -0.4487  0.2559
 4635TIP3    H113911   6.202   2.962   1.287 -0.8386 -0.0636 -1.3796
 4635TIP3    H213912   6.283   3.057   1.201  0.7292  0.4930  0.6343
 4636TIP3   OH213913   6.256   3.902   3.379  0.4664 -0.0587 -0.4877
 4636TIP3    H113914   6.347   3.917   3.405  0.4702  0.9109 -1.0155
 4636TIP3    H213915   6.247   3.950   3.296 -0.2704 -0.9001 -0.9132
 4637TIP3   OH213916   5.775   1.435   0.083  0.3299  0.4395  0.0094
 4637TIP3    H113917   5.743   1.500   0.020  0.8070  0.4786 -0.1941
 4637TIP3    H213918   5.758   1.350   0.041 -1.6379  0.3475  0.8900
 4638TIP3   OH213919   4.402   5.550   0.891 -0.2799 -0.5060  0.9975
 4638TIP3    H113920   4.338   5.571   0.959  0.8981 -3.3695  3.2096
 4638TIP3    H213921   4.361   5.479   0.840 -0.3345  0.2409 -0.0292
 4639TIP3   OH213922   5.563   5.802   3.512  0.3982  0.5186 -0.2301
 4639TIP3    H113923   5.649   5.777   3.477 -0.2436  0.4592 -1.8956
 4639TIP3    H213924   5.535   5.726   3.564 -0.0783 -0.9522 -2.4719
 4640TIP3   OH213925   2.469   5.904   0.820 -0.2571 -0.1631 -0.0988
 4640TIP3    H113926   2.503   5.840   0.758  3.7682  0.5822  1.0307
 4640TIP3    H213927   2.435   5.975   0.766  1.4486 -0.3446 -1.5020
 4641TIP3   OH213928   4.426   3.624   0.228  0.2468 -0.8010 -0.1481
 4641TIP3    H113929   4.335   3.635   0.200 -0.7690  1.9867  3.5449
 4641TIP3    H213930   4.469   3.706   0.203  0.6762 -0.5008  1.4783
 4642TIP3   OH213931   2.899   5.141   1.338 -0.3520 -0.3316  0.6317
 4642TIP3    H113932   2.945   5.061   1.314  1.4039  1.1628 -1.4237
 4642TIP3    H213933   2.959   5.185   1.399 -0.3479  0.3321  0.1554
 4643TIP3   OH213934   0.143   3.946   3.180 -0.4946  0.3759  0.4207
 4643TIP3    H113935   0.223   3.955   3.233 -0.3669  0.1433  0.2691
 4643TIP3    H213936   0.132   3.851   3.169 -1.5308  0.3382  1.5630
 4644TIP3   OH213937   0.616   5.674   4.888 -0.1416 -0.5434  0.6560
 4644TIP3    H113938   0.573   5.759   4.899 -0.6022 -0.8585  1.4039
 4644TIP3    H213939   0.705   5.695   4.863 -0.1377  0.1772  1.2359
 4645TIP3   OH213940   4.082   5.378   2.606  0.4066 -0.3711 -0.0923
 4645TIP3    H113941   4.112   5.304   2.660 -0.3310 -0.8767 -0.3536
 4645TIP3    H213942   4.142   5.378   2.531 -0.7358 -1.9745 -1.0953
 4646TIP3   OH213943   4.003   1.211   2.855  0.1600  0.1851 -0.3521
 4646TIP3    H113944   3.936   1.279   2.843  1.9731  1.9532 -1.1560
 4646TIP3    H213945   3.999   1.189   2.948 -0.6804  1.2188 -0.1291
 4647TIP3   OH213946   5.993   5.098   2.143  0.1446  0.5117  0.6872
 4647TIP3    H113947   5.941   5.040   2.198 -1.2633  1.0075 -0.0806
 4647TIP3    H213948   5.929   5.143   2.087  1.4404  0.6831 -0.7327
 4648TIP3   OH213949   5.938   4.112   0.698  0.0070  0.3655 -0.3034
 4648TIP3    H113950   5.874   4.059   0.746  0.1594  1.8082  1.5887
 4648TIP3    H213951   6.015   4.115   0.756  0.0404  2.5376 -0.3808
 4649TIP3   OH213952   5.172   1.962   2.017 -0.1290 -0.0922 -0.1973
 4649TIP3    H113953   5.193   1.961   1.923  0.7575 -1.0479 -0.0058
 4649TIP3    H213954   5.080   1.937   2.021 -0.4697  0.9863 -0.8691
 4650TIP3   OH213955   4.954   4.614   2.143 -0.1244  0.3478 -0.4617
 4650TIP3    H113956   4.949   4.570   2.059  0.0470  0.3556 -0.4767
 4650TIP3    H213957   5.043   4.596   2.175 -0.3766 -0.1348 -0.0194
 4651TIP3   OH213958   5.972   4.313   4.329 -0.4813 -0.0036 -0.4093
 4651TIP3    H113959   5.881   4.344   4.321 -0.8175 -0.6573  0.6402
 4651TIP3    H213960   6.025   4.384   4.293 -1.3176  1.1670  0.5909
 4652TIP3   OH213961   0.748   0.002   1.530  0.3412 -0.3655  0.3859
 4652TIP3    H113962   0.695   0.057   1.472  0.0461  0.2206  1.1905
 4652TIP3    H213963   0.699   0.000   1.613 -0.1735 -2.6563  0.1015
 4653TIP3   OH213964   4.570   1.038   1.139  0.1150 -0.2078 -0.9554
 4653TIP3    H113965   4.475   1.040   1.148  0.2156 -0.1995  0.1967
 4653TIP3    H213966   4.602   1.096   1.208  0.9329  0.4569 -1.8699
 4654TIP3   OH213967   2.591   1.106   2.536  0.1095  0.3130  0.1395
 4654TIP3    H113968   2.567   1.050   2.609  0.3063 -0.7048 -0.5536
 4654TIP3    H213969   2.573   1.053   2.458 -0.3352  1.4560 -0.5673
 4655TIP3   OH213970   0.351   1.030   2.138  0.3012  0.2026 -0.5379
 4655TIP3    H113971   0.287   0.966   2.168  0.7102  1.0159  2.4042
 4655TIP3    H213972   0.303   1.086   2.078 -2.0800  1.2376  2.0970
 4656TIP3   OH213973   0.422   5.763   3.493 -0.8156 -0.8817  0.6965
 4656TIP3    H113974   0.333   5.739   3.521 -0.7015 -1.9567  0.1668
 4656TIP3    H213975   0.438   5.710   3.415 -0.5199  0.8846 -0.5093
 4657TIP3   OH213976   3.043   0.398   1.758  0.1013 -0.0563  0.4112
 4657TIP3    H113977   2.953   0.378   1.781 -0.0405  0.4500  0.3235
 4657TIP3    H213978   3.086   0.417   1.841  0.1595 -0.4147  0.4644
 4658TIP3   OH213979   1.522   4.365   0.646 -0.0972  0.0644  0.0733
 4658TIP3    H113980   1.442   4.327   0.611  0.6145  0.2814 -1.8788
 4658TIP3    H213981   1.496   4.453   0.676 -1.2530 -1.0242  2.5476
 4659TIP3   OH213982   0.850   5.973   0.750 -0.7358 -0.3773  0.4074
 4659TIP3    H113983   0.793   6.026   0.807 -1.7107 -1.5220  0.5374
 4659TIP3    H213984   0.842   5.884   0.785  0.3929 -0.7253 -0.1829
 4660TIP3   OH213985   1.418   2.689   0.898 -0.2878 -0.3854  0.3056
 4660TIP3    H113986   1.496   2.737   0.872  0.8333 -2.3948 -0.2602
 4660TIP3    H213987   1.373   2.748   0.960  1.1768  1.1822 -0.0423
 4661TIP3   OH213988   1.011   4.488   4.511 -0.2473 -0.2862  0.3237
 4661TIP3    H113989   1.026   4.523   4.423 -0.0320  1.2375  0.9193
 4661TIP3    H213990   0.946   4.548   4.549 -1.2474 -1.6187  0.8170
 4662TIP3   OH213991   3.144   2.594   1.332  0.1417  0.1964  0.1805
 4662TIP3    H113992   3.195   2.600   1.412 -0.8228 -0.0788  0.8283
 4662TIP3    H213993   3.063   2.640   1.351  0.1306  0.6334 -0.8362
 4663TIP3   OH213994   1.810   2.016   4.843  0.5385 -0.6417 -0.0065
 4663TIP3    H113995   1.905   2.020   4.833  0.5111 -0.6229 -0.2548
 4663TIP3    H213996   1.784   2.106   4.861  0.5389 -0.6067 -0.1851
 4664TIP3   OH213997   1.448   3.432   2.043 -0.1541  0.2936 -0.3663
 4664TIP3    H113998   1.481   3.443   2.132  0.8884  1.8945 -0.9054
 4664TIP3    H213999   1.353   3.429   2.053 -0.0131 -0.5346  0.8847
 4665TIP3   OH214000   3.264   2.107   3.360  0.4481 -0.0691 -0.4049
 4665TIP3    H114001   3.242   2.079   3.271  0.6866  0.0679 -0.5082
 4665TIP3    H214002   3.272   2.202   3.353 -0.2010  0.0085 -0.0902
 4666TIP3   OH214003   1.381   2.305   2.286 -0.0970  0.6872  0.0835
 4666TIP3    H114004   1.474   2.315   2.304  0.2755  1.6397 -2.1111
 4666TIP3    H214005   1.345   2.394   2.294 -0.7131  0.4185  0.3744
 4667TIP3   OH214006   1.926   2.257   1.585 -0.7086  0.1564  0.2001
 4667TIP3    H114007   1.841   2.298   1.601 -0.9725  1.1213 -3.0506
 4667TIP3    H214008   1.914   2.166   1.612 -2.4436  0.5056  0.7225
 4668TIP3   OH214009   5.750   5.809   2.135 -0.0071  0.2576  0.2432
 4668TIP3    H114010   5.734   5.893   2.092  0.1790  0.2144  0.0889
 4668TIP3    H214011   5.810   5.763   2.076  0.0997  0.1215  0.4559
 4669TIP3   OH214012   1.016   4.074   3.369  0.8071 -0.0139  0.4840
 4669TIP3    H114013   1.010   4.157   3.321 -0.4969 -0.5960 -0.4021
 4669TIP3    H214014   1.101   4.038   3.344  1.2381  0.8805  0.6152
 4670TIP3   OH214015   2.236   4.235   3.345 -0.8993 -0.0583 -0.2693
 4670TIP3    H114016   2.303   4.176   3.379  0.2226 -0.6970 -3.2859
 4670TIP3    H214017   2.231   4.305   3.410  1.3078 -0.9625  0.9884
 4671TIP3   OH214018   1.679   4.022   0.113  0.3756  0.5439 -1.0537
 4671TIP3    H114019   1.587   4.005   0.134  1.3078 -1.8301  1.7367
 4671TIP3    H214020   1.695   4.110   0.149 -0.6117  0.6835 -0.9067
 4672TIP3   OH214021   5.819   2.154   0.053  0.1244 -0.3049 -0.1445
 4672TIP3    H114022   5.826   2.222   0.119 -0.1262 -2.6161  2.4539
 4672TIP3    H214023   5.746   2.181  -0.002 -0.3267  1.2384  1.1462
 4673TIP3   OH214024   2.745   1.785   1.087 -0.2071 -1.0179 -0.1186
 4673TIP3    H114025   2.667   1.816   1.043  0.1682  0.7534  0.3983
 4673TIP3    H214026   2.743   1.827   1.173  1.1322 -1.2011  0.0287
 4674TIP3   OH214027   0.595   2.042   0.294 -0.2428 -0.3077 -0.5971
 4674TIP3    H114028   0.615   2.080   0.209  0.0452  2.5599  0.6400
 4674TIP3    H214029   0.525   1.978   0.276  0.3070 -0.3361 -3.0236
 4675TIP3   OH214030   2.069   0.889   4.175  0.0870  0.2109 -0.3380
 4675TIP3    H114031   2.143   0.942   4.146  0.0497 -0.4532 -1.6979
 4675TIP3    H214032   2.045   0.836   4.099 -0.1693 -1.4447  0.8317
 4676TIP3   OH214033   4.362   2.124   2.253  0.2011 -0.7156 -0.7204
 4676TIP3    H114034   4.281   2.078   2.273  0.2293 -0.1159  0.8881
 4676TIP3    H214035   4.388   2.090   2.167 -1.8748 -0.7006 -1.4100
 4677TIP3   OH214036   4.353   5.476   4.961  0.5794  0.0777  0.0252
 4677TIP3    H114037   4.307   5.466   4.877  0.6536  2.8096 -0.4406
 4677TIP3    H214038   4.286   5.510   5.021  0.7461 -1.0312  0.8857
 4678TIP3   OH214039   5.559   3.986   3.664  0.6318  0.2629 -0.5850
 4678TIP3    H114040   5.490   3.998   3.729  0.4471  2.5740 -1.1440
 4678TIP3    H214041   5.632   4.039   3.697  0.8356  0.7754 -1.8431
 4679TIP3   OH214042   5.647   4.286   0.666  0.0120  0.0338 -0.6938
 4679TIP3    H114043   5.678   4.322   0.749  1.7687 -0.5829 -1.0378
 4679TIP3    H214044   5.723   4.290   0.608 -1.2012  0.5838 -2.3483
 4680TIP3   OH214045   0.777   0.782   4.197  0.0296  0.0324 -0.3515
 4680TIP3    H114046   0.850   0.802   4.138  0.1425 -0.2352 -0.3047
 4680TIP3    H214047   0.700   0.785   4.140 -0.0470  1.2720 -0.2105
 4681TIP3   OH214048   5.814   0.272   0.079  0.3214 -0.2553  0.4132
 4681TIP3    H114049   5.896   0.256   0.033  0.4887 -0.0845  0.6480
 4681TIP3    H214050   5.757   0.310   0.013 -0.3623 -2.5014 -0.3766
 4682TIP3   OH214051   2.252   0.683   2.824  0.3001  0.5287  0.2238
 4682TIP3    H114052   2.273   0.765   2.869 -1.0994 -0.0438  2.0042
 4682TIP3    H214053   2.163   0.697   2.790  0.2227 -0.0856  0.1642
 4683TIP3   OH214054   5.799   5.167   4.721 -0.0429  0.0670 -0.1874
 4683TIP3    H114055   5.728   5.228   4.699 -0.5285 -0.0803  0.8867
 4683TIP3    H214056   5.757   5.081   4.722 -0.0107  0.0463  1.0525
 4684TIP3   OH214057   5.898   1.962   4.170  0.1054  0.1741  0.0773
 4684TIP3    H114058   5.896   2.054   4.194  1.0114 -0.0990  1.2885
 4684TIP3    H214059   5.870   1.960   4.078 -3.8600  1.2176  1.0897
 4685TIP3   OH214060   0.312   2.217   4.141  0.1564  0.3419  0.5324
 4685TIP3    H114061   0.264   2.235   4.060  0.4990  0.1928  0.2888
 4685TIP3    H214062   0.257   2.157   4.190  0.2345 -0.0759  0.1138
 4686TIP3   OH214063   3.230   0.854   0.966  0.6195  0.0203 -0.1882
 4686TIP3    H114064   3.267   0.941   0.982  0.2693  0.2346 -0.5418
 4686TIP3    H214065   3.297   0.794   0.998  1.1382  0.4120 -0.5230
 4687TIP3   OH214066   1.045   0.558   2.930 -0.4692  0.1195  0.1132
 4687TIP3    H114067   0.988   0.628   2.961  0.7542  1.7578 -1.1396
 4687TIP3    H214068   1.087   0.524   3.009 -1.9237 -0.0042  0.8657
 4688TIP3   OH214069   2.734   0.324   1.807  0.2378  0.8160  0.3318
 4688TIP3    H114070   2.710   0.347   1.717  3.4962 -1.7962 -1.4802
 4688TIP3    H214071   2.685   0.244   1.825  1.5251 -0.1665 -0.3026
 4689TIP3   OH214072   0.549   0.830   2.997 -0.8849  0.5935  0.0630
 4689TIP3    H114073   0.488   0.861   2.930 -0.6056  0.4705 -0.2536
 4689TIP3    H214074   0.516   0.866   3.079 -2.3157 -0.7965  0.1518
 4690TIP3   OH214075   5.883   5.675   1.858  0.0686  0.0606  0.2657
 4690TIP3    H114076   5.947   5.650   1.924  0.0127 -0.3081  0.1839
 4690TIP3    H214077   5.898   5.769   1.843 -0.3513  0.3015  1.2782
 4691TIP3   OH214078   2.248   0.400   4.820 -0.1960 -0.0099  0.2189
 4691TIP3    H114079   2.245   0.472   4.758  1.1550  0.8842  1.1345
 4691TIP3    H214080   2.169   0.410   4.872  0.0948  0.9851  0.4910
 4692TIP3   OH214081   2.353   4.408   1.801  0.2703 -0.0706 -0.5333
 4692TIP3    H114082   2.304   4.390   1.881 -2.6278  2.2230 -1.6031
 4692TIP3    H214083   2.397   4.491   1.818  1.4936 -0.6873 -0.5967
 4693TIP3   OH214084   3.443   2.146   2.646 -0.1425 -0.1902 -0.3033
 4693TIP3    H114085   3.453   2.128   2.552  0.8316 -0.3161 -0.1899
 4693TIP3    H214086   3.414   2.063   2.683 -2.2386  0.3025 -0.7127
 4694TIP3   OH214087   3.020   1.759   3.000  0.7206 -0.2456  0.2135
 4694TIP3    H114088   2.962   1.826   2.965  0.1968 -0.1500  1.2187
 4694TIP3    H214089   2.997   1.679   2.953  1.2846  0.2446 -0.9234
 4695TIP3   OH214090   0.657   0.503   2.727 -0.2536 -0.7461 -0.0394
 4695TIP3    H114091   0.690   0.584   2.688  0.1220 -0.5194  0.7331
 4695TIP3    H214092   0.562   0.515   2.731 -0.2885 -0.7374 -0.7917
 4696TIP3   OH214093   2.923   1.504   1.510  0.7234  0.0012  0.7654
 4696TIP3    H114094   3.011   1.540   1.497  1.0756 -0.2838  2.2339
 4696TIP3    H214095   2.936   1.420   1.553 -0.2186 -0.7402 -0.3344
 4697TIP3   OH214096   1.405   1.043   3.954  0.3839 -0.2837  0.2369
 4697TIP3    H114097   1.435   1.088   3.876  1.2214 -1.4662 -0.1488
 4697TIP3    H214098   1.485   1.024   4.003  0.2942 -2.8613 -0.4656
 4698TIP3   OH214099   1.458   5.605   2.585 -0.0618 -0.0809  0.0719
 4698TIP3    H114100   1.458   5.699   2.563 -0.4736 -0.1056 -0.0332
 4698TIP3    H214101   1.416   5.563   2.510 -0.0538 -0.3334  0.2087
 4699TIP3   OH214102   5.114   2.632   4.521  0.3958  0.2570  0.0953
 4699TIP3    H114103   5.170   2.618   4.598 -1.4695  0.0521  1.4909
 4699TIP3    H214104   5.031   2.590   4.544 -1.5453  3.5002 -0.3488
 4700TIP3   OH214105   5.475   4.347   3.973 -0.5311  0.3126  0.4410
 4700TIP3    H114106   5.493   4.288   4.046 -1.6486 -1.1471 -0.4259
 4700TIP3    H214107   5.380   4.357   3.972 -0.9385 -2.2796 -2.6600
 4701TIP3   OH214108   1.507   4.107   1.167 -0.2329  0.2830  0.3825
 4701TIP3    H114109   1.518   4.189   1.118 -0.1692 -0.8059 -1.5537
 4701TIP3    H214110   1.412   4.094   1.172 -0.2708  0.9227  1.5221
 4702TIP3   OH214111   0.641   1.635   2.937  0.2308 -0.2229  0.1106
 4702TIP3    H114112   0.720   1.664   2.983 -0.0913  1.6622 -0.4470
 4702TIP3    H214113   0.670   1.624   2.846  0.0638 -0.5161  0.0898
 4703TIP3   OH214114   2.669   1.022   2.931 -0.1072 -0.4279  0.1357
 4703TIP3    H114115   2.704   0.941   2.894 -0.5860 -0.2837 -0.6525
 4703TIP3    H214116   2.606   0.993   2.997 -0.5050 -0.6992 -0.3626
 4704TIP3   OH214117   5.482   3.343   4.860  0.2160  0.7675  0.3056
 4704TIP3    H114118   5.466   3.337   4.955  0.8070  0.5136  0.3943
 4704TIP3    H214119   5.505   3.254   4.834  1.6786  1.1433  0.2357
 4705TIP3   OH214120   4.791   4.905   2.076 -0.4012 -0.1126  0.0769
 4705TIP3    H114121   4.802   4.962   2.153 -0.5665  0.3513 -0.2399
 4705TIP3    H214122   4.880   4.893   2.043 -0.3401 -0.2322  0.2824
 4706TIP3   OH214123   2.241   5.774   1.254 -0.2449  0.3253  0.4157
 4706TIP3    H114124   2.167   5.833   1.261 -1.4935 -0.6580 -2.7623
 4706TIP3    H214125   2.248   5.754   1.160  1.5491 -2.7283  1.0434
 4707TIP3   OH214126   0.295   2.129   3.353  0.0306 -0.0360 -0.0692
 4707TIP3    H114127   0.378   2.129   3.304  0.3645  0.9630  0.4591
 4707TIP3    H214128   0.286   2.219   3.384 -1.5122 -0.0019 -0.5265
 4708TIP3   OH214129   0.127   3.597   3.450  0.0408 -0.1342 -0.4947
 4708TIP3    H114130   0.049   3.572   3.401 -0.0535  2.4918 -1.8871
 4708TIP3    H214131   0.199   3.556   3.402 -0.3857 -1.7413  0.2051
 4709TIP3   OH214132   3.560   0.343   1.141  0.2836 -0.1865  0.0837
 4709TIP3    H114133   3.470   0.358   1.110  0.6349 -1.2340 -1.5705
 4709TIP3    H214134   3.609   0.419   1.109  0.3066 -0.4458 -0.5220
 4710TIP3   OH214135   2.243   0.154   2.759 -0.0045  0.1913 -0.5436
 4710TIP3    H114136   2.330   0.171   2.724 -0.1117  1.6869 -0.1535
 4710TIP3    H214137   2.184   0.207   2.705 -0.5876 -0.2933 -0.3932
 4711TIP3   OH214138   1.084   3.826   1.604 -0.1210 -0.2225  0.2444
 4711TIP3    H114139   1.159   3.767   1.594  0.9945  0.9495  1.2903
 4711TIP3    H214140   1.045   3.802   1.688 -1.0126 -0.8987 -0.3453
 4712TIP3   OH214141   1.055   3.893   1.869  0.1084 -0.4972  0.8038
 4712TIP3    H114142   1.105   3.883   1.950 -0.0615  1.8025  1.2529
 4712TIP3    H214143   1.081   3.979   1.835  1.0289 -1.8209 -2.2291
 4713TIP3   OH214144   2.536   3.531   5.158 -0.4577  0.1639  0.3520
 4713TIP3    H114145   2.458   3.483   5.131 -0.1170 -1.0272  1.3509
 4713TIP3    H214146   2.586   3.467   5.209 -0.4261  1.8623  2.5804
 4714TIP3   OH214147   1.397   2.821   3.896  0.2277 -0.2537 -0.0312
 4714TIP3    H114148   1.330   2.814   3.828 -1.1997  0.1888  1.2798
 4714TIP3    H214149   1.428   2.911   3.890  0.7515 -0.4634 -0.6493
 4715TIP3   OH214150   3.087   0.919   1.348  0.0449  0.6390  0.3825
 4715TIP3    H114151   3.004   0.874   1.331  0.9056 -1.1387  0.6544
 4715TIP3    H214152   3.084   0.940   1.441  0.1064  0.1016  0.5097
 4716TIP3   OH214153   6.151   3.271   3.592 -0.0409 -0.1792 -0.1151
 4716TIP3    H114154   6.110   3.210   3.654  1.2727  0.2633  1.2366
 4716TIP3    H214155   6.084   3.338   3.576 -1.2655 -1.5801 -1.1194
 4717TIP3   OH214156   5.237   2.680   2.465 -0.5332 -0.0141 -0.1753
 4717TIP3    H114157   5.313   2.638   2.425  0.4823  1.7985 -0.2412
 4717TIP3    H214158   5.263   2.695   2.556 -1.3655 -0.6299  0.1817
 4718TIP3   OH214159   3.310   1.158   0.920  0.1194 -0.0913  0.3733
 4718TIP3    H114160   3.258   1.147   0.999 -0.8922  1.0299 -0.1112
 4718TIP3    H214161   3.294   1.248   0.893 -0.1672 -0.6714 -1.5399
 4719TIP3   OH214162   0.381   4.375   4.920  0.3697  0.2555 -0.6329
 4719TIP3    H114163   0.418   4.308   4.978  0.7630 -0.0774 -1.2567
 4719TIP3    H214164   0.290   4.348   4.908 -0.4082  1.5952  1.6702
 4720TIP3   OH214165   2.930   2.023   4.025 -0.1203 -0.6451 -0.7959
 4720TIP3    H114166   3.010   2.055   4.067  0.6662 -1.5708 -1.5625
 4720TIP3    H214167   2.935   2.055   3.935 -1.0619  0.0378 -0.6272
 4721TIP3   OH214168   5.117   3.892   1.287 -0.0177 -0.4681 -0.5248
 4721TIP3    H114169   5.063   3.825   1.245 -0.4228 -0.0813 -0.6265
 4721TIP3    H214170   5.110   3.968   1.230  0.1920 -0.2393 -0.2495
 4722TIP3   OH214171   4.617   2.980   3.241 -0.4281  0.6273  0.0632
 4722TIP3    H114172   4.539   3.017   3.284 -0.1340  0.5414  0.6826
 4722TIP3    H214173   4.690   3.018   3.288 -0.1066 -1.2189  1.1557
 4723TIP3   OH214174   1.365   1.138   2.886  0.1352 -0.1230  0.4199
 4723TIP3    H114175   1.372   1.233   2.887 -1.1833 -0.0028 -0.1257
 4723TIP3    H214176   1.331   1.117   2.799 -0.0694 -1.0535  0.7089
 4724TIP3   OH214177   0.255   3.936   5.066  0.2943  0.1108 -0.2142
 4724TIP3    H114178   0.288   3.850   5.090 -0.3219 -0.5439 -1.6133
 4724TIP3    H214179   0.162   3.923   5.053  0.1549  1.0523 -0.2141
 4725TIP3   OH214180   3.378   4.456   3.172  0.0757 -0.0680  0.4249
 4725TIP3    H114181   3.314   4.528   3.167 -1.5663 -1.5353 -2.0878
 4725TIP3    H214182   3.430   4.466   3.092  1.0459 -0.6169  0.9764
 4726TIP3   OH214183   4.301   1.490   0.724 -0.0273 -0.0559 -0.5678
 4726TIP3    H114184   4.216   1.528   0.749  0.2609 -0.4160  1.0817
 4726TIP3    H214185   4.298   1.486   0.629 -1.1378  1.6122 -0.6483
 4727TIP3   OH214186   5.347   5.415   4.885 -0.2986  0.2406  0.3099
 4727TIP3    H114187   5.307   5.403   4.971  0.4072 -0.8091  0.5106
 4727TIP3    H214188   5.394   5.498   4.891  0.1401 -0.0585  1.0934
 4728TIP3   OH214189   3.027   3.654   1.292  0.3590  0.1088  0.0255
 4728TIP3    H114190   3.041   3.604   1.372  0.4626  1.9892  1.2345
 4728TIP3    H214191   3.115   3.684   1.266  0.0580  1.7076  0.7390
 4729TIP3   OH214192   5.321   0.209   2.089  0.3821 -0.6178  0.5577
 4729TIP3    H114193   5.347   0.125   2.126 -0.3591 -1.0671  0.0885
 4729TIP3    H214194   5.360   0.274   2.147  0.3890 -1.2912  1.3228
 4730TIP3   OH214195   2.526   1.582   4.080 -0.0421 -0.2160 -0.7116
 4730TIP3    H114196   2.463   1.622   4.020 -0.0611 -0.4519 -0.8505
 4730TIP3    H214197   2.589   1.651   4.099  1.0121 -0.6379 -2.4527
 4731TIP3   OH214198   5.514   0.423   1.045 -0.4260  0.3475  0.2498
 4731TIP3    H114199   5.440   0.471   1.081 -0.8671 -0.3582  0.2798
 4731TIP3    H214200   5.514   0.446   0.952 -0.8846  0.0737  0.1841
 4732TIP3   OH214201   0.780   2.992   1.250 -0.1115 -0.3621  0.0405
 4732TIP3    H114202   0.839   3.062   1.224 -0.2465  0.0720  0.8533
 4732TIP3    H214203   0.806   2.971   1.340 -1.2367 -0.1028  0.4421
 4733TIP3   OH214204   1.435   2.416   1.599 -0.2536  0.2987 -0.3631
 4733TIP3    H114205   1.356   2.391   1.553 -0.5111 -0.2592  0.3597
 4733TIP3    H214206   1.488   2.461   1.533 -0.0421 -1.5974 -1.5673
 4734TIP3   OH214207   4.187   2.405   4.696 -0.6879  0.5809 -0.0954
 4734TIP3    H114208   4.151   2.352   4.768 -1.4769  0.9323 -0.2258
 4734TIP3    H214209   4.164   2.356   4.617 -1.6423  1.2214 -0.2342
 4735TIP3   OH214210   1.818   0.946   3.322  0.6271 -0.5924  0.9159
 4735TIP3    H114211   1.807   0.886   3.248 -3.6393  0.0513  0.7945
 4735TIP3    H214212   1.808   0.891   3.400  0.3759 -0.5928  0.8848
 4736TIP3   OH214213   1.257   1.819   1.350 -0.4223  0.4841 -0.2542
 4736TIP3    H114214   1.236   1.783   1.264  1.4685  0.8758 -0.9300
 4736TIP3    H214215   1.328   1.765   1.382  0.2166  1.5422  0.1834
 4737TIP3   OH214216   2.121   0.408   2.635 -0.6994  0.2260  0.0183
 4737TIP3    H114217   2.130   0.502   2.652 -0.8913  0.3616 -0.5939
 4737TIP3    H214218   2.155   0.397   2.546 -1.5382 -0.1273 -0.2667
 4738TIP3   OH214219   1.608   5.764   1.624 -0.1544  0.1276 -0.1004
 4738TIP3    H114220   1.522   5.795   1.654 -0.1811 -0.3742  0.3539
 4738TIP3    H214221   1.670   5.821   1.670 -0.2418  0.7569 -0.7367
 4739TIP3   OH214222   4.772   3.820   4.605 -0.3269 -0.0137  0.3806
 4739TIP3    H114223   4.740   3.841   4.517 -1.8877 -0.6526  0.7623
 4739TIP3    H214224   4.693   3.797   4.654  0.6294 -0.6166  1.6866
 4740TIP3   OH214225   3.929   1.741   4.008 -0.2351  0.3397  0.1986
 4740TIP3    H114226   3.847   1.748   3.959  1.0849 -0.2047 -2.2387
 4740TIP3    H214227   3.924   1.812   4.072 -3.0155 -0.3230  0.8607
 4741TIP3   OH214228   3.002   1.007   4.233 -0.1935  0.1268 -0.7443
 4741TIP3    H114229   3.008   1.058   4.152  0.1093  1.6296  0.1871
 4741TIP3    H214230   2.969   1.069   4.298  0.8413 -0.6806  0.6022
 4742TIP3   OH214231   3.450   5.070   2.802  0.5184 -0.0420  0.4416
 4742TIP3    H114232   3.395   4.992   2.799  0.2328  0.1550  0.5518
 4742TIP3    H214233   3.433   5.108   2.888  1.0953 -0.1746  0.6147
 4743TIP3   OH214234   4.365   5.207   0.362  0.0100  0.1272  0.9714
 4743TIP3    H114235   4.361   5.117   0.329 -1.8138  0.2179  0.8573
 4743TIP3    H214236   4.274   5.231   0.377  0.4049  2.2786  0.2046
 4744TIP3   OH214237   0.365   4.478   2.179 -0.3620  0.1257 -0.2133
 4744TIP3    H114238   0.361   4.492   2.273  0.5496 -1.4175  0.0791
 4744TIP3    H214239   0.319   4.554   2.142 -0.8125  0.7104  1.4536
 4745TIP3   OH214240   4.330   2.636   3.790 -0.0524  0.0771 -0.4933
 4745TIP3    H114241   4.388   2.560   3.793  1.0372  0.8029 -1.8482
 4745TIP3    H214242   4.284   2.635   3.874  1.4959 -0.8678  0.3897
 4746TIP3   OH214243   4.126   4.480   4.924 -0.2046  0.2580  0.5066
 4746TIP3    H114244   4.102   4.540   4.995 -2.0111 -0.4172  0.5134
 4746TIP3    H214245   4.104   4.527   4.844  0.2471  0.3636  0.4414
 4747TIP3   OH214246   0.496   1.791   3.669  0.2512 -0.4501 -0.2157
 4747TIP3    H114247   0.574   1.805   3.614  0.5120 -0.1107  0.2333
 4747TIP3    H214248   0.424   1.784   3.606  0.9272 -3.1641 -0.8110
 4748TIP3   OH214249   2.508   1.323   4.987 -0.0447  0.8032 -0.5227
 4748TIP3    H114250   2.494   1.413   4.956  1.0928  1.0885 -0.2657
 4748TIP3    H214251   2.547   1.334   5.074 -0.6158  0.0457 -0.1653
 4749TIP3   OH214252   3.139   0.042   2.591 -0.5180  0.0921  0.1283
 4749TIP3    H114253   3.130  -0.053   2.606 -0.2347  0.1466  0.6517
 4749TIP3    H214254   3.226   0.051   2.552 -1.0331  0.0118 -1.0957
 4750TIP3   OH214255   5.333   5.696   0.112 -0.5246  0.3936  0.4353
 4750TIP3    H114256   5.387   5.630   0.156  1.2100  0.2644 -1.6620
 4750TIP3    H214257   5.390   5.730   0.043 -2.2885  2.2042 -0.2222
 4751TIP3   OH214258   0.133   4.255   4.424  0.6606 -0.4791 -0.1117
 4751TIP3    H114259   0.129   4.263   4.329 -0.7311  0.4419  0.0031
 4751TIP3    H214260   0.044   4.232   4.451  0.4981  1.3731  1.1251
 4752TIP3   OH214261   2.009   0.207   4.633  0.5144 -0.0853 -0.3182
 4752TIP3    H114262   2.099   0.176   4.639  0.2339 -0.7016  1.0830
 4752TIP3    H214263   1.956   0.134   4.663 -0.4891  0.2117 -1.2863
 4753TIP3   OH214264   0.227   3.130   4.271  0.7235  0.1982 -0.2644
 4753TIP3    H114265   0.270   3.109   4.353  0.3007  0.8697  0.1424
 4753TIP3    H214266   0.238   3.225   4.262 -0.0614  0.2700 -0.5077
 4754TIP3   OH214267   4.907   5.711   2.580 -0.3078  0.2217  0.0375
 4754TIP3    H114268   4.895   5.724   2.486  0.7965 -1.8785 -0.4688
 4754TIP3    H214269   4.894   5.617   2.593  0.1928  0.3713  1.8813
 4755TIP3   OH214270   3.809   1.750   5.021  0.5949  0.4508 -0.2349
 4755TIP3    H114271   3.859   1.702   4.955  0.4450 -0.3910  0.2446
 4755TIP3    H214272   3.717   1.732   4.999  0.5481 -0.1459  0.4172
 4756TIP3   OH214273   0.405   5.496   0.535 -0.1702 -0.6724 -0.0022
 4756TIP3    H114274   0.343   5.541   0.477 -0.8987 -1.8311 -0.1482
 4756TIP3    H214275   0.371   5.513   0.623  0.0934 -0.1634  0.0071
 4757TIP3   OH214276   6.281   3.126   1.553 -0.0498  0.0318  0.3415
 4757TIP3    H114277   6.301   3.103   1.462  0.7990 -0.3815  0.6171
 4757TIP3    H214278   6.228   3.052   1.584  1.4247 -0.8878  0.7841
 4758TIP3   OH214279   1.510   2.774  -0.002 -0.6180 -0.2004  0.0321
 4758TIP3    H114280   1.564   2.850  -0.024  0.1391 -0.6530  0.2856
 4758TIP3    H214281   1.448   2.806   0.063 -1.2685  0.5523 -0.9247
 4759TIP3   OH214282   0.530   5.261   1.654 -0.0558  0.2276 -0.3317
 4759TIP3    H114283   0.519   5.167   1.659 -1.1575  0.2159 -2.0069
 4759TIP3    H214284   0.592   5.275   1.582 -0.6602  0.7934 -0.7607
 4760TIP3   OH214285   5.676   0.500   3.966  0.2887  0.3382 -0.1297
 4760TIP3    H114286   5.664   0.550   4.047  0.5834  1.1606 -0.5812
 4760TIP3    H214287   5.589   0.466   3.945 -0.0930  1.3664 -0.2559
 4761TIP3   OH214288   0.805   4.877   1.240  0.4359  0.1253  0.1029
 4761TIP3    H114289   0.817   4.802   1.298 -3.0323 -0.5331  0.1958
 4761TIP3    H214290   0.822   4.842   1.152  0.8479 -0.2300  0.3244
 4762TIP3   OH214291   5.700   1.565   5.194 -0.3309 -0.2267 -0.4477
 4762TIP3    H114292   5.736   1.622   5.126  0.0541 -1.8496 -1.6791
 4762TIP3    H214293   5.650   1.499   5.146  1.8427 -2.7997  0.5944
 4763TIP3   OH214294   0.273   2.377   2.017  0.1610 -0.2966  0.0991
 4763TIP3    H114295   0.353   2.426   2.001 -0.5974  0.7764 -0.5290
 4763TIP3    H214296   0.289   2.332   2.100  1.5339 -0.3858 -0.1869
 4764TIP3   OH214297   5.009   3.907   5.079  0.3203  0.1679 -0.0393
 4764TIP3    H114298   5.034   3.928   5.169  0.0389  0.2564  0.0207
 4764TIP3    H214299   5.006   3.992   5.035 -1.0708  0.2980  0.2702
 4765TIP3   OH214300   5.089   3.449   1.947 -0.0931  0.0012  0.2881
 4765TIP3    H114301   5.050   3.534   1.967  0.8532  0.6179 -0.3769
 4765TIP3    H214302   5.077   3.438   1.852 -0.4906 -0.7624  0.4175
 4766TIP3   OH214303   3.378   0.097   2.477 -0.0328 -0.2321 -0.0841
 4766TIP3    H114304   3.472   0.091   2.496 -0.1990 -2.0548  0.3635
 4766TIP3    H214305   3.374   0.115   2.383  0.7607  0.2696 -0.0297
 4767TIP3   OH214306   4.641   2.502   0.042  0.2662  0.2502  0.2936
 4767TIP3    H114307   4.681   2.551   0.113 -0.0861 -0.5117  1.0444
 4767TIP3    H214308   4.708   2.439   0.015 -0.4257 -1.1487  1.6740
 4768TIP3   OH214309   1.458   4.328   1.718 -0.2170  0.6621 -0.5567
 4768TIP3    H114310   1.426   4.275   1.645 -0.0567  0.7426 -0.6868
 4768TIP3    H214311   1.551   4.306   1.725  0.1228  1.7565 -1.3463
 4769TIP3   OH214312   3.751   0.793   2.826 -0.0595 -0.3271  0.2532
 4769TIP3    H114313   3.749   0.710   2.780 -0.0872 -0.7743  1.0448
 4769TIP3    H214314   3.808   0.849   2.772 -0.5621 -0.6429 -0.6216
 4770TIP3   OH214315   5.674   0.802   1.312 -1.1868  0.3662 -0.3518
 4770TIP3    H114316   5.694   0.747   1.387 -1.9740  0.2403 -0.2191
 4770TIP3    H214317   5.649   0.886   1.350  0.0830  0.8453 -0.5582
 4771TIP3   OH214318   3.290   2.743   0.417  0.1721  0.8120  0.2524
 4771TIP3    H114319   3.336   2.814   0.461  1.6046  0.3565 -0.4622
 4771TIP3    H214320   3.245   2.785   0.343 -0.3392  1.2132  0.7843
 4772TIP3   OH214321   3.063   4.048   0.752 -0.2020 -0.4313 -0.7607
 4772TIP3    H114322   3.052   4.083   0.841  1.1751  0.4168 -0.9010
 4772TIP3    H214323   2.998   4.094   0.700  0.5438  0.8006 -0.6317
 4773TIP3   OH214324   3.660   3.756   1.370  0.1315  0.1747 -0.0020
 4773TIP3    H114325   3.677   3.662   1.379 -0.2367  0.2897  2.9215
 4773TIP3    H214326   3.727   3.798   1.425 -0.0627  1.5927 -0.8027
 4774TIP3   OH214327   0.720   2.288   3.729  0.3607  0.1626 -0.1018
 4774TIP3    H114328   0.656   2.266   3.797  0.5476  0.7327  0.2713
 4774TIP3    H214329   0.689   2.243   3.651  0.4252 -0.9349  0.4829
 4775TIP3   OH214330   6.095   0.794   3.010 -0.1354 -0.1310  0.1714
 4775TIP3    H114331   6.095   0.880   3.052 -0.1863 -0.3335  0.5942
 4775TIP3    H214332   6.067   0.811   2.920 -0.5994  0.2342  0.3791
 4776TIP3   OH214333   2.333   0.788   0.094  0.3843  0.3203 -0.0155
 4776TIP3    H114334   2.374   0.723   0.151  1.3555  0.7391 -0.2297
 4776TIP3    H214335   2.406   0.836   0.055 -0.2896  0.6566 -0.8961
 4777TIP3   OH214336   0.020   1.898   4.924 -0.4213  0.0467  0.9160
 4777TIP3    H114337   0.057   1.839   4.858 -0.4956  1.8181 -0.7964
 4777TIP3    H214338   0.092   1.916   4.984 -0.7630 -2.8214  2.3437
 4778TIP3   OH214339   2.433   0.437   1.988  1.2315  0.3771 -0.6641
 4778TIP3    H114340   2.402   0.486   2.065 -0.1302 -0.5100 -0.6108
 4778TIP3    H214341   2.357   0.386   1.960  2.4511 -1.3279 -1.0232
 4779TIP3   OH214342  -0.022   0.978   1.266  0.4171 -0.0250  0.2588
 4779TIP3    H114343   0.061   0.982   1.312  0.0557  2.1985  0.8171
 4779TIP3    H214344  -0.034   1.065   1.230 -2.2087  0.0928  1.1966
 4780TIP3   OH214345   4.036   2.929   4.095 -0.7413 -0.0001  0.3076
 4780TIP3    H114346   4.085   3.002   4.132 -0.9404 -0.2691  1.1438
 4780TIP3    H214347   3.955   2.926   4.147 -1.0558 -0.3644 -0.1932
 4781TIP3   OH214348   4.692   4.769   0.287  0.3698 -0.1254 -0.0796
 4781TIP3    H114349   4.777   4.726   0.295  0.3304 -0.8678 -2.6751
 4781TIP3    H214350   4.665   4.753   0.197 -4.6193 -3.8472  1.6173
 4782TIP3   OH214351   1.732   2.262   3.498 -0.2827 -0.4685 -0.2350
 4782TIP3    H114352   1.768   2.334   3.550 -1.5320 -0.5631  0.8216
 4782TIP3    H214353   1.728   2.189   3.559  0.9301 -1.4614 -1.2878
 4783TIP3   OH214354   2.919   1.893   1.381 -0.2207  0.2807 -0.2563
 4783TIP3    H114355   2.956   1.915   1.467 -1.0255 -0.0041  0.1800
 4783TIP3    H214356   2.954   1.806   1.361  0.7365  0.7517 -0.6764
 4784TIP3   OH214357   5.145   1.516   4.386 -0.1996  0.5361 -0.2324
 4784TIP3    H114358   5.066   1.514   4.332 -0.9792 -0.9488  0.8914
 4784TIP3    H214359   5.113   1.525   4.476  1.0324  2.0613  0.0961
 4785TIP3   OH214360   0.509   4.079   3.614 -0.1659 -0.2968  0.0486
 4785TIP3    H114361   0.577   4.019   3.582 -0.5413 -0.7507  0.0919
 4785TIP3    H214362   0.458   4.099   3.536 -0.0042  0.0209  0.0224
 4786TIP3   OH214363   4.678   2.618   3.574  0.1529 -0.2291  0.0294
 4786TIP3    H114364   4.733   2.681   3.528 -0.5072  0.0852 -0.3543
 4786TIP3    H214365   4.697   2.534   3.532 -1.3563  0.2500 -1.7172
 4787TIP3   OH214366   3.231   1.803   4.811  0.0889  0.2788  0.3169
 4787TIP3    H114367   3.250   1.709   4.816  0.8396  0.4076 -0.0486
 4787TIP3    H214368   3.202   1.817   4.721  0.2515  0.4457  0.2893
 4788TIP3   OH214369   0.247   3.558   3.802  0.0982 -0.4761 -0.1421
 4788TIP3    H114370   0.268   3.539   3.711  0.6843 -0.4566 -0.0122
 4788TIP3    H214371   0.155   3.535   3.810  0.1088 -0.7222 -0.6715
 4789TIP3   OH214372   5.016   3.942   0.365  0.1192  0.6828 -0.5881
 4789TIP3    H114373   5.019   3.963   0.272  0.2298 -0.4600 -0.8501
 4789TIP3    H214374   5.025   3.847   0.369 -1.8825  0.4723  0.4564
 4790TIP3   OH214375   2.535   1.252   1.508 -0.0747 -0.0457  0.3251
 4790TIP3    H114376   2.451   1.291   1.485  0.4970  1.2991  0.4160
 4790TIP3    H214377   2.600   1.317   1.480  0.9137 -0.8440  0.6933
 4791TIP3   OH214378   2.779   5.352   4.619 -0.1250 -0.0784  0.2268
 4791TIP3    H114379   2.704   5.302   4.649  0.4301 -0.1826  1.4864
 4791TIP3    H214380   2.831   5.290   4.568 -1.1936  0.1645 -1.2164
 4792TIP3   OH214381   1.899   4.409   3.026 -0.0340  0.4822  0.0345
 4792TIP3    H114382   1.963   4.438   2.961 -0.6523  1.5128 -0.1239
 4792TIP3    H214383   1.940   4.332   3.067  0.2494 -0.3633 -1.7377
 4793TIP3   OH214384   2.917   4.605   2.744 -0.6086  0.6731  0.1869
 4793TIP3    H114385   2.999   4.555   2.751  0.6807  2.3505 -1.5973
 4793TIP3    H214386   2.851   4.549   2.785  1.7783  0.2611  3.9322
 4794TIP3   OH214387   6.201   5.745   0.158 -0.3090 -0.1709  1.3001
 4794TIP3    H114388   6.261   5.732   0.085 -1.7330  0.0025  0.0416
 4794TIP3    H214389   6.254   5.731   0.237  0.7908 -2.5096  0.2314
 4795TIP3   OH214390   5.097   1.346   1.201 -0.3558  0.4844  0.0613
 4795TIP3    H114391   5.084   1.312   1.289 -0.6888  0.1820 -0.1017
 4795TIP3    H214392   5.040   1.293   1.146  1.9900 -1.3030 -0.8070
 4796TIP3   OH214393   0.328   1.603   5.025 -0.5198 -0.3541  0.4186
 4796TIP3    H114394   0.423   1.591   5.020 -0.1730  2.0017  0.0208
 4796TIP3    H214395   0.313   1.633   5.115 -0.9270 -0.8776  0.5319
 4797TIP3   OH214396   2.148   0.699   4.415  0.0988 -0.2174 -0.5976
 4797TIP3    H114397   2.170   0.656   4.498 -0.6030 -1.1763 -0.9000
 4797TIP3    H214398   2.198   0.650   4.349 -0.4352 -0.3459 -0.9054
 4798TIP3   OH214399   4.199   5.490   4.202 -0.1234 -0.2869  0.1551
 4798TIP3    H114400   4.279   5.540   4.188  0.0089  0.4499  2.8444
 4798TIP3    H214401   4.128   5.555   4.195 -0.4816 -0.8444 -1.7568
 4799TIP3   OH214402   3.931   2.977   2.003 -0.4035  0.3887 -0.1532
 4799TIP3    H114403   3.994   2.991   1.932  0.1312  0.6120  0.3614
 4799TIP3    H214404   3.923   3.062   2.046  0.6278 -0.1298  1.1500
 4800TIP3   OH214405   3.397   1.005   4.895  0.6835  0.3733 -0.5930
 4800TIP3    H114406   3.386   0.994   4.989 -0.1209  0.0944 -0.7171
 4800TIP3    H214407   3.315   1.045   4.866  0.4957 -0.5319 -1.3389
 4801TIP3   OH214408   3.820   1.853   1.465  0.1228  0.1974 -0.2401
 4801TIP3    H114409   3.812   1.796   1.389 -0.0787  1.0270 -0.8469
 4801TIP3    H214410   3.894   1.816   1.514 -0.3594 -0.9176 -0.3142
 4802TIP3   OH214411   3.136   4.255   2.076  0.0175 -0.3561 -0.1989
 4802TIP3    H114412   3.191   4.316   2.027 -0.4778  1.1219  1.0195
 4802TIP3    H214413   3.050   4.260   2.033 -0.1634  0.2148  0.2252
 4803TIP3   OH214414   1.305   1.392   3.241  0.1028 -0.4337  0.5752
 4803TIP3    H114415   1.392   1.427   3.263 -0.3533  1.9549 -1.0269
 4803TIP3    H214416   1.288   1.424   3.152 -2.4988 -0.6929  0.9010
 4804TIP3   OH214417   5.572   1.622   1.010  0.5704  0.2533  0.6898
 4804TIP3    H114418   5.552   1.708   1.047  0.0847  1.1133 -1.4171
 4804TIP3    H214419   5.585   1.566   1.086 -1.7907  1.5456  2.1926
 4805TIP3   OH214420   5.989   3.314   0.221 -0.2801 -0.1684 -0.4207
 4805TIP3    H114421   6.064   3.354   0.178 -1.5273  1.8407 -0.8928
 4805TIP3    H214422   6.025   3.271   0.298  1.3013  1.2455 -0.3169
 4806TIP3   OH214423   0.913   0.392   5.009  0.5308 -0.2036 -0.0699
 4806TIP3    H114424   0.981   0.455   4.982  0.3779 -0.2462 -0.5680
 4806TIP3    H214425   0.839   0.410   4.950  0.4876 -0.8490 -0.2222
 4807TIP3   OH214426   6.103   5.194   1.621 -0.1377 -0.1769 -0.3171
 4807TIP3    H114427   6.167   5.125   1.640 -0.1645  0.3364  1.9008
 4807TIP3    H214428   6.157   5.271   1.601 -0.0968 -0.1801 -0.2162
 4808TIP3   OH214429   5.548   3.683   3.834  0.6346  0.7255 -0.0152
 4808TIP3    H114430   5.587   3.766   3.861 -1.8942  2.0560 -0.1507
 4808TIP3    H214431   5.552   3.685   3.738  0.9958  0.4644 -0.0065
 4809TIP3   OH214432   0.100   4.413   4.876  0.0166 -0.6778 -0.3141
 4809TIP3    H114433   0.115   4.495   4.924  1.5037 -1.1679  0.0961
 4809TIP3    H214434   0.009   4.419   4.847  0.3658  1.5762 -1.1457
 4810TIP3   OH214435   0.773   1.416   4.520  0.7784 -0.1463  0.4554
 4810TIP3    H114436   0.793   1.391   4.610 -2.2045  0.0427  1.2540
 4810TIP3    H214437   0.802   1.506   4.513  0.6656 -0.0311  1.3645
 4811TIP3   OH214438   4.727   3.595   4.380 -0.3254 -0.3131 -0.5660
 4811TIP3    H114439   4.821   3.578   4.380 -0.4819 -1.2639  0.6323
 4811TIP3    H214440   4.720   3.689   4.364  0.9180  0.1099  1.0783
 4812TIP3   OH214441   4.320   3.262   3.354 -0.5692 -0.1834 -0.2634
 4812TIP3    H114442   4.308   3.252   3.259 -3.3867 -1.2795  0.1018
 4812TIP3    H214443   4.277   3.184   3.391 -0.9612  1.0130  1.9595
 4813TIP3   OH214444   0.797   1.444   4.157 -0.6275 -0.1165 -0.2853
 4813TIP3    H114445   0.724   1.504   4.143  0.2098  0.4640 -2.5343
 4813TIP3    H214446   0.818   1.410   4.070  1.9739 -0.0286  0.2202
 4814TIP3   OH214447   2.432   5.446   4.520  0.1314 -0.5205 -0.3554
 4814TIP3    H114448   2.347   5.448   4.474 -0.3670 -0.3442  0.5524
 4814TIP3    H214449   2.413   5.400   4.601  0.9171 -0.4690 -0.1424
 4815TIP3   OH214450   0.345   1.219   3.258 -0.1815 -0.2655  0.5630
 4815TIP3    H114451   0.367   1.187   3.345 -1.6004  1.7630  1.7655
 4815TIP3    H214452   0.428   1.253   3.223  0.9644 -3.3969 -0.0460
 4816TIP3   OH214453   4.813   0.800   0.270 -0.0481 -0.4003  0.1678
 4816TIP3    H114454   4.830   0.783   0.363  0.9464 -1.8847 -0.2442
 4816TIP3    H214455   4.790   0.893   0.266 -0.2863 -0.3518  1.9116
 4817TIP3   OH214456   5.437   2.887   3.398 -0.2690 -0.4469  0.4581
 4817TIP3    H114457   5.444   2.972   3.356 -0.7648 -0.1172  1.0309
 4817TIP3    H214458   5.464   2.824   3.330 -1.7032  0.0210 -0.5833
 4818TIP3   OH214459   1.879   3.379   4.299  0.2784 -0.3275  0.6130
 4818TIP3    H114460   1.822   3.302   4.290 -0.1769 -0.1629  1.8714
 4818TIP3    H214461   1.964   3.343   4.325  0.2320 -0.4533  0.5894
 4819TIP3   OH214462   1.916   0.568   2.378  0.4201  0.6384  0.7445
 4819TIP3    H114463   1.983   0.518   2.331 -0.5675  0.0065 -0.0319
 4819TIP3    H214464   1.855   0.596   2.310 -1.0861 -0.3666  1.6257
 4820TIP3   OH214465   1.345   5.264   0.086 -0.1361 -0.0481 -0.1153
 4820TIP3    H114466   1.269   5.317   0.109  0.3391  0.3130  0.6727
 4820TIP3    H214467   1.344   5.193   0.149  0.4659  0.2450  0.2317
 4821TIP3   OH214468   4.440   0.687   5.074 -0.1141  0.1399 -0.2692
 4821TIP3    H114469   4.535   0.701   5.083  0.0686 -0.7816 -0.6443
 4821TIP3    H214470   4.421   0.704   4.982 -0.2614  0.0232 -0.2603
 4822TIP3   OH214471   2.513   0.921   2.702  0.2341 -0.0466 -0.2289
 4822TIP3    H114472   2.508   0.829   2.677 -0.9961 -0.0829  0.0958
 4822TIP3    H214473   2.486   0.922   2.794  3.5794  0.2156  0.8971
 4823TIP3   OH214474   2.128   0.337   1.111  0.3846  0.0310 -0.0922
 4823TIP3    H114475   2.180   0.354   1.189  0.7427  1.1078 -0.5457
 4823TIP3    H214476   2.051   0.289   1.143  0.9329 -0.2811  0.7870
 4824TIP3   OH214477   1.758   4.126   5.167  0.0809 -0.3236 -0.0536
 4824TIP3    H114478   1.761   4.068   5.091 -0.5153 -1.5437  0.8080
 4824TIP3    H214479   1.800   4.206   5.138 -0.2202 -0.7172 -1.6962
 4825TIP3   OH214480   2.397   0.539   0.208 -0.7409  0.8051 -0.0832
 4825TIP3    H114481   2.338   0.474   0.246 -0.2681 -0.2441 -1.0843
 4825TIP3    H214482   2.466   0.551   0.274  0.0526 -0.9610 -0.5378
 4826TIP3   OH214483   4.888   0.473   4.792 -0.0678 -0.6402  0.1070
 4826TIP3    H114484   4.927   0.542   4.846  0.5400 -2.1779  1.7085
 4826TIP3    H214485   4.949   0.463   4.718  0.1566  0.1009  0.1860
 4827TIP3   OH214486   4.981   3.626   0.285 -0.8903  0.1720 -0.1965
 4827TIP3    H114487   4.986   3.591   0.374 -0.9968  1.5739  0.3800
 4827TIP3    H214488   4.898   3.674   0.282 -1.0153 -0.0817 -1.1364
 4828TIP3   OH214489   1.882   2.862   3.322  0.0570 -0.1571 -0.2614
 4828TIP3    H114490   1.851   2.912   3.397  2.8865  2.1567 -0.4560
 4828TIP3    H214491   1.899   2.775   3.357  1.3039  0.8583  1.8645
 4829TIP3   OH214492   5.860   5.740   4.335 -0.2680  0.2123 -1.5134
 4829TIP3    H114493   5.801   5.665   4.342 -0.5311  0.4694 -0.8803
 4829TIP3    H214494   5.804   5.811   4.301 -0.4145  0.5412 -0.6165
 4830TIP3   OH214495   5.222   3.153   4.289 -1.0980  0.1019 -1.1943
 4830TIP3    H114496   5.257   3.224   4.235  0.2280  0.3719 -0.0452
 4830TIP3    H214497   5.190   3.197   4.368 -0.1264 -0.5709 -0.4083
 4831TIP3   OH214498   3.936   3.802   0.812  0.4786  0.7638 -0.2807
 4831TIP3    H114499   4.008   3.776   0.869  0.6696  0.3455 -0.7050
 4831TIP3    H214500   3.867   3.831   0.872  0.4404 -0.2706  0.1931
 4832TIP3   OH214501   5.904   3.377   2.692  0.0222 -0.0432  0.3306
 4832TIP3    H114502   5.994   3.408   2.690 -0.6243  2.0131  0.6284
 4832TIP3    H214503   5.902   3.310   2.760  1.6301 -1.3065 -0.7857
 4833TIP3   OH214504   4.752   5.776   1.726 -0.5896  0.1508  0.3552
 4833TIP3    H114505   4.802   5.856   1.741 -1.9278  1.7907 -2.9503
 4833TIP3    H214506   4.816   5.705   1.735  1.2421  1.7905  0.7539
 4834TIP3   OH214507   1.930   0.344   3.315  0.1460 -0.1948 -0.3662
 4834TIP3    H114508   1.974   0.426   3.337 -0.1312  0.6016 -2.4988
 4834TIP3    H214509   2.001   0.281   3.303  0.5440  0.3680 -1.0577
 4835TIP3   OH214510   5.541   3.192   2.465 -0.2524 -0.7090  0.3196
 4835TIP3    H114511   5.538   3.167   2.372 -0.6624 -1.0316  0.4213
 4835TIP3    H214512   5.464   3.151   2.504 -1.4188  1.3667  0.3211
 4836TIP3   OH214513   0.538   5.630   1.292  0.3953 -0.5824 -0.1188
 4836TIP3    H114514   0.570   5.648   1.203  0.8852  1.8584  0.4770
 4836TIP3    H214515   0.616   5.601   1.339  0.8880  1.2807  0.2806
 4837TIP3   OH214516   1.474   3.033   4.242 -0.3984  0.1861 -0.1106
 4837TIP3    H114517   1.388   2.999   4.269 -0.0244 -0.0855  0.7753
 4837TIP3    H214518   1.454   3.117   4.200 -0.8755  2.3865  3.9457
 4838TIP3   OH214519   1.990   3.940   4.526  0.6586 -0.2664 -0.0175
 4838TIP3    H114520   2.038   3.893   4.459 -0.7471 -1.2597 -0.3833
 4838TIP3    H214521   1.927   3.994   4.478  1.1515  0.7567  0.4515
 4839TIP3   OH214522   2.930   1.754   4.068  0.0847 -0.6500  0.1797
 4839TIP3    H114523   2.938   1.847   4.047 -1.5979 -0.5275 -0.0856
 4839TIP3    H214524   2.872   1.751   4.144  1.9172 -1.3896  1.6090
 4840TIP3   OH214525   5.248   5.504   4.445  0.6038  0.0598 -0.6018
 4840TIP3    H114526   5.218   5.455   4.522  2.0562  0.4406  0.2413
 4840TIP3    H214527   5.234   5.596   4.468  2.3630  0.2506 -0.1697
 4841TIP3   OH214528   3.675   4.265   3.490 -0.1416  0.6776 -0.2369
 4841TIP3    H114529   3.759   4.296   3.457  0.4434  1.0594  1.4968
 4841TIP3    H214530   3.675   4.171   3.472  1.0846  0.5099  0.5619
 4842TIP3   OH214531   3.153   2.587   3.137  0.6969 -0.2678 -0.7621
 4842TIP3    H114532   3.210   2.644   3.086  1.3661 -1.0268 -0.8810
 4842TIP3    H214533   3.064   2.616   3.116  0.9926 -0.0509 -1.7417
 4843TIP3   OH214534   5.305   3.355   2.335  0.4396  0.1307  1.6039
 4843TIP3    H114535   5.373   3.288   2.333  0.4566  0.1356  2.0354
 4843TIP3    H214536   5.336   3.422   2.274  0.8422  0.1539  1.8340
 4844TIP3   OH214537   5.148   4.176   0.473  0.1717 -0.2883 -1.0271
 4844TIP3    H114538   5.241   4.169   0.452 -0.1252 -1.0462 -2.1635
 4844TIP3    H214539   5.107   4.103   0.427 -0.5636 -2.1305  2.2001
 4845TIP3   OH214540   0.791   0.691   3.030 -0.0107 -0.3809  0.1411
 4845TIP3    H114541   0.745   0.616   2.993  0.6737 -0.8335  0.1941
 4845TIP3    H214542   0.726   0.761   3.030 -1.2490 -1.4423  1.7814
 4846TIP3   OH214543   5.189   1.733   4.667 -0.1697  0.2578 -0.7399
 4846TIP3    H114544   5.155   1.651   4.632  1.8530  0.0459 -2.4026
 4846TIP3    H214545   5.166   1.731   4.760 -1.2509 -1.5941 -1.0039
 4847TIP3   OH214546   0.861   2.506   4.681 -0.0165 -0.2245 -1.0115
 4847TIP3    H114547   0.947   2.543   4.660 -0.3269  0.0534 -1.8196
 4847TIP3    H214548   0.878   2.414   4.700  0.5069 -0.0940 -0.8367
 4848TIP3   OH214549   0.031   1.256   4.740  0.5260  0.3525  0.3589
 4848TIP3    H114550   0.022   1.322   4.809 -0.8380 -0.0847  0.6279
 4848TIP3    H214551   0.079   1.301   4.670  1.4287  0.9782  1.3495
 4849TIP3   OH214552   3.657   3.718   2.532  0.6592  0.3125 -0.2455
 4849TIP3    H114553   3.681   3.794   2.480 -0.9265  0.4237 -0.8428
 4849TIP3    H214554   3.601   3.752   2.601 -1.3164 -0.4547 -1.3923
 4850TIP3   OH214555   5.577   4.265   0.301  0.2163  0.2584  0.1907
 4850TIP3    H114556   5.660   4.227   0.332 -0.7594 -0.6986  1.7857
 4850TIP3    H214557   5.536   4.194   0.251  1.1370  1.3373 -2.2625
 4851TIP3   OH214558   1.050   5.017   0.864  0.2115  0.4066  0.1353
 4851TIP3    H114559   0.997   5.036   0.941  2.0869  1.5294  1.2171
 4851TIP3    H214560   1.017   5.076   0.797 -0.6588  0.2532  0.4143
 4852TIP3   OH214561   5.706   1.972   3.266  0.2030 -0.3172  0.2676
 4852TIP3    H114562   5.801   1.968   3.262  0.1890  0.1144 -0.7944
 4852TIP3    H214563   5.686   1.987   3.359  1.1116 -1.3981  0.6499
 4853TIP3   OH214564   4.369   3.537   2.594 -0.3760 -0.1136  0.4094
 4853TIP3    H114565   4.306   3.577   2.655 -0.4577 -0.1221  0.3305
 4853TIP3    H214566   4.318   3.469   2.550 -0.8669  1.1470 -1.0645
 4854TIP3   OH214567   4.083   2.245   0.189 -0.0699 -0.1363 -0.5004
 4854TIP3    H114568   4.006   2.300   0.171 -0.1001 -0.1993 -0.5624
 4854TIP3    H214569   4.122   2.229   0.103 -0.0178 -0.1485 -0.4744
 4855TIP3   OH214570   1.529   3.663   1.508  0.1747  0.3077 -0.7479
 4855TIP3    H114571   1.541   3.612   1.588 -0.8434  1.8759  0.4737
 4855TIP3    H214572   1.538   3.600   1.437 -1.0424 -1.5779  0.6828
 4856TIP3   OH214573   4.465   3.817   4.662 -0.0708 -0.5089  0.4702
 4856TIP3    H114574   4.468   3.913   4.659 -1.4556 -0.3831  1.7893
 4856TIP3    H214575   4.472   3.796   4.755 -1.3481 -1.5891  0.3565
 4857TIP3   OH214576   2.360   5.134   2.226 -0.2650 -0.2430  0.6987
 4857TIP3    H114577   2.401   5.215   2.195  0.6029 -0.6546  0.7388
 4857TIP3    H214578   2.348   5.147   2.320  0.1256 -0.2672  0.7517
 4858TIP3   OH214579   2.211   3.472   1.556  0.0918  0.0462 -0.3797
 4858TIP3    H114580   2.259   3.427   1.625 -1.1920 -1.0962 -0.1898
 4858TIP3    H214581   2.136   3.512   1.600  0.5927  1.4676 -0.7357
 4859TIP3   OH214582   1.249   0.156   3.282 -0.0119  0.2776  0.0259
 4859TIP3    H114583   1.202   0.074   3.267 -1.5782  1.0712  0.3340
 4859TIP3    H214584   1.339   0.137   3.257 -0.0093 -1.9383  1.4053
 4860TIP3   OH214585   1.645   5.447   3.597  0.1736 -0.1577 -0.2626
 4860TIP3    H114586   1.643   5.471   3.689  2.4847  0.2569 -0.2674
 4860TIP3    H214587   1.558   5.470   3.564 -0.1877  1.1241  1.4531
 4861TIP3   OH214588   0.228   1.731   4.345  0.5315 -0.4926  0.3877
 4861TIP3    H114589   0.250   1.690   4.428 -1.0815 -1.3915  0.4109
 4861TIP3    H214590   0.166   1.670   4.303 -1.3131  1.4803  0.0504
 4862TIP3   OH214591   1.556   2.293   2.900 -0.0993 -0.2648 -0.2147
 4862TIP3    H114592   1.474   2.281   2.852 -0.5002 -0.4190  0.4932
 4862TIP3    H214593   1.559   2.219   2.961  0.4071 -0.0806 -0.0078
 4863TIP3   OH214594   1.406   4.189   1.469 -0.0650 -0.5252 -0.4701
 4863TIP3    H114595   1.429   4.097   1.484 -1.1904 -0.8441 -0.6600
 4863TIP3    H214596   1.314   4.188   1.442 -0.7993  0.8375  1.7220
 4864TIP3   OH214597   1.681   0.183   3.385  0.3074 -0.0803  0.1787
 4864TIP3    H114598   1.742   0.120   3.424  1.1055 -0.1928 -1.2211
 4864TIP3    H214599   1.735   0.238   3.329 -0.6018  1.0046  0.3360
 4865TIP3   OH214600   6.193   4.386   4.732  0.0794 -0.8232  0.0769
 4865TIP3    H114601   6.176   4.428   4.816 -0.3921 -2.0990  0.6443
 4865TIP3    H214602   6.246   4.450   4.684 -0.3095  0.2552  1.0281
 4866TIP3   OH214603   2.470   5.471   3.410 -0.2434  0.2476 -0.0841
 4866TIP3    H114604   2.468   5.514   3.496 -2.1792  1.1874 -0.5457
 4866TIP3    H214605   2.541   5.515   3.363  0.4242  0.1480  0.8104
 4867TIP3   OH214606   5.615   2.122   1.960  0.8216 -0.2415  0.6798
 4867TIP3    H114607   5.587   2.071   2.036  0.1478  2.7198  2.6176
 4867TIP3    H214608   5.710   2.130   1.972  0.5888  1.1449  1.9507
 4868TIP3   OH214609   1.691   5.139   1.645 -0.1670 -0.0836  0.0646
 4868TIP3    H114610   1.681   5.233   1.629  0.6714 -0.2179 -1.4012
 4868TIP3    H214611   1.681   5.098   1.559  0.3325 -1.2567  0.5371
 4869TIP3   OH214612   1.563   0.329   2.760 -0.0639 -0.4432  0.2234
 4869TIP3    H114613   1.569   0.373   2.675  1.3128  1.8259  1.4040
 4869TIP3    H214614   1.470   0.306   2.768 -0.5380  0.7963 -1.1817
 4870TIP3   OH214615   5.165   5.536   2.419  0.1211 -0.2714  0.6506
 4870TIP3    H114616   5.146   5.606   2.356  0.3386  0.1522  1.0505
 4870TIP3    H214617   5.261   5.535   2.425  0.4513 -3.1081 -2.1842
 4871TIP3   OH214618   0.597   0.755   2.617 -0.0648  0.4057  0.6524
 4871TIP3    H114619   0.528   0.799   2.667  1.5519  1.4915  2.0732
 4871TIP3    H214620   0.575   0.772   2.526 -1.1528  1.5728  1.0929
 4872TIP3   OH214621   0.487   2.899   0.838  0.5986 -0.5281 -0.5300
 4872TIP3    H114622   0.568   2.914   0.887  1.3181  0.2721 -1.9070
 4872TIP3    H214623   0.429   2.856   0.901  0.9618  1.6912  1.4871
 4873TIP3   OH214624   4.349   5.647   3.433 -0.0665 -0.2096  0.2774
 4873TIP3    H114625   4.367   5.553   3.444  0.9323 -0.1105 -0.3884
 4873TIP3    H214626   4.326   5.656   3.340 -0.3028  0.1865  0.3733
 4874TIP3   OH214627   0.070   5.170   1.344  0.5100 -0.4608  0.4308
 4874TIP3    H114628   0.163   5.153   1.334  1.0025  1.1893  1.6898
 4874TIP3    H214629   0.048   5.133   1.430  0.4416  0.6419  0.9124
 4875TIP3   OH214630   0.688   2.207   0.903  0.2708  0.1639  0.2080
 4875TIP3    H114631   0.635   2.269   0.854 -0.6731  0.2109  1.2359
 4875TIP3    H214632   0.642   2.124   0.894  3.1849 -1.3140 -3.8695
 4876TIP3   OH214633   1.368   3.591   2.704  0.1782 -0.0743  0.4118
 4876TIP3    H114634   1.290   3.544   2.676 -0.3116  0.2963  1.1147
 4876TIP3    H214635   1.371   3.669   2.648  0.1577 -0.1909  0.2489
 4877TIP3   OH214636   2.017   1.344   3.603 -0.2702  0.4773 -0.3496
 4877TIP3    H114637   1.973   1.267   3.567 -1.5146  1.4915 -1.0771
 4877TIP3    H214638   2.108   1.316   3.614 -0.7158 -1.1342 -0.4564
 4878TIP3   OH214639   2.635   0.324   4.236  0.0226  0.5711 -0.1913
 4878TIP3    H114640   2.720   0.314   4.278 -1.8038 -1.4062  3.5472
 4878TIP3    H214641   2.619   0.240   4.193  0.8793  1.7975 -3.1574
 4879TIP3   OH214642   3.498   3.545   2.386  0.3900  0.3981  0.0597
 4879TIP3    H114643   3.544   3.586   2.460  0.5874  1.8616 -0.8269
 4879TIP3    H214644   3.456   3.619   2.341 -1.2907 -0.6813 -0.2283
 4880TIP3   OH214645   5.306   2.781   0.572 -0.6298  0.2300 -0.1760
 4880TIP3    H114646   5.213   2.795   0.551 -0.3765  0.6896 -1.0447
 4880TIP3    H214647   5.321   2.834   0.650 -1.2400 -0.3245  0.3288
 4881TIP3   OH214648   1.685   4.501   4.539  0.1131  0.2717  0.0841
 4881TIP3    H114649   1.717   4.591   4.541  1.4925 -0.1989  0.8985
 4881TIP3    H214650   1.600   4.504   4.582  0.6027  1.0279  1.0246
 4882TIP3   OH214651   3.108   5.461   1.068 -0.0478 -0.2433  0.7887
 4882TIP3    H114652   3.125   5.504   0.984 -0.1211 -1.0256  0.3604
 4882TIP3    H214653   3.066   5.528   1.121  0.0148  0.2702  0.2087
 4883TIP3   OH214654   4.913   3.251   3.162 -0.5708  0.1322  0.3280
 4883TIP3    H114655   4.998   3.224   3.127  0.5685  2.6478  0.9346
 4883TIP3    H214656   4.864   3.280   3.085 -0.4986 -0.3793  0.0875
 4884TIP3   OH214657   5.675   5.223   2.824 -0.3441 -0.3682 -0.0821
 4884TIP3    H114658   5.641   5.177   2.900 -0.7665  1.2744  0.7596
 4884TIP3    H214659   5.610   5.292   2.806  0.5217  0.2534 -0.9541
 4885TIP3   OH214660   0.141   4.566   5.113  0.2836 -0.0554 -0.4502
 4885TIP3    H114661   0.090   4.617   5.176  1.3033 -1.1518  1.3656
 4885TIP3    H214662   0.231   4.568   5.148  0.5668 -2.0588 -0.9591
 4886TIP3   OH214663   4.407   4.230   0.272  0.1192 -0.2612 -0.1373
 4886TIP3    H114664   4.459   4.179   0.333  0.4639 -1.6382 -1.5202
 4886TIP3    H214665   4.361   4.165   0.218 -1.6851  0.8947 -0.1115
 4887TIP3   OH214666   5.643   1.380   3.061 -0.4073  0.3610  0.6431
 4887TIP3    H114667   5.676   1.356   2.974 -0.0718  2.5469  0.0966
 4887TIP3    H214668   5.720   1.407   3.110 -0.8199  1.0527  0.9355
 4888TIP3   OH214669   2.158   1.047   1.418 -0.3447  0.6634 -0.3190
 4888TIP3    H114670   2.086   1.009   1.468  0.6540  0.9763  1.4540
 4888TIP3    H214671   2.131   1.039   1.327 -1.3246 -1.8695  0.1113
 4889TIP3   OH214672   2.977   1.519   4.744 -0.0668 -0.1808  1.0956
 4889TIP3    H114673   2.965   1.548   4.834 -0.8596  1.1186  0.5903
 4889TIP3    H214674   2.939   1.588   4.691 -0.8827 -1.5850 -0.2141
 4890TIP3   OH214675   4.309   3.905   2.452  0.2091  0.6674 -0.5478
 4890TIP3    H114676   4.232   3.920   2.508  0.8555  0.2112  0.4921
 4890TIP3    H214677   4.300   3.968   2.381 -1.2720  0.4336 -0.5934
 4891TIP3   OH214678   2.063   4.614   1.333  0.7200  0.0780  0.1745
 4891TIP3    H114679   2.007   4.594   1.408 -0.9518 -1.4776 -1.3570
 4891TIP3    H214680   2.145   4.569   1.351  0.3054 -0.3540  1.0252
 4892TIP3   OH214681   0.621   3.776   1.314 -0.2560 -0.2673  0.7798
 4892TIP3    H114682   0.660   3.856   1.350 -0.3590 -0.0814  0.4773
 4892TIP3    H214683   0.548   3.807   1.260  0.3987 -0.4938 -0.2472
 4893TIP3   OH214684   5.544   0.338   4.838 -0.6552  0.1038  0.1842
 4893TIP3    H114685   5.469   0.279   4.830  0.6679 -2.2192  2.9617
 4893TIP3    H214686   5.527   0.387   4.918  0.7134 -0.4548  0.8502
 4894TIP3   OH214687   1.662   4.880   3.144  0.6034 -0.2622 -0.5563
 4894TIP3    H114688   1.636   4.854   3.233  1.2943 -2.5834 -0.9529
 4894TIP3    H214689   1.593   4.844   3.088  0.6090  0.4383 -1.0149
 4895TIP3   OH214690   2.126   1.455   4.336 -0.2705  0.4713 -0.6866
 4895TIP3    H114691   2.190   1.461   4.407 -0.1944  0.2440 -0.7373
 4895TIP3    H214692   2.176   1.479   4.257  0.1777 -1.2935 -0.9784
 4896TIP3   OH214693   0.209   0.628   0.936  0.0778  0.2629 -0.2517
 4896TIP3    H114694   0.277   0.673   0.885  0.4204  1.2768  1.0319
 4896TIP3    H214695   0.131   0.680   0.923  0.2885  0.8288  0.6192
 4897TIP3   OH214696   0.662   5.972   1.226  0.0362  0.2596  0.1096
 4897TIP3    H114697   0.620   5.902   1.176 -0.9539  1.3097 -0.5643
 4897TIP3    H214698   0.649   5.948   1.317  1.3854 -1.4082 -0.0811
 4898TIP3   OH214699   3.736   3.627   3.404  0.1783 -0.5964  0.3354
 4898TIP3    H114700   3.695   3.641   3.489  0.2205 -1.2218  0.4573
 4898TIP3    H214701   3.662   3.606   3.346  0.2623 -1.1467  0.4294
 4899TIP3   OH214702   0.091   5.293   3.754 -0.2522 -0.0872 -0.5562
 4899TIP3    H114703   0.177   5.333   3.742  0.2943 -0.7493  0.9343
 4899TIP3    H214704   0.098   5.208   3.709 -0.2312 -0.0176 -0.6856
 4900TIP3   OH214705   5.683   4.274   2.673 -0.7346  0.1356 -0.2200
 4900TIP3    H114706   5.769   4.233   2.684 -0.6404  0.7870  1.8793
 4900TIP3    H214707   5.697   4.339   2.605 -0.3466 -1.7293 -2.0456
 4901TIP3   OH214708   1.174   4.940   0.226 -0.2680  0.0410 -0.0373
 4901TIP3    H114709   1.208   4.865   0.178 -1.3267 -0.1922 -0.4416
 4901TIP3    H214710   1.170   4.911   0.317 -0.5678 -0.3526 -0.1753
 4902TIP3   OH214711   3.791   0.754   1.958 -0.3060 -0.4957 -0.4180
 4902TIP3    H114712   3.734   0.820   1.999 -1.9997 -2.6730  0.9665
 4902TIP3    H214713   3.865   0.746   2.019 -1.0324 -1.1343  0.4253
 4903TIP3   OH214714   5.575   5.205   3.380 -0.5905  0.1705  0.1806
 4903TIP3    H114715   5.576   5.266   3.455 -1.4018 -0.4883  0.7507
 4903TIP3    H214716   5.567   5.261   3.303 -2.0532  0.7785  0.7385
 4904TIP3   OH214717   2.598   4.117   3.200 -0.6863 -0.2326 -0.2715
 4904TIP3    H114718   2.570   4.194   3.149 -0.0956  0.6493  0.7053
 4904TIP3    H214719   2.563   4.043   3.151 -1.9147  0.6809 -0.8509
 4905TIP3   OH214720   2.224   5.434   1.575  0.3422 -0.2481  0.8662
 4905TIP3    H114721   2.262   5.465   1.492 -0.2598 -0.6375  0.4397
 4905TIP3    H214722   2.130   5.444   1.563  0.2494 -0.3853  1.4766
 4906TIP3   OH214723   2.611   1.836   3.160 -0.2935  0.4629 -0.0180
 4906TIP3    H114724   2.695   1.851   3.117 -0.5180 -2.3250 -1.6390
 4906TIP3    H214725   2.627   1.763   3.220 -1.0739  1.3505  1.3216
 4907TIP3   OH214726   2.290   4.506   0.399  0.2260 -0.0736 -1.0395
 4907TIP3    H114727   2.370   4.487   0.448 -0.3013 -0.3164 -0.2458
 4907TIP3    H214728   2.249   4.578   0.447  0.5322  0.8304 -2.1030
 4908TIP3   OH214729   2.775   5.969   0.416  0.1079 -0.4036 -0.0798
 4908TIP3    H114730   2.860   5.976   0.459  0.1886 -0.1517 -0.2820
 4908TIP3    H214731   2.712   5.968   0.489  0.1722  1.0561  0.0283
 4909TIP3   OH214732   5.984   5.709   1.288 -0.3785  0.8516  0.6692
 4909TIP3    H114733   5.962   5.702   1.381  2.0619 -0.0989  1.2562
 4909TIP3    H214734   6.078   5.724   1.287 -0.1703 -0.2278 -1.6675
 4910TIP3   OH214735   5.620   0.186   4.536  0.3380  0.0167 -0.1375
 4910TIP3    H114736   5.525   0.189   4.525  0.2628  1.0471  0.6086
 4910TIP3    H214737   5.655   0.188   4.447 -0.3313  1.7193 -0.4026
 4911TIP3   OH214738   0.810   4.375   1.394  0.1263 -0.3728  0.5782
 4911TIP3    H114739   0.888   4.319   1.399 -0.1058 -0.8401 -0.6845
 4911TIP3    H214740   0.737   4.316   1.412 -0.1294 -0.5435 -0.8693
 4912TIP3   OH214741   0.481   2.357   4.363 -0.3743  0.4921 -0.4488
 4912TIP3    H114742   0.477   2.361   4.267  0.3053  1.7526 -0.4397
 4912TIP3    H214743   0.547   2.421   4.387  0.4056 -0.7450  0.8142
 4913TIP3   OH214744   3.987   5.028   0.054 -0.1303 -0.0798  0.2923
 4913TIP3    H114745   3.910   4.991   0.010 -0.3386  0.4501  0.2015
 4913TIP3    H214746   3.967   5.020   0.147  0.3851 -1.3597  0.3181
 4914TIP3   OH214747   5.408   5.909   3.760  0.5051  0.1774  0.0971
 4914TIP3    H114748   5.406   5.982   3.699  0.5042  1.6940  1.8027
 4914TIP3    H214749   5.501   5.889   3.771  0.4706 -0.6232 -0.9512
 4915TIP3   OH214750   4.542   4.134   4.062  0.1591 -0.1856  0.4150
 4915TIP3    H114751   4.560   4.059   4.006  1.3991  0.6713 -0.3954
 4915TIP3    H214752   4.608   4.199   4.038 -1.0809  1.3137  0.8183
 4916TIP3   OH214753   4.879   1.255   3.349  0.0357 -0.2886  0.1990
 4916TIP3    H114754   4.969   1.223   3.350  0.3276  0.5240  1.1675
 4916TIP3    H214755   4.886   1.348   3.371 -0.7996  0.4605 -2.3127
 4917TIP3   OH214756   2.042   2.705   0.323  0.2106 -0.2778  0.4130
 4917TIP3    H114757   2.060   2.763   0.398 -0.9473  0.4653  0.1446
 4917TIP3    H214758   1.996   2.761   0.261  0.9126 -0.9593 -0.7583
 4918TIP3   OH214759   0.104   5.206   0.545  0.3198  0.5207  0.7814
 4918TIP3    H114760   0.035   5.215   0.480  1.4617  1.0759 -0.3923
 4918TIP3    H214761   0.115   5.294   0.581  0.4419  0.4471  0.9250
 4919TIP3   OH214762   3.254   2.173   1.575  0.6045  0.2452 -0.0672
 4919TIP3    H114763   3.309   2.244   1.607  1.2179  0.0922 -0.7566
 4919TIP3    H214764   3.315   2.113   1.532 -0.0310 -0.2062 -0.3523
 4920TIP3   OH214765   1.607   1.793   1.006  0.4650 -0.2649 -0.4607
 4920TIP3    H114766   1.631   1.883   1.026 -0.7444  0.4448 -2.0039
 4920TIP3    H214767   1.691   1.747   0.999  1.1183 -0.4265  4.7168
 4921TIP3   OH214768   0.375   3.539   1.939  0.2482 -0.0521 -0.5778
 4921TIP3    H114769   0.391   3.588   1.859  0.0520  0.2954 -0.4079
 4921TIP3    H214770   0.423   3.457   1.928  1.6965  0.7344 -0.3054
 4922TIP3   OH214771   5.410   5.592   0.913  0.3426  0.3963  0.9884
 4922TIP3    H114772   5.411   5.620   0.821  1.3817  1.6602  1.3513
 4922TIP3    H214773   5.449   5.504   0.911 -1.4350 -0.4258  0.0221
 4923TIP3   OH214774   2.278   1.286   3.681 -0.0890  0.5141 -0.0840
 4923TIP3    H114775   2.288   1.379   3.702 -0.3831  0.3194  0.9667
 4923TIP3    H214776   2.344   1.242   3.733 -1.5141 -0.0765  1.3170
 4924TIP3   OH214777   0.012   5.055   1.631 -0.3890  1.0889 -0.0420
 4924TIP3    H114778  -0.041   4.976   1.621 -0.2759  1.0314 -0.1911
 4924TIP3    H214779   0.057   5.044   1.715  1.4288 -0.0916 -1.0977
 4925TIP3   OH214780   0.711   3.119   0.351  0.1624 -0.2242 -0.1809
 4925TIP3    H114781   0.652   3.124   0.426 -1.6104  1.3901 -1.5744
 4925TIP3    H214782   0.659   3.077   0.282  1.4722 -0.9577 -0.7553
 4926TIP3   OH214783   1.346   2.877   4.626  0.4451 -0.1269 -0.3443
 4926TIP3    H114784   1.420   2.938   4.617  0.3296 -0.2082 -2.1909
 4926TIP3    H214785   1.385   2.790   4.613  0.4214 -0.4009  1.2000
 4927TIP3   OH214786   6.267   4.724   4.265 -0.0708 -0.3376  0.1140
 4927TIP3    H114787   6.359   4.746   4.282  0.2283 -0.7184 -0.9512
 4927TIP3    H214788   6.220   4.807   4.278  0.0840 -0.5540  2.7452
 4928TIP3   OH214789   3.080   2.890   2.737 -0.2496  0.8186 -0.0287
 4928TIP3    H114790   3.084   2.984   2.757  2.9288  0.5070  1.5189
 4928TIP3    H214791   2.992   2.864   2.763 -1.2192  3.3399 -0.4697
 4929TIP3   OH214792   3.907   5.661   4.728 -0.7739  0.4762  0.0329
 4929TIP3    H114793   3.996   5.694   4.721 -0.5172 -0.3539 -0.7180
 4929TIP3    H214794   3.898   5.598   4.657 -2.5837  1.9292 -1.1285
 4930TIP3   OH214795   4.162   1.856   4.979 -0.2875  0.4730  0.5796
 4930TIP3    H114796   4.169   1.910   5.058  1.3310  2.3551 -0.7586
 4930TIP3    H214797   4.165   1.919   4.907 -1.9652 -1.1566 -1.0339
 4931TIP3   OH214798   0.727   1.894   2.223 -0.3266 -0.1810  0.2408
 4931TIP3    H114799   0.773   1.966   2.266  0.6385 -0.9952  0.6186
 4931TIP3    H214800   0.686   1.934   2.147  0.4453  0.7101  0.2655
 4932TIP3   OH214801   1.356   3.837   2.560 -0.6393  0.0455  0.3017
 4932TIP3    H114802   1.299   3.910   2.535 -1.0498 -0.0744  0.8762
 4932TIP3    H214803   1.393   3.863   2.645 -0.7892 -0.4152  0.5085
 4933TIP3   OH214804   4.475   2.098   1.057 -0.1486  0.3390  0.2200
 4933TIP3    H114805   4.428   2.154   0.996 -1.9164 -2.0722 -0.8248
 4933TIP3    H214806   4.555   2.073   1.010  0.5231  1.7184  0.5952
 4934TIP3   OH214807   2.863   5.814   3.153 -0.2092 -0.1405 -0.2864
 4934TIP3    H114808   2.920   5.887   3.130  0.4014 -0.6824 -0.5117
 4934TIP3    H214809   2.905   5.737   3.115 -0.3828 -0.7406  0.6980
 4935TIP3   OH214810   1.348   1.099   0.419  1.0772  0.1064 -0.0095
 4935TIP3    H114811   1.343   1.006   0.442  2.6247  0.4627  2.0298
 4935TIP3    H214812   1.364   1.099   0.324  0.2659 -1.6477 -0.1965
 4936TIP3   OH214813   5.054   5.975   1.156  0.2721 -0.2147 -0.4589
 4936TIP3    H114814   5.020   5.916   1.088  1.3509 -0.4570 -0.8065
 4936TIP3    H214815   5.066   5.918   1.232 -0.6996  0.0056 -0.1290
 4937TIP3   OH214816   4.907   5.120   3.676 -0.4417 -0.0921 -0.0093
 4937TIP3    H114817   4.920   5.211   3.653  2.0955  0.4639  2.9284
 4937TIP3    H214818   4.977   5.073   3.630 -1.8805 -0.6808 -1.7021
 4938TIP3   OH214819   3.631   4.679   2.887  0.3223  0.0664  0.3186
 4938TIP3    H114820   3.586   4.594   2.884  2.7326 -1.2886  0.2478
 4938TIP3    H214821   3.695   4.675   2.816  1.1228  1.5659  0.9143
 4939TIP3   OH214822   6.134   5.026   3.756 -0.2676  0.3190  0.1735
 4939TIP3    H114823   6.111   4.976   3.678  2.0625 -0.9823  0.2292
 4939TIP3    H214824   6.084   4.985   3.827 -1.9650  1.1574 -0.4694
 4940TIP3   OH214825   2.648   4.777   0.818  0.1913  0.1105 -0.5210
 4940TIP3    H114826   2.729   4.736   0.848 -0.4204  0.0702  1.1535
 4940TIP3    H214827   2.655   4.774   0.722  2.1088  0.0307 -0.4328
 4941TIP3   OH214828   0.155   2.050   1.125  0.6069  0.1601 -0.4660
 4941TIP3    H114829   0.234   2.102   1.110 -0.0633  1.8109  1.3289
 4941TIP3    H214830   0.148   2.042   1.220 -1.6716  0.5689 -0.5372
 4942TIP3   OH214831   2.995   5.170   0.354  0.1431 -0.0139  0.1781
 4942TIP3    H114832   3.020   5.255   0.319  0.3186 -0.0016  0.3376
 4942TIP3    H214833   2.952   5.189   0.437 -0.5044 -0.0240 -0.1413
 4943TIP3   OH214834   0.515   5.002   1.689 -0.0673 -0.1095 -0.0146
 4943TIP3    H114835   0.436   4.952   1.707  0.4545 -0.8739  0.1824
 4943TIP3    H214836   0.562   4.951   1.623  1.1052 -0.5809  1.1330
 4944TIP3   OH214837   5.104   1.393   2.200  0.2950  1.1476 -0.6432
 4944TIP3    H114838   5.178   1.396   2.260  0.0571  1.1186 -0.3451
 4944TIP3    H214839   5.034   1.350   2.250  0.7596 -0.9650 -1.6681
 4945TIP3   OH214840   2.975   4.915   3.259  0.3124  0.2066 -0.8184
 4945TIP3    H114841   2.984   4.943   3.168 -1.1978  0.2546 -0.9766
 4945TIP3    H214842   2.881   4.908   3.273  0.5373 -0.5208  0.5302
 4946TIP3   OH214843   3.011   1.698   3.623 -0.0619 -0.3009 -0.0452
 4946TIP3    H114844   2.931   1.748   3.608  1.1043  1.4890 -0.6195
 4946TIP3    H214845   3.003   1.666   3.712 -0.5694  1.5147  0.5994
 4947TIP3   OH214846   1.392   2.841   1.654 -0.3122 -0.0531  0.4007
 4947TIP3    H114847   1.308   2.876   1.684 -0.7375 -0.4196 -0.3469
 4947TIP3    H214848   1.384   2.747   1.664  0.8910 -0.0030  2.5595
 4948TIP3   OH214849   3.530   1.866   2.224  0.0037  0.3257 -0.2618
 4948TIP3    H114850   3.568   1.781   2.247 -2.2046 -0.8963 -0.8326
 4948TIP3    H214851   3.535   1.917   2.305  0.5772 -0.6452  0.3388
 4949TIP3   OH214852   4.828   1.804   0.328  0.2507  0.2425 -0.2775
 4949TIP3    H114853   4.748   1.814   0.380  0.6957 -0.6472  0.6089
 4949TIP3    H214854   4.850   1.893   0.301  1.6496  1.2494  3.5812
 4950TIP3   OH214855   3.583   5.345   4.828 -0.2345  0.2610 -0.1182
 4950TIP3    H114856   3.588   5.360   4.923 -1.4297 -0.9400  0.1758
 4950TIP3    H214857   3.627   5.261   4.816 -0.3541  0.2653 -0.5845
 4951TIP3   OH214858   2.692   4.224   0.698  0.2266  0.0076 -0.0655
 4951TIP3    H114859   2.780   4.237   0.664  0.7220  2.1372  1.7955
 4951TIP3    H214860   2.700   4.154   0.762  0.1287 -1.1339 -1.2651
 4952TIP3   OH214861   5.192   0.530   2.316  0.2909 -0.2108 -0.8062
 4952TIP3    H114862   5.154   0.491   2.237  0.1849 -1.0617 -0.3476
 4952TIP3    H214863   5.126   0.518   2.383  0.2554  0.7884 -0.6448
 4953TIP3   OH214864   4.793   2.143   1.499  0.3915 -0.2236  0.9274
 4953TIP3    H114865   4.756   2.080   1.561 -4.0127  0.9321 -0.1309
 4953TIP3    H214866   4.783   2.228   1.543 -1.3528  0.4484 -0.6128
 4954TIP3   OH214867   2.967   1.275   1.253  0.0423  0.1637 -0.2602
 4954TIP3    H114868   2.898   1.307   1.312  0.4281  1.8089 -0.6567
 4954TIP3    H214869   3.028   1.229   1.311 -1.0646 -0.8095  0.1784
 4955TIP3   OH214870   1.519   2.820   2.499  0.2301 -0.7191 -1.1079
 4955TIP3    H114871   1.457   2.874   2.449  0.3354  1.5225  1.0258
 4955TIP3    H214872   1.603   2.864   2.489 -0.0986  1.0675  2.5650
 4956TIP3   OH214873   5.697   2.516   2.923 -0.5990  0.0284  0.4616
 4956TIP3    H114874   5.633   2.452   2.954 -1.2528  0.0565 -0.8005
 4956TIP3    H214875   5.651   2.568   2.858  0.5609  0.3655 -0.1195
 4957TIP3   OH214876   5.040   5.337   3.901 -0.1253 -0.4570  0.2711
 4957TIP3    H114877   4.948   5.338   3.930  0.0291 -2.8526  1.1309
 4957TIP3    H214878   5.035   5.349   3.806 -1.2334  0.3674  0.4051
 4958TIP3   OH214879   1.795   0.381   1.467 -0.1478 -0.3009 -0.2465
 4958TIP3    H114880   1.739   0.370   1.391  0.0704  0.9507 -0.6182
 4958TIP3    H214881   1.821   0.473   1.464  1.4093 -0.6997  0.2804
 4959TIP3   OH214882   3.887   4.373   2.596  0.2963 -0.0182  0.1503
 4959TIP3    H114883   3.884   4.436   2.524  0.8667 -0.6206 -0.4012
 4959TIP3    H214884   3.827   4.304   2.571  0.1085  0.0141  0.4962
 4960TIP3   OH214885   5.221   0.871   0.295 -0.1139 -0.3430  0.2844
 4960TIP3    H114886   5.211   0.966   0.294  1.4276 -0.1592 -0.2109
 4960TIP3    H214887   5.237   0.847   0.204  0.7283 -0.9204  0.5706
 4961TIP3   OH214888   4.545   0.820   2.289  0.1659 -0.3062  0.6897
 4961TIP3    H114889   4.492   0.887   2.333  0.4060 -0.1735  0.7788
 4961TIP3    H214890   4.633   0.858   2.285 -0.2128  0.4471 -1.5094
 4962TIP3   OH214891   1.246   2.541   2.349  0.1310  0.1279 -0.0423
 4962TIP3    H114892   1.255   2.625   2.304  0.3906  0.3055  0.3366
 4962TIP3    H214893   1.154   2.518   2.340 -0.2241  1.0772  0.9592
 4963TIP3   OH214894   4.472   1.229   2.930  0.5653 -0.0053  0.2608
 4963TIP3    H114895   4.552   1.279   2.916  0.7694 -0.6963 -1.2182
 4963TIP3    H214896   4.446   1.200   2.843 -0.5765 -0.8909  0.8662
 4964TIP3   OH214897   3.786   2.534   0.718  0.1119  0.2197  0.5084
 4964TIP3    H114898   3.701   2.580   0.718 -0.7532 -1.3073 -0.1847
 4964TIP3    H214899   3.800   2.510   0.809 -0.3467  0.2426  0.5897
 4965TIP3   OH214900   5.120   3.113   3.886  0.8238 -0.0183  0.4298
 4965TIP3    H114901   5.178   3.047   3.849  1.3436  0.9396 -0.4990
 4965TIP3    H214902   5.088   3.074   3.967  0.1769 -1.9040 -0.6843
 4966TIP3   OH214903   4.888   0.743   4.841 -0.0048 -0.3849 -0.0297
 4966TIP3    H114904   4.824   0.748   4.769 -0.3220 -0.5924  0.2368
 4966TIP3    H214905   4.967   0.784   4.805 -0.6657  1.0204  0.0455
 4967TIP3   OH214906   0.530   4.057   2.664  0.2798  0.2408  0.5863
 4967TIP3    H114907   0.508   4.091   2.577  0.7929 -0.3031  0.2271
 4967TIP3    H214908   0.576   3.975   2.646  0.6915  0.2896  1.3667
 4968TIP3   OH214909   4.562   0.056   0.572  0.4749  0.0162  0.1132
 4968TIP3    H114910   4.490  -0.000   0.541  0.6680  0.5420 -1.3863
 4968TIP3    H214911   4.547   0.140   0.528  0.2116  1.1800  2.2676
 4969TIP3   OH214912   0.480   4.533   3.016 -0.0031  0.0200  0.1789
 4969TIP3    H114913   0.444   4.619   2.993  0.7422  0.3206  0.0857
 4969TIP3    H214914   0.504   4.541   3.109 -0.8761 -0.4300  0.4510
 4970TIP3   OH214915   2.053   3.870   4.264 -0.3006  0.4631  0.1852
 4970TIP3    H114916   2.126   3.877   4.203 -0.1716  2.1151  0.4929
 4970TIP3    H214917   1.976   3.855   4.209  0.0577  0.1821 -0.2457
 4971TIP3   OH214918   4.203   3.976   2.211 -0.2435  0.2121  0.0418
 4971TIP3    H114919   4.280   3.935   2.171  0.2520  0.0700  1.1048
 4971TIP3    H214920   4.149   4.003   2.137  1.2979  1.2251 -0.7621
 4972TIP3   OH214921   2.128   3.469   2.202  0.3133 -0.1130 -0.6333
 4972TIP3    H114922   2.058   3.431   2.256  0.1779  0.7070 -0.2312
 4972TIP3    H214923   2.197   3.403   2.203 -0.5625 -1.0979 -1.3044
 4973TIP3   OH214924   3.714   4.422   2.064 -0.3767 -0.5769 -0.0602
 4973TIP3    H114925   3.654   4.485   2.102 -1.1889 -1.6473  0.4921
 4973TIP3    H214926   3.716   4.350   2.127 -0.0740 -1.4387 -1.0249
 4974TIP3   OH214927   3.178   2.331   4.768 -0.8011 -0.3681 -0.0045
 4974TIP3    H114928   3.271   2.309   4.762 -0.4648  1.0898 -0.7003
 4974TIP3    H214929   3.176   2.403   4.832 -1.4782 -0.5308  0.1556
 4975TIP3   OH214930   5.779   3.068   4.481  0.1056  0.4440 -0.0252
 4975TIP3    H114931   5.823   3.096   4.400  0.0480 -0.5952 -0.4359
 4975TIP3    H214932   5.798   2.974   4.487 -2.4887 -0.1939 -0.5047
 4976TIP3   OH214933   1.666   4.664   3.713  0.5455  0.0874 -0.5301
 4976TIP3    H114934   1.753   4.705   3.709 -0.1411  1.5755 -1.2938
 4976TIP3    H214935   1.617   4.720   3.773 -0.0610 -0.3721 -0.5987
 4977TIP3   OH214936   5.986   2.031   3.697 -0.1078  0.1743  0.2136
 4977TIP3    H114937   6.053   1.985   3.645 -0.1888 -0.0067  0.2696
 4977TIP3    H214938   5.935   2.080   3.632  0.6028  0.9949  0.2471
 4978TIP3   OH214939   0.041   1.577   2.676 -0.3107 -0.1860  0.1540
 4978TIP3    H114940   0.114   1.596   2.734  0.3091  0.0956 -0.6898
 4978TIP3    H214941   0.061   1.626   2.596 -1.9164  0.7154  0.2544
 4979TIP3   OH214942   3.895   0.044   5.134 -0.2925  0.7192 -0.3006
 4979TIP3    H114943   3.848   0.029   5.052 -0.2271  0.8778 -0.3675
 4979TIP3    H214944   3.986   0.025   5.113 -0.2988  0.6014 -0.2215
 4980TIP3   OH214945   0.397   4.186   1.190 -0.4417 -0.2790  0.0535
 4980TIP3    H114946   0.333   4.225   1.250  0.9870 -0.0734  1.5005
 4980TIP3    H214947   0.393   4.241   1.112 -0.9111  0.6716  0.7285
 4981TIP3   OH214948   0.535   0.402   4.260 -0.0743  0.1155 -0.2185
 4981TIP3    H114949   0.477   0.356   4.199 -1.0434  2.2368 -0.9825
 4981TIP3    H214950   0.509   0.369   4.346 -0.5022 -0.9861 -0.7445
 4982TIP3   OH214951   5.432   0.051   1.336 -0.3565  0.8643 -0.3868
 4982TIP3    H114952   5.444   0.082   1.246  2.3762 -1.3865 -0.9809
 4982TIP3    H214953   5.474   0.117   1.390 -0.4668  1.3926 -0.9318
 4983TIP3   OH214954   3.103   3.729   2.580  0.1674 -0.1825  0.1422
 4983TIP3    H114955   3.134   3.803   2.528  1.2493 -0.3357  0.5481
 4983TIP3    H214956   3.157   3.655   2.553 -0.1041 -0.5530  0.5916
 4984TIP3   OH214957   1.171   4.285   0.338 -0.2608 -0.1153  0.2317
 4984TIP3    H114958   1.141   4.282   0.248  0.0426  0.7838  0.0828
 4984TIP3    H214959   1.262   4.314   0.332 -1.0462  2.8767  0.9259
 4985TIP3   OH214960   4.626   5.461   1.042 -0.1836 -0.1859  0.6059
 4985TIP3    H114961   4.537   5.484   1.014 -0.0871  1.5905  1.5990
 4985TIP3    H214962   4.622   5.461   1.137  0.7777 -0.6045  0.6515
 4986TIP3   OH214963   3.351   5.434   1.227 -0.4162 -0.5926  0.1954
 4986TIP3    H114964   3.375   5.493   1.298  0.5013 -3.0648  2.0437
 4986TIP3    H214965   3.256   5.444   1.220 -0.2783  1.1875  0.3042
 4987TIP3   OH214966   3.929   3.102   2.265  1.0217  0.3500 -0.5254
 4987TIP3    H114967   3.962   3.161   2.333 -0.7241 -0.5688  1.2138
 4987TIP3    H214968   3.838   3.130   2.251  1.0828 -0.0512 -1.8319
 4988TIP3   OH214969   5.181   4.257   0.748 -0.1423 -0.1888 -0.5024
 4988TIP3    H114970   5.194   4.255   0.653  0.2226 -1.6785 -0.4508
 4988TIP3    H214971   5.089   4.281   0.759 -0.2227 -0.1201 -1.2404
 4989TIP3   OH214972   4.780   0.057   4.202 -0.4561 -0.2478 -0.7904
 4989TIP3    H114973   4.705   0.018   4.248 -1.4363  1.4467 -0.8823
 4989TIP3    H214974   4.830  -0.018   4.170 -2.8409 -1.4407 -1.9066
 4990TIP3   OH214975   1.019   2.580   0.261 -0.3079  0.0894  0.3319
 4990TIP3    H114976   0.995   2.506   0.318  1.1835 -0.4943  0.2289
 4990TIP3    H214977   1.066   2.640   0.319 -2.9082  1.8163  0.8287
 4991TIP3   OH214978   2.156   1.202   2.491 -0.4589  0.2873  0.0338
 4991TIP3    H114979   2.171   1.295   2.511 -0.8321  0.0611  1.4261
 4991TIP3    H214980   2.070   1.183   2.528  0.5276 -1.1474  1.7191
 4992TIP3   OH214981   2.071   1.491   2.795  0.1105 -0.1032  0.1533
 4992TIP3    H114982   2.049   1.490   2.702  1.1466  0.1071 -0.1060
 4992TIP3    H214983   2.007   1.433   2.836  1.1924 -2.2311 -1.0400
 4993TIP3   OH214984   4.589   2.696   4.599 -0.0069 -0.1491 -0.7061
 4993TIP3    H114985   4.517   2.649   4.642  0.7920 -0.7374  0.0294
 4993TIP3    H214986   4.585   2.668   4.508 -2.3053  1.8096 -1.3080
 4994TIP3   OH214987   2.237   4.040   1.898 -0.1610  0.2004  0.4946
 4994TIP3    H114988   2.217   3.961   1.948  0.5211 -0.4457 -0.2238
 4994TIP3    H214989   2.160   4.095   1.908 -0.6241 -0.5311  1.0515
 4995TIP3   OH214990   0.088   1.895   3.254 -0.1791 -0.4579  0.0862
 4995TIP3    H114991   0.173   1.851   3.257  0.1475  0.1955  1.6597
 4995TIP3    H214992   0.041   1.852   3.183  1.3388 -1.0584 -0.6040
 4996TIP3   OH214993   2.225   3.018   4.113 -0.6301  0.5166  0.1288
 4996TIP3    H114994   2.246   2.947   4.173 -0.2206 -0.3240 -0.9688
 4996TIP3    H214995   2.135   2.999   4.084 -0.1265 -0.2452 -1.0410
 4997TIP3   OH214996   1.540   4.973   4.587 -0.1512  0.1910 -0.4558
 4997TIP3    H114997   1.529   5.066   4.607  2.6853  0.4778  0.1808
 4997TIP3    H214998   1.575   4.935   4.667 -1.2921 -1.4735 -0.6943
 4998TIP3   OH214999   0.223   1.322   1.078 -0.5124  0.4609  0.4029
 4998TIP3    H115000   0.269   1.241   1.058  0.1204  1.4941 -2.9507
 4998TIP3    H215001   0.266   1.356   1.156  1.5681 -0.6854 -0.1813
 4999TIP3   OH215002   5.580   2.159   2.378 -0.2060 -0.5118  0.1538
 4999TIP3    H115003   5.551   2.210   2.302  0.0742  1.7263  1.4458
 4999TIP3    H215004   5.499   2.139   2.426 -0.2059 -0.0083  0.3724
 5000TIP3   OH215005   3.422   0.680   2.493 -0.2539 -0.1729  0.6007
 5000TIP3    H115006   3.384   0.649   2.575 -1.4090 -0.8723 -0.1755
 5000TIP3    H215007   3.365   0.752   2.467  2.7194  3.2765  2.6907
 5001TIP3   OH215008   4.247   1.432   1.408  0.5521 -0.4120 -0.5816
 5001TIP3    H115009   4.242   1.371   1.334  0.8432 -2.2203  0.8170
 5001TIP3    H215010   4.170   1.488   1.398  0.1097 -1.1855 -1.7656
 5002TIP3   OH215011   0.295   0.815   3.563 -0.0664 -0.7644 -0.0651
 5002TIP3    H115012   0.252   0.729   3.562  0.9638 -1.3175  1.1049
 5002TIP3    H215013   0.292   0.842   3.654  0.9624 -0.2527 -0.1763
 5003TIP3   OH215014   4.369   4.554   3.797  0.0689 -0.2820 -0.1759
 5003TIP3    H115015   4.345   4.481   3.740  0.0299  0.2102 -0.8015
 5003TIP3    H215016   4.383   4.627   3.737 -2.5569  0.9876  0.5929
 5004TIP3   OH215017   3.888   0.097   4.193 -0.4767 -0.0362 -0.8328
 5004TIP3    H115018   3.864   0.013   4.234  0.8370  0.2721  0.6353
 5004TIP3    H215019   3.978   0.112   4.220 -0.6988  1.8795 -1.0309
 5005TIP3   OH215020   5.534   5.402   0.618  0.5032  0.2230 -0.1150
 5005TIP3    H115021   5.534   5.353   0.700  0.8165 -0.4322 -0.5063
 5005TIP3    H215022   5.555   5.492   0.644 -0.7017  0.2970  0.6823
 5006TIP3   OH215023   4.979   2.251   1.125 -0.0432 -0.4483 -0.0567
 5006TIP3    H115024   5.055   2.211   1.082 -0.9978 -0.2141 -2.1178
 5006TIP3    H215025   5.011   2.336   1.156  0.7683 -0.7448 -0.0587
 5007TIP3   OH215026   3.863   1.890   2.442 -0.5494 -0.1287 -0.6755
 5007TIP3    H115027   3.887   1.893   2.535  0.1341 -0.9340 -0.8150
 5007TIP3    H215028   3.896   1.972   2.406 -2.8715  1.3061  0.2423
 5008TIP3   OH215029   2.105   3.235   3.872  0.3976 -0.2262  0.2184
 5008TIP3    H115030   2.036   3.289   3.911 -0.3128 -0.9388 -0.0352
 5008TIP3    H215031   2.186   3.273   3.907 -0.0916  0.7936  0.3117
 5009TIP3   OH215032   1.303   0.125   1.521 -0.2278 -0.3716  0.0729
 5009TIP3    H115033   1.309   0.087   1.434  1.0386  1.9926 -0.9359
 5009TIP3    H215034   1.220   0.174   1.520  0.0907  0.1664 -0.0193
 5010TIP3   OH215035   3.591   1.096   3.040  0.3144  0.4846 -0.7828
 5010TIP3    H115036   3.627   1.009   3.059  0.6497  0.4303 -1.6239
 5010TIP3    H215037   3.513   1.078   2.987 -1.4460  0.5582  1.6337
 5011TIP3   OH215038   0.253   4.744   1.169 -0.3789  0.2802 -0.1642
 5011TIP3    H115039   0.287   4.696   1.093 -0.3841  0.4146 -0.2506
 5011TIP3    H215040   0.159   4.753   1.152 -0.1497  1.6192 -0.8622
 5012TIP3   OH215041   0.619   2.600   3.062  0.3634 -0.1332  0.3562
 5012TIP3    H115042   0.707   2.608   3.098  1.1951 -1.7715 -1.1860
 5012TIP3    H215043   0.589   2.690   3.053  2.8968  0.6326 -1.4570
 5013TIP3   OH215044   0.553   4.250   1.440 -0.0851  0.3122  0.4219
 5013TIP3    H115045   0.487   4.264   1.373 -0.3189  1.7421  0.9106
 5013TIP3    H215046   0.521   4.175   1.490 -1.0557  0.6377  0.3093
 5014TIP3   OH215047   1.198   2.263   1.802 -0.0703  0.5119 -0.3791
 5014TIP3    H115048   1.221   2.305   1.885  1.9603 -2.0764  0.5359
 5014TIP3    H215049   1.266   2.293   1.741  0.3466 -0.0402 -0.1970
 5015TIP3   OH215050   2.903   5.531   1.889  0.3699  0.4167 -0.1233
 5015TIP3    H115051   2.857   5.473   1.828 -0.6835  0.4946  0.5744
 5015TIP3    H215052   2.892   5.619   1.851 -0.0710  0.4350  0.0377
 5016TIP3   OH215053   0.657   1.221   4.176  0.1338  0.2903 -0.4280
 5016TIP3    H115054   0.713   1.297   4.190  2.1943 -1.2138  0.0632
 5016TIP3    H215055   0.665   1.170   4.257  0.6338 -1.5170 -1.5594
 5017TIP3   OH215056   3.426   1.219   2.295 -0.1746  0.3261  0.1623
 5017TIP3    H115057   3.500   1.275   2.317  1.1520 -0.4470 -2.0322
 5017TIP3    H215058   3.371   1.272   2.238 -0.0282  0.0985 -0.1935
 5018TIP3   OH215059   4.852   2.787   3.437 -0.3604 -0.2545 -0.4009
 5018TIP3    H115060   4.931   2.751   3.397  0.8730 -0.1109  1.7188
 5018TIP3    H215061   4.827   2.860   3.380  1.4768  0.1519 -0.7634
 5019TIP3   OH215062   2.744   4.767   0.126  0.2702 -0.5348  0.6740
 5019TIP3    H115063   2.812   4.769   0.058  1.5618  1.5527  1.9225
 5019TIP3    H215064   2.688   4.842   0.107  1.3680  0.8468  2.5041
 5020TIP3   OH215065   5.464   4.824   1.089 -0.5805  0.8456 -0.4257
 5020TIP3    H115066   5.477   4.775   1.008 -1.5170  0.0128 -0.0901
 5020TIP3    H215067   5.490   4.763   1.158 -1.3866  0.9584 -0.0195
 5021TIP3   OH215068   3.257   2.494   2.602  0.1271 -0.7448 -0.6712
 5021TIP3    H115069   3.256   2.586   2.630 -1.2465 -0.6824 -0.8404
 5021TIP3    H215070   3.235   2.498   2.508 -0.7351 -1.2821 -0.5034
 5022TIP3   OH215071   4.355   0.203   5.037  0.5588  0.6289  0.1406
 5022TIP3    H115072   4.390   0.192   5.125 -0.3820 -0.1783  0.4362
 5022TIP3    H215073   4.427   0.241   4.987  1.0913  1.1538  1.2657
 5023TIP3   OH215074   3.671   0.281   3.660  0.2648 -0.4723 -0.3251
 5023TIP3    H115075   3.645   0.364   3.621 -1.0248  0.4324  2.2585
 5023TIP3    H215076   3.764   0.292   3.680  0.1572  0.2656 -0.2186
 5024TIP3   OH215077   3.694   0.078   1.927 -0.3178  0.1735  0.6372
 5024TIP3    H115078   3.735   0.025   1.859  2.6334  1.1380  1.5331
 5024TIP3    H215079   3.671   0.160   1.883 -1.7121 -0.5063  0.0446
 5025TIP3   OH215080   5.429   3.447   4.454  0.0869 -0.4402 -0.3926
 5025TIP3    H115081   5.510   3.492   4.477 -0.2843  0.0692 -0.0537
 5025TIP3    H215082   5.453   3.355   4.451  0.2508 -0.5060  1.6678
 5026TIP3   OH215083   2.653   2.460   1.226  0.3625  0.2395 -0.4738
 5026TIP3    H115084   2.725   2.397   1.234 -0.4188 -0.6747 -0.4659
 5026TIP3    H215085   2.657   2.489   1.135  0.4477 -0.1813 -0.6085
 5027TIP3   OH215086   3.165   0.244   1.419  0.2706  0.1103 -0.2368
 5027TIP3    H115087   3.192   0.152   1.419 -1.5954 -0.6257  3.1856
 5027TIP3    H215088   3.213   0.283   1.492 -1.5964  0.8205  0.7018
 5028TIP3   OH215089   4.659   1.865   4.490 -0.1892 -0.0320 -0.3560
 5028TIP3    H115090   4.731   1.892   4.546  0.7402  0.3157 -1.6626
 5028TIP3    H215091   4.609   1.802   4.543  1.6272 -1.0408  0.2421
 5029TIP3   OH215092   4.928   4.629   0.266  0.3791  0.0731 -0.2622
 5029TIP3    H115093   4.946   4.535   0.270 -2.2133 -0.4542  2.2685
 5029TIP3    H215094   4.931   4.650   0.173  3.0003 -2.0213 -0.7794
 5030TIP3   OH215095   6.235   4.610   2.648 -0.4655  0.2292  0.1045
 5030TIP3    H115096   6.173   4.550   2.689 -1.0270 -1.3641 -2.7459
 5030TIP3    H215097   6.319   4.564   2.651 -0.4208  0.2937 -0.1128
 5031TIP3   OH215098   4.605   1.257   3.794  0.6294  0.4096 -0.3725
 5031TIP3    H115099   4.605   1.351   3.810  0.6906  0.2934  0.3663
 5031TIP3    H215100   4.686   1.241   3.745  2.1891  0.3674  2.0292
 5032TIP3   OH215101   1.324   3.970   3.650 -0.6144  0.3246  0.0226
 5032TIP3    H115102   1.273   3.968   3.731 -1.3802 -1.8141 -0.4409
 5032TIP3    H215103   1.379   3.892   3.655  0.3897  0.9470 -0.8848
 5033TIP3   OH215104   0.004   3.927   0.902 -0.2651 -0.2777 -0.5133
 5033TIP3    H115105  -0.006   3.860   0.970 -0.1154  1.0081  0.8197
 5033TIP3    H215106   0.002   3.878   0.820 -1.4592 -1.7724  0.3593
 5034TIP3   OH215107   1.247   0.838   0.543 -0.7944  0.0116  0.1980
 5034TIP3    H115108   1.294   0.861   0.623 -0.8785  1.7373 -0.2094
 5034TIP3    H215109   1.183   0.908   0.532 -1.7861 -0.9791 -0.6010
 5035TIP3   OH215110   3.756   2.332   4.812 -0.4247 -0.0816  0.6086
 5035TIP3    H115111   3.760   2.417   4.856  1.0503 -0.6144  1.5624
 5035TIP3    H215112   3.825   2.280   4.853 -0.3694 -1.2937 -0.9281
 5036TIP3   OH215113   3.485   2.674   4.438 -0.6808  0.4822 -0.5610
 5036TIP3    H115114   3.402   2.630   4.420 -1.0656  0.9890 -0.0812
 5036TIP3    H215115   3.470   2.765   4.414  0.5577  0.1426 -2.9005
 5037TIP3   OH215116   0.132   0.777   4.526  0.2746  0.5198  0.4419
 5037TIP3    H115117   0.077   0.836   4.580 -0.8408 -0.2492  0.1830
 5037TIP3    H215118   0.207   0.758   4.582  0.0217  1.1756  1.0326
 5038TIP3   OH215119   5.491   5.466   2.428  0.5670 -0.1401  0.4818
 5038TIP3    H115120   5.477   5.372   2.437 -0.6478 -0.0846 -0.4688
 5038TIP3    H215121   5.576   5.474   2.384  1.1401 -0.7405  1.4533
 5039TIP3   OH215122   2.522   5.789   2.320 -0.2286  0.5628  0.4943
 5039TIP3    H115123   2.473   5.794   2.238  0.3465 -0.3880  0.0749
 5039TIP3    H215124   2.590   5.857   2.310  0.8662 -0.6216 -0.5512
 5040TIP3   OH215125   6.154   1.443   0.719 -0.0683 -0.6046  0.0463
 5040TIP3    H115126   6.171   1.533   0.746 -2.4792 -0.4198  1.2552
 5040TIP3    H215127   6.180   1.389   0.794 -1.4435 -0.5994  0.5601
 5041TIP3   OH215128   2.920   1.430   4.203  0.5348 -0.2605 -0.1173
 5041TIP3    H115129   2.946   1.364   4.140 -1.5239 -1.0137 -0.2543
 5041TIP3    H215130   2.839   1.467   4.168  0.2054  0.4423  1.2915
 5042TIP3   OH215131   5.570   5.118   1.801 -0.5052 -0.3021 -0.5190
 5042TIP3    H115132   5.516   5.047   1.768 -0.7845  0.6001 -2.1170
 5042TIP3    H215133   5.520   5.198   1.782  0.5269  0.4220 -0.3151
 5043TIP3   OH215134   2.560   0.905   4.274 -0.0796  0.2356 -0.3604
 5043TIP3    H115135   2.611   0.949   4.206  0.8475  0.3421  0.3793
 5043TIP3    H215136   2.572   0.812   4.256  2.2750  0.1770  1.0829
 5044TIP3   OH215137   4.820   0.462   4.354 -0.2955  0.0367 -0.0598
 5044TIP3    H115138   4.831   0.556   4.363  0.5792  0.0625 -1.0744
 5044TIP3    H215139   4.907   0.426   4.375 -0.7246 -0.5749  0.7069
 5045TIP3   OH215140   4.679   2.613   2.985  0.1902 -0.3619  0.1042
 5045TIP3    H115141   4.638   2.529   3.005 -1.6173  0.0906 -1.3657
 5045TIP3    H215142   4.663   2.666   3.063 -1.9358 -0.2943 -0.3040
 5046TIP3   OH215143   4.929   0.007   0.141  0.1538  0.0359  0.4368
 5046TIP3    H115144   4.941  -0.017   0.233  0.0312 -1.0076  0.1868
 5046TIP3    H215145   4.855   0.068   0.143 -0.4428 -0.6781  0.9411
 5047TIP3   OH215146   5.751   0.994   2.995 -1.0603  0.3460  0.2891
 5047TIP3    H115147   5.715   0.909   3.021  0.6135 -0.4955 -0.0082
 5047TIP3    H215148   5.778   1.036   3.077 -1.7978  0.5690  0.4269
 5048TIP3   OH215149   3.798   2.464   1.039 -0.1931  0.9139 -0.4578
 5048TIP3    H115150   3.761   2.378   1.061 -0.6835  0.9164 -1.2235
 5048TIP3    H215151   3.892   2.447   1.028 -0.2349  0.5408 -0.2787
 5049TIP3   OH215152   2.999   2.940   4.761  0.1456  0.1624  0.5270
 5049TIP3    H115153   3.035   2.936   4.850  0.0039 -2.7860  0.5490
 5049TIP3    H215154   3.038   3.018   4.723  1.3277  0.7253  2.7195
 5050TIP3   OH215155   4.359   2.657   3.204  0.2604  0.3559 -0.3274
 5050TIP3    H115156   4.434   2.606   3.172  0.4531  0.9961 -0.9126
 5050TIP3    H215157   4.365   2.650   3.300  1.9772  1.6628 -0.3059
 5051TIP3   OH215158   2.906   4.954   0.641 -0.6579  0.1581 -0.4278
 5051TIP3    H115159   2.895   4.947   0.546 -2.7262 -0.0260 -0.2233
 5051TIP3    H215160   2.899   5.048   0.659  0.6605  0.2901 -0.5275
 5052TIP3   OH215161   2.571   5.299   2.294 -0.0226 -0.5401  0.3222
 5052TIP3    H115162   2.495   5.354   2.315  0.1382  0.2030 -0.9772
 5052TIP3    H215163   2.646   5.358   2.301  0.2389 -0.8040 -0.2651
 5053TIP3   OH215164   3.827   4.543   3.477 -0.5696  0.0519  0.6917
 5053TIP3    H115165   3.769   4.602   3.525 -1.1091 -1.0199  1.3841
 5053TIP3    H215166   3.788   4.537   3.390 -0.3380  0.9358  0.5123
 5054TIP3   OH215167   4.930   4.387   0.819 -0.4197  0.2184 -0.0664
 5054TIP3    H115168   4.888   4.460   0.865  0.8139  0.9172 -0.0023
 5054TIP3    H215169   4.862   4.353   0.761 -0.6732  2.2134 -1.0018
 5055TIP3   OH215170   1.109   2.902   1.715 -0.1247  0.0387  0.8390
 5055TIP3    H115171   1.096   2.876   1.624 -0.7197  0.9515  0.6485
 5055TIP3    H215172   1.113   2.997   1.712 -0.9268  0.1236  1.8607
 5056TIP3   OH215173   3.609   1.173   1.820  0.1773  0.3935  0.2689
 5056TIP3    H115174   3.622   1.130   1.736 -0.0566 -0.8302  0.8245
 5056TIP3    H215175   3.549   1.245   1.802  2.2192  1.8535 -1.0721
 5057TIP3   OH215176   1.696   3.173   0.152 -0.6230 -0.4985  0.0936
 5057TIP3    H115177   1.687   3.151   0.059  0.9252  0.2986 -0.2755
 5057TIP3    H215178   1.790   3.178   0.167 -0.8516 -0.0865  1.5850
 5058TIP3   OH215179   4.246   0.637   4.542  0.3909  0.1309  0.0584
 5058TIP3    H115180   4.318   0.580   4.513  1.0081  1.0221 -0.2079
 5058TIP3    H215181   4.233   0.614   4.634 -0.2740 -1.3684 -0.3812
 5059TIP3   OH215182   4.303  -0.001   3.023  0.5188 -0.0580 -0.1398
 5059TIP3    H115183   4.314   0.072   3.083  0.9548 -0.5922  0.4404
 5059TIP3    H215184   4.256   0.036   2.948  0.1972  0.6687  0.4118
 5060TIP3   OH215185   2.642   5.526   2.038 -0.0145  0.0879 -0.7296
 5060TIP3    H115186   2.717   5.529   2.098 -0.4321  0.9516 -0.2305
 5060TIP3    H215187   2.651   5.442   1.992  0.6018 -0.3499  0.1644
 5061TIP3   OH215188   0.107   2.322   1.783 -0.0292  0.5351 -0.2393
 5061TIP3    H115189   0.067   2.252   1.836 -0.5273  0.6908 -0.4088
 5061TIP3    H215190   0.176   2.357   1.839  0.0636  0.0701 -0.0553
 5062TIP3   OH215191   3.167   5.044   1.696  0.7205  0.2279  0.1149
 5062TIP3    H115192   3.123   5.122   1.730 -0.4019 -0.0434 -0.6671
 5062TIP3    H215193   3.238   5.078   1.643  1.3441  0.6768  1.1985
 5063TIP3   OH215194   1.628   4.689   0.529 -0.5506 -0.4362 -0.3990
 5063TIP3    H115195   1.716   4.674   0.495 -0.5407  1.9498 -1.5757
 5063TIP3    H215196   1.641   4.703   0.623  0.0694 -1.7959 -0.2566
 5064TIP3   OH215197   5.801   0.649   0.622  0.1487  0.5126  0.3287
 5064TIP3    H115198   5.825   0.557   0.612 -0.6263  0.1091  1.7987
 5064TIP3    H215199   5.855   0.680   0.696 -0.7291  0.7777  0.8794
 5065TIP3   OH215200   3.096   4.932   2.482 -0.2570  0.6909  0.2107
 5065TIP3    H115201   3.131   5.018   2.458 -0.8935  0.5059 -1.5082
 5065TIP3    H215202   3.023   4.918   2.422  0.3597 -1.4128 -0.1182
 5066TIP3   OH215203   2.599   4.013   3.772 -0.4106 -0.3320 -0.3994
 5066TIP3    H115204   2.629   3.958   3.699 -0.2215 -0.0723 -0.5157
 5066TIP3    H215205   2.508   3.987   3.784 -0.6547  0.1166 -1.1834
 5067TIP3   OH215206   0.038   2.698   4.531 -0.0623 -0.1554 -0.3101
 5067TIP3    H115207   0.115   2.653   4.498  0.3458 -1.0314  1.7066
 5067TIP3    H215208   0.042   2.785   4.491  1.9612 -0.1921 -0.2893
 5068TIP3   OH215209   4.939   3.518   4.755 -0.2025  0.0188 -0.3682
 5068TIP3    H115210   4.913   3.427   4.741  0.6302 -0.0354 -1.7443
 5068TIP3    H215211   4.994   3.539   4.679 -0.3147  1.6410 -0.0331
 5069TIP3   OH215212   0.733   1.075   4.707  0.3340 -0.1383  0.6638
 5069TIP3    H115213   0.752   0.984   4.731  0.5369 -0.6431 -1.2093
 5069TIP3    H215214   0.682   1.110   4.780  0.9541 -1.5041  1.7851
 5070TIP3   OH215215   4.186   3.087   2.573  0.2562 -0.6690  0.6416
 5070TIP3    H115216   4.203   3.086   2.479  1.0782 -1.9714  0.7803
 5070TIP3    H215217   4.259   3.039   2.612  2.6536  3.9178  2.5054
 5071TIP3   OH215218   0.256   5.219   3.462  0.3156 -0.0507 -0.7263
 5071TIP3    H115219   0.342   5.178   3.460 -0.6768 -2.4531  1.1952
 5071TIP3    H215220   0.274   5.311   3.483  2.3687 -0.8653  1.5734
 5072TIP3   OH215221   0.885   5.373   2.421 -0.3940  0.6384 -0.5822
 5072TIP3    H115222   0.811   5.385   2.362 -0.7236 -0.9433 -0.5498
 5072TIP3    H215223   0.848   5.386   2.509 -1.3995 -2.8688 -0.3527
 5073TIP3   OH215224   1.853   0.461   4.622  0.4319  0.1055  0.3847
 5073TIP3    H115225   1.944   0.434   4.637  0.5512 -0.9229 -1.7785
 5073TIP3    H215226   1.803   0.380   4.627 -0.3684  0.6249  1.2625
 5074TIP3   OH215227   5.425   0.076   2.762  0.8401 -0.0672  0.3353
 5074TIP3    H115228   5.488   0.020   2.808  0.1960  0.5819  2.0940
 5074TIP3    H215229   5.444   0.164   2.793 -0.7213  0.1848  0.6763
 5075TIP3   OH215230   4.222   1.677   3.475 -0.6234 -0.0885 -0.5716
 5075TIP3    H115231   4.269   1.617   3.533  2.0982  2.1200 -0.2754
 5075TIP3    H215232   4.189   1.746   3.532  0.2687  1.0125 -1.3323
 5076TIP3   OH215233   2.469   4.933   3.069  0.1274 -0.1744  0.7401
 5076TIP3    H115234   2.433   4.885   2.994  1.8326  1.9866 -1.6038
 5076TIP3    H215235   2.395   4.985   3.101 -0.1323  0.5631 -0.9242
 5077TIP3   OH215236   4.296   5.456   1.246 -0.2315  0.0003 -0.3831
 5077TIP3    H115237   4.243   5.535   1.237 -0.2423  0.1408  0.8442
 5077TIP3    H215238   4.250   5.390   1.194 -0.3135  0.7319 -1.2796
 5078TIP3   OH215239   6.326   3.871   1.513  0.2655  0.3328  0.1135
 5078TIP3    H115240   6.352   3.949   1.464  0.6952 -0.7802 -1.5177
 5078TIP3    H215241   6.256   3.832   1.460 -0.7497  0.2128  1.5023
 5079TIP3   OH215242   4.416   2.699   3.463 -0.1471 -0.1462  0.1210
 5079TIP3    H115243   4.509   2.684   3.479 -0.0503  0.2975 -0.0008
 5079TIP3    H215244   4.376   2.695   3.549 -0.2643 -1.9214  0.0143
 5080TIP3   OH215245   5.484   0.666   0.661  0.3985  0.3115  0.4911
 5080TIP3    H115246   5.440   0.738   0.615  0.3624 -0.0597 -0.0703
 5080TIP3    H215247   5.577   0.679   0.642  0.4170  0.3684  0.6199
 5081TIP3   OH215248   4.090   0.915   5.174 -0.0633 -0.8753  0.3580
 5081TIP3    H115249   4.029   0.889   5.105 -1.0616  0.1657  0.8073
 5081TIP3    H215250   4.114   1.005   5.152 -1.3306 -0.0895  1.9495
 5082TIP3   OH215251   2.086   5.804   4.241 -0.1519  1.0502  0.2583
 5082TIP3    H115252   2.146   5.729   4.238  0.6847  1.7321 -0.3987
 5082TIP3    H215253   2.001   5.766   4.221  0.4140  0.4205 -1.0916
 5083TIP3   OH215254   2.627   4.151   0.302 -0.0911  0.0792 -0.4160
 5083TIP3    H115255   2.614   4.060   0.328  0.1407 -0.1559 -1.1048
 5083TIP3    H215256   2.623   4.150   0.206 -2.9536  1.2286 -0.4115
 5084TIP3   OH215257   2.180   3.477   2.634  0.1985  0.2696 -0.1030
 5084TIP3    H115258   2.135   3.561   2.635  1.3416  0.9043 -0.6747
 5084TIP3    H215259   2.271   3.498   2.615  0.7126 -1.0113  0.8024
 5085TIP3   OH215260   0.316   2.631   4.461 -0.0307  0.6287 -0.2193
 5085TIP3    H115261   0.376   2.557   4.453  0.6289  1.0498  0.6995
 5085TIP3    H215262   0.373   2.708   4.463 -0.5854  1.0293  0.7012
 5086TIP3   OH215263   3.308   3.591   4.987  0.2225 -0.6440 -0.9845
 5086TIP3    H115264   3.335   3.592   5.079 -0.3162 -1.1664 -0.8134
 5086TIP3    H215265   3.354   3.665   4.947  0.5039 -0.4503 -0.3093
 5087TIP3   OH215266   1.447   5.978   2.875  0.1569 -0.6418 -0.3591
 5087TIP3    H115267   1.404   6.064   2.866  0.7620 -0.3374 -0.3616
 5087TIP3    H215268   1.375   5.918   2.897 -0.6019 -0.5067 -2.2534
 5088TIP3   OH215269   1.679   2.575   2.462 -0.5160  0.2682  0.1359
 5088TIP3    H115270   1.618   2.644   2.486  1.9510  2.2369  1.2387
 5088TIP3    H215271   1.732   2.561   2.540  1.6797  0.1154 -1.2733
 5089TIP3   OH215272   4.768   0.391   1.804 -0.5037  0.1780  0.0513
 5089TIP3    H115273   4.743   0.478   1.773  1.8558 -0.1782 -3.4672
 5089TIP3    H215274   4.695   0.334   1.780 -1.2903  0.8518  0.7701
 5090TIP3   OH215275   5.357   5.192   1.181 -0.1641  0.2946  0.3054
 5090TIP3    H115276   5.375   5.114   1.233  1.0003  1.3826  1.6165
 5090TIP3    H215277   5.267   5.216   1.205 -0.6013 -0.7028 -0.2482
 5091TIP3   OH215278   0.152   3.507   0.100 -0.6162  0.3481  0.6211
 5091TIP3    H115279   0.203   3.570   0.150 -2.2459  2.0647  0.2419
 5091TIP3    H215280   0.201   3.494   0.019  0.3910  0.0823  1.2603
 5092TIP3   OH215281   2.566   2.615   3.132  0.7889 -0.1197  0.3380
 5092TIP3    H115282   2.542   2.537   3.082  2.5235  0.0550 -0.8473
 5092TIP3    H215283   2.506   2.683   3.100  1.0224 -0.3252 -0.5559
 5093TIP3   OH215284   5.749   3.645   1.945  0.0354 -0.5171  0.1705
 5093TIP3    H115285   5.786   3.730   1.971  0.0985 -0.4913 -0.0017
 5093TIP3    H215286   5.822   3.585   1.950  0.1089 -0.4602 -0.2012
 5094TIP3   OH215287   4.085   4.277   1.548  0.0894 -0.0326  0.1998
 5094TIP3    H115288   4.165   4.248   1.504 -0.6382  0.1582 -1.3133
 5094TIP3    H215289   4.077   4.370   1.525 -0.3341  0.0648  0.7083
 5095TIP3   OH215290   6.245   1.848   5.196  0.2256  0.2285  1.0112
 5095TIP3    H115291   6.338   1.849   5.219  0.3121  0.6277  0.6494
 5095TIP3    H215292   6.242   1.810   5.108  0.2345  1.9548  0.2359
 5096TIP3   OH215293   2.022   2.926   4.479  0.1342 -0.4250  0.2085
 5096TIP3    H115294   2.048   2.842   4.517  0.7757  0.2448  1.3120
 5096TIP3    H215295   2.080   2.990   4.520 -0.4498  0.5837 -0.4870
 5097TIP3   OH215296   4.187   3.773   0.156 -0.5521  0.2140 -0.6306
 5097TIP3    H115297   4.153   3.697   0.204  1.0421 -0.4340 -0.4383
 5097TIP3    H215298   4.116   3.836   0.157 -1.1303 -0.3887  1.2369
 5098TIP3   OH215299   4.495   3.934   2.914 -0.3502 -0.1883  0.0086
 5098TIP3    H115300   4.467   4.017   2.876  1.4835  0.1432 -0.7179
 5098TIP3    H215301   4.590   3.942   2.921 -0.0124 -2.6281 -1.0615
 5099TIP3   OH215302   4.027   5.988   2.584  0.0717 -0.2569  0.4877
 5099TIP3    H115303   3.981   5.915   2.543  0.0060 -0.6650  1.2657
 5099TIP3    H215304   4.028   5.966   2.677 -0.6103  1.0865  0.8412
 5100TIP3   OH215305   2.616   1.607   2.905 -0.2719  0.2122  0.0500
 5100TIP3    H115306   2.634   1.515   2.927 -1.4624  0.1145  0.6996
 5100TIP3    H215307   2.522   1.617   2.922 -0.0454  1.7007  0.5067
 5101TIP3   OH215308   3.827   4.905   4.929  0.0124 -0.0227 -0.0999
 5101TIP3    H115309   3.882   4.840   4.884  1.6734  0.2639  1.3855
 5101TIP3    H215310   3.848   4.893   5.022 -1.7773  0.7613  0.4416
 5102TIP3   OH215311   5.487   2.717   0.372 -0.5681 -0.3050  0.1472
 5102TIP3    H115312   5.435   2.734   0.451 -0.0912 -0.2566  0.4559
 5102TIP3    H215313   5.435   2.753   0.301 -0.2539  1.1541  0.6154
 5103TIP3   OH215314   5.227   5.811   0.430  0.1775 -0.1175  0.6629
 5103TIP3    H115315   5.207   5.725   0.393  0.9682 -0.2964  0.6432
 5103TIP3    H215316   5.168   5.820   0.505 -1.5094  0.2693 -0.6383
 5104TIP3   OH215317   4.533   5.768   0.787  0.0478  0.2175  0.1964
 5104TIP3    H115318   4.495   5.701   0.843  1.2921 -0.6721 -0.0031
 5104TIP3    H215319   4.457   5.819   0.757 -1.3838 -2.8918 -2.0750
 5105TIP3   OH215320   4.453   4.204   2.260 -0.2590  0.2568  0.2658
 5105TIP3    H115321   4.420   4.293   2.248 -0.2616  0.5225  2.0017
 5105TIP3    H215322   4.446   4.164   2.173  1.3541  2.4509 -0.9666
 5106TIP3   OH215323   5.544   0.278   2.857  0.3935 -0.2166 -0.1215
 5106TIP3    H115324   5.595   0.251   2.933 -0.3570 -3.8372 -0.7585
 5106TIP3    H215325   5.479   0.339   2.892  1.4740 -0.0159  1.6720
 5107TIP3   OH215326   3.293   4.966   0.521 -0.3395 -0.0290 -0.0885
 5107TIP3    H115327   3.235   4.964   0.445  0.7301 -0.3526 -0.9386
 5107TIP3    H215328   3.266   5.042   0.571 -0.3128  0.8930 -1.4363
 5108TIP3   OH215329   4.656   1.536   3.760  0.4642 -0.2576 -0.1368
 5108TIP3    H115330   4.663   1.629   3.736 -0.1906 -0.9220 -3.3462
 5108TIP3    H215331   4.735   1.496   3.724  0.1666 -1.1518  0.1799
 5109TIP3   OH215332   5.969   4.253   3.059  0.3988  0.5563 -0.0630
 5109TIP3    H115333   5.990   4.285   3.147  1.7556  0.6870 -0.4151
 5109TIP3    H215334   5.920   4.172   3.074  0.8707  0.4236  0.8246
 5110TIP3   OH215335   3.019   5.712   3.492 -0.4398 -0.2996 -0.0330
 5110TIP3    H115336   3.041   5.760   3.412 -0.6263 -1.5391 -0.8529
 5110TIP3    H215337   2.926   5.729   3.505  0.3719  3.5687  2.5013
 5111TIP3   OH215338   4.141   4.855   5.066  0.5455 -0.0515 -0.1800
 5111TIP3    H115339   4.116   4.926   5.125 -0.8516  0.5562 -1.4300
 5111TIP3    H215340   4.220   4.886   5.021  0.6531  0.1771  0.1690
 5112TIP3   OH215341   6.247   2.822   5.023 -0.3628  0.2013 -0.4788
 5112TIP3    H115342   6.304   2.899   5.017 -0.7521  0.5344  0.0857
 5112TIP3    H215343   6.293   2.755   4.973  0.9196  0.2344  0.5985
 5113TIP3   OH215344   5.607   4.137   2.402 -0.1194  0.1306  0.1911
 5113TIP3    H115345   5.687   4.168   2.443 -0.4486  0.2293  0.7640
 5113TIP3    H215346   5.563   4.216   2.371 -0.1412  0.1008  0.1459
 5114TIP3   OH215347   1.755   0.061   3.880 -0.0521 -0.2294  0.1114
 5114TIP3    H115348   1.814   0.108   3.822 -1.1987  1.3523  0.1652
 5114TIP3    H215349   1.798   0.062   3.965 -1.2677  3.3788  0.8494
 5115TIP3   OH215350   1.221   2.968   4.343 -0.0665 -0.5387  0.1131
 5115TIP3    H115351   1.146   2.948   4.288  0.1459  0.7689 -0.7028
 5115TIP3    H215352   1.186   2.971   4.432 -1.2690  1.1918 -0.3629
 5116TIP3   OH215353   2.743   5.627   2.694 -0.0332 -0.1750  0.5222
 5116TIP3    H115354   2.718   5.699   2.751 -1.2101 -1.9785  2.4062
 5116TIP3    H215355   2.762   5.554   2.753 -0.9154 -2.0324 -1.3414
 5117TIP3   OH215356   0.057   5.166   4.007 -0.1028  0.3088 -0.2426
 5117TIP3    H115357   0.022   5.215   3.932  1.5403  0.8365 -0.7109
 5117TIP3    H215358   0.103   5.092   3.967 -2.4830 -1.6502  0.4515
 5118TIP3   OH215359   4.936   0.800   0.023  0.4530 -0.2507 -0.0771
 5118TIP3    H115360   5.017   0.750   0.035 -0.2788 -2.1613 -2.4135
 5118TIP3    H215361   4.897   0.803   0.111  2.0471 -1.1009  0.7098
 5119TIP3   OH215362   6.249   1.682   0.827  0.8004 -0.0952 -0.1868
 5119TIP3    H115363   6.268   1.767   0.866 -2.5632  2.2859 -3.1600
 5119TIP3    H215364   6.326   1.663   0.773  1.3282  1.3922 -0.0127
 5120TIP3   OH215365   0.673   0.154   0.331  0.2171  0.3050  0.5926
 5120TIP3    H115366   0.581   0.183   0.326 -0.0141 -0.6161 -1.9597
 5120TIP3    H215367   0.724   0.234   0.318 -0.3798  0.3196 -2.6624
 5121TIP3   OH215368   1.638   5.650   2.932  0.3039  0.2535  0.2943
 5121TIP3    H115369   1.703   5.634   2.864  0.6700  1.2648  0.3912
 5121TIP3    H215370   1.678   5.619   3.013 -0.6067 -2.0963 -0.0829
 5122TIP3   OH215371   0.825   2.613   4.100  0.0233  0.5112 -0.6703
 5122TIP3    H115372   0.766   2.586   4.029 -0.6993  1.7730 -0.5876
 5122TIP3    H215373   0.904   2.561   4.087 -0.9882 -1.0357 -0.9559
 5123TIP3   OH215374   0.318   5.510   0.800 -0.4367  0.2082  0.1747
 5123TIP3    H115375   0.262   5.441   0.837 -1.5853  1.1610  0.2876
 5123TIP3    H215376   0.272   5.591   0.820  1.1219  1.0645  0.4474
 5124TIP3   OH215377   4.695   4.218   0.664 -0.0561  0.1761 -0.3790
 5124TIP3    H115378   4.761   4.153   0.688 -1.9721 -1.0958  1.9013
 5124TIP3    H215379   4.642   4.174   0.597 -1.2196 -0.6429  1.0085
 5125TIP3   OH215380   3.182   4.519   1.276 -0.8728  0.1262 -0.3103
 5125TIP3    H115381   3.276   4.537   1.272 -1.0035  0.6719 -3.2241
 5125TIP3    H215382   3.152   4.569   1.352  1.1981 -0.3488  0.9145
 5126TIP3   OH215383   2.674   3.235   1.559 -0.0465  0.1104 -0.3299
 5126TIP3    H115384   2.605   3.293   1.526 -1.4715 -0.5415  1.3474
 5126TIP3    H215385   2.633   3.188   1.632  1.2903 -2.3733 -1.0395
 5127TIP3   OH215386   3.839   0.683   1.351  0.5319 -0.3692 -0.6179
 5127TIP3    H115387   3.748   0.657   1.338  0.0966  1.3409 -1.3349
 5127TIP3    H215388   3.841   0.724   1.438  1.1195 -2.3063  0.3272
 5128TIP3   OH215389   5.039   3.509   2.905 -0.1985  0.1451 -0.0492
 5128TIP3    H115390   5.051   3.592   2.859  1.0740 -0.2449 -0.4600
 5128TIP3    H215391   5.071   3.527   2.994  0.0020  0.1224 -0.1158
 5129TIP3   OH215392   5.753   0.744   2.168  0.0317  0.2543 -0.6830
 5129TIP3    H115393   5.747   0.752   2.073  1.3575  0.7709 -0.7382
 5129TIP3    H215394   5.814   0.812   2.195 -1.3903  1.0684  0.7111
 5130TIP3   OH215395   0.232   3.750   2.051 -0.1482  0.5493  0.1109
 5130TIP3    H115396   0.272   3.674   2.008 -0.9368 -0.0473  0.4090
 5130TIP3    H215397   0.231   3.817   1.983  0.1608  0.1473 -0.2975
 5131TIP3   OH215398   4.296   4.531   4.120 -0.1578  0.0145  0.2117
 5131TIP3    H115399   4.316   4.539   4.213 -2.1788  1.2039  0.6050
 5131TIP3    H215400   4.328   4.613   4.082  0.5258 -0.4039 -0.1288
 5132TIP3   OH215401   4.689   1.373   2.829 -0.0220 -0.3051  0.1892
 5132TIP3    H115402   4.748   1.449   2.827  0.3265 -0.5754  0.1035
 5132TIP3    H215403   4.644   1.376   2.744 -1.3649  0.8516  0.8945
 5133TIP3   OH215404   2.549   4.033   4.104 -0.0252  0.0628 -0.4006
 5133TIP3    H115405   2.515   4.090   4.035 -2.8098 -0.4885  0.3855
 5133TIP3    H215406   2.508   4.066   4.184  1.9869 -0.2143  0.8228
 5134TIP3   OH215407   3.788   2.250   3.315 -0.5657 -0.4420  0.4315
 5134TIP3    H115408   3.831   2.209   3.391  0.0620  2.4941  1.8075
 5134TIP3    H215409   3.860   2.286   3.263 -1.1288 -0.0003 -0.0547
 5135TIP3   OH215410   5.622   1.007   3.757  0.1286  0.7072 -0.1277
 5135TIP3    H115411   5.541   0.960   3.737  0.5692  0.0954 -0.5114
 5135TIP3    H215412   5.593   1.088   3.798 -0.6698  0.3701 -0.0075
 5136TIP3   OH215413   0.923   3.412   2.494  0.1187 -0.2624  0.0634
 5136TIP3    H115414   0.902   3.499   2.526  0.7124  0.2766 -0.9665
 5136TIP3    H215415   0.863   3.354   2.542 -1.3935  0.8630 -0.3611
 5137TIP3   OH215416   1.152   2.456   3.007 -0.0732  0.4215 -0.5008
 5137TIP3    H115417   1.223   2.403   2.972  0.3214  0.5374  0.1012
 5137TIP3    H215418   1.076   2.436   2.952 -0.0906 -1.2194  0.0767
 5138TIP3   OH215419   5.258   1.458   3.032  0.1175  0.3424  0.0236
 5138TIP3    H115420   5.181   1.410   3.063 -0.5351  1.3626  0.0193
 5138TIP3    H215421   5.222   1.529   2.978  1.1067  0.2549 -0.7886
 5139TIP3   OH215422   1.716   0.324   0.662 -0.4281 -0.5940  0.2581
 5139TIP3    H115423   1.643   0.371   0.621 -0.0734 -1.2440 -1.1717
 5139TIP3    H215424   1.791   0.384   0.652  0.7393 -2.3929 -4.1929
 5140TIP3   OH215425   5.688   3.084   3.479 -0.1892  0.0362 -0.3347
 5140TIP3    H115426   5.680   3.155   3.415  0.0960  0.9260  0.5918
 5140TIP3    H215427   5.767   3.037   3.452  1.3042  1.8297  0.6982
 5141TIP3   OH215428   2.380   3.196   0.182 -0.0958  0.1902 -0.4901
 5141TIP3    H115429   2.310   3.254   0.209  0.3355  1.0670 -1.2141
 5141TIP3    H215430   2.455   3.253   0.165  1.4502 -0.8713  2.1365
 5142TIP3   OH215431   0.223   5.256   4.440  0.4174  0.5831  0.1562
 5142TIP3    H115432   0.265   5.268   4.355  0.9005 -0.4981  0.2264
 5142TIP3    H215433   0.135   5.293   4.429  0.3956  0.2419 -0.8897
 5143TIP3   OH215434   4.223   0.105   3.620  0.2839 -0.2074  0.6043
 5143TIP3    H115435   4.245   0.105   3.713  1.2723 -1.2860  0.3864
 5143TIP3    H215436   4.243   0.194   3.591  0.1309  0.0875  1.3839
 5144TIP3   OH215437   2.814   0.879   4.419  0.1107  0.0741 -0.3417
 5144TIP3    H115438   2.829   0.846   4.330  0.2278  1.7406 -0.9816
 5144TIP3    H215439   2.726   0.917   4.416  0.0256 -0.0564  0.3318
 5145TIP3   OH215440   3.271   4.473   1.932  0.3913  0.2360 -0.5930
 5145TIP3    H115441   3.316   4.472   1.848  0.5549  0.8668 -0.5171
 5145TIP3    H215442   3.330   4.519   1.991  1.1793 -1.9343  0.4049
 5146TIP3   OH215443   0.392   3.453   3.568  0.4024  0.6062 -0.7859
 5146TIP3    H115444   0.435   3.456   3.482 -0.3045 -0.9048 -1.2290
 5146TIP3    H215445   0.464   3.450   3.631  0.9282  0.9623 -1.3655
 5147TIP3   OH215446   0.717   3.348   1.169 -0.0170 -0.0035  0.2339
 5147TIP3    H115447   0.751   3.437   1.171  4.2773 -1.4046  2.2046
 5147TIP3    H215448   0.680   3.335   1.256 -0.4977 -0.2007  0.0013
 5148TIP3   OH215449   4.286   4.366   1.969 -0.0724  0.7207 -0.5883
 5148TIP3    H115450   4.238   4.363   2.052  1.9011  2.7253  0.7388
 5148TIP3    H215451   4.230   4.319   1.907 -1.7494 -0.6308  1.7822
 5149TIP3   OH215452   5.883   1.557   4.848 -1.1343 -0.2054 -0.5636
 5149TIP3    H115453   5.899   1.494   4.918  1.2808 -0.3734 -1.1777
 5149TIP3    H215454   5.950   1.624   4.860 -0.4132 -0.4314 -2.9065
 5150TIP3   OH215455   5.885   3.366   3.608  0.2627  0.3562  0.2721
 5150TIP3    H115456   5.822   3.359   3.536  0.0111  0.2419  0.5018
 5150TIP3    H215457   5.880   3.281   3.652 -1.7205  1.3523  2.1828
 5151TIP3   OH215458   5.482   0.435   1.405 -0.0277 -0.5061 -0.4759
 5151TIP3    H115459   5.491   0.349   1.447  1.2044 -0.1754 -0.0321
 5151TIP3    H215460   5.398   0.430   1.359  0.2380 -2.1264 -0.8553
 5152TIP3   OH215461   5.558   4.718   1.944 -0.2254 -0.1164 -0.0262
 5152TIP3    H115462   5.565   4.666   1.864  2.3207  0.7272 -0.4504
 5152TIP3    H215463   5.578   4.655   2.014 -1.1653 -0.5640 -0.1420
 5153TIP3   OH215464   1.754   5.490   0.428  0.5476  0.1897 -0.3419
 5153TIP3    H115465   1.660   5.507   0.420  0.0877 -1.4752  0.8720
 5153TIP3    H215466   1.759   5.403   0.469  2.5986  0.7487  0.7257
 5154TIP3   OH215467   0.856   4.175   3.677 -0.0575 -0.1271 -0.2347
 5154TIP3    H115468   0.846   4.090   3.635 -1.8840 -1.1470  2.0439
 5154TIP3    H215469   0.830   4.238   3.610 -0.0184 -1.4247 -1.5335
 5155TIP3   OH215470   1.344   4.251   2.826  0.2873 -0.6163  0.3128
 5155TIP3    H115471   1.268   4.286   2.871  0.0945 -0.8678  0.1844
 5155TIP3    H215472   1.319   4.249   2.733 -0.1381 -2.1683  0.4382
 5156TIP3   OH215473   0.088   4.367   3.892  0.0212  0.3768  0.4839
 5156TIP3    H115474   0.021   4.322   3.840  0.4481 -0.4012  0.5762
 5156TIP3    H215475   0.110   4.444   3.840  1.1271 -0.8716 -1.0254
 5157TIP3   OH215476   3.363   4.223   2.354 -0.8836 -0.1349 -0.3385
 5157TIP3    H115477   3.270   4.244   2.344 -0.6221  1.8092  0.7412
 5157TIP3    H215478   3.376   4.220   2.449  0.4751  1.4165 -0.4224
 5158TIP3   OH215479   3.625   2.473   1.756  0.1405 -0.1850  0.2574
 5158TIP3    H115480   3.584   2.529   1.821  1.8064  1.5352 -0.1010
 5158TIP3    H215481   3.676   2.410   1.807 -1.6525 -1.3795  0.6582
 5159TIP3   OH215482   1.420   3.273   4.084 -0.0027 -0.3196 -0.0870
 5159TIP3    H115483   1.436   3.361   4.049 -1.3437  0.2060  0.5461
 5159TIP3    H215484   1.382   3.287   4.170  0.1401 -1.5396  0.2004
 5160TIP3   OH215485   4.228   2.512   2.012 -0.0117 -0.4129  0.1068
 5160TIP3    H115486   4.289   2.479   2.077  1.2879 -0.3220 -1.0075
 5160TIP3    H215487   4.143   2.513   2.056  0.3119 -2.9866  0.9078
 5161TIP3   OH215488   4.298   0.861   0.542 -0.1263 -0.7566 -0.4601
 5161TIP3    H115489   4.381   0.885   0.502  0.9017 -1.6466  1.0741
 5161TIP3    H215490   4.278   0.933   0.603  0.0639 -1.0607 -0.0392
 5162TIP3   OH215491   0.249   2.961   3.515  0.0423  0.0100  0.2795
 5162TIP3    H115492   0.306   2.945   3.440  0.8534  1.6750  0.4939
 5162TIP3    H215493   0.241   3.056   3.519 -4.8549 -0.0178 -1.2975
 5163TIP3   OH215494   6.012   3.141   0.457 -0.2867  0.0437 -0.0476
 5163TIP3    H115495   6.006   3.065   0.399  0.6548  1.5510 -2.2868
 5163TIP3    H215496   6.087   3.122   0.514 -0.2615 -0.8300 -0.3587
 5164TIP3   OH215497   1.051   5.113   1.306 -0.4528  0.2318  0.2430
 5164TIP3    H115498   1.064   5.175   1.378 -3.3422  0.9110  0.2971
 5164TIP3    H215499   1.010   5.037   1.346 -0.4166 -0.1369 -0.4080
 5165TIP3   OH215500   1.403   2.012   3.351 -0.0970  0.1625  0.0695
 5165TIP3    H115501   1.322   2.022   3.300  0.1706 -0.1977 -0.4279
 5165TIP3    H215502   1.441   2.100   3.353  0.3134  0.0252 -1.0687
 5166TIP3   OH215503   5.591   4.691   0.868 -0.4753  0.0081  0.1159
 5166TIP3    H115504   5.632   4.777   0.875  0.4569 -0.4474  0.5308
 5166TIP3    H215505   5.601   4.667   0.776  1.3824 -0.6250  0.4335
 5167TIP3   OH215506   0.550   2.180   1.629 -0.1941  0.5171 -0.7031
 5167TIP3    H115507   0.617   2.113   1.617  0.1070  0.6318  0.2644
 5167TIP3    H215508   0.484   2.160   1.563  0.2693 -0.2542 -0.9431
 5168TIP3   OH215509   1.378   0.687   4.722  0.2472  0.1268 -0.8593
 5168TIP3    H115510   1.371   0.593   4.703 -0.3798 -0.0093 -0.0197
 5168TIP3    H215511   1.409   0.725   4.640 -0.8663 -0.6295 -1.6764
 5169TIP3   OH215512   0.072   4.363   4.166 -0.1826 -0.0179  0.2736
 5169TIP3    H115513   0.058   4.376   4.073 -1.3055  3.1617  0.7596
 5169TIP3    H215514  -0.011   4.387   4.207  0.6325 -0.2115  2.1774
 5170TIP3   OH215515   5.184   0.618   0.440  0.0595  0.3188 -0.2402
 5170TIP3    H115516   5.213   0.698   0.396 -1.1382  0.2957 -1.1006
 5170TIP3    H215517   5.093   0.635   0.464 -0.1498 -0.7101 -0.2566
 5171TIP3   OH215518   1.099   0.537   2.328 -0.4772 -0.1106  0.1310
 5171TIP3    H115519   1.128   0.446   2.324  0.2149  0.0559  1.0566
 5171TIP3    H215520   1.142   0.580   2.254 -1.2750 -0.6509 -0.6615
 5172TIP3   OH215521   4.166   3.148   0.510  0.2174 -0.2889  0.6597
 5172TIP3    H115522   4.082   3.193   0.517  0.3193  1.5892 -4.8817
 5172TIP3    H215523   4.143   3.057   0.493 -0.3673 -0.7379  3.4733
 5173TIP3   OH215524   2.702   2.973   3.000 -0.0008  0.4437 -0.0580
 5173TIP3    H115525   2.753   3.007   3.074  0.0557  0.9445 -0.3197
 5173TIP3    H215526   2.642   2.910   3.039  0.4415  0.2595  0.3328
 5174TIP3   OH215527   1.283   3.674   1.796  0.0173 -0.3883  0.3334
 5174TIP3    H115528   1.309   3.735   1.866 -1.3009  1.1072 -0.4052
 5174TIP3    H215529   1.364   3.632   1.769  0.6857 -0.3604  2.1631
 5175TIP3   OH215530   0.792   4.282   3.908  0.2153  0.1130 -0.1215
 5175TIP3    H115531   0.812   4.244   3.823 -0.7475  0.8452 -0.6977
 5175TIP3    H215532   0.708   4.326   3.895  0.4017  0.8355  1.0210
 5176TIP3   OH215533   6.038   3.248   0.948 -0.3652  0.2107 -0.2008
 5176TIP3    H115534   6.087   3.278   0.871  0.8652  1.1653  0.9081
 5176TIP3    H215535   6.075   3.297   1.021 -0.4577 -1.7322  1.2463
 5177TIP3   OH215536   0.775   1.644   2.120 -0.0120  0.2755 -0.1496
 5177TIP3    H115537   0.760   1.657   2.027  0.3035  0.4468 -0.1795
 5177TIP3    H215538   0.769   1.731   2.158  2.2774  0.6053 -0.3768
 5178TIP3   OH215539   4.119   3.605   2.361 -0.0144  0.7367 -0.0974
 5178TIP3    H115540   4.086   3.648   2.440  1.3550  1.0724  0.3268
 5178TIP3    H215541   4.089   3.661   2.289 -1.5853  0.2283  0.1295
 5179TIP3   OH215542   4.552   1.288   1.310 -0.1940  0.3310 -0.1403
 5179TIP3    H115543   4.513   1.301   1.396 -0.7283 -0.6001 -0.2302
 5179TIP3    H215544   4.643   1.262   1.328 -0.1577  0.6418  0.1226
 5180TIP3   OH215545   2.894   4.358   4.566  0.1183  0.8626 -0.3019
 5180TIP3    H115546   2.903   4.403   4.482 -0.0953  2.7324  0.6166
 5180TIP3    H215547   2.810   4.312   4.560 -0.2577  1.6007 -0.8485
 5181TIP3   OH215548   4.750   2.501   4.862  0.1408  0.3859 -0.5488
 5181TIP3    H115549   4.813   2.557   4.816 -0.5472  0.3377 -1.5918
 5181TIP3    H215550   4.734   2.547   4.944 -0.1392  1.5542 -1.2274
 5182TIP3   OH215551   3.107   1.612   0.755 -0.1843  0.2917 -0.1866
 5182TIP3    H115552   3.029   1.661   0.779  0.0487  0.5882 -0.0304
 5182TIP3    H215553   3.076   1.523   0.741 -0.2698  0.0183  1.5731
 5183TIP3   OH215554   5.907   3.189   3.189  0.1241 -0.5269 -0.5195
 5183TIP3    H115555   5.837   3.226   3.135 -0.6817  0.9269  1.3836
 5183TIP3    H215556   5.988   3.219   3.148 -0.4823  2.0020 -0.0314
 5184TIP3   OH215557   6.135   0.326   4.198  0.2254 -0.5623 -0.2246
 5184TIP3    H115558   6.120   0.301   4.107  0.5896  0.1846 -0.5057
 5184TIP3    H215559   6.128   0.422   4.198  0.8544 -0.5020  0.4031
 5185TIP3   OH215560   2.100   1.610   2.028 -0.0083 -0.2457  0.4158
 5185TIP3    H115561   2.155   1.567   1.963 -0.2345 -0.2611  0.2367
 5185TIP3    H215562   2.069   1.690   1.985  0.2288 -0.0124  0.6692
 5186TIP3   OH215563   1.050   5.975   1.780 -0.2237 -0.0749  0.0704
 5186TIP3    H115564   1.080   5.979   1.871  1.9587 -0.5984 -0.5603
 5186TIP3    H215565   1.024   5.884   1.768 -0.7988  0.0633  0.2372
 5187TIP3   OH215566   0.660   4.763   2.629  0.2840  0.3978  0.5503
 5187TIP3    H115567   0.753   4.774   2.647  0.5329  2.7685 -1.5432
 5187TIP3    H215568   0.622   4.850   2.646 -1.6836 -0.6373  1.8548
 5188TIP3   OH215569   4.640   1.569   2.121  0.0218 -0.1489 -0.2617
 5188TIP3    H115570   4.566   1.526   2.165 -0.1135 -1.7947 -1.9755
 5188TIP3    H215571   4.708   1.501   2.117  0.6133  0.4777 -1.1448
 5189TIP3   OH215572   2.362   1.529   3.618  0.2538  0.0438  1.1308
 5189TIP3    H115573   2.316   1.540   3.535  1.0247  0.1139  0.7021
 5189TIP3    H215574   2.454   1.546   3.597  0.4463  0.1616  2.0200
 5190TIP3   OH215575   2.517   5.578   3.667  0.3579  0.2490 -0.0536
 5190TIP3    H115576   2.568   5.501   3.694 -0.4869  0.2898  1.8132
 5190TIP3    H215577   2.518   5.635   3.743 -2.3104  0.3160  0.0194
 5191TIP3   OH215578   2.816   0.046   5.082 -0.2830 -0.2978 -0.3134
 5191TIP3    H115579   2.762   0.104   5.028 -1.4745 -1.2177 -0.1669
 5191TIP3    H215580   2.902   0.047   5.040 -0.8673 -0.0763 -1.5527
 5192TIP3   OH215581   4.452   4.638   1.473  0.0627 -0.4935 -0.2248
 5192TIP3    H115582   4.455   4.673   1.384 -1.9185  0.5577  0.0545
 5192TIP3    H215583   4.491   4.551   1.466  0.3800 -0.2425 -2.0221
 5193TIP3   OH215584   3.478   0.973   4.438  0.3503 -0.0222  0.5159
 5193TIP3    H115585   3.412   1.036   4.467  0.3473 -0.5831  1.8005
 5193TIP3    H215586   3.522   1.017   4.365 -1.6283  0.2340 -0.5939
 5194TIP3   OH215587   3.713   2.513   5.025  1.0297  0.5511 -0.3751
 5194TIP3    H115588   3.619   2.532   5.028  0.9304  0.3712 -1.6463
 5194TIP3    H215589   3.722   2.428   5.068  0.2027 -0.7094 -2.4973
 5195TIP3   OH215590   4.880   2.793   0.437 -0.5072  0.1564  0.2016
 5195TIP3    H115591   4.809   2.763   0.494 -0.8268 -0.1274 -0.3393
 5195TIP3    H215592   4.853   2.767   0.349 -0.2462  1.0150 -0.1424
 5196TIP3   OH215593   0.881   3.853   2.843 -0.6123 -0.1335  0.7062
 5196TIP3    H115594   0.806   3.856   2.903 -1.1890 -1.8682  0.1276
 5196TIP3    H215595   0.946   3.801   2.889 -0.3118  0.1564  0.6128
 5197TIP3   OH215596   3.571   1.549   4.977 -0.2364  0.6777  0.2940
 5197TIP3    H115597   3.540   1.635   4.951  0.8620  1.1032  0.3047
 5197TIP3    H215598   3.528   1.532   5.061 -1.9939  0.3141 -0.6351
 5198TIP3   OH215599   3.684   0.989   2.188  0.4609  0.2957 -0.4704
 5198TIP3    H115600   3.705   1.070   2.141 -2.2489  0.9762 -0.6775
 5198TIP3    H215601   3.648   1.018   2.272 -1.4717 -0.5899 -0.9381
 5199TIP3   OH215602   4.881   1.800   2.765  0.0999 -0.0375 -0.0220
 5199TIP3    H115603   4.975   1.802   2.780 -0.0945 -1.6385  1.7788
 5199TIP3    H215604   4.856   1.708   2.775 -1.2870 -0.1439 -3.3334
 5200TIP3   OH215605   2.370   5.406   2.568  0.5165 -0.0474 -0.4687
 5200TIP3    H115606   2.313   5.464   2.620  0.1932 -0.1079 -0.7511
 5200TIP3    H215607   2.431   5.465   2.524 -0.4338  0.1884 -1.5372
 5201TIP3   OH215608   0.536   4.554   3.267  0.5659 -0.4273  0.4905
 5201TIP3    H115609   0.522   4.637   3.314  0.4830 -0.0215 -0.2485
 5201TIP3    H215610   0.586   4.501   3.329  1.1903  0.4092  0.7323
 5202TIP3   OH215611   1.327   2.123   1.095 -0.0553  0.0852 -0.2890
 5202TIP3    H115612   1.410   2.170   1.110  0.1542 -0.1686 -0.6481
 5202TIP3    H215613   1.302   2.091   1.182  0.4712 -0.2480 -0.2561
 5203TIP3   OH215614   3.435   4.614   1.332 -0.5532 -0.0309 -0.3154
 5203TIP3    H115615   3.501   4.659   1.279  1.0455 -0.2737  1.3668
 5203TIP3    H215616   3.439   4.658   1.417 -2.4553 -0.1873 -0.0901
 5204TIP3   OH215617   4.080   0.334   0.432  0.0886  0.6045 -0.0355
 5204TIP3    H115618   4.157   0.380   0.465 -0.4737  1.1668  0.4942
 5204TIP3    H215619   4.078   0.356   0.339  1.3043 -0.4736 -0.3595
 5205TIP3   OH215620   0.094   2.108   3.085 -0.4242 -0.3553 -0.1844
 5205TIP3    H115621   0.097   2.056   3.165 -1.5921 -0.4132 -0.1595
 5205TIP3    H215622   0.069   2.196   3.114  1.2988  0.2002 -0.2526
 5206TIP3   OH215623   2.145   5.617   4.652 -0.1929 -0.4941 -0.3772
 5206TIP3    H115624   2.144   5.578   4.565 -1.9674 -0.9866 -0.1785
 5206TIP3    H215625   2.057   5.653   4.663  0.6383  1.4708  0.3971
 5207TIP3   OH215626   1.077   1.305   1.475  0.5372 -0.2834 -0.2299
 5207TIP3    H115627   0.985   1.295   1.451  0.7993 -1.4293 -0.8134
 5207TIP3    H215628   1.103   1.219   1.508  1.6245 -0.2226 -0.8703
 5208TIP3   OH215629   4.407   5.167   4.773 -0.1890  0.4677 -0.0480
 5208TIP3    H115630   4.338   5.155   4.707  0.2936  2.1684 -0.9211
 5208TIP3    H215631   4.489   5.156   4.725  0.2053 -0.9330  0.8627
 5209TIP3   OH215632   4.029   2.462   3.201 -0.2090 -0.6289  0.2342
 5209TIP3    H115633   4.098   2.457   3.267 -0.2299 -0.9760  0.2340
 5209TIP3    H215634   4.052   2.538   3.148 -1.4756  1.1263  2.0615
 5210TIP3   OH215635   3.303   5.597   2.371 -0.3841  0.0652 -0.2413
 5210TIP3    H115636   3.395   5.575   2.359 -0.0520  0.8194  0.7957
 5210TIP3    H215637   3.283   5.571   2.461 -1.3502 -0.6111 -0.6257
 5211TIP3   OH215638   6.304   1.635   4.161  0.1398  0.1472 -0.3360
 5211TIP3    H115639   6.239   1.680   4.107  0.9356  1.3078 -0.3404
 5211TIP3    H215640   6.354   1.582   4.099 -0.0824  0.1047 -0.4822
 5212TIP3   OH215641   4.122   2.132   0.985 -0.2831 -0.0854 -0.0049
 5212TIP3    H115642   4.059   2.140   0.914 -1.0917 -0.8673  0.5993
 5212TIP3    H215643   4.160   2.220   0.994  1.3823 -0.4178 -2.7447
 5213TIP3   OH215644   5.961   2.682   0.632  0.2241 -0.2549 -0.0215
 5213TIP3    H115645   6.040   2.706   0.584 -0.3184 -1.8209 -1.7787
 5213TIP3    H215646   5.897   2.749   0.607  0.9360  1.0279  1.4208
 5214TIP3   OH215647   5.610   4.134   3.008  0.1496 -0.0328 -0.7405
 5214TIP3    H115648   5.605   4.129   2.913  2.0854  0.1000 -0.8712
 5214TIP3    H215649   5.576   4.221   3.029 -0.8354 -0.2815 -1.2409
 5215TIP3   OH215650   2.510   1.046   1.684 -0.0912  0.2506 -0.4067
 5215TIP3    H115651   2.521   1.113   1.616 -1.0555  0.2224 -0.6103
 5215TIP3    H215652   2.509   1.096   1.766 -1.7665  0.6322 -0.6171
 5216TIP3   OH215653   0.807   2.208   1.167 -0.5055  0.6006 -0.3766
 5216TIP3    H115654   0.781   2.203   1.074  1.0929 -1.5273 -0.7976
 5216TIP3    H215655   0.738   2.259   1.208 -2.8907 -0.9069 -2.2186
 5217TIP3   OH215656   1.628   2.724   1.139  0.4682 -0.4761  0.0036
 5217TIP3    H115657   1.691   2.716   1.067  1.2553 -2.5390  0.8293
 5217TIP3    H215658   1.594   2.813   1.132  0.6748 -0.5356 -2.7634
 5218TIP3   OH215659   0.341   4.142   3.374  0.2688 -0.0030 -0.1531
 5218TIP3    H115660   0.290   4.219   3.400  0.0231  0.1035 -0.9437
 5218TIP3    H215661   0.400   4.174   3.306 -1.4541 -0.9630 -2.2152
 5219TIP3   OH215662   3.328   0.365   4.032 -0.0372 -0.8292 -0.6462
 5219TIP3    H115663   3.310   0.459   4.027 -1.3352 -1.0603 -0.8380
 5219TIP3    H215664   3.350   0.350   4.124  0.4789 -0.3023 -0.6744
 5220TIP3   OH215665   3.937   1.942   5.172 -0.0025  0.0539 -0.1749
 5220TIP3    H115666   3.902   1.869   5.121  1.2180 -0.1757 -0.7420
 5220TIP3    H215667   4.024   1.912   5.199 -0.5284  0.2550  1.8927
 5221TIP3   OH215668   2.820   3.139   0.693 -0.2043 -0.2677  0.1069
 5221TIP3    H115669   2.876   3.071   0.655 -0.2300  0.5205 -1.4435
 5221TIP3    H215670   2.854   3.151   0.781  1.2223 -0.7395 -0.3425
 5222TIP3   OH215671   4.960   2.944   3.005 -0.0945 -0.2247  0.1786
 5222TIP3    H115672   5.013   2.908   3.075  0.9248 -2.1523 -1.4711
 5222TIP3    H215673   4.886   2.986   3.049 -0.1491 -2.3927  2.3450
 5223TIP3   OH215674   4.696   2.163   2.718 -0.0680 -0.3810  0.2301
 5223TIP3    H115675   4.669   2.138   2.630  0.9109  1.6621 -0.7488
 5223TIP3    H215676   4.638   2.115   2.776 -1.9775 -0.4077 -1.5756
 5224TIP3   OH215677   5.190   1.865   0.104 -0.5110 -0.1826  0.0429
 5224TIP3    H115678   5.229   1.786   0.066 -0.8528 -2.0546  3.2616
 5224TIP3    H215679   5.265   1.921   0.125  0.0446 -1.2422  0.9679
 5225TIP3   OH215680   1.112   0.474   2.641 -0.2259 -0.4085 -0.0738
 5225TIP3    H115681   1.022   0.462   2.613 -1.2040 -0.0938  2.5924
 5225TIP3    H215682   1.105   0.506   2.731  2.5608 -0.6132  0.3208
 5226TIP3   OH215683   0.911   5.276   4.551 -0.0642  0.1739 -0.2256
 5226TIP3    H115684   0.951   5.295   4.466 -1.0807  1.7844 -0.3913
 5226TIP3    H215685   0.909   5.360   4.596  0.0402 -0.5734  1.2295
 5227TIP3   OH215686   2.540   0.284   3.515  0.1290 -0.0816 -0.1495
 5227TIP3    H115687   2.451   0.251   3.504 -0.1937  1.4714 -3.0838
 5227TIP3    H215688   2.592   0.206   3.537 -1.3318 -1.8039 -2.3122
 5228TIP3   OH215689   1.785   1.231   3.231  0.1228  0.2402 -0.3211
 5228TIP3    H115690   1.768   1.138   3.243 -1.3022  0.3583 -1.1807
 5228TIP3    H215691   1.708   1.274   3.269  0.1523  0.9963 -1.0859
 5229TIP3   OH215692   3.515   1.749   1.010  0.0781  0.6505 -0.4060
 5229TIP3    H115693   3.511   1.768   1.104  0.4703  2.7412 -0.7605
 5229TIP3    H215694   3.602   1.712   0.997 -0.6108 -1.2955  0.2881
 5230TIP3   OH215695   3.446   4.853   3.048 -0.0479  0.1972  0.2169
 5230TIP3    H115696   3.446   4.804   2.967  0.0810  0.0139  0.3281
 5230TIP3    H215697   3.521   4.913   3.040 -0.6653  0.9285 -0.2506
 5231TIP3   OH215698   2.782   1.909   1.868 -1.0435  0.0788 -0.1854
 5231TIP3    H115699   2.871   1.882   1.891 -1.4898 -0.4239  1.0224
 5231TIP3    H215700   2.737   1.827   1.846 -0.7474  0.4838 -2.6353
 5232TIP3   OH215701   4.404   0.600   4.081 -0.7092 -0.1546  0.1992
 5232TIP3    H115702   4.448   0.551   4.151 -0.5525  0.0458  0.2407
 5232TIP3    H215703   4.441   0.565   4.000 -1.7791 -1.2702  0.1496
 5233TIP3   OH215704   2.133   0.046   3.992  0.1844 -0.2494 -0.0458
 5233TIP3    H115705   2.089   0.001   3.920  1.7290 -0.9173 -0.6178
 5233TIP3    H215706   2.062   0.086   4.042 -0.9334  0.4122 -2.0401
 5234TIP3   OH215707   6.006   1.816   4.624  0.9600  0.1168 -0.0726
 5234TIP3    H115708   6.070   1.773   4.568  1.3753  2.1938 -1.2691
 5234TIP3    H215709   6.056   1.881   4.672 -0.0749  1.0993 -0.2918
 5235TIP3   OH215710   4.383   4.626   4.363 -0.0476 -0.0508 -0.0400
 5235TIP3    H115711   4.454   4.683   4.334  0.9139 -0.1481  1.9840
 5235TIP3    H215712   4.309   4.685   4.376  0.9760  0.8500  2.1728
 5236TIP3   OH215713   4.932   3.247   0.221 -0.2816 -0.4257  0.4308
 5236TIP3    H115714   4.871   3.208   0.284 -0.8474  2.1139  1.5724
 5236TIP3    H215715   4.881   3.313   0.175  0.6988 -0.7681 -1.2475
 5237TIP3   OH215716   3.693   3.611   4.432 -0.0205  0.2106 -0.5757
 5237TIP3    H115717   3.775   3.660   4.425 -0.5705  1.5810  1.6143
 5237TIP3    H215718   3.709   3.544   4.498 -1.0318  1.4601  1.0102
 5238TIP3   OH215719   1.765   5.490   3.841  0.2331 -0.5340 -0.3419
 5238TIP3    H115720   1.730   5.485   3.930 -0.4910  1.9038 -0.4212
 5238TIP3    H215721   1.844   5.543   3.849 -0.4813  0.7117 -1.3007
 5239TIP3   OH215722   2.979   5.927   2.151 -0.5471  0.2111 -0.0760
 5239TIP3    H115723   3.043   5.880   2.205 -1.9470  1.4355  2.8521
 5239TIP3    H215724   2.897   5.880   2.164 -0.7738 -0.0410 -2.0338
 5240TIP3   OH215725   1.104   1.936   2.242 -0.1759 -0.5948  0.3197
 5240TIP3    H115726   1.117   1.907   2.152 -0.5560 -0.7588  0.3165
 5240TIP3    H215727   1.051   1.868   2.282 -0.4566 -0.2633  0.5198
 5241TIP3   OH215728   5.456   3.918   3.417  0.5868 -0.0296 -0.4209
 5241TIP3    H115729   5.486   3.965   3.495  2.2072 -1.2103 -0.3028
 5241TIP3    H215730   5.396   3.980   3.374  1.6444  1.6387  0.4085
 5242TIP3   OH215731   5.765   1.027   4.487  0.2218  0.4465  0.6033
 5242TIP3    H115732   5.688   1.078   4.463 -0.1309 -0.5475 -0.5096
 5242TIP3    H215733   5.827   1.091   4.523  0.0859  1.8076 -1.3918
 5243TIP3   OH215734   6.368   2.960   4.419  0.5325  0.2993 -0.1857
 5243TIP3    H115735   6.283   3.003   4.430 -1.1426 -2.8290  0.6085
 5243TIP3    H215736   6.375   2.944   4.325 -0.8280 -1.1375 -0.0996
 5244TIP3   OH215737   3.009   2.818   0.334  0.4561 -0.1300 -0.2081
 5244TIP3    H115738   3.029   2.755   0.404  1.2396 -1.4240 -1.5439
 5244TIP3    H215739   2.917   2.840   0.347 -0.0122 -2.0228 -0.0533
 5245TIP3   OH215740   2.184   0.490   3.475 -0.1243  0.5592  0.5860
 5245TIP3    H115741   2.204   0.580   3.503  0.8206  0.2423  0.9618
 5245TIP3    H215742   2.198   0.490   3.380 -1.3127  1.1098  0.3963
 5246TIP3   OH215743   3.560   3.347   1.686  0.5148  0.3707  0.4418
 5246TIP3    H115744   3.652   3.336   1.709  0.9658 -0.7978 -1.7087
 5246TIP3    H215745   3.552   3.312   1.598 -1.5822  2.3484 -0.2551
 5247TIP3   OH215746   3.772   5.279   4.126 -0.0929  0.0656 -0.3943
 5247TIP3    H115747   3.784   5.344   4.196  0.5557 -0.0681 -0.3714
 5247TIP3    H215748   3.681   5.251   4.134  0.2318 -0.6770  1.0374
 5248TIP3   OH215749   3.293   1.118   3.122 -0.9406 -0.0110 -0.2209
 5248TIP3    H115750   3.224   1.185   3.124  0.3203  1.6308 -3.4969
 5248TIP3    H215751   3.300   1.094   3.030  0.9466 -2.2510  0.4224
 5249TIP3   OH215752   5.829   4.677   3.158 -0.2217  0.2027  0.2576
 5249TIP3    H115753   5.854   4.670   3.250 -0.0667 -0.6108  0.1647
 5249TIP3    H215754   5.748   4.626   3.151  0.3006 -0.5824 -0.2406
 5250TIP3   OH215755   2.947   3.105   2.850  0.4222  0.4595  0.0017
 5250TIP3    H115756   2.952   3.170   2.920 -1.1180  1.5223 -0.8164
 5250TIP3    H215757   2.863   3.061   2.864  0.7980 -0.3755 -0.2938
 5251TIP3   OH215758   1.671   5.208   2.792 -0.3412 -0.1138 -0.3258
 5251TIP3    H115759   1.593   5.263   2.792 -0.2973 -0.0355  0.6518
 5251TIP3    H215760   1.636   5.118   2.793 -0.4175 -0.0855 -0.4324
 5252TIP3   OH215761   0.256   1.089   4.055 -0.5080  0.3777  1.2646
 5252TIP3    H115762   0.225   1.003   4.026 -1.2536  1.2995 -0.9022
 5252TIP3    H215763   0.299   1.072   4.138  0.9670 -2.3999  0.0832
 5253TIP3   OH215764   0.342   3.015   4.052 -0.4993 -0.4759  0.2269
 5253TIP3    H115765   0.307   3.047   4.134  0.1928 -0.8359  0.6714
 5253TIP3    H215766   0.278   3.042   3.986 -0.1994  1.3458  0.6467
 5254TIP3   OH215767   3.027   0.964   0.790 -0.4019 -0.5655 -0.1225
 5254TIP3    H115768   3.056   0.920   0.870  0.1072 -2.3304 -1.2378
 5254TIP3    H215769   3.101   0.958   0.730 -1.5652 -1.3330 -1.5268
 5255TIP3   OH215770   0.695   2.219   5.004  0.2964  0.0320  0.3593
 5255TIP3    H115771   0.600   2.231   5.005  0.2705 -0.0408 -0.5850
 5255TIP3    H215772   0.724   2.258   4.922  1.4492  2.5401  1.8508
 5256TIP3   OH215773   4.347   3.278   2.819  0.4152  0.0645  0.3278
 5256TIP3    H115774   4.402   3.283   2.741  1.6050 -1.4345  1.0005
 5256TIP3    H215775   4.373   3.353   2.872  1.2913 -0.2130  0.3020
 5257TIP3   OH215776   0.720   0.893   3.765  0.0581  0.1707  0.7126
 5257TIP3    H115777   0.702   0.964   3.703 -1.0041 -0.9622 -0.3288
 5257TIP3    H215778   0.664   0.912   3.839  2.0017  2.0467  1.8464
 5258TIP3   OH215779   3.263   1.841   1.228  0.3740 -0.3809  0.4176
 5258TIP3    H115780   3.348   1.808   1.259  0.6995  0.4041  0.3784
 5258TIP3    H215781   3.278   1.934   1.211 -0.3686 -0.3393 -0.0544
 5259TIP3   OH215782   5.291   5.082   3.644 -0.5091  0.2640 -0.1123
 5259TIP3    H115783   5.244   5.005   3.614 -0.4678  0.6723 -1.2793
 5259TIP3    H215784   5.384   5.060   3.634 -0.4982  0.4960 -0.5525
 5260TIP3   OH215785   5.799   5.302   1.099 -0.1028 -0.6193  0.3486
 5260TIP3    H115786   5.788   5.397   1.105 -0.5559 -0.6135 -0.4575
 5260TIP3    H215787   5.710   5.267   1.105  0.0736 -1.0003  0.7575
 5261TIP3   OH215788   5.116   0.100   4.917 -0.5444  0.2651 -0.2296
 5261TIP3    H115789   5.030   0.104   4.957 -1.1061  5.1704 -1.2423
 5261TIP3    H215790   5.112   0.025   4.858 -4.0175  0.1345 -0.0396
 5262TIP3   OH215791   1.337   1.987   4.727 -0.2652 -0.0803  0.0836
 5262TIP3    H115792   1.425   1.952   4.721 -1.0234 -2.1115  0.1341
 5262TIP3    H215793   1.330   2.019   4.817 -0.1548 -1.6059  0.6595
 5263TIP3   OH215794   1.287   5.327   0.917 -0.2567  0.2899  0.3424
 5263TIP3    H115795   1.297   5.232   0.907  1.1022  0.5115 -0.6870
 5263TIP3    H215796   1.371   5.363   0.891 -1.1672  1.8772 -0.5645
 5264TIP3   OH215797   3.099   4.191   3.931  0.7794 -0.0081  0.4883
 5264TIP3    H115798   3.088   4.232   4.017  1.5629  1.4454 -0.0657
 5264TIP3    H215799   3.039   4.117   3.932 -0.5420  1.0256  1.6306
 5265TIP3   OH215800   2.008   0.626   0.315 -0.1846 -0.2264 -0.6353
 5265TIP3    H115801   2.011   0.586   0.228 -0.4580  1.6401 -1.5686
 5265TIP3    H215802   1.980   0.716   0.298  1.9268  0.8652  1.1381
 5266TIP3   OH215803   5.798   0.825   4.656 -0.6910  0.1338 -0.3812
 5266TIP3    H115804   5.761   0.882   4.723 -0.7923 -1.0897  0.6358
 5266TIP3    H215805   5.794   0.877   4.575 -2.3204  0.9482  0.1795
 5267TIP3   OH215806   1.229   0.768   4.934 -0.1124  0.7665  0.2563
 5267TIP3    H115807   1.267   0.770   4.846  1.9307  0.4638  1.0910
 5267TIP3    H215808   1.147   0.720   4.923  0.2267  0.5189 -1.4309
 5268TIP3   OH215809   3.464   3.632   4.240 -0.4179  0.1452  0.1566
 5268TIP3    H115810   3.414   3.699   4.194  1.1516  1.0400 -0.3218
 5268TIP3    H215811   3.497   3.676   4.318 -2.0184 -1.0182  1.5844
 5269TIP3   OH215812   4.601   1.115   1.958 -0.4862  0.4045 -0.4494
 5269TIP3    H115813   4.567   1.131   1.870 -0.5878 -0.7288 -0.6297
 5269TIP3    H215814   4.673   1.053   1.945 -2.8191 -2.7888  0.5284
 5270TIP3   OH215815   1.218   0.996   5.125 -0.0831  0.3744 -0.0514
 5270TIP3    H115816   1.240   0.924   5.065 -2.6009 -0.2048 -0.3929
 5270TIP3    H215817   1.148   0.960   5.180 -0.2382  2.0537  0.8932
 5271TIP3   OH215818   6.055   2.719   2.983 -0.3564 -0.3391 -0.2453
 5271TIP3    H115819   6.064   2.777   2.907 -1.1186  0.6845  0.4149
 5271TIP3    H215820   5.974   2.748   3.025  0.0431 -0.9017  0.9444
 5272TIP3   OH215821   4.266   1.541   0.342 -0.1889 -0.1361 -0.1979
 5272TIP3    H115822   4.341   1.483   0.357 -1.2109 -1.7301 -0.9927
 5272TIP3    H215823   4.305   1.624   0.316  1.3533 -0.1792  1.7094
 5273TIP3   OH215824   3.825   5.779   3.086  0.5151  0.2892 -0.0000
 5273TIP3    H115825   3.760   5.764   3.155  1.0789 -2.7516  0.0155
 5273TIP3    H215826   3.825   5.874   3.073 -1.9743  0.6462  1.8512
 5274TIP3   OH215827   2.172   5.160   5.075  0.1945 -0.2357  0.4667
 5274TIP3    H115828   2.190   5.135   5.166 -0.2976  0.4744  0.7655
 5274TIP3    H215829   2.083   5.130   5.059 -0.4609  1.3912  0.8771
 5275TIP3   OH215830   2.507   1.030   4.526 -0.7170 -0.0669 -0.0182
 5275TIP3    H115831   2.430   0.996   4.572 -1.8222  1.0933 -0.9455
 5275TIP3    H215832   2.495   1.003   4.435  1.0914 -1.7290  0.1622
 5276TIP3   OH215833   0.955   5.695   2.401  0.4969 -0.0885 -0.4383
 5276TIP3    H115834   0.955   5.604   2.373  0.6691 -0.0789 -0.4662
 5276TIP3    H215835   1.047   5.719   2.407  0.5878 -0.7623  2.2917
 5277TIP3   OH215836   2.180   2.066   2.085 -0.6420  0.0099  0.2535
 5277TIP3    H115837   2.103   2.081   2.031  0.0091  1.7619 -0.2397
 5277TIP3    H215838   2.171   2.127   2.158 -0.1104 -0.3179  0.6020
 5278TIP3   OH215839   1.884   3.870   1.382 -0.1015 -0.1617  0.4665
 5278TIP3    H115840   1.965   3.832   1.418 -0.5959 -1.7702 -0.0363
 5278TIP3    H215841   1.898   3.869   1.287 -1.1055 -1.5030  0.3001
 5279TIP3   OH215842   0.293   5.704   5.062  0.9048 -0.0817 -0.7180
 5279TIP3    H115843   0.275   5.739   4.975  0.5184 -0.0065 -0.6112
 5279TIP3    H215844   0.282   5.778   5.121 -0.3918 -0.4643 -0.4374
 5280TIP3   OH215845   2.190   2.071   1.032  0.2142 -0.3589 -0.1763
 5280TIP3    H115846   2.239   2.148   1.001  0.1874  0.8172  2.4869
 5280TIP3    H215847   2.256   2.011   1.064  0.0669  0.3345  1.4927
 5281TIP3   OH215848   1.129   4.445   1.550 -0.3352  1.2501 -0.1553
 5281TIP3    H115849   1.125   4.370   1.490 -0.7422  0.7871  0.4325
 5281TIP3    H215850   1.105   4.520   1.496  0.2298  0.9826 -0.7924
 5282TIP3   OH215851   2.256   5.593   2.727 -0.3983 -0.0804  0.3073
 5282TIP3    H115852   2.197   5.629   2.661 -0.0750 -1.7263 -0.9587
 5282TIP3    H215853   2.199   5.558   2.794 -0.7318  1.8022  1.0506
 5283TIP3   OH215854   5.829   1.757   2.565 -0.2835  0.2207  0.3879
 5283TIP3    H115855   5.852   1.726   2.477  1.3197 -1.1742  1.2181
 5283TIP3    H215856   5.800   1.847   2.553  0.0131  0.0898 -1.5479
 5284TIP3   OH215857   1.517   0.040   1.803  0.2729  0.4898 -0.1537
 5284TIP3    H115858   1.516   0.127   1.764 -0.4632  0.9346  0.8053
 5284TIP3    H215859   1.605   0.008   1.788  1.2619  2.2911  1.3441
 5285TIP3   OH215860   5.416   3.337   5.150  0.3994 -0.8794  0.2661
 5285TIP3    H115861   5.346   3.400   5.168  1.1858 -0.2838  1.3906
 5285TIP3    H215862   5.419   3.283   5.229  1.6884 -0.4203  0.5444
 5286TIP3   OH215863   3.468   2.395   3.002  0.0132  0.3491  0.3291
 5286TIP3    H115864   3.530   2.457   3.040 -0.5433 -0.4210  2.6463
 5286TIP3    H215865   3.483   2.401   2.907  1.5142  2.3404  0.6278
 5287TIP3   OH215866   2.806   1.129   1.034  0.0216  0.4707 -0.5045
 5287TIP3    H115867   2.890   1.084   1.042 -0.9366 -1.2442  0.4176
 5287TIP3    H215868   2.818   1.211   1.082  1.3340  0.5214 -0.8824
 5288TIP3   OH215869   1.853   2.284   4.815 -0.7448 -0.0749 -0.2047
 5288TIP3    H115870   1.792   2.345   4.857 -0.4145 -0.4017  0.7668
 5288TIP3    H215871   1.937   2.299   4.858 -0.2789 -0.0872 -1.0822
 5289TIP3   OH215872   2.300   3.093   1.244  0.0636  0.2580  0.4935
 5289TIP3    H115873   2.306   3.004   1.279  0.6623  0.5224  1.0955
 5289TIP3    H215874   2.211   3.100   1.211 -0.3510 -0.1824  1.4886
 5290TIP3   OH215875   4.246   2.044   0.720  0.7771 -0.7546 -0.4922
 5290TIP3    H115876   4.160   2.066   0.756  1.2111 -1.2502  0.8848
 5290TIP3    H215877   4.271   2.122   0.669 -1.0936 -1.1703 -2.1347
 5291TIP3   OH215878   4.934   0.208   1.734  0.1738 -0.1040 -0.3583
 5291TIP3    H115879   5.018   0.254   1.742  0.1842  0.3090 -2.2409
 5291TIP3    H215880   4.869   0.272   1.763  0.3813  0.2471 -0.6451
 5292TIP3   OH215881   3.369   5.462   0.879 -0.2492  0.5448 -0.1566
 5292TIP3    H115882   3.372   5.425   0.790  1.4423 -0.1871  0.1504
 5292TIP3    H215883   3.320   5.543   0.870 -0.5578  0.2216 -1.6689
 5293TIP3   OH215884   0.602   5.748   1.036 -0.3647 -0.1908 -0.2247
 5293TIP3    H115885   0.541   5.774   0.967 -0.2495 -0.3632 -0.3925
 5293TIP3    H215886   0.678   5.713   0.989 -0.5277 -0.8622 -0.0039
 5294TIP3   OH215887   1.364   5.919   1.691  0.2347  0.3210 -0.5597
 5294TIP3    H115888   1.274   5.939   1.716  0.5535 -0.1737  1.1402
 5294TIP3    H215889   1.382   5.977   1.617 -1.3233  0.7522 -0.6361
 5295TIP3   OH215890   1.026   4.096   2.477  0.1261  0.2357 -0.1186
 5295TIP3    H115891   1.110   4.056   2.456 -0.2763  0.3891 -2.1440
 5295TIP3    H215892   1.046   4.190   2.487  0.0341  0.4640 -1.8196
 5296TIP3   OH215893   3.589   2.321   0.058 -0.0087 -0.1589  0.0738
 5296TIP3    H115894   3.603   2.275   0.141  0.5799  1.7218  1.0679
 5296TIP3    H215895   3.517   2.380   0.076  1.0644  1.3071 -0.2887
 5297TIP3   OH215896   3.896   3.099   0.375 -0.8262  0.6722 -0.3166
 5297TIP3    H115897   3.950   3.053   0.310 -0.5236 -1.9676  1.6411
 5297TIP3    H215898   3.807   3.067   0.359 -0.7469 -0.0080  0.5255
 5298TIP3   OH215899   2.386   5.511   2.179 -0.3134  0.3178  0.5300
 5298TIP3    H115900   2.335   5.534   2.102  0.7510 -1.4833 -0.7805
 5298TIP3    H215901   2.477   5.532   2.155 -0.1304  1.3869  1.9920
 5299TIP3   OH215902   0.330   1.062   1.039  0.6339  0.4879  0.4505
 5299TIP3    H115903   0.415   1.022   1.017  0.2862 -0.7655  1.3078
 5299TIP3    H215904   0.267   1.016   0.985  0.4498  1.3233 -0.0771
 5300TIP3   OH215905   3.202   2.026   3.690 -0.8608 -0.1452 -0.2849
 5300TIP3    H115906   3.188   2.000   3.599  1.4650  0.2728 -0.8280
 5300TIP3    H215907   3.233   2.116   3.685 -0.9481 -0.0320  0.9520
 5301TIP3   OH215908   2.256   0.894   0.688 -0.2135 -0.2392 -0.3281
 5301TIP3    H115909   2.228   0.815   0.641 -3.3089  0.3661  0.2352
 5301TIP3    H215910   2.237   0.966   0.628 -1.7873  0.3470  0.8046
 5302TIP3   OH215911   4.944   5.831   3.169  0.4434  0.3007 -0.5822
 5302TIP3    H115912   4.939   5.829   3.265 -0.5083 -0.8134 -0.6325
 5302TIP3    H215913   4.881   5.898   3.143 -2.8148 -2.5006 -0.5479
 5303TIP3   OH215914   3.248   5.870   1.551 -0.5260 -0.6919 -0.6555
 5303TIP3    H115915   3.289   5.918   1.479  0.8697  0.1453  0.6491
 5303TIP3    H215916   3.172   5.923   1.574 -0.2673 -0.2956 -0.6985
 5304TIP3   OH215917   4.506   5.736   2.953  0.7714 -0.2489 -0.0861
 5304TIP3    H115918   4.592   5.740   2.910  1.1797 -0.1001  0.7264
 5304TIP3    H215919   4.507   5.653   3.001 -0.2105 -1.0794 -1.4174
 5305TIP3   OH215920   0.291   4.626   4.383  0.5453  0.0950  0.2814
 5305TIP3    H115921   0.272   4.532   4.384  2.9936 -0.4781  1.2934
 5305TIP3    H215922   0.379   4.633   4.422 -0.4219  2.9973  2.2962
 5306TIP3   OH215923   3.667   1.791   2.936  0.0231  0.2876 -0.1233
 5306TIP3    H115924   3.687   1.737   3.013 -0.8040 -2.2001 -1.5577
 5306TIP3    H215925   3.632   1.872   2.973  1.7749  0.1133  2.1453
 5307TIP3   OH215926   3.248   1.814   2.555 -0.1453 -0.2102  0.2519
 5307TIP3    H115927   3.250   1.865   2.474  0.4352 -1.3932 -0.5079
 5307TIP3    H215928   3.156   1.788   2.565 -0.1062 -0.6043 -0.3845
 5308TIP3   OH215929   4.830   0.613   2.199 -0.8819 -0.3064 -0.3919
 5308TIP3    H115930   4.854   0.524   2.170  0.0367 -0.5370  0.9526
 5308TIP3    H215931   4.825   0.606   2.295 -2.7395  0.6589 -0.3762
 5309TIP3   OH215932   5.843   2.217   4.233 -0.3440 -0.2291  0.4008
 5309TIP3    H115933   5.791   2.293   4.206 -1.4737 -1.1075  0.0354
 5309TIP3    H215934   5.835   2.215   4.328  2.6802  2.1871  0.8691
 5310TIP3   OH215935   1.702   1.289   0.233  0.3781 -0.3468  0.4592
 5310TIP3    H115936   1.751   1.207   0.227  0.7796 -0.0623 -0.3156
 5310TIP3    H215937   1.647   1.290   0.155 -0.8777 -0.6587  1.3240
 5311TIP3   OH215938   3.070   2.104   1.241 -0.1872  0.0651  0.2579
 5311TIP3    H115939   3.057   2.017   1.277 -0.1422 -0.1577 -0.2519
 5311TIP3    H215940   3.165   2.114   1.236 -0.1714  0.5340  1.2283
 5312TIP3   OH215941   4.880   1.940   1.998  0.1648 -0.5781  0.9148
 5312TIP3    H115942   4.860   1.906   2.085 -1.0428 -2.1984  0.0618
 5312TIP3    H215943   4.851   1.872   1.938 -0.4801  1.1407 -0.8448
 5313TIP3   OH215944   0.905   0.850   3.953  0.3983 -0.6277 -0.4299
 5313TIP3    H115945   0.999   0.859   3.937  0.3995 -1.2006 -0.7560
 5313TIP3    H215946   0.863   0.874   3.871  0.1594  1.3469  0.2185
 5314TIP3   OH215947   3.265   0.833   2.684  0.1357 -0.3325 -0.5340
 5314TIP3    H115948   3.303   0.748   2.706 -1.3746 -0.8036  0.4494
 5314TIP3    H215949   3.174   0.813   2.660 -0.4643  1.0678  0.4209
 5315TIP3   OH215950   5.084   0.878   1.427  0.6232  0.2480  0.2985
 5315TIP3    H115951   5.057   0.798   1.381 -2.6798  2.3608 -1.9562
 5315TIP3    H215952   5.015   0.893   1.492 -1.5948  3.3467 -2.3655
 5316TIP3   OH215953   0.719   0.762   3.451  0.0992 -0.4592 -0.7198
 5316TIP3    H115954   0.737   0.810   3.532  2.0297  0.6271 -1.7194
 5316TIP3    H215955   0.689   0.676   3.481 -0.1597  0.2159  1.1317
 5317TIP3   OH215956   5.777   4.670   2.319  0.3430 -0.0336 -0.3138
 5317TIP3    H115957   5.846   4.639   2.260  1.3011  1.5264 -0.0543
 5317TIP3    H215958   5.804   4.758   2.344 -0.7137 -0.1488  1.4208
 5318TIP3   OH215959   3.625   5.230   3.642 -0.1705  0.1195  0.1675
 5318TIP3    H115960   3.682   5.236   3.719  0.2757 -1.4549  0.0072
 5318TIP3    H215961   3.562   5.301   3.653 -2.2221 -1.9024  3.7555
 5319TIP3   OH215962   2.506   0.618   3.687 -0.1814 -0.1299 -0.4803
 5319TIP3    H115963   2.595   0.583   3.691 -0.2515 -0.3271 -0.6352
 5319TIP3    H215964   2.498   0.653   3.598 -0.5706 -0.9503 -0.7781
 5320TIP3   OH215965   5.361   2.959   3.077  0.3068 -0.0600 -0.0298
 5320TIP3    H115966   5.414   2.885   3.106  2.9137  0.9193 -1.9012
 5320TIP3    H215967   5.342   2.940   2.986 -0.8608  0.5897  0.0651
 5321TIP3   OH215968   4.595   1.545   0.091 -0.4168  0.3487 -0.0938
 5321TIP3    H115969   4.600   1.637   0.118  0.2009  0.0910  0.7138
 5321TIP3    H215970   4.669   1.532   0.033 -0.2235  0.2447  0.1734
 5322TIP3   OH215971   4.577   3.262   3.441  0.3081 -0.2618 -0.9907
 5322TIP3    H115972   4.481   3.265   3.447  0.4256  0.1769  1.3417
 5322TIP3    H215973   4.601   3.179   3.483  0.9470 -0.8378 -2.4075
 5323TIP3   OH215974   6.027   0.083   2.169 -0.3989  0.1423 -0.5761
 5323TIP3    H115975   6.089   0.014   2.191 -0.0812  0.5712 -0.1124
 5323TIP3    H215976   5.941   0.046   2.190 -0.0796  1.0159  2.9698
 5324TIP3   OH215977   2.802  -0.014   4.758  0.0151  0.0139  0.4296
 5324TIP3    H115978   2.840   0.040   4.826  0.6943  1.3758 -0.9803
 5324TIP3    H215979   2.708  -0.000   4.766  0.2198  2.5465 -0.7457
 5325TIP3   OH215980   4.095   3.933   4.549  0.0736 -0.1229 -0.0868
 5325TIP3    H115981   4.110   3.881   4.629  2.1183 -0.2726 -0.5193
 5325TIP3    H215982   4.169   3.912   4.493 -0.9393  0.5644 -1.7475
 5326TIP3   OH215983   4.919   0.279   0.468 -0.1121  0.0298  0.0810
 5326TIP3    H115984   4.973   0.278   0.389 -0.5633 -0.6120 -0.2362
 5326TIP3    H215985   4.867   0.199   0.462 -1.0193  0.5778  0.4290
 5327TIP3   OH215986   5.994   5.098   2.862  0.2780 -0.5337 -0.4888
 5327TIP3    H115987   5.926   5.166   2.864 -1.0727 -1.8654  1.3954
 5327TIP3    H215988   5.946   5.016   2.863  1.9326 -1.5465 -0.6260
 5328TIP3   OH215989   2.205   2.021   4.498  0.7365 -0.1709 -0.3763
 5328TIP3    H115990   2.299   2.006   4.488  0.7165  0.4762 -1.8382
 5328TIP3    H215991   2.199   2.113   4.523  0.4471  0.2825 -2.0092
 5329TIP3   OH215992   3.488   3.857   5.056  0.8790  0.3738 -0.2496
 5329TIP3    H115993   3.511   3.903   5.137  1.6369  1.5208 -1.0985
 5329TIP3    H215994   3.567   3.808   5.033  1.3908  1.6889 -1.3891
 5330TIP3   OH215995   1.614   5.098   1.887  0.3335 -0.3751  0.4188
 5330TIP3    H115996   1.642   5.105   1.795  1.2003 -0.7776  0.6385
 5330TIP3    H215997   1.669   5.161   1.933 -1.4436  1.2647  0.4103
 5331TIP3   OH215998   0.349   2.379   3.028 -0.6628  0.3777 -0.0022
 5331TIP3    H115999   0.298   2.440   2.974  0.0323  0.6553 -0.3535
 5331TIP3    H216000   0.283   2.334   3.082 -1.3115  0.4464 -0.7249
 5332TIP3   OH216001   0.360   5.867   2.716 -0.5392  0.1399 -0.2289
 5332TIP3    H116002   0.275   5.906   2.734 -0.8442 -0.5479 -0.1430
 5332TIP3    H216003   0.411   5.882   2.796 -0.6134  0.4569 -0.2404
 5333TIP3   OH216004   4.940   1.999   0.147 -0.6312 -0.3170 -0.0786
 5333TIP3    H116005   5.009   1.933   0.146 -0.1291  0.2109 -0.8774
 5333TIP3    H216006   4.985   2.082   0.134 -1.2981  0.1580  0.5508
 5334TIP3   OH216007   1.183   5.077   2.809 -0.7890  0.2291  0.0609
 5334TIP3    H116008   1.093   5.061   2.838 -0.5149 -0.2000  0.6973
 5334TIP3    H216009   1.199   5.010   2.744 -0.7591 -0.0088  0.3135
 5335TIP3   OH216010   4.366   4.551   4.633 -0.2888 -0.1722 -0.4170
 5335TIP3    H116011   4.391   4.601   4.556  0.3655  1.2049  0.6349
 5335TIP3    H216012   4.274   4.574   4.647  0.0930  1.0429  0.2415
 5336TIP3   OH216013   5.869   0.477   2.949  0.2262  0.5621  0.6571
 5336TIP3    H116014   5.951   0.500   2.906 -0.0160  1.0254  0.4340
 5336TIP3    H216015   5.856   0.545   3.015 -0.1582  0.6871  0.4514
 5337TIP3   OH216016   5.355   1.322   1.050  0.2386 -0.1669  0.5991
 5337TIP3    H116017   5.371   1.381   1.123  0.5709  0.5555 -0.0505
 5337TIP3    H216018   5.259   1.313   1.047  0.2022  0.1059  0.8787
 5338TIP3   OH216019   0.291   0.157   4.646  0.7395  0.6247 -0.0351
 5338TIP3    H116020   0.254   0.172   4.733  0.1569 -2.3715  0.3468
 5338TIP3    H216021   0.218   0.125   4.593  1.5048  0.4093 -1.0090
 5339TIP3   OH216022   6.158   0.269   1.677 -0.1192 -0.3457 -0.2765
 5339TIP3    H116023   6.206   0.351   1.687 -2.9078  1.3979 -0.0624
 5339TIP3    H216024   6.176   0.220   1.757  0.8506  0.4465  0.0022
 5340TIP3   OH216025   6.028   2.197   3.408  0.2383 -0.4005 -0.3995
 5340TIP3    H116026   6.018   2.236   3.494  0.9346  0.1951 -0.5790
 5340TIP3    H216027   6.122   2.203   3.389  0.1560 -0.9023 -1.0197
 5341TIP3   OH216028   0.580   2.535   2.433  0.3585  0.0221 -0.3249
 5341TIP3    H116029   0.624   2.610   2.475  0.9924 -0.2529 -0.4882
 5341TIP3    H216030   0.646   2.497   2.376 -0.3994  0.1967 -1.3503
 5342TIP3   OH216031   1.091   2.757   1.971  0.4035  0.2931  0.1871
 5342TIP3    H116032   1.034   2.682   1.954  0.2553  0.1415  1.3033
 5342TIP3    H216033   1.089   2.807   1.889  0.4003 -0.8395 -0.5226
 5343TIP3   OH216034   2.923   5.551   2.174 -0.1361  0.3448  0.4057
 5343TIP3    H116035   2.950   5.639   2.197 -0.1329  0.7087 -0.9328
 5343TIP3    H216036   2.931   5.547   2.079 -2.2149 -0.3892  0.2077
 5344TIP3   OH216037   4.497   2.106   0.330 -0.1623 -0.2775 -0.3597
 5344TIP3    H116038   4.554   2.119   0.406 -0.0447 -0.7376 -0.3665
 5344TIP3    H216039   4.558   2.099   0.256 -0.3007  0.8668 -0.6050
 5345TIP3   OH216040   5.200   3.930   0.100  0.3258  0.3073  0.3881
 5345TIP3    H116041   5.223   3.996   0.034  1.0316 -0.7160 -0.4132
 5345TIP3    H216042   5.268   3.863   0.092 -0.6794 -0.7853  0.8233
 5346TIP3   OH216043   1.958   1.217   0.407  0.2918  0.3483 -0.0225
 5346TIP3    H116044   1.916   1.301   0.426  1.1423  0.6005  0.8126
 5346TIP3    H216045   1.976   1.220   0.313  1.8804  1.8612  0.2855
 5347TIP3   OH216046   2.665   5.973   1.614 -0.0829 -0.3451 -0.3368
 5347TIP3    H116047   2.647   5.892   1.661 -0.0572 -0.9802 -1.3800
 5347TIP3    H216048   2.723   6.022   1.671 -2.5330  0.3592  1.7331
 5348TIP3   OH216049   3.331   5.942   4.066  0.3442  0.0683  0.1886
 5348TIP3    H116050   3.325   6.010   4.000  0.9851 -0.3822 -0.3355
 5348TIP3    H216051   3.374   5.869   4.023 -1.1671 -1.0406  0.4538
 5349TIP3   OH216052   5.405   1.792   4.365 -0.3605 -0.0609 -0.1599
 5349TIP3    H116053   5.381   1.728   4.298 -1.0222  0.0751 -0.0675
 5349TIP3    H216054   5.475   1.751   4.415 -1.2859 -1.0221  0.3709
 5350TIP3   OH216055   1.886   1.570   3.004  0.1205  0.0634 -0.1082
 5350TIP3    H116056   1.905   1.588   2.912  1.3239  0.3183  0.1725
 5350TIP3    H216057   1.930   1.487   3.022 -2.3010 -1.3839 -0.4140
 5351TIP3   OH216058   0.337   4.558   3.868 -0.4230 -0.1265 -0.1253
 5351TIP3    H116059   0.323   4.535   3.960  0.9172 -0.2492  0.0688
 5351TIP3    H216060   0.316   4.651   3.863  0.9883  0.2649  0.6708
 5352TIP3   OH216061   0.559   1.712   1.625  0.4567  0.1301 -0.3633
 5352TIP3    H116062   0.588   1.772   1.556  0.1450  0.0645 -0.5527
 5352TIP3    H216063   0.628   1.646   1.629  0.2444 -0.1328 -0.9493
 5353TIP3   OH216064   5.443   4.082   2.712  0.2235  0.0581 -0.7152
 5353TIP3    H116065   5.511   4.128   2.662  0.9538 -1.3484 -1.0536
 5353TIP3    H216066   5.381   4.051   2.645  0.7183 -1.0306 -0.6859
 5354TIP3   OH216067   2.574   4.249   4.667  1.0909 -0.7268 -0.0857
 5354TIP3    H116068   2.493   4.271   4.713  0.6591  0.8727 -1.5435
 5354TIP3    H216069   2.602   4.166   4.707 -1.4840 -1.5594  0.1397
 5355TIP3   OH216070   4.630   4.512   4.745 -0.1339  0.1560  0.7942
 5355TIP3    H116071   4.540   4.525   4.715 -0.2162  0.0231  0.9784
 5355TIP3    H216072   4.648   4.586   4.802 -0.5658 -0.4666  1.7608
 5356TIP3   OH216073   5.444   1.849   3.441 -0.4242  0.4989  0.3555
 5356TIP3    H116074   5.351   1.870   3.451 -0.5767 -0.2993  0.7142
 5356TIP3    H216075   5.448   1.754   3.456 -0.0172 -0.0843 -2.8549
 5357TIP3   OH216076   1.661   3.546   0.808  0.2953  0.1394  0.3592
 5357TIP3    H116077   1.624   3.461   0.831 -2.3715  0.5220 -1.9269
 5357TIP3    H216078   1.669   3.543   0.712  0.5477  2.3061  0.2621
 5358TIP3   OH216079   6.268   5.194   0.349 -0.0011  0.6657  0.3122
 5358TIP3    H116080   6.216   5.168   0.273  0.9266  1.0278 -0.4670
 5358TIP3    H216081   6.218   5.266   0.388 -0.4450  0.5392 -0.0078
 5359TIP3   OH216082   2.634   0.169   0.346  0.5628 -1.0830 -0.1371
 5359TIP3    H116083   2.631   0.246   0.289 -1.3053 -1.8838 -1.2069
 5359TIP3    H216084   2.690   0.106   0.298 -0.6121 -1.5771 -0.9032
 5360TIP3   OH216085   5.906   3.998   1.412 -0.2818  0.4003  0.1957
 5360TIP3    H116086   5.917   3.999   1.507  0.1548 -0.9224  0.1738
 5360TIP3    H216087   5.936   4.085   1.383 -1.4692  1.2334  1.3541
 5361TIP3   OH216088   3.481   5.916   2.914 -0.5562 -0.0220  0.6456
 5361TIP3    H116089   3.513   5.852   2.852 -0.4019 -1.1408  1.8349
 5361TIP3    H216090   3.556   5.973   2.933 -0.6145  0.3409 -0.1856
 5362TIP3   OH216091   0.089   5.788   0.638 -0.1070 -0.3370 -0.5625
 5362TIP3    H116092   0.004   5.828   0.658  0.3293  1.4487 -1.9626
 5362TIP3    H216093   0.152   5.841   0.687  0.3951  0.1099 -1.6388
 5363TIP3   OH216094   4.088   1.347   3.431 -0.0988  0.4358  0.2193
 5363TIP3    H116095   4.011   1.404   3.443  1.5699  2.4875  2.0931
 5363TIP3    H216096   4.113   1.322   3.520  1.0183 -0.7802 -0.4079
 5364TIP3   OH216097   1.949   5.260   4.286 -0.3668 -0.2316 -0.2238
 5364TIP3    H116098   1.907   5.299   4.209  0.6785  1.4224  0.0029
 5364TIP3    H216099   1.971   5.171   4.258 -1.9026 -0.3679 -1.1068
 5365TIP3   OH216100   4.171   3.776   1.685 -0.0087 -0.8165 -0.5729
 5365TIP3    H116101   4.136   3.833   1.754  1.1988 -1.3881  0.5377
 5365TIP3    H216102   4.187   3.692   1.728 -0.7638 -1.7191 -1.9437
 5366TIP3   OH216103   0.504   3.280   4.879  0.1936 -0.3683 -0.2839
 5366TIP3    H116104   0.428   3.338   4.883  0.9800  0.6378  1.3923
 5366TIP3    H216105   0.471   3.194   4.905  0.0274  0.6115  3.2380
 5367TIP3   OH216106   3.118   3.084   1.747 -0.0329  0.4360 -0.3118
 5367TIP3    H116107   3.055   3.103   1.817  0.5826  0.3553  0.2787
 5367TIP3    H216108   3.132   2.989   1.754  0.5608  0.5381 -0.0778
 5368TIP3   OH216109   4.370   4.327   4.474  0.5572  0.1919 -0.2639
 5368TIP3    H116110   4.385   4.416   4.506 -1.9333  0.5044  0.2536
 5368TIP3    H216111   4.300   4.336   4.410  0.7353 -1.3264 -0.6992
 5369TIP3   OH216112   0.991   3.403   1.400 -0.2148 -0.1423  0.0286
 5369TIP3    H116113   0.999   3.457   1.479 -0.1088 -0.2904  0.1183
 5369TIP3    H216114   0.932   3.453   1.343 -1.4494 -0.7215  0.7806
 5370TIP3   OH216115   5.262   4.550   3.944 -0.4163  0.4655 -0.1306
 5370TIP3    H116116   5.243   4.563   3.851  0.1292 -0.3297 -0.3660
 5370TIP3    H216117   5.180   4.573   3.989 -0.8762  0.2865 -0.8583
 5371TIP3   OH216118   4.950   1.976   4.986 -0.1923 -0.2076  0.2890
 5371TIP3    H116119   5.040   1.960   4.958  0.5675  2.2873  1.0772
 5371TIP3    H216120   4.926   1.897   5.034  1.4274 -1.0619 -0.2173
 5372TIP3   OH216121   0.043   5.182   2.464  0.2126  0.2523 -0.5092
 5372TIP3    H116122   0.098   5.172   2.386  0.8502  1.6684 -0.2624
 5372TIP3    H216123   0.049   5.274   2.487  0.6423 -0.2390  1.6489
 5373TIP3   OH216124   2.225   3.047   0.808  0.2709  0.5212  0.7921
 5373TIP3    H116125   2.239   2.959   0.844 -2.4660  0.1237  1.0946
 5373TIP3    H216126   2.158   3.086   0.864 -0.3629  1.8520 -0.8056
 5374TIP3   OH216127   3.835   4.309   0.117  0.4129 -0.0720 -0.5129
 5374TIP3    H116128   3.857   4.216   0.112  0.8246 -0.0182  0.0664
 5374TIP3    H216129   3.743   4.311   0.141  0.6505 -0.3599  0.5135
 5375TIP3   OH216130   6.069   2.794   3.910 -0.9526  0.2883  0.2534
 5375TIP3    H116131   6.091   2.833   3.825 -0.6632 -0.1086  0.1392
 5375TIP3    H216132   6.120   2.713   3.912 -0.6811  0.4806  0.9679
 5376TIP3   OH216133   1.557   3.385   1.372  0.5609  0.0685 -0.2400
 5376TIP3    H116134   1.493   3.365   1.303 -0.8414 -0.0713  1.0359
 5376TIP3    H216135   1.638   3.344   1.343 -0.7325 -2.5205 -0.4527
 5377TIP3   OH216136   5.591   4.650   2.740 -0.5324  0.5179  0.1484
 5377TIP3    H116137   5.537   4.584   2.695 -0.3847  0.3580  0.2052
 5377TIP3    H216138   5.681   4.628   2.716 -0.4825  0.6991  0.1687
 5378TIP3   OH216139   2.670   3.373   0.672  0.6228  0.6862  0.4188
 5378TIP3    H116140   2.728   3.444   0.695  0.4047  0.9661  0.1181
 5378TIP3    H216141   2.726   3.295   0.668  0.9916  0.9696  0.0335
 5379TIP3   OH216142   5.508   3.462   2.134 -0.4604 -0.7196  0.5212
 5379TIP3    H116143   5.592   3.417   2.141  0.2542  0.5653  0.4336
 5379TIP3    H216144   5.487   3.461   2.041  0.1956  0.2427  0.3524
 5380TIP3   OH216145   2.178   1.504   1.528 -0.0881  0.4284 -0.1909
 5380TIP3    H116146   2.162   1.411   1.546 -0.2910  0.4347 -0.3371
 5380TIP3    H216147   2.214   1.506   1.440 -2.5700  0.6924 -1.2882
 5381TIP3   OH216148   3.508   1.046   1.337  0.3652  0.2089  0.2988
 5381TIP3    H116149   3.423   1.013   1.308  0.9923 -1.5122  0.2798
 5381TIP3    H216150   3.571   1.004   1.278  1.2363  1.6547  0.1405
 5382TIP3   OH216151   1.856   4.281   4.552  0.0550 -0.0378 -0.1421
 5382TIP3    H116152   1.868   4.227   4.474 -0.5683 -0.4302  0.0197
 5382TIP3    H216153   1.801   4.354   4.523 -0.9087 -0.6425  0.1041
 5383TIP3   OH216154   1.384   1.532   1.785 -0.6250  0.0310 -0.2264
 5383TIP3    H116155   1.468   1.519   1.830 -0.2930 -1.8177 -1.3179
 5383TIP3    H216156   1.379   1.461   1.721 -2.9631  0.2002 -0.3087
 5384TIP3   OH216157   5.926   0.359   3.251 -0.0432  0.2736  0.0285
 5384TIP3    H116158   5.983   0.435   3.236  0.3025 -0.0899 -0.4916
 5384TIP3    H216159   5.875   0.383   3.329  0.0627  1.0420 -0.1299
 5385TIP3   OH216160   5.460   4.630   5.125 -0.1312  0.2172 -0.5773
 5385TIP3    H116161   5.443   4.550   5.075  0.1446 -0.3265  0.1676
 5385TIP3    H216162   5.473   4.698   5.059 -2.6032  0.1513 -1.2097
 5386TIP3   OH216163   3.490   2.362   2.259 -0.3538 -0.4515  0.4971
 5386TIP3    H116164   3.557   2.427   2.236 -2.9731  1.7117 -1.6964
 5386TIP3    H216165   3.456   2.392   2.343  0.3754 -0.6974  0.8903
 5387TIP3   OH216166   0.683   4.435   2.436 -0.1821 -0.2757 -0.1350
 5387TIP3    H116167   0.637   4.352   2.422  0.5211 -0.3637 -2.3491
 5387TIP3    H216168   0.622   4.501   2.403 -0.4751  0.0593  1.0287
 5388TIP3   OH216169   5.615   4.219   3.397 -0.4414 -0.2226 -0.1735
 5388TIP3    H116170   5.563   4.241   3.474 -0.1479 -0.3667  0.0657
 5388TIP3    H216171   5.581   4.134   3.368  0.9151 -1.2396  1.0982
 5389TIP3   OH216172   2.024   5.947   3.395 -0.1348  0.7497  0.6376
 5389TIP3    H116173   2.052   5.857   3.381  0.9214  1.2557 -0.7805
 5389TIP3    H216174   2.084   5.981   3.461 -0.6297  0.3887  1.2840
 5390TIP3   OH216175   1.855   2.187   1.214  0.2353 -0.0905 -0.0979
 5390TIP3    H116176   1.767   2.214   1.242 -0.6165 -1.2122 -1.5562
 5390TIP3    H216177   1.913   2.253   1.252 -0.8829 -0.8467  3.3352
 5391TIP3   OH216178   1.575   2.881   3.199  0.5533 -0.7186  0.0850
 5391TIP3    H116179   1.568   2.827   3.121  1.5117 -1.7512  0.6715
 5391TIP3    H216180   1.589   2.818   3.270  1.0058  0.2614  0.8927
 5392TIP3   OH216181   2.803   0.794   2.437 -0.3443 -0.1448 -0.5100
 5392TIP3    H116182   2.844   0.804   2.351 -2.0183  0.5788 -1.2726
 5392TIP3    H216183   2.713   0.824   2.424 -1.1776 -1.8126  1.0456
 5393TIP3   OH216184   3.059   1.791   1.940  0.1062 -0.2587 -0.3448
 5393TIP3    H116185   3.125   1.756   1.999  0.3155  0.7648  0.0376
 5393TIP3    H216186   3.017   1.713   1.902  1.1362 -0.9125 -0.1648
 5394TIP3   OH216187   3.526   5.200   4.049 -0.1809  0.4194 -0.4582
 5394TIP3    H116188   3.445   5.206   3.997 -0.8344 -0.9200  0.3480
 5394TIP3    H216189   3.502   5.144   4.123  1.4578  0.1478 -0.1123
 5395TIP3   OH216190   0.356   3.771   3.943 -0.4276  0.2622 -0.0801
 5395TIP3    H116191   0.329   3.689   3.903 -0.6922  0.3482 -0.0758
 5395TIP3    H216192   0.328   3.838   3.881  1.2342  0.2646 -0.8942
 5396TIP3   OH216193   3.729   5.272   1.669 -0.7673  0.2803 -0.2322
 5396TIP3    H116194   3.760   5.272   1.578 -2.9424  2.3564 -1.1027
 5396TIP3    H216195   3.664   5.202   1.672 -2.8793  2.0830 -1.2390
 5397TIP3   OH216196   2.146   4.733   0.573  0.2034 -0.6561  0.0563
 5397TIP3    H116197   2.152   4.764   0.663 -0.1952 -0.1577 -0.0824
 5397TIP3    H216198   2.189   4.801   0.521 -0.0504 -0.6701 -0.1793
 5398TIP3   OH216199   5.219   0.739   2.706 -0.4208 -0.2671 -0.2442
 5398TIP3    H116200   5.160   0.701   2.771 -0.3285 -1.1942 -0.6931
 5398TIP3    H216201   5.167   0.745   2.626 -0.0840 -0.5737 -0.4934
 5399TIP3   OH216202   5.504   5.513   4.231  0.0256 -0.0244  0.1690
 5399TIP3    H116203   5.416   5.548   4.247  0.1510  0.3273  0.1138
 5399TIP3    H216204   5.493   5.453   4.157 -0.2756 -0.4520  0.5568
 5400TIP3   OH216205   1.530   4.194   4.470  0.6120  0.1373 -0.6377
 5400TIP3    H116206   1.441   4.178   4.440  0.8297  0.1117 -1.2911
 5400TIP3    H216207   1.582   4.196   4.390  1.0595  1.0800 -0.3368
 5401TIP3   OH216208   1.764   0.701   3.146 -0.1060  0.3469  0.3187
 5401TIP3    H116209   1.781   0.612   3.115 -1.3983 -0.2259  1.1805
 5401TIP3    H216210   1.669   0.704   3.159 -0.1843  2.0878 -0.3775
 5402TIP3   OH216211   4.386   0.702   4.774 -0.2278 -0.1665  0.1065
 5402TIP3    H116212   4.419   0.788   4.747 -0.4740 -0.2130 -0.3473
 5402TIP3    H216213   4.459   0.643   4.758  0.0220 -0.0088  0.6360
 5403TIP3   OH216214   3.020   0.100   4.925 -0.4057  0.2205  0.0917
 5403TIP3    H116215   3.087   0.099   4.857 -2.1297  0.3876 -1.7128
 5403TIP3    H216216   3.057   0.152   4.995  2.0365 -1.1646 -0.0492
 5404TIP3   OH216217   3.458   1.297   4.143 -0.5712  0.1672  0.2957
 5404TIP3    H116218   3.454   1.248   4.061 -2.7973 -0.8523  0.9514
 5404TIP3    H216219   3.478   1.387   4.116 -1.7829 -0.0307 -1.4221
 5405TIP3   OH216220   4.795   4.789   4.557 -0.1952  0.0930 -0.2337
 5405TIP3    H116221   4.858   4.774   4.627 -1.1760  0.5405  0.7890
 5405TIP3    H216222   4.844   4.836   4.489  0.9739 -1.0429 -0.2132
 5406TIP3   OH216223   3.170   4.469   4.043  0.3096 -0.4423 -0.6673
 5406TIP3    H116224   3.110   4.417   4.096 -2.6263  2.7387 -0.5370
 5406TIP3    H216225   3.139   4.458   3.953 -0.3865  1.0171 -0.6331
 5407TIP3   OH216226   3.415   3.609   1.970 -0.0745 -0.6804 -0.0288
 5407TIP3    H116227   3.381   3.682   1.918 -0.7667 -1.4682 -0.7165
 5407TIP3    H216228   3.347   3.593   2.035  0.7222  0.2031  1.0591
 5408TIP3   OH216229   5.581   0.916   0.339  0.2087 -0.7589  0.1733
 5408TIP3    H116230   5.556   0.986   0.280 -1.4938 -0.3038  1.3450
 5408TIP3    H216231   5.669   0.939   0.369 -0.0853  0.5548  0.0594
 5409TIP3   OH216232   6.221   5.749   0.945 -0.4855  0.7539 -0.0848
 5409TIP3    H116233   6.191   5.823   0.997  0.5119  1.8355 -0.9939
 5409TIP3    H216234   6.156   5.740   0.875 -0.7173  0.6349  0.1463
 5410TIP3   OH216235   2.237   3.977   4.064 -0.3231 -0.6948 -0.5408
 5410TIP3    H116236   2.240   3.907   3.998 -2.3295 -0.6119 -0.7679
 5410TIP3    H216237   2.194   4.050   4.021  1.1772  0.5145 -0.0989
 5411TIP3   OH216238  -0.020   5.602   3.939  0.2618  0.1593 -0.2740
 5411TIP3    H116239   0.016   5.628   4.024 -0.2811 -0.5542  0.1788
 5411TIP3    H216240   0.056   5.605   3.879  0.9855 -0.8573  0.5629
 5412TIP3   OH216241   5.789   2.773   1.687 -0.5291  0.0307 -0.1900
 5412TIP3    H116242   5.767   2.680   1.682  1.6003 -0.6058  1.2139
 5412TIP3    H216243   5.706   2.818   1.671 -2.3785 -2.1240  2.5687
 5413TIP3   OH216244   1.139   3.621   1.022  0.3360 -0.2701  0.0341
 5413TIP3    H116245   1.194   3.619   1.101  0.3599 -1.1278 -0.0024
 5413TIP3    H216246   1.141   3.532   0.988  0.8902  0.2375 -1.3449
 5414TIP3   OH216247   3.256   5.873   3.107 -0.4201  0.0089 -0.1090
 5414TIP3    H116248   3.311   5.875   3.185 -0.4671 -0.1089 -0.0725
 5414TIP3    H216249   3.317   5.875   3.034 -0.3972  1.1862 -0.0794
 5415TIP3   OH216250   3.615   5.509   3.934 -0.0843  0.2358 -0.4489
 5415TIP3    H116251   3.672   5.437   3.906 -0.6974 -0.6705  0.5334
 5415TIP3    H216252   3.578   5.479   4.017 -1.9643  0.7916 -1.0222
 5416TIP3   OH216253   3.540   4.083   0.136 -0.7924 -0.2745  0.0346
 5416TIP3    H116254   3.532   4.165   0.087 -0.4594  0.5666  1.3267
 5416TIP3    H216255   3.467   4.030   0.106 -1.9238  1.0872  0.2543
 5417TIP3   OH216256   0.212  -0.011   1.179  0.0601  0.2409  0.0184
 5417TIP3    H116257   0.132   0.014   1.132 -0.2255  0.1322  0.4418
 5417TIP3    H216258   0.282   0.036   1.134  0.0928 -1.4385 -1.8510
 5418TIP3   OH216259   3.734   2.652   4.199 -0.2153 -0.4449  0.1673
 5418TIP3    H116260   3.743   2.743   4.227  1.1264 -0.7192  0.6953
 5418TIP3    H216261   3.793   2.644   4.124  1.5189 -1.4280  1.5584
 5419TIP3   OH216262   0.639   4.186   0.009  0.7023  0.5361  0.3329
 5419TIP3    H116263   0.672   4.136  -0.066  0.9682 -0.9797  1.4290
 5419TIP3    H216264   0.656   4.130   0.085 -2.4720  0.5715  1.2094
 5420TIP3   OH216265   3.081   2.887   5.015 -0.2585  0.4161  0.3695
 5420TIP3    H116266   3.168   2.875   5.053 -0.4207  0.0503  0.6370
 5420TIP3    H216267   3.055   2.976   5.042 -0.2479  0.2712  0.8801
 5421TIP3   OH216268   0.324   5.478   3.300 -0.1620 -0.2145 -0.1396
 5421TIP3    H116269   0.333   5.396   3.252 -0.2373  0.1965 -0.8655
 5421TIP3    H216270   0.403   5.528   3.279 -0.6984  0.4103 -0.7163
 5422TIP3   OH216271   2.824   0.522   3.371 -0.0786 -0.5471 -0.3277
 5422TIP3    H116272   2.900   0.518   3.314 -1.0427  0.3602 -1.7443
 5422TIP3    H216273   2.766   0.586   3.329 -1.4510 -0.9173  0.9189
 5423TIP3   OH216274   2.503   4.618   0.151 -0.2108  0.2300  0.2911
 5423TIP3    H116275   2.568   4.688   0.150  1.2721 -1.0969 -0.4375
 5423TIP3    H216276   2.516   4.572   0.234  0.0434 -0.2466 -0.0036
 5424TIP3   OH216277   5.474   3.918   1.032 -0.1229 -0.1714 -0.2697
 5424TIP3    H116278   5.502   3.837   0.991 -2.3447 -1.5832  0.8135
 5424TIP3    H216279   5.528   3.925   1.111  1.0716  0.2289 -1.0824
 5425TIP3   OH216280   2.554   4.935   3.728 -0.0047  0.2897 -0.0774
 5425TIP3    H116281   2.560   4.894   3.641 -0.2356  1.9987 -0.9470
 5425TIP3    H216282   2.486   5.002   3.717 -0.9061 -0.2654  1.7884
 5426TIP3   OH216283   2.380   2.037   4.888 -0.2005 -0.3758  0.0257
 5426TIP3    H116284   2.418   1.977   4.824 -0.3575 -1.2102  0.6997
 5426TIP3    H216285   2.405   2.124   4.857  0.0882 -0.7839 -0.9319
 5427TIP3   OH216286   1.076   3.164   0.351  0.3966 -0.2704  0.0516
 5427TIP3    H116287   1.042   3.237   0.402 -1.2040  0.3383 -1.7665
 5427TIP3    H216288   1.043   3.086   0.395  0.4311  0.1716  0.8736
 5428TIP3   OH216289   4.009   3.950   0.246  0.1636  0.2846  0.1266
 5428TIP3    H116290   3.991   3.893   0.320 -0.6881  0.1441 -0.1737
 5428TIP3    H216291   3.922   3.978   0.216  0.4863  0.2117 -0.9079
 5429TIP3   OH216292   0.691   1.513   1.263 -0.2211 -0.2671 -0.0236
 5429TIP3    H116293   0.699   1.443   1.328 -0.0613 -0.6890 -0.4957
 5429TIP3    H216294   0.769   1.567   1.277 -0.0742 -0.4819 -0.0134
 5430TIP3   OH216295   6.175   1.433   2.226 -0.5251  0.4729  0.4573
 5430TIP3    H116296   6.082   1.419   2.243 -0.0808 -1.8799  1.3986
 5430TIP3    H216297   6.193   1.378   2.149  0.1951  0.4707  0.6191
 5431TIP3   OH216298   3.801   2.999   3.809 -0.3928  0.0002 -0.2005
 5431TIP3    H116299   3.751   3.048   3.744  0.7630 -1.1967 -2.0935
 5431TIP3    H216300   3.889   3.036   3.803  0.0776 -1.1287 -0.4250
 5432TIP3   OH216301   1.969   3.578   1.720  0.1589 -0.0958  0.5696
 5432TIP3    H116302   2.012   3.607   1.801  1.3624  0.2819 -0.1650
 5432TIP3    H216303   1.924   3.656   1.688 -0.3916 -0.2687  0.9111
 5433TIP3   OH216304   0.147   3.537   2.718  0.3971  0.0792  0.0188
 5433TIP3    H116305   0.099   3.596   2.661 -0.7876 -0.4815  0.3929
 5433TIP3    H216306   0.105   3.547   2.804  0.8139 -0.5745  0.3078
 5434TIP3   OH216307   2.386   4.660   4.881  0.5027  0.3830  0.0863
 5434TIP3    H116308   2.336   4.584   4.912 -0.2080  0.7218 -0.2142
 5434TIP3    H216309   2.478   4.638   4.901  0.2955 -0.4979  0.1032
 5435TIP3   OH216310   5.311   2.959   0.788  0.0887  0.0944  0.1079
 5435TIP3    H116311   5.396   2.987   0.822  1.5224 -1.9995 -1.5133
 5435TIP3    H216312   5.285   3.030   0.729 -0.6789  2.0202  2.6050
 5436TIP3   OH216313   2.050   5.371   0.250  0.0303 -0.4284 -0.0605
 5436TIP3    H116314   1.958   5.371   0.224  0.1360 -0.5387 -0.4343
 5436TIP3    H216315   2.095   5.416   0.179 -0.0369  1.8271  1.2394
 5437TIP3   OH216316   5.252   0.320   2.609  0.3728 -0.0071  0.3698
 5437TIP3    H116317   5.307   0.320   2.531 -0.8890  1.0062 -0.5669
 5437TIP3    H216318   5.268   0.235   2.650  1.9670 -0.0718 -0.3115
 5438TIP3   OH216319   2.758   2.988   1.992  0.2565  0.8095  0.1468
 5438TIP3    H116320   2.759   2.926   1.919  1.4991  0.6684  0.2708
 5438TIP3    H216321   2.688   2.957   2.049 -0.6958  0.8914 -0.9475
 5439TIP3   OH216322   4.835   2.948   1.978 -0.0537  0.3332 -0.0540
 5439TIP3    H116323   4.820   3.037   2.009 -0.2376 -0.1471  1.3341
 5439TIP3    H216324   4.824   2.894   2.056  0.7992 -0.8339 -0.7126
 5440TIP3   OH216325   2.256   1.190   4.970  0.3373  0.1612  0.0823
 5440TIP3    H116326   2.344   1.188   5.006 -0.0097  1.0246  1.0401
 5440TIP3    H216327   2.242   1.282   4.945 -0.3290  0.0634  0.0645
 5441TIP3   OH216328   3.759   5.873   2.695  0.0953 -0.4525 -0.4249
 5441TIP3    H116329   3.799   5.888   2.781 -0.3644 -2.5514  0.2110
 5441TIP3    H216330   3.720   5.957   2.672  0.6636  0.3011  1.1844
 5442TIP3   OH216331   3.364   5.830   0.702 -0.5192  0.4121  0.2054
 5442TIP3    H116332   3.304   5.757   0.714 -2.2736  1.5265 -1.2070
 5442TIP3    H216333   3.446   5.801   0.742 -2.3109 -0.6981  3.4021
 5443TIP3   OH216334   0.940   5.166   2.185 -0.1433 -0.5452  0.1507
 5443TIP3    H116335   0.889   5.216   2.249  0.8623  0.9585 -0.1663
 5443TIP3    H216336   0.889   5.173   2.104  0.4948  0.9684 -0.1695
 5444TIP3   OH216337   0.708   5.405   1.201 -0.3342  0.1075  0.2561
 5444TIP3    H116338   0.766   5.329   1.192 -0.2575  0.3638 -1.7793
 5444TIP3    H216339   0.625   5.376   1.162 -0.5254  0.8501  0.1045
 5445TIP3   OH216340   0.748   5.960   2.695 -0.5438  0.6539  0.7014
 5445TIP3    H116341   0.763   5.867   2.710  0.8025  0.9689  1.4418
 5445TIP3    H216342   0.811   5.985   2.628 -1.4146  0.8791 -0.0441
 5446TIP3   OH216343   6.109   4.149   2.823  0.1264 -0.7912 -0.3960
 5446TIP3    H116344   6.181   4.095   2.791  0.4935 -1.0418  0.7878
 5446TIP3    H216345   6.116   4.143   2.919  0.5628  1.8137 -0.1945
 5447TIP3   OH216346   0.270   1.072   1.318  0.2586  0.0981  0.3355
 5447TIP3    H116347   0.323   1.141   1.357 -0.6948  1.0312  0.0550
 5447TIP3    H216348   0.311   1.055   1.234  1.4250 -0.8313  1.0612
 5448TIP3   OH216349   4.286   0.991   4.258 -0.2023 -0.3645  0.3656
 5448TIP3    H116350   4.295   0.907   4.213 -0.7151 -0.6677  0.8135
 5448TIP3    H216351   4.251   1.050   4.192  2.4712  0.1817 -0.6775
 5449TIP3   OH216352   1.887   4.659   0.465  0.7066 -0.0411 -0.0324
 5449TIP3    H116353   1.945   4.611   0.405  1.8223  1.3926 -0.1448
 5449TIP3    H216354   1.918   4.635   0.552  0.6097 -0.2896 -0.0642
 5450TIP3   OH216355   3.592   1.106   0.849  0.0401 -0.9699 -0.7349
 5450TIP3    H116356   3.603   1.044   0.921  2.1562  1.7890  1.5581
 5450TIP3    H216357   3.501   1.133   0.854 -0.1132 -1.5987  0.2015
 5451TIP3   OH216358   2.416   0.102   1.452  0.2774 -0.2151 -0.4549
 5451TIP3    H116359   2.375   0.188   1.465 -0.3209 -0.4233 -0.9228
 5451TIP3    H216360   2.509   0.121   1.443  0.0834  0.4676 -1.2015
 5452TIP3   OH216361   0.806   5.161   1.957  0.1176 -0.4501  0.0132
 5452TIP3    H116362   0.712   5.170   1.968  0.1932 -1.2408  1.5779
 5452TIP3    H216363   0.824   5.200   1.872 -1.4984  0.4935  0.0582
 5453TIP3   OH216364   3.071   0.762   4.222 -0.3289  0.0679 -0.4273
 5453TIP3    H116365   3.059   0.854   4.248  1.1293  0.1739 -0.0365
 5453TIP3    H216366   3.005   0.714   4.272  1.0138  0.5266  1.9348
 5454TIP3   OH216367   0.773   0.220   2.297  0.1290  0.0293 -0.3838
 5454TIP3    H116368   0.744   0.183   2.380  0.4778  0.5105 -0.0433
 5454TIP3    H216369   0.845   0.163   2.269  0.2118  0.0445 -0.2035
 5455TIP3   OH216370   0.860   5.772   3.396  0.1569 -0.4578 -0.0118
 5455TIP3    H116371   0.898   5.685   3.384 -1.9289 -1.4209 -0.0124
 5455TIP3    H216372   0.805   5.785   3.318 -1.0292  0.0440  0.8799
 5456TIP3   OH216373   1.035   5.844   3.914  0.4166  0.4413  0.4799
 5456TIP3    H116374   1.028   5.873   4.005 -0.8584 -0.1292  0.5852
 5456TIP3    H216375   1.054   5.750   3.920  0.1938  0.3739  0.1575
 5457TIP3   OH216376   2.198   2.185   1.569 -0.1934 -0.1780 -0.0947
 5457TIP3    H116377   2.234   2.214   1.653  0.9687  2.7034 -1.4573
 5457TIP3    H216378   2.113   2.229   1.563 -0.1421 -0.1443 -0.5540
 5458TIP3   OH216379   5.212   2.047   2.266  0.0476 -0.1754 -0.0143
 5458TIP3    H116380   5.213   2.013   2.176 -0.4560  0.9403 -0.4646
 5458TIP3    H216381   5.173   2.134   2.258 -0.8900 -0.4299  1.4386
 5459TIP3   OH216382   3.458   4.832   1.529 -0.0361  0.0689  0.0357
 5459TIP3    H116383   3.414   4.880   1.459 -2.9023  0.0381  1.6916
 5459TIP3    H216384   3.461   4.893   1.603 -0.2911 -1.0442  0.9898
 5460TIP3   OH216385   4.396   3.492   0.473 -0.3893 -0.0694 -0.0843
 5460TIP3    H116386   4.405   3.403   0.439 -2.3184 -0.3326 -0.0226
 5460TIP3    H216387   4.410   3.548   0.397 -1.0746 -0.5043 -0.5374
 5461TIP3   OH216388   3.315   4.180   3.767  0.0500 -0.1738 -0.4393
 5461TIP3    H116389   3.266   4.127   3.704 -0.8584  1.3658 -1.0950
 5461TIP3    H216390   3.257   4.187   3.843  0.7112 -1.1670  0.1773
 5462TIP3   OH216391   2.713   3.256   4.684  0.2600 -0.3606  0.3081
 5462TIP3    H116392   2.769   3.333   4.698  0.0857  0.4150 -2.4877
 5462TIP3    H216393   2.633   3.276   4.731  0.3505  1.0593 -0.0853
 5463TIP3   OH216394   2.796   3.060   3.249  0.1268  0.2168  0.4795
 5463TIP3    H116395   2.776   2.978   3.295 -1.3054  0.8586  1.0387
 5463TIP3    H216396   2.864   3.101   3.302 -1.5443  0.9774  2.1224
 5464TIP3   OH216397   3.977   2.192   0.480  0.3262 -0.2407  0.0101
 5464TIP3    H116398   4.058   2.186   0.430  0.8472 -0.3364  0.8459
 5464TIP3    H216399   3.934   2.108   0.466  0.5094 -0.3006 -0.1964
 5465TIP3   OH216400   3.423   1.960   2.928  0.4855 -0.0532 -0.3305
 5465TIP3    H116401   3.430   1.983   3.021  2.4265  1.3542 -0.7523
 5465TIP3    H216402   3.400   1.867   2.928 -1.3006  0.3018  1.5135
 5466TIP3   OH216403   5.696   2.503   3.534  0.4745  0.3608 -0.2162
 5466TIP3    H116404   5.775   2.547   3.564  0.9729 -0.5645 -0.1392
 5466TIP3    H216405   5.699   2.417   3.575 -1.4605  0.9043  1.1978
 5467TIP3   OH216406   0.187   3.346   2.368 -0.1064 -0.0693 -0.3234
 5467TIP3    H116407   0.196   3.396   2.449 -0.4830 -2.2095  1.1144
 5467TIP3    H216408   0.245   3.271   2.380 -2.0555 -1.7493 -0.9533
 5468TIP3   OH216409   0.993   3.215   3.004 -0.1602  0.1961  0.2462
 5468TIP3    H116410   0.944   3.283   2.957 -0.9089  0.8192  1.8587
 5468TIP3    H216411   1.085   3.239   2.991 -0.4183  2.4288  1.9540
 5469TIP3   OH216412   5.390   2.782   1.920  0.4843 -0.3087 -0.3131
 5469TIP3    H116413   5.472   2.804   1.966 -0.3597 -1.1551  1.7366
 5469TIP3    H216414   5.338   2.862   1.924  1.0418  0.1216 -1.3007
 5470TIP3   OH216415   4.327   1.296   1.670 -0.3326 -0.8727 -0.0290
 5470TIP3    H116416   4.297   1.371   1.721 -1.1993 -0.5190 -1.0201
 5470TIP3    H216417   4.322   1.326   1.579  1.1973 -1.4703 -0.3351
 5471TIP3   OH216418   0.300   1.726   1.704 -0.1622 -0.3426 -0.2592
 5471TIP3    H116419   0.291   1.820   1.720 -3.6108 -0.8085  1.6405
 5471TIP3    H216420   0.388   1.716   1.668  0.7894  3.4465  0.5382
 5472TIP3   OH216421   1.281   3.437   0.738  0.0406  0.1073  0.0852
 5472TIP3    H116422   1.205   3.431   0.680 -0.9254 -0.9225  1.3882
 5472TIP3    H216423   1.287   3.530   0.760 -0.5046  0.2779 -0.4609
 5473TIP3   OH216424   1.545   5.536   1.420  0.0701  0.5671 -0.1684
 5473TIP3    H116425   1.462   5.576   1.446  0.3985  1.2908 -0.2168
 5473TIP3    H216426   1.610   5.578   1.476  0.4349  0.1546 -0.2798
 5474TIP3   OH216427   4.376   0.972   3.085 -0.3695 -0.5313  0.7248
 5474TIP3    H116428   4.289   0.955   3.048 -0.5316  0.4109  0.6529
 5474TIP3    H216429   4.395   1.062   3.061  0.6257 -0.7171  0.7714
 5475TIP3   OH216430   0.482   0.924   1.766 -0.2890 -0.2755 -0.4101
 5475TIP3    H116431   0.487   0.904   1.673 -2.6422 -0.4779 -0.5511
 5475TIP3    H216432   0.391   0.906   1.790 -0.0590  0.9481  1.6573
 5476TIP3   OH216433   6.168   0.769   0.125 -0.0547 -0.2581  0.5475
 5476TIP3    H116434   6.158   0.776   0.220  0.7284 -2.9771  0.9274
 5476TIP3    H216435   6.180   0.859   0.095 -0.2972  0.6726  3.0087
 5477TIP3   OH216436   2.748   4.197   5.169  0.3523  0.1504 -0.1053
 5477TIP3    H116437   2.769   4.131   5.103  1.7213  2.1548 -1.7859
 5477TIP3    H216438   2.776   4.157   5.252 -2.2954 -2.8154 -0.4486
 5478TIP3   OH216439   5.808   3.709   2.459  0.2523 -0.0736  0.1740
 5478TIP3    H116440   5.821   3.634   2.400  1.2826  0.3693 -0.1793
 5478TIP3    H216441   5.720   3.740   2.439  0.8135  0.4656 -1.6206
 5479TIP3   OH216442   3.816   2.215   4.560 -0.3144 -0.6110  0.2371
 5479TIP3    H116443   3.787   2.238   4.649 -0.5550  0.8789 -0.1952
 5479TIP3    H216444   3.842   2.299   4.521  0.7979 -1.3838 -0.7490
 5480TIP3   OH216445   0.720   5.705   0.227 -0.4596 -0.4133 -0.0920
 5480TIP3    H116446   0.722   5.668   0.139 -0.8661 -1.0115  0.1454
 5480TIP3    H216447   0.689   5.634   0.283  0.0030 -0.1036  0.5701
 5481TIP3   OH216448   5.779   3.924   0.831  0.4960  0.1534 -0.3691
 5481TIP3    H116449   5.773   3.888   0.920  2.0319  1.1771  0.1980
 5481TIP3    H216450   5.740   3.857   0.775 -1.6197  0.0023  1.1841
 5482TIP3   OH216451   5.864   4.955   2.331 -0.0896  0.7202  0.2460
 5482TIP3    H116452   5.908   4.958   2.416  0.5414  1.7686 -0.1031
 5482TIP3    H216453   5.771   4.951   2.353  0.1213 -1.1433  0.9881
 5483TIP3   OH216454   2.674   2.936   1.025  0.3639  0.0944 -0.0783
 5483TIP3    H116455   2.742   2.870   1.036 -0.9128 -1.1971  0.2540
 5483TIP3    H216456   2.608   2.895   0.969 -1.0577  0.5682  1.1630
 5484TIP3   OH216457   3.797   2.478   1.362  1.1390  0.3915  0.2840
 5484TIP3    H116458   3.877   2.446   1.403  1.5572  0.4398 -0.4870
 5484TIP3    H216459   3.818   2.567   1.333  1.2712 -0.1141 -1.2096
 5485TIP3   OH216460   1.906   2.935   0.804  0.1370  0.3650 -0.3553
 5485TIP3    H116461   1.965   2.878   0.755  2.7251  0.1544  2.6357
 5485TIP3    H216462   1.917   3.021   0.763  1.7143  0.0940 -0.5846
 5486TIP3   OH216463   4.204   3.038   2.308  0.0042  0.0055  0.3164
 5486TIP3    H116464   4.116   3.061   2.278 -0.4558 -2.2081 -0.2272
 5486TIP3    H216465   4.262   3.063   2.236 -0.4663 -0.4729 -0.2444
 5487TIP3   OH216466   5.858   2.363   3.196  0.6088 -0.3609  0.0182
 5487TIP3    H116467   5.882   2.324   3.280  0.7926 -0.8071 -0.2386
 5487TIP3    H216468   5.789   2.426   3.218 -0.5326 -1.6563  0.2943
 5488TIP3   OH216469   0.153   5.958   3.613  0.0538  0.1548  0.2190
 5488TIP3    H116470   0.142   6.042   3.569  1.1704 -0.4548 -1.2949
 5488TIP3    H216471   0.080   5.954   3.675 -0.3765  1.9500 -0.1108
 5489TIP3   OH216472   3.209   0.401   3.062 -0.3900 -0.2384  0.1354
 5489TIP3    H116473   3.169   0.321   3.097 -0.7793 -1.1531 -2.2257
 5489TIP3    H216474   3.268   0.430   3.132 -1.4238 -1.6734  1.7010
 5490TIP3   OH216475   3.518   3.028   2.074 -1.0986  0.6285  0.2149
 5490TIP3    H116476   3.429   3.060   2.064 -1.5862  0.0786  2.2052
 5490TIP3    H216477   3.509   2.947   2.124  0.4808  0.2382 -0.0626
 5491TIP3   OH216478   4.720   0.188   0.160 -0.2388 -0.5937  0.1067
 5491TIP3    H116479   4.670   0.232   0.229 -1.2956 -0.8582 -0.4730
 5491TIP3    H216480   4.665   0.194   0.082  1.9938  2.0300 -1.4796
 5492TIP3   OH216481   1.771   5.938   1.766 -0.1206  0.1811 -0.1300
 5492TIP3    H116482   1.845   5.991   1.738  1.0810 -1.6562 -0.6485
 5492TIP3    H216483   1.791   5.913   1.856 -1.3790  1.7076  0.6212
 5493TIP3   OH216484   0.922   1.065   4.124 -0.3030  0.2455 -0.0042
 5493TIP3    H116485   0.847   1.112   4.087  1.7722  2.1523 -2.0239
 5493TIP3    H216486   0.929   0.986   4.071 -1.3135 -0.3356  0.7007
 5494TIP3   OH216487   1.026   2.882   0.492 -0.2350  0.0962  0.3103
 5494TIP3    H116488   1.102   2.826   0.505 -1.2136 -0.9503  1.7370
 5494TIP3    H216489   0.954   2.822   0.473 -1.2209  0.8713  1.4418
 5495TIP3   OH216490   6.070   5.235   4.694 -0.5812 -0.7081  0.0965
 5495TIP3    H116491   6.053   5.325   4.665 -0.2042 -0.6659 -0.0007
 5495TIP3    H216492   5.983   5.195   4.700 -0.7261 -0.4470 -0.2231
 5496TIP3   OH216493   5.204   5.729   3.638  0.3679  0.2686  0.6532
 5496TIP3    H116494   5.144   5.716   3.711  0.4823  0.2502  0.7439
 5496TIP3    H216495   5.267   5.794   3.669  0.6879 -0.0745  0.7402
 5497TIP3   OH216496   4.934   1.594   3.154  0.3468  0.1161  0.2493
 5497TIP3    H116497   4.840   1.587   3.137  0.4302  0.4050 -0.3603
 5497TIP3    H216498   4.974   1.529   3.096  0.5677  0.4261  0.0493
 5498TIP3   OH216499   0.390   4.970   4.872 -0.1342  0.2964  0.3046
 5498TIP3    H116500   0.393   4.905   4.801 -0.1132  0.4414  0.1741
 5498TIP3    H216501   0.408   4.919   4.951 -1.7206 -0.1546  0.4038
 5499TIP3   OH216502   3.597   1.421   2.396 -0.1560  0.5630  0.2081
 5499TIP3    H116503   3.611   1.509   2.360  0.1459  0.8375  0.9616
 5499TIP3    H216504   3.685   1.384   2.402 -0.0678  0.9443  1.6704
 5500TIP3   OH216505   0.965   5.066   4.109  0.6675 -0.1150 -0.1555
 5500TIP3    H116506   0.981   5.072   4.014 -1.2278 -3.4360 -0.8425
 5500TIP3    H216507   0.874   5.091   4.119  0.0399 -2.3748  0.3002
 5501TIP3   OH216508   1.715   1.226   0.909  0.2269  0.4719 -0.3066
 5501TIP3    H116509   1.689   1.256   0.996  1.4905 -0.4606  0.4184
 5501TIP3    H216510   1.683   1.135   0.905  0.8681  0.2506 -0.5017
 5502TIP3   OH216511   0.381   2.539   1.433 -0.1230 -0.5121 -0.5403
 5502TIP3    H116512   0.457   2.594   1.416  1.1162 -1.7795  0.7153
 5502TIP3    H216513   0.357   2.503   1.347  2.2416 -2.0272 -0.6389
 5503TIP3   OH216514   0.373   0.585   4.947  0.2376  0.0446 -0.0955
 5503TIP3    H116515   0.416   0.588   4.861  1.5785 -0.0842  0.5508
 5503TIP3    H216516   0.393   0.498   4.981  0.0623  0.2464  0.5231
 5504TIP3   OH216517   1.373   3.069   0.947  0.4709  0.0473 -0.3413
 5504TIP3    H116518   1.341   2.988   0.985  0.7029  0.9320  1.8746
 5504TIP3    H216519   1.401   3.122   1.022  2.8678  1.1149 -1.8641
 5505TIP3   OH216520   3.041   0.691   2.026  0.2498  0.1807 -0.3940
 5505TIP3    H116521   3.047   0.596   2.036 -2.1581  0.0017 -0.2082
 5505TIP3    H216522   3.041   0.725   2.115  0.7832  0.3553 -0.4533
 5506TIP3   OH216523   1.075   5.310   3.538 -0.2004 -0.2069 -0.3466
 5506TIP3    H116524   1.129   5.324   3.460  1.4644  1.5832  1.0197
 5506TIP3    H216525   1.090   5.219   3.561 -0.1401 -0.5584 -1.6550
 5507TIP3   OH216526   0.649   5.548   0.429 -0.8133 -0.5770  0.1392
 5507TIP3    H116527   0.567   5.512   0.462 -0.4337  0.3060  2.2227
 5507TIP3    H216528   0.709   5.540   0.503  0.8478 -0.7191 -1.1675
 5508TIP3   OH216529   4.011   1.984   3.015  0.2196 -0.1379  0.3785
 5508TIP3    H116530   4.034   2.076   3.005 -1.1130  0.0475 -1.4657
 5508TIP3    H216531   4.081   1.937   2.970 -0.2000  0.1055 -0.5407
 5509TIP3   OH216532   3.198   4.714   3.895  0.2813  0.3070 -0.6945
 5509TIP3    H116533   3.208   4.642   3.958  1.5168  1.2702  0.2714
 5509TIP3    H216534   3.232   4.679   3.813  0.8145 -0.2384 -0.2532
 5510TIP3   OH216535   1.271   5.789   0.151 -0.5800  0.2450 -0.0987
 5510TIP3    H116536   1.343   5.798   0.088 -1.2139 -0.7287 -0.9883
 5510TIP3    H216537   1.247   5.879   0.173  1.0098  0.5990  0.3565
 5511TIP3   OH216538   3.930   3.183   1.577  0.0204 -0.4267  0.1996
 5511TIP3    H116539   4.002   3.239   1.548  0.0154 -0.7923 -0.5607
 5511TIP3    H216540   3.881   3.237   1.639  0.3362  0.2145 -0.0966
 5512TIP3   OH216541   5.816   1.951   2.305  0.0235 -0.1925  0.1610
 5512TIP3    H116542   5.800   2.004   2.384 -1.6301  0.1470 -0.3778
 5512TIP3    H216543   5.911   1.954   2.295  0.2311  0.2121  1.8264
 5513TIP3   OH216544   4.174   5.299   1.060  0.2581  0.0963  0.0237
 5513TIP3    H116545   4.080   5.306   1.046  0.2252 -0.7392 -0.2199
 5513TIP3    H216546   4.213   5.321   0.975  0.3073  0.7262  0.1992
 5514TIP3   OH216547   1.144   0.943   3.889  0.2075 -0.2021  0.2571
 5514TIP3    H116548   1.232   0.957   3.926  0.1061  0.5892  0.2204
 5514TIP3    H216549   1.141   1.000   3.813  0.4990 -1.9993 -1.1560
 5515TIP3   OH216550   4.245   5.438   4.715  0.0130 -0.1544 -0.0971
 5515TIP3    H116551   4.153   5.431   4.690  0.2314 -1.2117 -0.6813
 5515TIP3    H216552   4.282   5.352   4.695  0.8102 -0.2238  1.4742
 5516TIP3   OH216553   4.353   5.915   3.210 -0.4814 -0.0191  0.2008
 5516TIP3    H116554   4.267   5.904   3.169 -1.0354 -1.8303  1.7142
 5516TIP3    H216555   4.406   5.845   3.171  0.3925  1.1850 -0.8384
 5517TIP3   OH216556   5.193   4.867   1.056  0.0480  0.0085 -0.5075
 5517TIP3    H116557   5.288   4.867   1.069 -0.0534 -0.4383  0.3590
 5517TIP3    H216558   5.158   4.850   1.144 -0.8278  0.0311 -0.8481
 5518TIP3   OH216559   2.314   0.827   2.057  0.1084  0.4850  0.0490
 5518TIP3    H116560   2.377   0.897   2.078 -1.7184  2.4392 -0.6463
 5518TIP3    H216561   2.352   0.784   1.980  1.2534  0.7035  0.4625
 5519TIP3   OH216562   1.802   3.488   4.898 -0.1999 -0.0072  0.1870
 5519TIP3    H116563   1.885   3.484   4.850  0.2509 -1.3296  1.0280
 5519TIP3    H216564   1.754   3.560   4.857  1.3879  0.8389 -0.2656
 5520TIP3   OH216565   4.025   4.224   4.741  0.3265 -0.4454 -0.3345
 5520TIP3    H116566   4.073   4.262   4.814  0.4506  0.5763 -0.9339
 5520TIP3    H216567   4.093   4.183   4.687  0.6131  1.3164 -1.3742
 5521TIP3   OH216568   0.546   4.013   0.227 -0.0521  0.1122  0.4032
 5521TIP3    H116569   0.480   3.989   0.161 -0.5704  1.3409  0.4367
 5521TIP3    H216570   0.496   4.024   0.308  0.4603 -0.6131  0.8231
 5522TIP3   OH216571   0.844   4.671   1.028 -0.6529 -0.4021 -0.2102
 5522TIP3    H116572   0.821   4.642   1.117 -1.6572  1.2295  0.0968
 5522TIP3    H216573   0.926   4.625   1.009 -0.8944 -1.4830  1.1982
 5523TIP3   OH216574   2.197   1.309   1.849 -0.0360  0.4541  0.3487
 5523TIP3    H116575   2.126   1.286   1.908 -0.5656  0.5498 -0.2363
 5523TIP3    H216576   2.182   1.256   1.771  0.9813 -0.0937  0.5043
 5524TIP3   OH216577   0.303   3.822   0.336  0.0068 -0.0208 -0.4532
 5524TIP3    H116578   0.279   3.854   0.249 -0.0874  0.6597 -0.1871
 5524TIP3    H216579   0.356   3.893   0.373  0.1167 -0.3431  0.0117
 5525TIP3   OH216580   1.825   4.076   1.875  0.2217  0.3392  0.6844
 5525TIP3    H116581   1.806   4.011   1.943  1.0630 -1.1842 -0.4863
 5525TIP3    H216582   1.762   4.057   1.806  1.0186  0.2225 -0.0168
 5526TIP3   OH216583   4.351   5.944   4.997 -0.0061 -0.0596  0.2878
 5526TIP3    H116584   4.271   5.955   5.047  1.2908  0.0910  2.4261
 5526TIP3    H216585   4.346   6.012   4.929 -0.9055  1.0822  1.4539
 5527TIP3   OH216586   0.094   2.170   0.869 -0.3699 -0.0201  0.6352
 5527TIP3    H116587   0.130   2.130   0.948  0.7512 -1.6341 -0.6225
 5527TIP3    H216588   0.098   2.264   0.887  0.6266 -0.3066  2.1804
 5528TIP3   OH216589   3.926   1.857   3.240 -0.1427  0.8731  0.2248
 5528TIP3    H116590   3.851   1.799   3.226 -1.3650  1.9292  1.8551
 5528TIP3    H216591   3.936   1.904   3.157 -0.6625  0.0271 -0.3283
 5529TIP3   OH216592   5.077   0.764   0.874 -0.2592 -0.1365  0.2912
 5529TIP3    H116593   5.122   0.832   0.824 -0.0613 -0.2571  0.3032
 5529TIP3    H216594   5.052   0.807   0.956 -0.6983  0.0954  0.0354
 5530TIP3   OH216595   1.157   5.432   4.806  0.5504 -0.2801 -0.3335
 5530TIP3    H116596   1.170   5.345   4.769  0.7744  0.6908 -2.6566
 5530TIP3    H216597   1.225   5.439   4.874  0.8960 -1.6749 -0.5018
 5531TIP3   OH216598   3.928   3.617   3.111  0.3353  0.0669 -0.3097
 5531TIP3    H116599   3.983   3.595   3.186 -0.7245 -0.9124  0.2142
 5531TIP3    H216600   3.873   3.690   3.141  0.9370  0.6719 -0.6475
 5532TIP3   OH216601   1.820   2.550   4.905 -0.5461  0.4759  0.7067
 5532TIP3    H116602   1.768   2.593   4.837  0.7954  1.4788  0.2697
 5532TIP3    H216603   1.907   2.590   4.897  0.4205 -1.4535  1.1245
 5533TIP3   OH216604   5.464   3.561   1.523  0.2578  0.0551  0.2233
 5533TIP3    H116605   5.406   3.558   1.600 -2.4714  0.7287 -1.6578
 5533TIP3    H216606   5.456   3.473   1.485 -0.8119  0.5990 -0.8707
 5534TIP3   OH216607   4.863   1.351   3.686  0.1398 -0.5922  0.0757
 5534TIP3    H116608   4.902   1.269   3.653  0.5822 -0.2664 -0.2293
 5534TIP3    H216609   4.848   1.403   3.607 -2.4974 -1.3379 -0.0205
 5535TIP3   OH216610   2.003   2.434   1.802  0.0292 -0.0820  0.0248
 5535TIP3    H116611   1.942   2.501   1.834  0.9605  0.5429  0.5454
 5535TIP3    H216612   1.984   2.427   1.709 -1.3825 -0.4831  0.3181
 5536TIP3   OH216613   0.002   3.678   1.039 -0.1008 -0.6325 -0.4227
 5536TIP3    H116614   0.013   3.639   1.125  1.1000  0.1627 -0.1972
 5536TIP3    H216615   0.069   3.635   0.984 -1.6810 -2.0694 -1.3220
 5537TIP3   OH216616   1.137   3.764   0.556  0.4425  0.0843 -0.2354
 5537TIP3    H116617   1.098   3.711   0.625 -1.8230  0.0968 -1.4106
 5537TIP3    H216618   1.231   3.761   0.573  0.0434 -0.8679  2.1306
 5538TIP3   OH216619   6.021   3.772   0.673 -0.1630  0.4359 -0.2939
 5538TIP3    H116620   6.043   3.810   0.758  0.7351  0.0508 -0.3337
 5538TIP3    H216621   6.010   3.678   0.691 -2.5292  0.6819 -0.1628
 5539TIP3   OH216622   4.601   0.394   3.563 -0.2688 -0.6739  0.0645
 5539TIP3    H116623   4.623   0.485   3.543  1.2101 -0.8616  0.7291
 5539TIP3    H216624   4.642   0.378   3.648 -0.7829 -1.8773  0.0969
 5540TIP3   OH216625   6.327   3.670   2.545  0.4333  0.2941  0.4095
 5540TIP3    H116626   6.363   3.650   2.459  1.2178  1.6833  0.3780
 5540TIP3    H216627   6.245   3.621   2.550 -0.8410  2.0284 -2.0706
 5541TIP3   OH216628   6.124   3.331   3.092  0.4533  0.1219  0.0622
 5541TIP3    H116629   6.169   3.316   3.175 -1.6152 -0.0355  1.2268
 5541TIP3    H216630   6.060   3.399   3.111  0.7557  0.9909 -1.7632
 5542TIP3   OH216631   6.147   2.235   1.133 -0.7089 -0.5012  0.2350
 5542TIP3    H116632   6.063   2.191   1.148 -0.1559 -1.4275  0.7423
 5542TIP3    H216633   6.140   2.318   1.180 -0.2436 -1.9069  3.0196
 5543TIP3   OH216634   4.937   4.809   4.307 -0.2257  0.3667 -0.1413
 5543TIP3    H116635   4.930   4.851   4.221  0.9252  1.0084  0.0621
 5543TIP3    H216636   5.031   4.808   4.326 -0.3592 -0.9190  0.5533
 5544TIP3   OH216637   1.024   0.359   0.038  0.2840 -0.1470  0.1426
 5544TIP3    H116638   0.954   0.331  -0.021  1.9467 -1.7074 -1.2438
 5544TIP3    H216639   1.059   0.277   0.073  0.2261  0.6847  2.3323
 5545TIP3   OH216640   5.618   4.729   1.495  0.1550  0.1428  0.0856
 5545TIP3    H116641   5.633   4.815   1.455 -0.9727  0.6081  0.6442
 5545TIP3    H216642   5.601   4.670   1.420 -1.8653  0.9891 -0.1805
 5546TIP3   OH216643   5.130   4.247   1.336 -0.3018  0.3587 -0.2644
 5546TIP3    H116644   5.083   4.219   1.257 -0.4762  1.0617 -0.4194
 5546TIP3    H216645   5.153   4.339   1.319 -0.8436  0.6933  0.7389
 5547TIP3   OH216646   3.408   0.199   0.220  0.7677 -0.1579  0.3653
 5547TIP3    H116647   3.405   0.212   0.314 -0.7976  1.4597  0.1418
 5547TIP3    H216648   3.320   0.168   0.197  1.1111 -0.4828 -0.5638
 5548TIP3   OH216649   1.154   4.682   1.380 -0.5621  0.1908 -0.0113
 5548TIP3    H116650   1.101   4.761   1.390  0.1736  1.0036 -1.9809
 5548TIP3    H216651   1.147   4.659   1.288  1.5053 -0.3610 -0.0992
 5549TIP3   OH216652   0.889   1.774   2.997 -0.1280 -0.2633 -0.4375
 5549TIP3    H116653   0.912   1.843   3.058 -1.1866 -0.1758 -0.1370
 5549TIP3    H216654   0.922   1.805   2.912 -1.3026  0.9901 -0.4591
 5550TIP3   OH216655   0.620   2.251   0.075 -0.2058 -0.1506  0.3614
 5550TIP3    H116656   0.706   2.215   0.096  0.5637  1.1165 -0.4880
 5550TIP3    H216657   0.624   2.343   0.101 -0.7002  0.3521 -1.2032
 5551TIP3   OH216658   2.458   2.313   4.075 -0.1293 -0.0212  0.0095
 5551TIP3    H116659   2.433   2.223   4.054 -3.2912  0.8746 -0.5413
 5551TIP3    H216660   2.416   2.366   4.007  1.4009  1.9220  0.4948
 5552TIP3   OH216661   2.220   3.602   0.653 -0.2666  0.1702  0.4142
 5552TIP3    H116662   2.236   3.642   0.739 -1.0502 -1.2934  1.2786
 5552TIP3    H216663   2.308   3.587   0.618  0.1500 -0.9260  1.8118
 5553TIP3   OH216664   6.042   5.294   3.420 -0.4646 -0.2538 -0.1135
 5553TIP3    H116665   6.123   5.337   3.393 -0.3391 -0.0297  0.6028
 5553TIP3    H216666   6.041   5.213   3.369  0.2204 -0.2713 -0.1189
 5554TIP3   OH216667   1.129   1.863   1.964 -0.3955  0.2157  0.1623
 5554TIP3    H116668   1.043   1.822   1.953 -0.2925  0.1326 -0.3979
 5554TIP3    H216669   1.190   1.789   1.968 -0.2146  0.2967 -0.8006
 5555TIP3   OH216670   6.275   5.891   1.962  0.0197  0.0095  0.5137
 5555TIP3    H116671   6.307   5.846   2.040 -1.3907 -2.9695 -0.4560
 5555TIP3    H216672   6.181   5.903   1.978  0.0128  0.8108 -0.0863
 5556TIP3   OH216673   4.196   5.945   3.791 -0.1489 -0.2224 -0.3152
 5556TIP3    H116674   4.243   5.945   3.708  0.8839 -0.4131  0.2553
 5556TIP3    H216675   4.139   6.022   3.787 -0.6366 -0.6142 -1.4716
 5557TIP3   OH216676   2.524   2.265   2.084 -0.0805 -0.4602  0.0148
 5557TIP3    H116677   2.523   2.335   2.020 -0.5547 -0.9863 -0.5622
 5557TIP3    H216678   2.612   2.270   2.123 -0.6423  1.4804  1.1585
 5558TIP3   OH216679   1.347   3.839   4.313 -0.4509 -0.2322  0.0258
 5558TIP3    H116680   1.339   3.935   4.318 -0.3905 -0.1811 -0.7868
 5558TIP3    H216681   1.432   3.820   4.354  0.1882  0.1991 -1.0472
 5559TIP3   OH216682   4.234   5.139   5.002  0.3891  0.0547  0.0754
 5559TIP3    H116683   4.153   5.155   4.954  0.4387  0.1195  0.0143
 5559TIP3    H216684   4.204   5.117   5.091  0.3516  2.3639  0.7199
 5560TIP3   OH216685   0.536   0.170   2.138 -0.2505 -0.3995  0.0322
 5560TIP3    H116686   0.612   0.192   2.192 -0.8344 -1.0538  1.1616
 5560TIP3    H216687   0.502   0.255   2.110  1.1118 -0.1024 -0.8502
 5561TIP3   OH216688   1.634   2.367   2.307  0.0921 -0.0486 -0.1704
 5561TIP3    H116689   1.646   2.439   2.369 -0.9779  0.6169 -0.7067
 5561TIP3    H216690   1.693   2.387   2.235  1.5600 -0.9779  0.7215
 5562TIP3   OH216691   2.731   4.809   2.740  0.0565  0.0872 -0.0601
 5562TIP3    H116692   2.672   4.822   2.666 -1.0145 -0.7785  0.6007
 5562TIP3    H216693   2.789   4.738   2.712  0.4768  0.6042 -0.5243
 5563TIP3   OH216694   0.607   2.173   3.960  0.4138 -0.5222  0.3817
 5563TIP3    H116695   0.514   2.189   3.978  0.1183  0.8232 -1.9710
 5563TIP3    H216696   0.650   2.186   4.045 -1.4686 -0.8842  1.4698
 5564TIP3   OH216697   5.037   0.359   0.699 -0.4472  0.1249 -0.6373
 5564TIP3    H116698   4.995   0.307   0.631  0.5245 -3.1940  1.0972
 5564TIP3    H216699   5.130   0.354   0.680 -0.2498  0.1627  0.2555
 5565TIP3   OH216700   1.635   1.930   0.251  0.1113 -0.0716  0.1345
 5565TIP3    H116701   1.696   1.974   0.310 -0.9454  1.1059  0.3971
 5565TIP3    H216702   1.554   1.923   0.301  0.2334 -2.3857  0.1007
 5566TIP3   OH216703   2.412   1.576   4.945  0.1636  0.4173 -0.4716
 5566TIP3    H116704   2.383   1.602   5.033 -0.9833 -0.3336 -0.6039
 5566TIP3    H216705   2.333   1.541   4.903  0.7292  0.6165 -1.7566
 5567TIP3   OH216706   0.906   0.034   0.609 -0.1636 -0.4449 -0.0923
 5567TIP3    H116707   0.991   0.071   0.585  0.5082 -1.8973 -0.0734
 5567TIP3    H216708   0.871  -0.002   0.527 -1.0769  0.7062 -0.2318
 5568TIP3   OH216709   2.438   2.564   3.365  0.5657  0.3593  0.4511
 5568TIP3    H116710   2.481   2.590   3.284 -0.9187 -0.3203 -0.5868
 5568TIP3    H216711   2.414   2.473   3.352  1.7248 -0.2938  2.3152
 5569TIP3   OH216712   3.451   2.930   4.350 -0.2872  0.1512 -0.3445
 5569TIP3    H116713   3.511   2.997   4.383 -0.5720  0.0261  0.4466
 5569TIP3    H216714   3.372   2.978   4.327 -0.0493  0.2540 -0.9651
 5570TIP3   OH216715   4.450   2.385   2.832 -0.1243 -0.2209 -0.0675
 5570TIP3    H116716   4.507   2.317   2.866  0.5806 -0.3559 -1.4433
 5570TIP3    H216717   4.363   2.363   2.865  0.2877 -1.1200  0.4483
 5571TIP3   OH216718   2.341   4.014   1.437 -0.4402  0.2618 -0.7482
 5571TIP3    H116719   2.360   3.956   1.511 -3.7289  0.4779  0.4354
 5571TIP3    H216720   2.302   4.092   1.477 -0.2673  1.3640 -2.6013
 5572TIP3   OH216721   4.718   3.941   0.795  0.1393 -0.5940 -0.2742
 5572TIP3    H116722   4.814   3.935   0.794  0.1820 -0.4253 -2.1357
 5572TIP3    H216723   4.691   3.889   0.870  1.7281  0.1918  0.8908
 5573TIP3   OH216724   0.885   4.818   3.150  0.0919 -0.1053  0.1100
 5573TIP3    H116725   0.841   4.809   3.065 -0.1634  0.2460  0.2024
 5573TIP3    H216726   0.828   4.877   3.200 -0.5241 -1.4429  1.0451
 5574TIP3   OH216727   1.264   1.112   2.647 -0.5076 -0.0137  0.2740
 5574TIP3    H116728   1.173   1.143   2.643 -0.1247  1.0771 -0.5125
 5574TIP3    H216729   1.307   1.155   2.572  0.2220 -1.9906 -0.5071
 5575TIP3   OH216730   1.208   1.219   4.967 -0.2460 -0.2207 -0.3060
 5575TIP3    H116731   1.209   1.144   5.027 -0.7960  0.0634  0.0641
 5575TIP3    H216732   1.116   1.228   4.941 -0.5879  1.6133  1.3122
 5576TIP3   OH216733   4.358   3.910   0.352 -0.5079 -0.4083  0.0534
 5576TIP3    H116734   4.443   3.934   0.316 -1.1294  1.0085 -0.5517
 5576TIP3    H216735   4.308   3.880   0.276 -0.6854 -0.8323  0.3356
 5577TIP3   OH216736   3.788   1.360   4.002 -0.3859 -0.3235 -0.2299
 5577TIP3    H116737   3.732   1.425   4.044  1.1706  0.6232  0.4524
 5577TIP3    H216738   3.873   1.369   4.046  0.6620 -0.8672 -2.0315
 5578TIP3   OH216739   1.855   1.095   2.933  0.1184 -0.5289 -0.0976
 5578TIP3    H116740   1.768   1.111   2.969  0.2500 -1.4167  0.6651
 5578TIP3    H216741   1.861   0.999   2.928  1.1742 -0.4860  0.1726
 5579TIP3   OH216742   1.765   5.176   0.098  0.3385 -0.0637 -0.0337
 5579TIP3    H116743   1.761   5.269   0.118  0.4685 -0.4094  1.8528
 5579TIP3    H216744   1.778   5.134   0.184  1.7123 -1.7209 -0.9829
 5580TIP3   OH216745   0.366   2.237   0.772 -0.3568 -0.3253  0.1304
 5580TIP3    H116746   0.400   2.154   0.740 -0.8357 -0.3532 -0.3255
 5580TIP3    H216747   0.436   2.300   0.754  0.1105 -0.6644  0.7066
 5581TIP3   OH216748   5.424   5.303   0.110 -0.0059  0.4993  0.5850
 5581TIP3    H116749   5.332   5.301   0.084 -0.3443  3.6967  1.1379
 5581TIP3    H216750   5.425   5.264   0.197 -0.4716 -1.2414 -0.1466
 5582TIP3   OH216751   2.551   0.496   1.032 -0.2455  0.1513  0.1154
 5582TIP3    H116752   2.477   0.463   1.082 -0.3619  1.0122  0.5248
 5582TIP3    H216753   2.600   0.418   1.006  0.2598 -0.2972  2.2305
 5583TIP3   OH216754   5.954   5.770   4.029 -0.3949  0.7849  0.1387
 5583TIP3    H116755   6.027   5.756   4.090 -2.0760 -0.1574  2.0953
 5583TIP3    H216756   5.896   5.830   4.075 -0.3810  2.4139 -1.8584
 5584TIP3   OH216757   1.366   4.463   2.168 -0.0046  0.2096  0.0232
 5584TIP3    H116758   1.350   4.397   2.100  0.8532 -0.5900  0.5649
 5584TIP3    H216759   1.398   4.539   2.120 -0.8854  0.2046 -0.6057
 5585TIP3   OH216760   3.102   2.666   0.859 -0.1979 -0.1613  0.2294
 5585TIP3    H116761   3.176   2.705   0.905 -0.6537 -0.8792  1.6327
 5585TIP3    H216762   3.025   2.707   0.899 -0.5906  0.8509 -1.4603
 5586TIP3   OH216763   0.019   5.780   0.379  0.4527 -0.0304  0.0032
 5586TIP3    H116764   0.018   5.782   0.474  0.6122  0.3210  0.0011
 5586TIP3    H216765   0.031   5.872   0.353 -1.8523  0.2067 -0.3954
 5587TIP3   OH216766   1.245   5.593   0.823 -0.4220 -0.7371  0.2130
 5587TIP3    H116767   1.340   5.597   0.833 -0.5532  1.1162  1.2005
 5587TIP3    H216768   1.220   5.515   0.872  0.5168 -0.7787  0.6587
 5588TIP3   OH216769   5.866   1.213   2.243  0.2430  0.6199 -0.5581
 5588TIP3    H116770   5.853   1.308   2.234 -0.2005  0.4352 -2.1193
 5588TIP3    H216771   5.818   1.190   2.323  1.5240  1.9021  0.6426
 5589TIP3   OH216772   5.704   4.941   1.995  0.4318  0.0420 -0.1229
 5589TIP3    H116773   5.678   5.009   1.934 -1.0116 -0.1479  0.2463
 5589TIP3    H216774   5.645   4.868   1.976  1.1998 -0.6923  0.2528
 5590TIP3   OH216775   0.578   3.928   3.275 -0.0949 -0.1038  0.3526
 5590TIP3    H116776   0.632   3.945   3.352  0.8210 -2.6324  0.3738
 5590TIP3    H216777   0.504   3.877   3.308 -0.8479  0.6465 -0.1431
 5591TIP3   OH216778   6.075   4.145   0.462 -0.2120  0.3367 -0.2775
 5591TIP3    H116779   6.018   4.166   0.537 -0.8575  0.2176 -0.7227
 5591TIP3    H216780   6.127   4.224   0.449 -2.4409  1.6608 -1.7838
 5592TIP3   OH216781   3.120   0.285   0.183 -0.0649 -0.0123 -0.7198
 5592TIP3    H116782   3.085   0.301   0.271 -0.7395 -0.6566 -0.8624
 5592TIP3    H216783   3.082   0.355   0.129 -1.2006 -0.7177 -0.8788
 5593TIP3   OH216784   3.506   4.170   2.912 -0.0402  0.4044 -0.7794
 5593TIP3    H116785   3.482   4.168   3.005  1.5215  1.8096 -0.2923
 5593TIP3    H216786   3.502   4.262   2.888  0.6209  0.1809 -1.8129
 5594TIP3   OH216787   0.700   2.182   2.073  0.0259 -0.0322 -0.0297
 5594TIP3    H116788   0.770   2.230   2.028  0.6014 -0.9160 -0.0978
 5594TIP3    H216789   0.621   2.231   2.052  0.6692  1.2610  0.4404
 5595TIP3   OH216790   5.746   3.043   1.313 -0.1155  0.3976 -0.1931
 5595TIP3    H116791   5.804   3.061   1.388 -1.3058  0.0311  0.8505
 5595TIP3    H216792   5.787   2.969   1.268  1.4105  1.5667 -0.7972
 5596TIP3   OH216793   3.847   3.564   2.210 -0.2487 -0.0687  0.7039
 5596TIP3    H116794   3.871   3.657   2.215  1.3674 -0.2757 -1.5103
 5596TIP3    H216795   3.783   3.552   2.280  0.8248  2.2927  2.2266
 5597TIP3   OH216796   5.185   3.672   0.613  0.2572 -0.4106 -0.1159
 5597TIP3    H116797   5.237   3.666   0.533  0.1082 -0.5464 -0.2009
 5597TIP3    H216798   5.105   3.624   0.594  0.1507 -0.3029  0.0583
 5598TIP3   OH216799   4.849   2.379   0.336 -0.8185 -0.4870 -0.3353
 5598TIP3    H116800   4.771   2.434   0.342  0.1318  0.9014 -0.2393
 5598TIP3    H216801   4.878   2.368   0.427 -1.3124 -1.6477 -0.3008
 5599TIP3   OH216802   1.695   4.380   1.503 -0.3308 -0.3026 -0.5923
 5599TIP3    H116803   1.707   4.357   1.595  0.5938  0.3515 -0.5406
 5599TIP3    H216804   1.690   4.296   1.458  2.1601 -0.6774 -0.3122
 5600TIP3   OH216805   5.933   4.314   1.973  0.4696  0.9015  0.1975
 5600TIP3    H116806   5.919   4.271   1.888  0.9321  2.4735 -0.7102
 5600TIP3    H216807   6.002   4.262   2.015  0.7148  0.4960 -0.6869
 5601TIP3   OH216808   3.675   2.586   2.261  0.2694  0.2322 -0.3365
 5601TIP3    H116809   3.696   2.633   2.341 -0.4028  0.9225 -0.5511
 5601TIP3    H216810   3.695   2.648   2.190 -0.4436  0.1378 -0.6292
 5602TIP3   OH216811   4.791   2.437   3.390  0.0168  0.0672 -0.1205
 5602TIP3    H116812   4.880   2.463   3.414  0.5012 -1.2843 -0.3782
 5602TIP3    H216813   4.796   2.342   3.377 -1.6443 -0.1759  0.6737
 5603TIP3   OH216814   5.433   3.430   3.878  0.6586 -0.3861 -0.1248
 5603TIP3    H116815   5.450   3.520   3.851  0.4803 -0.6883 -1.3223
 5603TIP3    H216816   5.518   3.387   3.874  0.1823 -1.3242 -3.8746
 5604TIP3   OH216817   2.660   4.759   3.197  0.4512 -0.7267  0.0826
 5604TIP3    H116818   2.602   4.833   3.178  0.1645 -1.0535 -0.3417
 5604TIP3    H216819   2.658   4.707   3.117  1.7070 -0.4994 -0.1111
 5605TIP3   OH216820   2.734   3.980   0.825  0.7782 -0.2384 -0.0489
 5605TIP3    H116821   2.747   3.885   0.826 -0.8437 -0.4982 -0.3655
 5605TIP3    H216822   2.679   3.997   0.901  1.7140  0.5848  0.4679
 5606TIP3   OH216823   2.696   0.751   3.228  0.0575  0.2745 -0.7622
 5606TIP3    H116824   2.766   0.816   3.237 -0.5568  1.2489 -2.4467
 5606TIP3    H216825   2.671   0.757   3.136 -0.3998 -2.0050 -0.8255
 5607TIP3   OH216826   4.711   0.833   4.606 -0.8132  0.1443  0.3811
 5607TIP3    H116827   4.664   0.857   4.686  0.4782 -1.5830  1.7656
 5607TIP3    H216828   4.646   0.841   4.537 -1.8347  2.2404  1.4790
 5608TIP3   OH216829   3.445   1.135   3.917  0.0895  0.1177 -0.0200
 5608TIP3    H116830   3.355   1.151   3.888  0.2777  0.1282 -0.6133
 5608TIP3    H216831   3.451   1.040   3.925  0.2649  0.0544 -0.8003
 5609TIP3   OH216832   1.669   1.535   1.197 -0.0221  0.2940 -0.4851
 5609TIP3    H116833   1.722   1.474   1.146 -0.7997  0.5522 -1.6228
 5609TIP3    H216834   1.731   1.604   1.223  0.2613  0.4914 -1.6364
 5610TIP3   OH216835   6.054   2.820   2.733 -0.0638 -0.3018  0.3961
 5610TIP3    H116836   6.110   2.763   2.679 -1.6775  0.4932 -2.3109
 5610TIP3    H216837   5.967   2.811   2.695 -1.6110 -0.5309  3.6955
 5611TIP3   OH216838   5.976   2.391   1.455 -0.5969  0.6802 -0.1886
 5611TIP3    H116839   5.931   2.354   1.532 -1.6282  0.9106 -0.6569
 5611TIP3    H216840   5.931   2.350   1.380 -0.0938  1.0173 -0.6787
 5612TIP3   OH216841   3.897   5.116   4.329 -0.0733  0.2348  0.5634
 5612TIP3    H116842   3.845   5.178   4.278  0.7203  0.5580  0.1357
 5612TIP3    H216843   3.871   5.030   4.296  1.7676  0.4582 -1.7971
 5613TIP3   OH216844   2.253   2.719   2.893 -0.3531  0.2641  0.0098
 5613TIP3    H116845   2.225   2.646   2.948  0.9475  0.1321  0.5278
 5613TIP3    H216846   2.241   2.687   2.803 -0.3525 -0.3686  0.2275
 5614TIP3   OH216847   5.867   4.683   2.680 -0.3061 -0.6338 -0.5340
 5614TIP3    H116848   5.924   4.741   2.629  0.2339  0.7271  1.4773
 5614TIP3    H216849   5.928   4.630   2.732 -0.7872  0.4443  1.2157
 5615TIP3   OH216850   4.897   2.775   2.519  0.0073 -0.4710  0.2722
 5615TIP3    H116851   4.871   2.778   2.611  3.3080  0.0931  1.2985
 5615TIP3    H216852   4.974   2.718   2.517  0.4362  0.0698 -2.0448
 5616TIP3   OH216853   2.645   4.239   2.588 -0.2259  0.0163 -0.0402
 5616TIP3    H116854   2.667   4.299   2.660 -3.1572  0.8836  0.2584
 5616TIP3    H216855   2.592   4.291   2.528 -0.6707 -1.6062 -1.1327
 5617TIP3   OH216856   2.147   0.017   0.021  0.4104  0.7652  0.2768
 5617TIP3    H116857   2.236   0.052   0.032  0.7814 -0.4530  1.3932
 5617TIP3    H216858   2.160  -0.068  -0.019 -0.0013 -0.5485  2.7113
 5618TIP3   OH216859   2.169   1.743   4.088  0.0590 -0.6776 -0.4175
 5618TIP3    H116860   2.165   1.650   4.065 -0.3275 -0.9170  0.5635
 5618TIP3    H216861   2.079   1.774   4.080  0.3962  0.0098 -2.1861
 5619TIP3   OH216862   2.581   3.803   5.135 -0.5610 -1.2287  0.2724
 5619TIP3    H116863   2.525   3.726   5.142 -0.0418 -1.8060 -1.3291
 5619TIP3    H216864   2.668   3.767   5.117  0.2503 -0.3323  2.1585
 5620TIP3   OH216865   5.230   4.811   3.642 -0.7133  0.1270  0.0485
 5620TIP3    H116866   5.311   4.809   3.692 -0.6867  3.5487  0.3726
 5620TIP3    H216867   5.184   4.731   3.668  1.8759 -1.2081  0.9262
 5621TIP3   OH216868   0.467   4.844   0.874 -0.3944  0.2907  0.2603
 5621TIP3    H116869   0.481   4.891   0.956 -0.6611 -2.0202  1.7172
 5621TIP3    H216870   0.402   4.895   0.827  1.4984  2.9708  0.3180
 5622TIP3   OH216871   3.435   1.564   4.078 -0.2666  0.0978  0.1500
 5622TIP3    H116872   3.449   1.583   3.985 -0.4513 -1.0464 -0.1355
 5622TIP3    H216873   3.369   1.627   4.106  0.9166  1.4917 -0.0725
 5623TIP3   OH216874   0.555   5.441   4.349  0.5824  0.5599 -0.2678
 5623TIP3    H116875   0.537   5.443   4.255  0.8353  0.5877 -0.3169
 5623TIP3    H216876   0.645   5.409   4.355  0.4119  0.1114 -0.0147
 5624TIP3   OH216877   5.221   1.232   4.131 -0.7130  0.3353  0.3765
 5624TIP3    H116878   5.226   1.270   4.044 -1.4443  0.4729  0.3853
 5624TIP3    H216879   5.240   1.139   4.118 -1.1867  0.2843  0.0108
 5625TIP3   OH216880   3.417   1.572   3.766  0.7617  0.0123 -0.9840
 5625TIP3    H116881   3.359   1.646   3.782 -0.2929 -0.7708 -1.0155
 5625TIP3    H216882   3.502   1.611   3.748  0.7948  1.1558  1.2011
 5626TIP3   OH216883   1.824   5.494   2.781  0.1358 -0.0034  0.2257
 5626TIP3    H116884   1.798   5.413   2.825 -0.6531 -0.5463 -1.1962
 5626TIP3    H216885   1.919   5.496   2.790  0.4846 -2.3844 -1.7608
 5627TIP3   OH216886   6.151   3.855   4.634 -0.1558  0.0334  0.4647
 5627TIP3    H116887   6.100   3.929   4.668  0.3963  1.5961 -1.8348
 5627TIP3    H216888   6.086   3.793   4.603 -0.6927  0.9394 -0.2910
 5628TIP3   OH216889   0.959   2.943   2.430  0.1022  0.1281 -0.7514
 5628TIP3    H116890   0.988   3.022   2.383  1.5975  0.1355  0.1310
 5628TIP3    H216891   1.007   2.945   2.513 -0.9403 -0.9619 -0.0939
 5629TIP3   OH216892   3.697   1.643   3.160 -0.8400  0.0945  0.1972
 5629TIP3    H116893   3.706   1.554   3.124 -0.7090  0.3714 -0.4688
 5629TIP3    H216894   3.618   1.639   3.214 -0.2604 -0.6980  1.0129
 5630TIP3   OH216895   4.623   0.282   2.399  0.0190 -0.3433  0.9112
 5630TIP3    H116896   4.623   0.247   2.488 -0.1789 -1.6857  0.4189
 5630TIP3    H216897   4.656   0.371   2.407 -1.4930  0.1311  2.5368
 5631TIP3   OH216898   2.131   1.745   2.374  0.0054 -0.5807 -0.5225
 5631TIP3    H116899   2.068   1.698   2.428  0.5995 -0.2931  0.4403
 5631TIP3    H216900   2.089   1.829   2.355 -0.1713 -0.6498 -0.4372
 5632TIP3   OH216901   5.986   0.912   2.141 -0.5193  0.0770 -0.5104
 5632TIP3    H116902   6.049   0.863   2.089  0.3478 -0.3108  0.8531
 5632TIP3    H216903   6.034   0.939   2.219 -1.7189  0.8041  0.0205
 5633TIP3   OH216904   6.069   4.564   1.952  0.3002 -0.4185  0.0711
 5633TIP3    H116905   6.021   4.486   1.978  0.8815 -1.0930 -0.8308
 5633TIP3    H216906   6.015   4.637   1.982  0.0128 -1.1500  1.4055
 5634TIP3   OH216907   2.087   0.712   3.966 -0.2189  0.5524  0.1221
 5634TIP3    H116908   2.056   0.762   3.890 -0.6822 -1.1125 -0.8169
 5634TIP3    H216909   2.009   0.672   4.003  0.0197  1.2420  1.4353
 5635TIP3   OH216910   3.598   0.401   1.420 -0.3205  0.0627 -0.0827
 5635TIP3    H116911   3.614   0.362   1.334 -1.6685  1.5437 -1.0574
 5635TIP3    H216912   3.564   0.488   1.401 -0.5712  0.4655  1.9756
 5636TIP3   OH216913   1.435   4.794   1.387 -0.2118 -0.0127 -0.3056
 5636TIP3    H116914   1.505   4.756   1.440 -0.7747 -0.4751  0.1298
 5636TIP3    H216915   1.355   4.758   1.425 -0.7018  0.7546 -0.5910
 5637TIP3   OH216916   4.788   1.058   3.659 -0.2048  0.1679  0.0134
 5637TIP3    H116917   4.871   1.078   3.615  0.0451 -0.7212  0.0667
 5637TIP3    H216918   4.736   1.012   3.593  0.2733 -1.4097  0.6973
 5638TIP3   OH216919   1.403   2.301   5.166  0.2943  0.5265  0.1965
 5638TIP3    H116920   1.412   2.394   5.145 -1.3971  1.4983  3.1830
 5638TIP3    H216921   1.478   2.281   5.222  1.5342 -0.4519 -1.6740
 5639TIP3   OH216922   5.549   1.581   3.511  0.9647  0.5685  0.4400
 5639TIP3    H116923   5.579   1.491   3.500 -1.2374 -0.2215  0.3448
 5639TIP3    H216924   5.628   1.631   3.532  2.6176 -0.9226 -1.8581
 5640TIP3   OH216925   2.044   1.090   2.015  0.3532  0.1968 -0.2017
 5640TIP3    H116926   1.949   1.096   2.008  0.4605  1.2284 -1.1155
 5640TIP3    H216927   2.059   1.025   2.083 -0.9942 -1.5897 -1.5058
 5641TIP3   OH216928   2.430   2.457   3.822 -0.2950  0.3052 -0.4942
 5641TIP3    H116929   2.511   2.470   3.871  0.3640 -0.3309 -1.3844
 5641TIP3    H216930   2.427   2.531   3.760 -0.0139 -0.0573 -0.9495
 5642TIP3   OH216931   3.487   4.033   0.640 -0.0918 -0.4664 -0.1392
 5642TIP3    H116932   3.494   4.054   0.733 -0.5750  2.0290 -0.5939
 5642TIP3    H216933   3.472   4.117   0.597 -0.2134 -1.5806 -2.4623
 5643TIP3   OH216934   6.174   2.106   5.081  0.2485  0.1571 -0.3611
 5643TIP3    H116935   6.098   2.129   5.135  0.9771  0.1890  0.6968
 5643TIP3    H216936   6.195   2.016   5.108  0.2926 -0.0310 -1.0083
 5644TIP3   OH216937   1.851   1.348   5.071  0.1195 -0.3453  0.6347
 5644TIP3    H116938   1.802   1.309   5.143  0.4140 -0.2540  0.8845
 5644TIP3    H216939   1.891   1.273   5.026 -1.4831 -0.5762 -0.5045
 5645TIP3   OH216940   1.626   0.153   3.065 -0.2005 -0.0878  0.0979
 5645TIP3    H116941   1.561   0.084   3.072  0.9507 -1.1125  1.3009
 5645TIP3    H216942   1.576   0.233   3.046 -1.5861 -1.1597 -0.8897
 5646TIP3   OH216943   3.944   4.853   3.737  0.4005 -0.3396 -0.3845
 5646TIP3    H116944   3.925   4.926   3.677 -2.2901 -1.7507 -1.4300
 5646TIP3    H216945   4.014   4.886   3.793 -0.3405  2.8644 -1.1187
 5647TIP3   OH216946   1.327   2.131   4.012 -0.1906 -0.2658  0.2376
 5647TIP3    H116947   1.311   2.124   3.918  0.4693  0.8312  0.0277
 5647TIP3    H216948   1.376   2.052   4.034  2.9885  1.1434 -1.1116
 5648TIP3   OH216949   2.656   2.723   4.888 -0.2685  0.3433 -0.1512
 5648TIP3    H116950   2.564   2.711   4.911  0.0557  0.2400  1.1538
 5648TIP3    H216951   2.705   2.685   4.962  0.8202  1.2103 -0.3966
 5649TIP3   OH216952   1.401   4.402   3.924 -0.6981 -0.1487 -0.7210
 5649TIP3    H116953   1.490   4.405   3.959 -0.8235 -2.3654 -0.0044
 5649TIP3    H216954   1.409   4.352   3.843 -1.2894 -0.4928 -0.5751
 5650TIP3   OH216955   6.321   3.755   4.254  0.3828  0.0313  0.0857
 5650TIP3    H116956   6.293   3.833   4.207  1.4662 -0.1307 -0.8797
 5650TIP3    H216957   6.319   3.685   4.188  0.8424 -0.4404  0.5575
 5651TIP3   OH216958   2.964   1.556   5.010 -0.4895  0.3848 -0.6500
 5651TIP3    H116959   2.892   1.586   5.066  0.9408  1.4298  0.7406
 5651TIP3    H216960   2.963   1.461   5.017 -0.9820  0.4568  0.3650
 5652TIP3   OH216961   4.855   1.345   4.471  0.4309  0.1948  0.1398
 5652TIP3    H116962   4.914   1.352   4.397 -0.1406 -1.3711 -0.5185
 5652TIP3    H216963   4.767   1.348   4.432 -0.1186  4.3690  1.2489
 5653TIP3   OH216964   4.608   1.291   5.131 -0.3900  0.4977  0.0776
 5653TIP3    H116965   4.563   1.206   5.131  0.3467  0.0971 -0.4600
 5653TIP3    H216966   4.698   1.270   5.154 -0.6364  1.4151  2.1581
 5654TIP3   OH216967   5.844   4.858   2.902 -0.2623  0.3991 -0.4809
 5654TIP3    H116968   5.808   4.795   2.839 -1.9322 -0.0894  0.8722
 5654TIP3    H216969   5.802   4.835   2.985  0.7873  1.9167  0.5234
 5655TIP3   OH216970   2.589   0.441   0.683  0.1362 -0.3139  0.3327
 5655TIP3    H116971   2.572   0.483   0.598  1.4361 -1.4827 -0.5303
 5655TIP3    H216972   2.511   0.389   0.699 -0.2936  0.2263  0.0601
 5656TIP3   OH216973   5.040   1.254   1.666  1.1285 -0.3151 -0.0197
 5656TIP3    H116974   5.118   1.233   1.717  1.2579  0.3756  0.0733
 5656TIP3    H216975   4.996   1.322   1.716  1.5501  0.7809 -1.0956
 5657TIP3   OH216976   6.363   0.182   4.599  0.1016 -0.1325 -0.6454
 5657TIP3    H116977   6.270   0.164   4.588 -0.3908  1.5098  0.5798
 5657TIP3    H216978   6.367   0.258   4.657  2.2509 -2.5778  2.8124
 5658TIP3   OH216979   0.109   1.076   0.249 -0.1474  0.0229  0.6132
 5658TIP3    H116980   0.085   1.142   0.314 -1.3868  0.7266 -0.4991
 5658TIP3    H216981   0.197   1.103   0.220 -0.2252  0.5997  0.9001
 5659TIP3   OH216982   0.284   5.702   0.403 -0.5241  0.0942 -0.3256
 5659TIP3    H116983   0.306   5.796   0.400 -1.4709  0.2942 -1.9880
 5659TIP3    H216984   0.205   5.698   0.456 -0.6183  0.2692 -0.4509
 5660TIP3   OH216985   3.381   1.477   2.106 -0.1555 -0.2422  0.2596
 5660TIP3    H116986   3.333   1.544   2.155 -0.8998 -0.8781  0.4208
 5660TIP3    H216987   3.443   1.526   2.053 -1.5030  0.6753 -0.5268
 5661TIP3   OH216988   1.435   0.456   1.282 -0.2561  0.3744 -0.0173
 5661TIP3    H116989   1.450   0.496   1.367  0.2186  0.5080 -0.1614
 5661TIP3    H216990   1.346   0.422   1.287 -1.0825  2.3347 -0.2211
 5662TIP3   OH216991   2.239   5.180   2.492  0.1229  0.2120 -0.6009
 5662TIP3    H116992   2.225   5.116   2.562 -1.1134 -2.0191 -2.7345
 5662TIP3    H216993   2.285   5.252   2.535  1.0500 -1.8004  2.0968
 5663TIP3   OH216994   4.155   3.342   1.554  0.0592 -0.6923  0.1674
 5663TIP3    H116995   4.222   3.306   1.612  1.2860  1.5453  0.2302
 5663TIP3    H216996   4.188   3.326   1.466  0.4100 -0.1036  0.1881
 5664TIP3   OH216997   3.360   2.074   0.232 -0.1563 -0.2431  0.1066
 5664TIP3    H116998   3.418   2.138   0.275  2.0682 -1.7850 -0.4120
 5664TIP3    H216999   3.354   2.105   0.141  0.5572 -0.4822 -0.0342
 5665TIP3   OH217000   2.823   3.615   2.639 -0.1068  0.2658  0.2524
 5665TIP3    H117001   2.797   3.524   2.655 -0.2878 -0.1377 -2.0189
 5665TIP3    H217002   2.918   3.613   2.633 -0.2042 -0.1934 -1.7859
 5666TIP3   OH217003   1.421   2.108   1.685  0.5318 -0.5469 -0.1005
 5666TIP3    H117004   1.505   2.064   1.704  0.4798  0.0603  1.7726
 5666TIP3    H217005   1.445   2.184   1.632  0.7865 -1.9660 -2.1222
 5667TIP3   OH217006   1.379   3.354   2.325 -0.2243 -0.6243  0.0744
 5667TIP3    H117007   1.329   3.338   2.246  1.1730  0.1899 -1.0226
 5667TIP3    H217008   1.330   3.422   2.372 -1.4822 -1.6803  0.3536
 5668TIP3   OH217009   2.814   1.691   0.176  0.6788  0.1995  0.5557
 5668TIP3    H117010   2.737   1.748   0.177  1.5132  1.4379  3.2028
 5668TIP3    H217011   2.782   1.607   0.143 -1.0641  1.5295 -1.3670
 5669TIP3   OH217012   0.129   4.610   0.304  0.0144  0.0015  0.2359
 5669TIP3    H117013   0.135   4.545   0.373  0.0892 -1.2866 -0.9385
 5669TIP3    H217014   0.162   4.566   0.226 -0.5770  1.2224 -0.7547
 5670TIP3   OH217015   1.047   5.781   2.729 -0.5271 -0.2441 -0.0152
 5670TIP3    H117016   1.040   5.685   2.726 -1.1604 -0.1804 -1.0084
 5670TIP3    H217017   1.101   5.798   2.806  0.4792 -1.4500 -0.4093
 5671TIP3   OH217018   5.111   5.000   0.849 -0.0076 -0.1811  0.3200
 5671TIP3    H117019   5.020   5.019   0.871 -0.0603 -0.5107  0.3961
 5671TIP3    H217020   5.142   4.946   0.922  0.4115  0.3771  0.5678
 5672TIP3   OH217021   3.203   5.093   4.661  0.5063 -0.3098  0.0515
 5672TIP3    H117022   3.236   5.020   4.713  1.4817  0.4923  0.5919
 5672TIP3    H217023   3.279   5.150   4.649  0.0945 -0.0599 -1.5431
 5673TIP3   OH217024   2.774   4.024   1.224 -0.0100 -0.4577  0.3233
 5673TIP3    H117025   2.720   4.103   1.223 -0.6423 -0.8891  0.2293
 5673TIP3    H217026   2.712   3.952   1.228  0.5724 -0.9501  0.7164
 5674TIP3   OH217027   0.720   0.114   2.900 -0.1508 -0.2149 -0.2310
 5674TIP3    H117028   0.764   0.189   2.860 -0.9029 -0.0243 -0.7093
 5674TIP3    H217029   0.728   0.045   2.834 -1.2278  0.0448 -0.6480
 5675TIP3   OH217030   3.799   4.236   3.752  0.1379  0.7501  0.1386
 5675TIP3    H117031   3.891   4.263   3.753 -0.0218  1.3533  1.9961
 5675TIP3    H217032   3.761   4.286   3.679  1.8684 -1.9526 -2.8812
 5676TIP3   OH217033   2.845   4.400   1.025 -0.2308  0.0643 -0.2551
 5676TIP3    H117034   2.849   4.433   1.115  0.2815 -1.3950  0.2824
 5676TIP3    H217035   2.752   4.405   1.002 -0.7036 -1.4168  1.1097
 5677TIP3   OH217036   5.013   0.351   3.745 -0.7019  0.5408 -0.0846
 5677TIP3    H117037   5.033   0.401   3.665 -1.1472  1.0379  0.1055
 5677TIP3    H217038   5.073   0.386   3.811 -0.4429  0.2415 -0.1641
 5678TIP3   OH217039   4.003   3.567   1.567 -0.0122 -0.4953  0.0514
 5678TIP3    H117040   4.064   3.494   1.562  0.5171 -0.3211  2.5180
 5678TIP3    H217041   4.049   3.633   1.618 -1.8329  0.0560  1.0771
 5679TIP3   OH217042   2.981   3.262   5.003 -0.1697 -0.2549  0.9253
 5679TIP3    H117043   3.043   3.243   4.932 -0.0163 -1.1260  1.2723
 5679TIP3    H217044   2.917   3.321   4.964 -0.1958 -0.8806 -0.0073
 5680TIP3   OH217045   4.409   3.657   2.050 -0.0697 -0.3304 -0.1597
 5680TIP3    H117046   4.417   3.568   2.014  1.1846  0.4896 -2.0469
 5680TIP3    H217047   4.421   3.645   2.145  0.1801 -2.1537 -0.3784
 5681TIP3   OH217048   2.381   5.376   3.151 -0.1745  0.5574 -0.0877
 5681TIP3    H117049   2.401   5.404   3.240 -2.5381  1.5640  0.1876
 5681TIP3    H217050   2.453   5.411   3.098  2.1867 -1.4498  1.5234
 5682TIP3   OH217051   2.955   5.222   1.097 -0.3407 -0.3402 -0.9248
 5682TIP3    H117052   2.996   5.308   1.094  1.5729 -1.2077 -1.1490
 5682TIP3    H217053   2.939   5.206   1.190 -3.0699  1.2522 -1.0361
 5683TIP3   OH217054   2.297   3.750   2.935  0.1981  0.0649 -0.1885
 5683TIP3    H117055   2.262   3.834   2.906 -1.8691 -0.2826  1.0636
 5683TIP3    H217056   2.276   3.746   3.029 -1.0460 -2.3758 -0.4680
 5684TIP3   OH217057   5.265   2.322   2.439  0.3527 -0.7047  0.0546
 5684TIP3    H117058   5.187   2.268   2.455 -1.6150  2.4358  2.1331
 5684TIP3    H217059   5.247   2.365   2.355  0.0690 -0.3889  0.2732
 5685TIP3   OH217060   2.329   4.291   0.835  0.2599  0.3543  0.1291
 5685TIP3    H117061   2.265   4.359   0.815 -0.5981 -0.5533 -0.3067
 5685TIP3    H217062   2.287   4.209   0.807  0.4767 -0.5954  2.3615
 5686TIP3   OH217063   3.751   3.349   4.056 -0.0009  0.0431  0.0819
 5686TIP3    H117064   3.752   3.332   4.150  0.9972 -0.9028 -0.0653
 5686TIP3    H217065   3.842   3.370   4.035 -0.1918  0.1171 -0.6906
 5687TIP3   OH217066   6.272   5.038   1.168 -0.1174  0.0989  0.0889
 5687TIP3    H117067   6.330   5.097   1.216 -1.5318  2.2050 -0.6668
 5687TIP3    H217068   6.188   5.084   1.163 -0.9952 -1.5085 -1.4789
 5688TIP3   OH217069   3.321   2.966   0.619 -0.7015  0.0216  0.1558
 5688TIP3    H117070   3.351   3.046   0.575 -2.4889  1.6773  1.7922
 5688TIP3    H217071   3.386   2.951   0.688 -1.2999  1.1360  0.9872
 5689TIP3   OH217072   2.107   2.139   0.420 -0.7052  0.0438  0.0281
 5689TIP3    H117073   2.154   2.057   0.429  0.1844  0.4620 -0.6549
 5689TIP3    H217074   2.111   2.179   0.507 -1.8662 -0.9840  0.5914
 5690TIP3   OH217075   4.916   0.730   4.430  0.1342  0.5091 -0.5465
 5690TIP3    H117076   4.877   0.797   4.487  1.0551  1.0330 -0.5086
 5690TIP3    H217077   5.001   0.767   4.405 -0.1218  0.1540 -2.0250
 5691TIP3   OH217078   4.863   5.057   4.187  0.1855 -0.0297 -0.4900
 5691TIP3    H117079   4.811   5.029   4.262 -0.1094 -3.5159 -1.8283
 5691TIP3    H217080   4.919   5.126   4.222 -2.0626  0.6741  2.1220
 5692TIP3   OH217081   2.771   1.746   2.744  0.0625 -0.2348  0.0956
 5692TIP3    H117082   2.710   1.696   2.798  0.0124  0.2507  0.5024
 5692TIP3    H217083   2.772   1.833   2.784 -0.0622  0.1709 -0.7609
 5693TIP3   OH217084   0.064   3.398   4.633 -0.1697 -0.6026 -0.0126
 5693TIP3    H117085   0.013   3.353   4.699  0.0858 -0.4365  0.3015
 5693TIP3    H217086   0.137   3.339   4.614  0.1531 -0.3372  0.3831
 5694TIP3   OH217087   2.874   0.524   0.733 -0.4607  0.1772 -0.7743
 5694TIP3    H117088   2.939   0.567   0.789  0.2950 -1.3711 -0.4249
 5694TIP3    H217089   2.870   0.579   0.655 -1.4817  2.3574  0.7033
 5695TIP3   OH217090   0.944   2.648   3.807  0.5745  0.5085  0.3959
 5695TIP3    H117091   0.887   2.586   3.762  0.3470  0.3918  0.8381
 5695TIP3    H217092   0.977   2.600   3.883 -0.1033  1.1196  1.0947
 5696TIP3   OH217093   1.162   0.465   4.765 -0.5461 -0.1576  0.7334
 5696TIP3    H117094   1.196   0.376   4.757 -1.4234 -0.6269  1.8469
 5696TIP3    H217095   1.115   0.480   4.683 -2.4138 -1.6633  1.4301
 5697TIP3   OH217096   5.166   1.242   4.415 -0.2054  0.2801 -0.3006
 5697TIP3    H117097   5.190   1.190   4.338 -0.2440  0.7284 -0.6171
 5697TIP3    H217098   5.178   1.333   4.388 -0.4495  0.4503  0.1465
 5698TIP3   OH217099   0.983   5.799   1.295  0.3303  0.1296  0.1225
 5698TIP3    H117100   0.928   5.759   1.362 -0.4551  1.7626  0.4976
 5698TIP3    H217101   0.988   5.732   1.226 -0.3234 -0.8827  1.0144
 5699TIP3   OH217102   0.880   0.334   4.129  0.7968 -0.0623 -0.2987
 5699TIP3    H117103   0.974   0.347   4.132  0.9394 -0.9067 -0.7703
 5699TIP3    H217104   0.868   0.259   4.070 -0.0847 -0.7250  0.6958
 5700TIP3   OH217105   0.226   5.145   2.231  0.4715 -0.3361 -0.1933
 5700TIP3    H117106   0.277   5.064   2.235  1.1671 -0.0442 -2.0663
 5700TIP3    H217107   0.192   5.147   2.141 -0.6937  0.7768  0.2425
 5701TIP3   OH217108   4.420   0.402   4.516 -0.3258 -1.0621  0.3583
 5701TIP3    H117109   4.378   0.407   4.430 -1.7193 -0.1267  1.0650
 5701TIP3    H217110   4.509   0.371   4.497 -0.4482 -0.4164 -1.4658
 5702TIP3   OH217111   6.273   3.397   2.307  0.3263 -0.5930 -0.4880
 5702TIP3    H117112   6.335   3.344   2.358  1.8319  0.1352 -1.4809
 5702TIP3    H217113   6.329   3.459   2.259 -1.2064  0.2385 -1.2576
 5703TIP3   OH217114   4.726   1.080   0.216  0.6869  0.2989 -0.4459
 5703TIP3    H117115   4.789   1.141   0.255 -0.5931  1.9167 -0.8112
 5703TIP3    H217116   4.653   1.135   0.188 -1.7904 -1.6475  1.6466
 5704TIP3   OH217117   1.293   5.030   1.857 -0.2779 -0.1498 -0.3185
 5704TIP3    H117118   1.252   5.018   1.942 -1.2566  1.9413 -0.4241
 5704TIP3    H217119   1.379   5.069   1.877  0.1258 -1.0602 -0.2464
 5705TIP3   OH217120   2.677   1.597   3.318  0.2785 -0.0090  0.5504
 5705TIP3    H117121   2.651   1.516   3.362 -1.3155 -1.4722 -2.7196
 5705TIP3    H217122   2.739   1.568   3.251  0.2432  1.5861 -0.2073
 5706TIP3   OH217123   1.080   0.905   3.529 -0.1134 -0.1727 -0.2017
 5706TIP3    H117124   0.993   0.944   3.516  1.0086  2.7510  0.3302
 5706TIP3    H217125   1.135   0.979   3.555  2.3014 -2.1459  0.6015
 5707TIP3   OH217126   5.510   4.532   1.076  0.1729 -0.0319 -0.0787
 5707TIP3    H117127   5.434   4.501   1.027 -0.2304 -1.0462  1.1246
 5707TIP3    H217128   5.560   4.583   1.013  0.2750 -2.1881 -1.8719
 5708TIP3   OH217129   4.438   5.204   2.834 -0.6909 -0.3001  0.5967
 5708TIP3    H117130   4.397   5.132   2.786 -2.1351  0.6264  0.3754
 5708TIP3    H217131   4.459   5.268   2.767 -0.7809  0.1093  0.9543
 5709TIP3   OH217132   2.026   5.266   4.790  0.7585  0.5242  0.3769
 5709TIP3    H117133   2.000   5.212   4.865 -1.0054  0.2422 -0.3712
 5709TIP3    H217134   2.078   5.208   4.735  0.0916  0.0052  0.2780
 5710TIP3   OH217135   2.919   4.975   3.547  0.0151  0.3631  0.0715
 5710TIP3    H117136   2.984   5.018   3.603 -0.4026 -0.3215  1.1318
 5710TIP3    H217137   2.959   4.974   3.460  1.0389  0.7402  0.5121
 5711TIP3   OH217138   2.395   3.157   0.530  0.0448  0.0370  0.0083
 5711TIP3    H117139   2.374   3.134   0.439  0.2660  1.8062 -0.5159
 5711TIP3    H217140   2.479   3.203   0.524  1.3254 -1.9484  1.4226
 5712TIP3   OH217141   3.581   2.507   2.600 -0.5515 -0.3232 -0.8178
 5712TIP3    H117142   3.488   2.503   2.623 -0.4616  1.5425 -0.0214
 5712TIP3    H217143   3.596   2.598   2.576  1.1876 -0.4995 -0.5030
 5713TIP3   OH217144   4.546   5.089   2.289 -0.0656  0.2751  0.2275
 5713TIP3    H117145   4.625   5.143   2.288  0.4311 -0.4250  0.6266
 5713TIP3    H217146   4.481   5.141   2.243  1.4305 -0.3114 -2.8185
 5714TIP3   OH217147   3.380   5.338   0.630 -0.4622  0.1187 -0.1800
 5714TIP3    H117148   3.300   5.293   0.605 -0.9145  0.4365  0.6686
 5714TIP3    H217149   3.450   5.287   0.588 -1.1118 -0.0096 -1.1323
 5715TIP3   OH217150   5.155   4.273   1.878 -0.0515  0.2292 -0.1334
 5715TIP3    H117151   5.185   4.359   1.851  0.0271  0.1678 -0.2398
 5715TIP3    H217152   5.137   4.226   1.797  0.5089 -0.0675 -0.0894
 5716TIP3   OH217153   1.681   1.093   2.353 -0.0834 -0.1873  0.3093
 5716TIP3    H117154   1.668   1.008   2.310  0.9187 -0.4023  0.4040
 5716TIP3    H217155   1.688   1.072   2.446  0.4300 -0.0396  0.3093
 5717TIP3   OH217156   1.060   5.860   2.061  0.7956 -0.2674  0.0396
 5717TIP3    H117157   1.155   5.862   2.066  0.8090  0.5578 -0.4698
 5717TIP3    H217158   1.030   5.901   2.142  0.8511 -1.1173  0.5084
 5718TIP3   OH217159   1.955   2.016   3.222 -0.6826 -0.4449 -0.0260
 5718TIP3    H117160   1.934   1.924   3.239 -0.1018 -0.4133  0.9113
 5718TIP3    H217161   2.013   2.041   3.294 -3.0367  1.4620  1.3315
 5719TIP3   OH217162   0.153   5.495   1.866  0.0170 -0.5212  0.2745
 5719TIP3    H117163   0.136   5.583   1.833  1.5724 -0.9781 -1.9240
 5719TIP3    H217164   0.067   5.462   1.892 -0.8028  1.0629 -0.3098
 5720TIP3   OH217165   1.858   1.763   4.993  0.1613 -0.3404  0.3202
 5720TIP3    H117166   1.817   1.840   4.953  0.1310 -1.1253 -1.2410
 5720TIP3    H217167   1.791   1.727   5.051 -0.8768 -0.7748 -1.0959
 5721TIP3   OH217168   3.652   2.393   4.262  0.1773 -0.1800 -0.2910
 5721TIP3    H117169   3.721   2.345   4.215 -0.5808 -0.2519 -1.3649
 5721TIP3    H217170   3.670   2.485   4.244  0.6095 -0.1315  0.3325
 5722TIP3   OH217171   5.832   3.117   0.669 -0.1859  0.1445 -0.4036
 5722TIP3    H117172   5.874   3.115   0.583  0.7276  0.8072  0.0144
 5722TIP3    H217173   5.885   3.058   0.723 -0.4428  0.1368 -0.1552
 5723TIP3   OH217174   1.947   2.830   1.912  0.2151  0.4320 -0.1212
 5723TIP3    H117175   1.997   2.854   1.834 -2.0355  0.5489 -1.6341
 5723TIP3    H217176   1.889   2.759   1.883  0.6252 -0.8428  1.9809
 5724TIP3   OH217177   0.704   5.802   2.435  0.4118  0.0001 -0.1711
 5724TIP3    H117178   0.765   5.729   2.424 -1.4983 -1.6839 -0.0518
 5724TIP3    H217179   0.685   5.805   2.528 -0.0229  0.2204 -0.2627
 5725TIP3   OH217180   4.717   1.308   3.139 -0.4861 -0.2634 -0.4106
 5725TIP3    H117181   4.715   1.247   3.065  1.1291  0.7086 -1.3254
 5725TIP3    H217182   4.773   1.265   3.204  0.1234 -0.0601 -0.7905
 5726TIP3   OH217183   0.835   2.473   1.460 -0.3332  0.5499 -0.2209
 5726TIP3    H117184   0.855   2.518   1.378 -0.2694  0.4172 -0.2788
 5726TIP3    H217185   0.778   2.400   1.434  1.7427 -1.0465 -0.5066
 5727TIP3   OH217186   0.228   1.458   1.965 -0.0725 -0.2683 -0.7416
 5727TIP3    H117187   0.249   1.524   2.031 -1.1265  1.8713 -2.4281
 5727TIP3    H217188   0.175   1.394   2.012  0.5790  0.2957  0.8521
 5728TIP3   OH217189   5.680   4.845   0.213 -0.5748  0.3340  0.3590
 5728TIP3    H117190   5.622   4.769   0.218  0.1589 -0.1726  1.4575
 5728TIP3    H217191   5.627   4.912   0.171 -0.9522 -1.0352 -1.5217
 5729TIP3   OH217192   6.343   5.345   0.910  0.2453 -0.1571  0.2639
 5729TIP3    H117193   6.257   5.320   0.876 -0.4006 -0.0604  1.7571
 5729TIP3    H217194   6.403   5.324   0.838 -1.0285 -0.0283 -0.8981
 5730TIP3   OH217195   5.134   3.922   3.225 -0.1415  0.0337  0.7485
 5730TIP3    H117196   5.055   3.950   3.270 -0.1096  0.0091  0.8204
 5730TIP3    H217197   5.107   3.910   3.134  0.1087  1.4186  0.4787
 5731TIP3   OH217198   2.512   3.741   0.886  0.1832  0.1456  0.2896
 5731TIP3    H117199   2.589   3.692   0.859 -0.3206 -0.1795 -0.5986
 5731TIP3    H217200   2.504   3.811   0.821 -0.8907 -0.4837 -0.2866
 5732TIP3   OH217201   5.288   1.055   1.521  0.3372 -0.4882 -0.0094
 5732TIP3    H117202   5.294   1.085   1.612 -0.9496 -0.2428  0.0169
 5732TIP3    H217203   5.215   0.994   1.521  1.4035 -1.7914 -0.5645
 5733TIP3   OH217204   2.377   5.796   4.634  0.6267 -0.5125  0.9348
 5733TIP3    H117205   2.316   5.723   4.645  0.0045 -0.3352 -0.9002
 5733TIP3    H217206   2.335   5.852   4.568  2.3690  0.0678  0.2580
 5734TIP3   OH217207   0.406   1.135   0.267  1.0045 -0.5638 -0.3894
 5734TIP3    H117208   0.444   1.223   0.259  0.9693 -0.5424 -0.3215
 5734TIP3    H217209   0.470   1.086   0.319  0.0887 -0.0086  1.3543
 5735TIP3   OH217210   5.372   2.469   0.230 -0.1309 -0.3529  0.1057
 5735TIP3    H117211   5.313   2.403   0.267  0.9336 -0.8441  1.0030
 5735TIP3    H217212   5.432   2.490   0.302  1.0240 -0.1654 -0.8799
 5736TIP3   OH217213   5.280   0.554   3.185 -0.2842 -0.0814 -0.4062
 5736TIP3    H117214   5.291   0.472   3.138 -0.1552  0.4524 -1.3322
 5736TIP3    H217215   5.363   0.566   3.233  0.1395  0.0551 -1.1589
 5737TIP3   OH217216   0.249   2.804   2.328 -0.2594 -0.4557  0.1831
 5737TIP3    H117217   0.224   2.830   2.417 -1.0784 -0.0114 -0.1713
 5737TIP3    H217218   0.174   2.827   2.274  1.0493  1.3572 -0.9854
 5738TIP3   OH217219   1.929   0.180   3.717  0.2338 -0.0651 -0.4445
 5738TIP3    H117220   1.963   0.269   3.709 -0.8064  0.1780 -2.9505
 5738TIP3    H217221   1.932   0.144   3.628  0.1129 -2.3681  0.4034
 5739TIP3   OH217222   0.017   4.815   4.707 -0.1103  0.4170 -0.2870
 5739TIP3    H117223   0.066   4.783   4.783  0.3261  0.9384 -0.3458
 5739TIP3    H217224   0.083   4.853   4.650 -0.4508  0.1191 -0.8902
 5740TIP3   OH217225   4.538   0.128   3.928  0.4088 -0.1802  0.0059
 5740TIP3    H117226   4.593   0.049   3.933  0.3550 -0.2648 -0.6391
 5740TIP3    H217227   4.592   0.197   3.967 -0.2880 -0.9001  2.4176
 5741TIP3   OH217228   0.956   0.074   5.023  0.0254 -0.2227 -0.3536
 5741TIP3    H117229   0.919   0.120   5.098  2.6038  0.4274  0.5855
 5741TIP3    H217230   0.930   0.127   4.947 -0.7952  0.2952  0.2737
 5742TIP3   OH217231   3.235   3.830   2.814 -0.2377  0.0076  0.1905
 5742TIP3    H117232   3.200   3.773   2.882 -1.5096 -1.0227 -1.2470
 5742TIP3    H217233   3.169   3.828   2.744  0.8957  1.1886 -0.9907
 5743TIP3   OH217234   1.707   0.767   2.651  0.2012 -0.1364  0.1945
 5743TIP3    H117235   1.654   0.752   2.730  0.4931 -1.2645  0.1978
 5743TIP3    H217236   1.789   0.720   2.668  0.1212 -0.7142 -0.9388
 5744TIP3   OH217237   4.187   4.020   0.691  0.5790 -0.7225  0.0590
 5744TIP3    H117238   4.125   4.056   0.754  0.2204  0.1469 -0.7721
 5744TIP3    H217239   4.147   3.938   0.661 -0.0119 -0.3348 -0.2238
 5745TIP3   OH217240   3.503   1.773   2.638  0.0718 -0.4034  0.1298
 5745TIP3    H117241   3.527   1.823   2.716  2.0183  0.7098 -1.0777
 5745TIP3    H217242   3.408   1.780   2.632 -0.0944 -0.2855  2.2117
 5746TIP3   OH217243   6.110   0.916   3.854  0.1020 -0.1735  0.1214
 5746TIP3    H117244   6.172   0.879   3.918 -1.5273 -1.9789  0.7638
 5746TIP3    H217245   6.159   0.921   3.772  0.8338 -2.5390  0.3562
 5747TIP3   OH217246   2.875   3.300   3.058  0.7390 -0.0062 -0.3557
 5747TIP3    H117247   2.855   3.393   3.070  1.0221 -0.1652  1.6744
 5747TIP3    H217248   2.796   3.255   3.089  1.0717 -0.4640 -0.1732
 5748TIP3   OH217249   4.283   2.789   2.207 -0.2819  0.3236  0.0421
 5748TIP3    H117250   4.223   2.723   2.242 -0.5972  0.4828 -0.1987
 5748TIP3    H217251   4.263   2.869   2.256 -0.9081  0.6169 -0.6748
 5749TIP3   OH217252   5.416   5.730   2.437 -0.2739  0.1019 -0.6047
 5749TIP3    H117253   5.451   5.778   2.362 -1.5409 -0.7625 -1.8063
 5749TIP3    H217254   5.451   5.642   2.428 -2.6653 -0.8078 -1.8894
 5750TIP3   OH217255   4.809   1.519   3.484 -0.0882 -0.3190 -0.2155
 5750TIP3    H117256   4.812   1.613   3.464 -0.7162  0.2519  2.0504
 5750TIP3    H217257   4.723   1.491   3.453 -0.5245  0.2400  0.4472
 5751TIP3   OH217258   1.931   3.408   0.264 -0.0550 -0.2227  0.5919
 5751TIP3    H117259   1.944   3.483   0.322 -2.3681  0.1623  0.6804
 5751TIP3    H217260   1.892   3.341   0.319  0.7203 -1.0344  0.1854
 5752TIP3   OH217261   1.437   0.170   0.100 -0.5495  0.1287 -0.1530
 5752TIP3    H117262   1.501   0.099   0.101  0.2437  0.8250 -0.7537
 5752TIP3    H217263   1.482   0.244   0.141 -0.5737  0.9501 -1.5627
 5753TIP3   OH217264   1.556   1.132   1.861  0.0144  0.3568 -0.2491
 5753TIP3    H117265   1.499   1.132   1.784 -0.1735 -0.5133 -0.1212
 5753TIP3    H217266   1.496   1.117   1.935  0.0880  1.9172  0.1714
 5754TIP3   OH217267   2.352   4.360   0.074  0.3970  0.1588 -0.4511
 5754TIP3    H117268   2.381   4.436   0.125  0.0761 -0.7166  1.1141
 5754TIP3    H217269   2.433   4.319   0.042  0.6077  0.6975 -0.6118
 5755TIP3   OH217270   3.672   1.692   3.687  0.0250  0.0710  0.1631
 5755TIP3    H117271   3.761   1.661   3.674 -0.2735  0.0678 -2.3330
 5755TIP3    H217272   3.674   1.784   3.659 -0.8128 -0.0252 -0.2540
 5756TIP3   OH217273   3.889   2.614   3.962 -0.6194 -0.4029 -0.2822
 5756TIP3    H117274   3.842   2.665   3.896 -0.7343 -0.4908 -0.2677
 5756TIP3    H217275   3.893   2.525   3.926 -1.0778 -0.5535  0.0326
 5757TIP3   OH217276   5.157   1.649   1.792 -0.2979  0.1394 -0.4712
 5757TIP3    H117277   5.139   1.623   1.882  0.1745  1.2214 -0.0462
 5757TIP3    H217278   5.206   1.731   1.800 -2.3013  1.5371 -1.7635
 5758TIP3   OH217279   5.176   5.135   0.466 -0.2087 -0.1972 -0.4169
 5758TIP3    H117280   5.188   5.043   0.490  1.2705  0.3264  1.0207
 5758TIP3    H217281   5.228   5.184   0.530 -1.2640  1.6750 -0.9147
 5759TIP3   OH217282   1.897   4.356   4.860 -0.3594  0.2080 -0.8236
 5759TIP3    H117283   1.966   4.290   4.864  1.0067  1.6422  0.8119
 5759TIP3    H217284   1.846   4.332   4.783  1.9692 -0.9188 -2.1442
 5760TIP3   OH217285   1.647   3.668   1.115 -0.0642 -0.4015  0.3736
 5760TIP3    H117286   1.700   3.747   1.110 -0.0248 -0.4688 -0.3972
 5760TIP3    H217287   1.670   3.618   1.036  1.5773 -2.2328  1.9027
 5761TIP3   OH217288   2.293   0.786   3.292  0.5511 -0.3861 -0.5605
 5761TIP3    H117289   2.315   0.726   3.221 -1.3664 -1.8597 -0.0288
 5761TIP3    H217290   2.213   0.829   3.264  0.8717  0.5346 -0.1187
 5762TIP3   OH217291   3.188   1.806   4.530  0.1941 -0.0860 -0.1869
 5762TIP3    H117292   3.132   1.820   4.454 -1.5237  0.1016  1.0593
 5762TIP3    H217293   3.222   1.717   4.519 -1.6486 -0.8359 -0.2142
 5763TIP3   OH217294   3.527   1.923   4.007 -0.2276  0.2299  0.6340
 5763TIP3    H117295   3.575   1.870   4.071  0.8937  1.9868  1.3450
 5763TIP3    H217296   3.440   1.934   4.045 -0.1617 -0.3079  0.9419
 5764TIP3   OH217297   5.397   0.907   0.861  0.1228 -0.3605 -0.1165
 5764TIP3    H117298   5.408   0.875   0.771  1.4335 -0.3045 -0.0013
 5764TIP3    H217299   5.454   0.851   0.914  1.1830  1.0600  0.3280
 5765TIP3   OH217300   2.074   4.466   4.243 -0.1265  0.2260 -0.7244
 5765TIP3    H117301   1.986   4.431   4.229 -0.8009  0.5438  2.0634
 5765TIP3    H217302   2.060   4.549   4.289  1.5586 -0.6296  1.5468
 5766TIP3   OH217303   2.471   3.257   4.859  0.0564 -0.1573  0.2743
 5766TIP3    H117304   2.413   3.225   4.929 -3.5679  1.9458 -1.4482
 5766TIP3    H217305   2.465   3.190   4.791  2.0776 -1.2917  1.1228
 5767TIP3   OH217306   2.344   4.899   0.821 -0.5981 -0.1225 -0.2441
 5767TIP3    H117307   2.362   4.952   0.899 -1.5994  0.0113 -0.0916
 5767TIP3    H217308   2.375   4.953   0.748 -2.0187  0.9273 -0.1313
 5768TIP3   OH217309   6.148   2.651   0.992 -0.1627 -0.3659 -0.5051
 5768TIP3    H117310   6.179   2.598   1.066  2.6883 -0.3943 -1.5999
 5768TIP3    H217311   6.164   2.597   0.915  1.3233  1.4175 -1.5196
 5769TIP3   OH217312   5.242   5.514   3.026  0.1482 -0.0836 -0.0579
 5769TIP3    H117313   5.169   5.453   3.024  0.0475  0.0478 -1.1937
 5769TIP3    H217314   5.234   5.563   2.944 -0.2226  1.9844  1.1347
 5770TIP3   OH217315   0.244   3.252   0.947  0.1236 -0.1563  0.2498
 5770TIP3    H117316   0.306   3.216   1.010 -0.8629 -0.3535  1.1195
 5770TIP3    H217317   0.159   3.220   0.976 -0.3107 -0.6562 -1.4649
 5771TIP3   OH217318   4.261   0.057   2.376  0.2378  0.0996  0.5744
 5771TIP3    H117319   4.333   0.016   2.425 -1.2879 -2.1157  1.0958
 5771TIP3    H217320   4.243  -0.004   2.305 -1.8809  0.0127  1.1396
 5772TIP3   OH217321   1.805   0.116   1.548 -0.1580 -0.1482  0.3828
 5772TIP3    H117322   1.807   0.206   1.516  1.2126 -0.7537 -1.3855
 5772TIP3    H217323   1.891   0.104   1.589  0.3968 -1.1735 -1.0285
 5773TIP3   OH217324   1.537   0.571   3.292 -0.1117  0.4196  0.0854
 5773TIP3    H117325   1.582   0.505   3.344  0.5710 -0.0645 -1.0931
 5773TIP3    H217326   1.514   0.526   3.210  1.5675  1.9531 -1.3199
 5774TIP3   OH217327   2.307   1.787   2.145  0.6148 -0.1389  0.1402
 5774TIP3    H117328   2.338   1.697   2.155  1.1047  0.2557  2.8816
 5774TIP3    H217329   2.229   1.792   2.199 -0.9047  0.5025 -1.9678
 5775TIP3   OH217330   5.801   3.505   2.278  0.5077  0.9865  0.1046
 5775TIP3    H117331   5.856   3.528   2.204 -0.1630 -1.2161 -1.1738
 5775TIP3    H217332   5.843   3.428   2.316 -0.5711  0.4999  0.3512
 5776TIP3   OH217333   5.158   2.353   1.859  0.2505 -0.1176  0.0445
 5776TIP3    H117334   5.185   2.308   1.778  0.4041  0.9899 -0.5472
 5776TIP3    H217335   5.109   2.288   1.908  1.3373 -1.2439 -0.3079
 5777TIP3   OH217336   6.244   3.213   3.323  0.6122  0.5662  0.3234
 5777TIP3    H117337   6.255   3.119   3.316  1.3231  0.7377 -1.1912
 5777TIP3    H217338   6.223   3.228   3.415 -0.1911 -1.1197  0.4456
 5778TIP3   OH217339   6.228   2.680   3.189  0.3204 -0.0193 -0.2174
 5778TIP3    H117340   6.320   2.703   3.179  0.4909 -0.6601 -0.1512
 5778TIP3    H217341   6.191   2.688   3.101  0.9938 -2.1019 -0.7475
 5779TIP3   OH217342   2.295   1.445   2.230  0.1866  0.0575  0.2638
 5779TIP3    H117343   2.350   1.431   2.153 -0.8672 -2.0178 -0.1852
 5779TIP3    H217344   2.211   1.471   2.194  0.2371  1.0396  0.8348
 5780TIP3   OH217345   4.361   5.937   3.998 -0.4705  0.1047 -0.7717
 5780TIP3    H117346   4.344   6.012   4.056 -0.7842 -1.5817  1.4348
 5780TIP3    H217347   4.290   5.941   3.933 -1.9868  0.3048  0.8252
 5781TIP3   OH217348   2.125   5.596   2.281  0.0118 -0.5516  0.1478
 5781TIP3    H117349   2.062   5.542   2.234  1.0676  0.9406 -3.3139
 5781TIP3    H217350   2.205   5.543   2.285 -0.1314 -0.7468  0.4058
 5782TIP3   OH217351   5.867   2.896   0.362  0.4704 -0.3162  0.0873
 5782TIP3    H117352   5.820   2.822   0.401 -1.0046  1.0535  0.9922
 5782TIP3    H217353   5.799   2.961   0.343  1.9393  1.6636  1.2729
 5783TIP3   OH217354  -0.001   1.860   2.985  0.5323  0.0952  0.3089
 5783TIP3    H117355   0.028   1.934   2.931  2.3123 -0.6559  0.1837
 5783TIP3    H217356   0.032   1.783   2.939 -0.8153 -0.7761  0.7416
 5784TIP3   OH217357   2.026   5.482   0.523 -0.0076 -0.2596 -0.3633
 5784TIP3    H117358   1.940   5.518   0.501 -2.4695 -4.9207  0.3363
 5784TIP3    H217359   2.042   5.416   0.455  1.8489 -1.1633  0.8660
 5785TIP3   OH217360   6.101   0.193   0.550  0.2834 -0.1390  0.4649
 5785TIP3    H117361   6.196   0.201   0.561  0.1118  4.8269  0.5251
 5785TIP3    H217362   6.087   0.203   0.456 -0.2566 -1.2461  0.4045
 5786TIP3   OH217363   4.719   0.499   0.948  0.4364 -0.5961  0.6040
 5786TIP3    H117364   4.753   0.537   0.867  0.5326 -0.4233  0.7258
 5786TIP3    H217365   4.661   0.567   0.984 -0.2163 -0.9682  0.2834
 5787TIP3   OH217366   4.138   5.325   2.313 -0.3844 -0.0170  0.5691
 5787TIP3    H117367   4.140   5.239   2.270  0.2276  0.0084  0.5382
 5787TIP3    H217368   4.222   5.331   2.358 -0.6459  0.3450  1.0098
 5788TIP3   OH217369   0.846   2.624   2.446 -0.1300 -0.2376  0.0031
 5788TIP3    H117370   0.849   2.582   2.532 -0.2953 -0.7647 -0.2442
 5788TIP3    H217371   0.834   2.717   2.465  0.8852 -0.2161  0.5666
 5789TIP3   OH217372   0.710   5.685   2.681 -0.3649  0.7608  0.2025
 5789TIP3    H117373   0.681   5.694   2.772 -0.4249  0.2599  0.2315
 5789TIP3    H217374   0.763   5.605   2.680 -1.0724  0.2937 -0.3882
 5790TIP3   OH217375   1.099   5.003   3.480  0.0434 -0.2584 -0.7560
 5790TIP3    H117376   1.040   4.940   3.521 -0.4165  0.6866  0.0962
 5790TIP3    H217377   1.157   4.950   3.426  2.0439 -1.8570  2.6225
 5791TIP3   OH217378   1.974   0.297   2.099  0.0363 -0.5297 -0.1090
 5791TIP3    H117379   2.044   0.271   2.039 -0.8729 -0.0733 -1.4091
 5791TIP3    H217380   1.926   0.215   2.116 -1.0819 -0.3048 -1.8904
 5792TIP3   OH217381   4.939   5.260   0.783 -0.2039 -0.0402  0.8907
 5792TIP3    H117382   4.923   5.224   0.696  0.5729  1.7874 -0.0408
 5792TIP3    H217383   4.898   5.346   0.783  0.6439  0.4002  1.9944
 5793TIP3   OH217384   2.942   4.022   5.009 -0.0443 -0.3349 -0.1521
 5793TIP3    H117385   3.006   4.072   5.061 -0.3246  0.1089 -0.2230
 5793TIP3    H217386   2.943   4.064   4.923  0.1265 -0.8145 -0.3872
 5794TIP3   OH217387   0.851   0.142   4.744  0.4565  0.0274  0.5194
 5794TIP3    H117388   0.869   0.224   4.698 -0.7058 -0.2066 -0.3837
 5794TIP3    H217389   0.759   0.125   4.728  0.4901 -1.0544  1.3695
 5795TIP3   OH217390   3.520   4.371   3.789 -0.3177  0.5392 -0.7933
 5795TIP3    H117391   3.449   4.307   3.779 -0.7107  0.8169  0.1589
 5795TIP3    H217392   3.585   4.326   3.842 -0.7951  1.0603  0.2728
 5796TIP3   OH217393   0.071   3.781   0.115 -0.0548  0.1484  0.4312
 5796TIP3    H117394   0.022   3.830   0.048  0.3186  2.4401  1.7272
 5796TIP3    H217395   0.143   3.741   0.067 -0.3471  0.9297 -0.7091
 5797TIP3   OH217396   0.998   4.943   1.949  0.1082 -0.2783 -0.0897
 5797TIP3    H117397   1.051   4.945   2.029 -1.4095 -0.3292  0.9702
 5797TIP3    H217398   0.943   5.022   1.955 -0.2597 -0.4650 -0.9067
 5798TIP3   OH217399   2.271   0.228   3.500  0.3218 -0.2249  0.8033
 5798TIP3    H117400   2.232   0.203   3.416  1.1052 -1.9876  0.9064
 5798TIP3    H217401   2.261   0.323   3.504  2.3867  0.2980 -2.4233
 5799TIP3   OH217402   5.879   1.426   3.184 -0.2038  0.3312  0.2585
 5799TIP3    H117403   5.889   1.518   3.207  1.3564 -0.1266  1.5841
 5799TIP3    H217404   5.963   1.401   3.147 -0.3265 -0.7559  0.6735
 5800TIP3   OH217405   2.418   1.303   2.689  0.2130  0.1668 -0.2015
 5800TIP3    H117406   2.361   1.358   2.636 -1.0353 -1.4879 -0.6678
 5800TIP3    H217407   2.443   1.231   2.630  0.0778 -0.8744  0.9646
 5801TIP3   OH217408   1.665   0.518   2.525  0.1099 -0.2533 -0.2145
 5801TIP3    H117409   1.754   0.483   2.510  0.0228  0.1145 -1.8465
 5801TIP3    H217410   1.678   0.612   2.539 -0.0654 -0.0482 -1.3319
 5802TIP3   OH217411   5.187   5.373   4.675  0.0491 -0.0117 -0.1031
 5802TIP3    H117412   5.250   5.381   4.746  0.0299 -2.5666  0.2773
 5802TIP3    H217413   5.181   5.279   4.658 -1.2346  0.4085 -2.3352
 5803TIP3   OH217414   3.408   3.163   0.464 -0.3609 -0.2000 -0.1503
 5803TIP3    H117415   3.423   3.246   0.509  1.6418 -0.8565  0.5233
 5803TIP3    H217416   3.435   3.180   0.374  0.8401 -0.3145  0.1743
 5804TIP3   OH217417   3.873   0.653   1.724  0.6949 -0.0135  0.0414
 5804TIP3    H117418   3.832   0.683   1.805 -1.7931 -1.5810 -0.5312
 5804TIP3    H217419   3.861   0.725   1.662  0.3394  0.2061  0.3692
 5805TIP3   OH217420   5.717   5.526   4.411 -0.2047 -0.4209 -0.5737
 5805TIP3    H117421   5.638   5.503   4.363 -0.8928  0.5901  0.0520
 5805TIP3    H217422   5.787   5.481   4.364 -0.9724 -0.2493 -1.9234
 5806TIP3   OH217423   1.213   4.067   1.650  0.0654 -0.3430 -0.3244
 5806TIP3    H117424   1.214   4.117   1.569  0.2548  0.4261  0.1352
 5806TIP3    H217425   1.179   3.982   1.626 -0.5665  0.1109 -1.0755
 5807TIP3   OH217426   4.845   4.928   2.869  0.0493  0.3794  0.7733
 5807TIP3    H117427   4.924   4.943   2.817 -1.3556  2.3833 -0.9639
 5807TIP3    H217428   4.773   4.944   2.807 -1.7198  1.2948  2.9467
 5808TIP3   OH217429   1.895   2.841   1.509  0.1478 -0.0448  0.0400
 5808TIP3    H117430   1.960   2.828   1.578  0.1808  1.2393  0.2757
 5808TIP3    H217431   1.911   2.930   1.477  0.0122 -0.5486 -1.5124
 5809TIP3   OH217432   1.416   2.044   3.641  0.0011  0.2391 -0.2273
 5809TIP3    H117433   1.415   2.020   3.549 -1.6908  2.4034 -0.8641
 5809TIP3    H217434   1.338   2.002   3.678  0.5995 -0.5106  0.2159
 5810TIP3   OH217435   0.133   3.614   2.291  0.6900  0.2974  0.4981
 5810TIP3    H117436   0.210   3.563   2.317  1.6511  2.5425  2.4686
 5810TIP3    H217437   0.136   3.614   2.196  1.5794 -1.8738  0.4633
 5811TIP3   OH217438   1.027   0.168   1.490  0.3008  0.4404 -0.1117
 5811TIP3    H117439   0.999   0.260   1.487  1.6781  0.8813 -0.9036
 5811TIP3    H217440   0.950   0.120   1.519 -0.9573  1.6646 -1.2161
 5812TIP3   OH217441   1.114   5.375   0.178  0.8629 -0.3887 -0.0627
 5812TIP3    H117442   1.058   5.413   0.110  0.7203 -1.1397 -0.3746
 5812TIP3    H217443   1.077   5.288   0.194  0.8881 -0.2112  0.9939
 5813TIP3   OH217444   0.169   5.129   2.940  0.1454  0.3156  0.1493
 5813TIP3    H117445   0.082   5.144   2.976 -0.2373  2.2895 -1.4378
 5813TIP3    H217446   0.155   5.065   2.869 -0.2562  1.4864 -0.8630
 5814TIP3   OH217447   4.444   3.653   3.701 -0.2171 -0.3054 -0.4240
 5814TIP3    H117448   4.363   3.606   3.722 -1.0124  1.0879 -0.2091
 5814TIP3    H217449   4.506   3.625   3.768 -1.2322  0.3226  0.8347
 5815TIP3   OH217450   2.923   4.714   2.393  0.2309  0.7997 -0.0212
 5815TIP3    H117451   2.921   4.683   2.483 -0.8013  2.3159  0.5211
 5815TIP3    H217452   3.002   4.675   2.355  0.3664 -0.3236  1.3461
 5816TIP3   OH217453   2.792   2.325  -0.011  0.5789  0.0809  0.5195
 5816TIP3    H117454   2.854   2.275  -0.064 -1.9410 -2.9776  0.1578
 5816TIP3    H217455   2.832   2.326   0.076  1.9402 -0.2107 -0.0619
 5817TIP3   OH217456   2.709   1.407   1.131  0.2383 -0.0087  0.6932
 5817TIP3    H117457   2.686   1.444   1.216  1.0754  1.4313  0.3250
 5817TIP3    H217458   2.634   1.426   1.075  0.6232  1.0965  0.5321
 5818TIP3   OH217459   1.362   2.659   3.199  0.1757  0.1929  0.5731
 5818TIP3    H117460   1.395   2.584   3.150 -1.0772 -1.3157  1.9378
 5818TIP3    H217461   1.437   2.689   3.250  1.1745  1.0554 -1.2952
 5819TIP3   OH217462   6.274   0.960   2.748 -0.8958  0.4313  0.0688
 5819TIP3    H117463   6.260   1.022   2.819  0.6889 -1.0375  1.7747
 5819TIP3    H217464   6.187   0.929   2.725 -1.3954 -0.8091  3.1064
 5820TIP3   OH217465   0.954   2.924   3.762  0.2635  1.0151 -0.2144
 5820TIP3    H117466   0.983   2.834   3.778 -1.3189  0.2616 -1.3224
 5820TIP3    H217467   1.033   2.977   3.773  1.8042 -0.7812 -1.8828
 5821TIP3   OH217468   1.534   4.559   2.603 -0.2930 -0.5824  0.6399
 5821TIP3    H117469   1.473   4.500   2.559  0.8749 -0.1635 -1.7146
 5821TIP3    H217470   1.603   4.502   2.636  0.1032 -0.7029 -0.3628
 5822TIP3   OH217471   4.984   4.750   4.765 -0.3757 -0.2401 -0.7239
 5822TIP3    H117472   5.041   4.674   4.753  0.9647  0.3013  1.5351
 5822TIP3    H217473   4.942   4.736   4.850 -1.9063  0.4631 -1.3264
 5823TIP3   OH217474   3.770   3.827   3.212 -0.1449 -0.3590  0.2492
 5823TIP3    H117475   3.776   3.914   3.252 -1.5644  0.1831 -0.6527
 5823TIP3    H217476   3.713   3.777   3.270  0.0739 -0.4571  0.3801
 5824TIP3   OH217477   3.884   4.003   2.897 -0.1651 -0.6784  0.2429
 5824TIP3    H117478   3.911   4.043   2.980 -1.7376 -0.8718  0.8886
 5824TIP3    H217479   3.966   3.985   2.851  0.6771  2.5206  0.2387
 5825TIP3   OH217480   5.201   2.729   3.717  0.1381 -0.5598 -0.6069
 5825TIP3    H117481   5.233   2.640   3.710 -0.2792 -0.7752  0.0575
 5825TIP3    H217482   5.273   2.778   3.758  0.4042 -0.5630 -1.0658
 5826TIP3   OH217483   0.995   4.760   5.022  0.5299 -0.1390  0.2101
 5826TIP3    H117484   1.040   4.705   4.958 -0.5324  1.8240 -2.4004
 5826TIP3    H217485   1.008   4.849   4.990  0.6117  1.0469  3.2530
 5827TIP3   OH217486   5.952   0.469   1.075  0.1779  0.1645  0.3542
 5827TIP3    H117487   5.992   0.553   1.097 -0.2366  0.1698  1.1324
 5827TIP3    H217488   5.890   0.452   1.147 -1.0876  0.0815 -0.7050
 5828TIP3   OH217489   2.922   1.958   2.488  0.1721 -0.1672 -0.3624
 5828TIP3    H117490   2.944   1.867   2.510  2.7546  0.4167 -0.2720
 5828TIP3    H217491   2.943   2.008   2.566 -0.4415  0.6329 -0.6911
 5829TIP3   OH217492   6.007   3.741   4.291 -0.0388  0.1682 -0.0092
 5829TIP3    H117493   5.983   3.829   4.319  0.1931 -0.6174  2.9845
 5829TIP3    H217494   6.092   3.725   4.331 -0.5075 -1.7527  0.3012
 5830TIP3   OH217495   5.909   4.668   4.043 -0.1987 -0.3982 -0.4807
 5830TIP3    H117496   5.923   4.673   4.138  1.7845 -3.3887 -0.4599
 5830TIP3    H217497   5.827   4.620   4.033 -0.3280 -0.2243 -0.2454
 5831TIP3   OH217498   3.383   0.995   2.878  0.2782 -0.7530 -0.0929
 5831TIP3    H117499   3.339   0.924   2.926  0.5470 -0.5911  0.3960
 5831TIP3    H217500   3.356   0.982   2.787  0.7217 -1.7836 -0.0892
 5832TIP3   OH217501   0.188   1.171   3.807  0.1455 -0.1837 -0.1720
 5832TIP3    H117502   0.215   1.081   3.790 -0.1488 -0.0700 -1.3303
 5832TIP3    H217503   0.204   1.184   3.900  3.1189 -0.4461 -0.5633
 5833TIP3   OH217504   4.343   3.262   3.683 -0.1195  0.0530  0.2878
 5833TIP3    H117505   4.307   3.311   3.757 -0.3181 -0.8830  0.8334
 5833TIP3    H217506   4.310   3.307   3.605 -1.9790 -0.3774  0.7710
 5834TIP3   OH217507   3.859   2.567   3.620  0.5381 -0.3501 -0.3877
 5834TIP3    H117508   3.805   2.488   3.611 -1.3382  1.0567 -2.8904
 5834TIP3    H217509   3.807   2.623   3.677 -1.1323  1.2006 -3.1889
 5835TIP3   OH217510   5.840   1.328   1.926  0.8083 -0.2516  0.0965
 5835TIP3    H117511   5.848   1.353   2.018  2.8852 -0.2033 -0.0427
 5835TIP3    H217512   5.838   1.232   1.928  1.4938 -0.2700  0.1737
 5836TIP3   OH217513   1.235   5.922   4.371 -0.1243  0.2021  0.0965
 5836TIP3    H117514   1.289   5.999   4.355 -0.9951  0.7160 -0.4871
 5836TIP3    H217515   1.285   5.849   4.336  0.0082  0.7210 -0.8376
 5837TIP3   OH217516   4.396   5.669   1.907 -0.3210  0.4033 -0.9715
 5837TIP3    H117517   4.351   5.690   1.826 -1.7875 -0.7478 -0.5123
 5837TIP3    H217518   4.327   5.638   1.966  0.9964 -1.0135 -0.0693
 5838TIP3   OH217519   4.584   4.892   1.557  0.4935 -0.3820  0.1086
 5838TIP3    H117520   4.518   4.825   1.539 -0.5580  0.7364 -0.3433
 5838TIP3    H217521   4.663   4.843   1.581 -0.4130 -1.7536  0.3600
 5839TIP3   OH217522   2.215   0.124   2.120  0.3228 -0.0477 -0.2982
 5839TIP3    H117523   2.292   0.087   2.162 -0.2351 -0.3987  0.4383
 5839TIP3    H217524   2.227   0.104   2.027  0.2286 -1.7839  0.0296
 5840TIP3   OH217525   4.709   3.199   0.557  0.1566  0.1351 -0.2532
 5840TIP3    H117526   4.699   3.105   0.543  0.6921 -0.2125  1.4078
 5840TIP3    H217527   4.787   3.206   0.612  1.2465  1.7104 -1.8758
 5841TIP3   OH217528   1.799   3.776   1.646  0.0220 -0.4554  0.0353
 5841TIP3    H117529   1.792   3.804   1.555 -0.3763 -0.1179  0.1646
 5841TIP3    H217530   1.744   3.838   1.694  3.1628  1.8405  1.0421
 5842TIP3   OH217531   0.570   1.125   3.674  0.1715  0.0696 -0.2185
 5842TIP3    H117532   0.521   1.137   3.755 -0.0080 -0.2504 -0.2744
 5842TIP3    H217533   0.598   1.213   3.648 -0.9747  0.3467 -0.5553
 5843TIP3   OH217534   0.041   5.521   0.618  0.3064  0.0977 -0.6919
 5843TIP3    H117535  -0.044   5.507   0.660 -0.6619  0.4444 -2.4053
 5843TIP3    H217536   0.060   5.613   0.631  1.0254 -0.2272  0.7037
 5844TIP3   OH217537   1.911   1.588   4.593  0.2512 -0.4015 -0.3611
 5844TIP3    H117538   1.825   1.623   4.570  0.9149  1.2047 -0.5426
 5844TIP3    H217539   1.911   1.500   4.556 -0.6960  0.1824 -1.8674
 5845TIP3   OH217540   1.680   0.910   3.994  0.4443  0.3939  0.4158
 5845TIP3    H117541   1.747   0.978   3.993  0.1865  0.6464  0.3521
 5845TIP3    H217542   1.727   0.830   3.968  0.1801  1.0457 -2.3089
 5846TIP3   OH217543   5.171   3.514   0.138 -0.1420 -0.5989 -0.1083
 5846TIP3    H117544   5.103   3.557   0.189 -0.1046 -1.6246  0.8551
 5846TIP3    H217545   5.199   3.579   0.074 -2.3320 -0.3078 -0.8292
 5847TIP3   OH217546   4.097   1.246   4.850 -0.0490  0.4860 -0.1984
 5847TIP3    H117547   4.126   1.158   4.828 -0.2148  0.4083 -0.1111
 5847TIP3    H217548   4.071   1.284   4.766  1.6412  1.0686 -0.4993
 5848TIP3   OH217549   3.649   0.958   1.127  0.2041  0.1589  0.1124
 5848TIP3    H117550   3.699   1.040   1.124  0.0765  0.2281 -2.1790
 5848TIP3    H217551   3.716   0.890   1.127  0.3296  0.1900  2.8102
 5849TIP3   OH217552   2.603   1.814   2.305 -0.3007 -0.0977  0.3899
 5849TIP3    H117553   2.685   1.781   2.340  1.2642  0.9906 -1.9806
 5849TIP3    H217554   2.583   1.756   2.231 -1.0117  0.3619  0.2102
 5850TIP3   OH217555   6.136   1.196   2.091 -0.0476 -0.0618 -0.4073
 5850TIP3    H117556   6.051   1.161   2.119 -0.4632  1.8567  0.9969
 5850TIP3    H217557   6.199   1.158   2.152 -0.3100  0.5030  0.2426
 5851TIP3   OH217558   3.290   4.785   0.047 -0.2660  0.3026 -0.0352
 5851TIP3    H117559   3.308   4.822   0.133 -0.6434  0.0193  0.1731
 5851TIP3    H217560   3.199   4.755   0.053 -0.4169  0.6043 -0.6490
 5852TIP3   OH217561   0.683   2.034   3.371 -0.3429  0.2728 -0.1466
 5852TIP3    H117562   0.744   2.102   3.342  1.2618 -0.9302  0.2307
 5852TIP3    H217563   0.652   1.993   3.290 -0.4487  0.7184 -0.3349
 5853TIP3   OH217564   3.595   3.651   1.763  0.7210  0.6641  0.0120
 5853TIP3    H117565   3.539   3.638   1.840 -1.1287  0.5270 -1.3077
 5853TIP3    H217566   3.613   3.562   1.731  1.7155  0.7069  0.3927
 5854TIP3   OH217567   0.330   6.012   3.800  0.0954  0.0318 -0.3331
 5854TIP3    H117568   0.324   5.932   3.852 -0.0697  0.3301  0.1126
 5854TIP3    H217569   0.278   5.994   3.722  0.7911 -0.6148 -0.6586
 5855TIP3   OH217570   5.456   1.377   4.818 -0.0038  0.0744  0.2201
 5855TIP3    H117571   5.466   1.363   4.913 -0.9775  1.5065  0.5766
 5855TIP3    H217572   5.378   1.326   4.795 -0.7331  1.0004  0.5504
 5856TIP3   OH217573   0.674   0.635   0.244  0.0728 -0.1785 -0.0305
 5856TIP3    H117574   0.741   0.689   0.202  0.3625 -0.6503 -0.1847
 5856TIP3    H217575   0.627   0.695   0.302  1.4248 -0.1063  1.0254
 5857TIP3   OH217576   2.485   5.540   1.744  0.1512  1.0432  0.0133
 5857TIP3    H117577   2.432   5.473   1.788  2.2927 -1.4334 -0.9025
 5857TIP3    H217578   2.424   5.584   1.684 -0.9410 -1.6946 -1.0508
 5858TIP3   OH217579   0.263   3.975   4.173  0.5999 -0.1655 -0.5792
 5858TIP3    H117580   0.208   3.899   4.154  1.3649 -0.5700 -1.2355
 5858TIP3    H217581   0.322   3.945   4.242  1.3254 -0.3963 -1.2758
 5859TIP3   OH217582   1.823   3.774   0.813  0.1354  0.0975 -0.3488
 5859TIP3    H117583   1.757   3.829   0.770  0.1938 -0.1744 -0.7924
 5859TIP3    H217584   1.800   3.685   0.787  0.8329  0.0219 -0.7217
 5860TIP3   OH217585   4.113   4.969   2.615 -0.5285  0.3762 -0.0895
 5860TIP3    H117586   4.146   5.007   2.533  0.3099 -1.5381 -0.6916
 5860TIP3    H217587   4.050   4.903   2.586  1.7406 -2.2663  0.5801
 5861TIP3   OH217588   1.516   4.839   3.388  0.1454  0.4064 -0.2978
 5861TIP3    H117589   1.507   4.778   3.461  1.3216  0.0012 -0.4820
 5861TIP3    H217590   1.428   4.845   3.351 -0.1066 -0.6836  0.1083
 5862TIP3   OH217591   4.250   4.961   0.318 -0.2202  0.1561  0.8883
 5862TIP3    H117592   4.298   4.878   0.318  0.3979  0.5045  0.9690
 5862TIP3    H217593   4.193   4.957   0.241 -0.4152 -0.4669  1.0652
 5863TIP3   OH217594   0.483   0.301   4.503 -1.0554 -0.0076 -0.5591
 5863TIP3    H117595   0.565   0.251   4.503 -0.3354  1.1428 -0.6212
 5863TIP3    H217596   0.419   0.241   4.542 -0.5430 -1.4755 -1.8459
 5864TIP3   OH217597   1.879   5.604  -0.003 -0.4798  0.2614 -0.4071
 5864TIP3    H117598   1.898   5.685  -0.050 -1.3814  1.1111  0.6369
 5864TIP3    H217599   1.937   5.607   0.073 -1.5050  0.6280  0.3745
 5865TIP3   OH217600   2.189   2.864   2.640  0.2558  0.3891 -0.3700
 5865TIP3    H117601   2.268   2.905   2.604  0.6681  0.9086  1.0863
 5865TIP3    H217602   2.207   2.851   2.733 -0.5897 -1.4092 -0.4035
 5866TIP3   OH217603   4.553   5.161   0.146  0.1715  0.4111  0.1071
 5866TIP3    H117604   4.557   5.202   0.059  0.3918 -0.0302 -0.0944
 5866TIP3    H217605   4.497   5.220   0.197 -0.5835  0.2797 -0.5427
 5867TIP3   OH217606   4.756   4.350   3.521  0.5873 -0.0120 -0.5268
 5867TIP3    H117607   4.790   4.333   3.609 -0.7235 -0.2565 -0.0322
 5867TIP3    H217608   4.833   4.350   3.464  1.4131 -0.2572  0.5625
 5868TIP3   OH217609   2.742   0.297   2.737  0.2119 -0.3920  0.0692
 5868TIP3    H117610   2.651   0.282   2.710 -0.0157  0.0328  0.5603
 5868TIP3    H217611   2.739   0.294   2.833  0.8920 -1.3018  0.0697
 5869TIP3   OH217612   1.128   2.251   0.111  0.1130  0.3429 -0.1505
 5869TIP3    H117613   1.133   2.161   0.079  1.3214  0.3971 -0.1717
 5869TIP3    H217614   1.109   2.242   0.205 -2.8989  0.1754 -0.6670
 5870TIP3   OH217615   5.570   0.881   4.818  0.6711  0.2705  0.7406
 5870TIP3    H117616   5.570   0.922   4.904 -3.1158 -0.2881  1.1400
 5870TIP3    H217617   5.577   0.788   4.835 -3.6919 -0.2256  0.9490
 5871TIP3   OH217618   1.905   1.739   3.272  0.1542 -0.7271 -0.4292
 5871TIP3    H117619   1.905   1.643   3.276  0.4006 -0.7280 -0.4538
 5871TIP3    H217620   1.846   1.766   3.342 -0.1662 -0.9062 -0.6286
 5872TIP3   OH217621   4.640   1.341   1.687 -0.0840 -0.3828  0.3723
 5872TIP3    H117622   4.692   1.399   1.743  0.5575  0.8968 -1.4590
 5872TIP3    H217623   4.556   1.386   1.678  0.7716  0.9550 -1.9271
 5873TIP3   OH217624   5.148   5.281   2.835  0.0109 -0.3448 -0.4002
 5873TIP3    H117625   5.099   5.310   2.912  0.8140  1.8118 -0.6259
 5873TIP3    H217626   5.192   5.201   2.864 -2.1287 -1.3245  0.3686
 5874TIP3   OH217627   5.632   4.736   4.288  0.1814 -0.0311 -0.5854
 5874TIP3    H117628   5.569   4.740   4.216 -2.5893  1.3169  1.7275
 5874TIP3    H217629   5.636   4.643   4.311 -0.9149 -0.1490 -0.8400
 5875TIP3   OH217630   6.095   3.825   1.310  0.0231 -0.5463 -0.3864
 5875TIP3    H117631   6.072   3.813   1.217 -1.4470 -0.8438 -0.0025
 5875TIP3    H217632   6.043   3.901   1.338  1.4029  0.3303 -0.1039
 5876TIP3   OH217633   0.975   0.896   0.751  0.4846 -0.4588 -0.3200
 5876TIP3    H117634   1.014   0.941   0.676  2.1922 -0.7805  0.3216
 5876TIP3    H217635   1.044   0.838   0.782 -1.2390 -2.6452 -0.3652
 5877TIP3   OH217636   3.072   5.332   1.718 -0.4212 -0.5257 -0.4875
 5877TIP3    H117637   3.107   5.411   1.759 -1.5544  0.5615 -1.5314
 5877TIP3    H217638   3.002   5.304   1.777 -0.9570  0.0806 -0.8249
 5878TIP3   OH217639   2.306   5.156   1.009  0.0165 -0.1772  0.4213
 5878TIP3    H117640   2.269   5.072   1.033  1.3666 -0.8340  0.3180
 5878TIP3    H217641   2.391   5.159   1.055  0.5851  0.5276 -0.6255
 5879TIP3   OH217642   4.104   1.999   2.211 -0.3761 -0.1568 -0.0831
 5879TIP3    H117643   4.087   1.905   2.204 -0.9982  0.0590 -2.3089
 5879TIP3    H217644   4.029   2.040   2.167 -1.1442  1.5103  2.5791
 5880TIP3   OH217645   2.634   2.441   2.439  0.3917  0.4525  0.4979
 5880TIP3    H117646   2.684   2.368   2.403 -0.5630  0.3752 -0.7300
 5880TIP3    H217647   2.661   2.445   2.531  0.9395 -1.0273  0.4303
 5881TIP3   OH217648   4.440   1.716   5.095 -0.3007 -0.3436  0.0734
 5881TIP3    H117649   4.415   1.678   5.179 -2.5699 -0.8118 -0.7611
 5881TIP3    H217650   4.452   1.809   5.114 -1.4249 -0.3322  0.8076
 5882TIP3   OH217651   6.072   2.007   2.228  0.4500  0.5007  0.4304
 5882TIP3    H117652   6.149   1.983   2.177  0.3666  1.7416 -0.3250
 5882TIP3    H217653   6.104   2.018   2.317  1.1899  1.1986  0.0863
 5883TIP3   OH217654   5.398   3.416   1.818 -0.2255 -0.1439 -0.4975
 5883TIP3    H117655   5.308   3.448   1.830 -0.2121 -0.1605 -0.3596
 5883TIP3    H217656   5.402   3.336   1.870  0.5383  1.0348  1.3291
 5884TIP3   OH217657   2.022   2.314   2.960  0.4330 -0.3964 -0.1547
 5884TIP3    H117658   2.094   2.250   2.958  0.5827 -0.2427  0.3782
 5884TIP3    H217659   1.952   2.271   2.910  0.3994 -1.1470  0.5095
 5885TIP3   OH217660   6.192   3.410   1.101  0.3169 -0.3553  0.0208
 5885TIP3    H117661   6.187   3.416   1.197 -1.4646  0.5107 -0.0890
 5885TIP3    H217662   6.254   3.478   1.076 -1.1077  1.1516  0.4350
 5886TIP3   OH217663   2.644   4.441   3.263  0.3295 -0.4981  0.0722
 5886TIP3    H117664   2.596   4.442   3.345  1.4579  1.0510  0.7666
 5886TIP3    H217665   2.576   4.439   3.195 -0.6498 -0.4746  1.0284
 5887TIP3   OH217666   3.903   2.335   3.925 -0.3631  0.1402  0.6594
 5887TIP3    H117667   3.854   2.257   3.951 -0.6262 -0.0423 -0.3489
 5887TIP3    H217668   3.960   2.305   3.855  1.2740  0.3304  1.8311
 5888TIP3   OH217669   5.173   0.361   1.786  0.0512 -0.1374  0.4901
 5888TIP3    H117670   5.264   0.354   1.812  0.0567 -1.5780  0.1672
 5888TIP3    H217671   5.142   0.442   1.828  1.4454  0.3464  0.6302
 5889TIP3   OH217672   5.853   4.345   2.318 -0.4619 -0.2786  0.0728
 5889TIP3    H117673   5.938   4.380   2.343 -0.3693  0.6059 -1.3290
 5889TIP3    H217674   5.865   4.314   2.229 -1.7727  0.5904 -0.4485
 5890TIP3   OH217675   2.657   3.729   0.477  0.5608 -0.3750  0.6893
 5890TIP3    H117676   2.727   3.682   0.431  1.1197  0.4545  0.6698
 5890TIP3    H217677   2.696   3.814   0.499 -1.0844  0.9936 -1.2695
 5891TIP3   OH217678   3.036   5.252   3.197  0.2154  0.5740 -0.1095
 5891TIP3    H117679   3.024   5.176   3.139 -1.6231  0.4699  0.3586
 5891TIP3    H217680   2.954   5.258   3.246  0.9465  1.9196  1.0093
 5892TIP3   OH217681   5.169   1.136   0.313  0.2290 -0.4775 -0.4832
 5892TIP3    H117682   5.087   1.185   0.306  1.3247  1.2261 -2.3621
 5892TIP3    H217683   5.217   1.178   0.385 -0.9567 -2.2893  1.5027
 5893TIP3   OH217684   5.106   2.881   3.249  0.3231 -0.2095  0.2994
 5893TIP3    H117685   5.124   2.896   3.342  1.2132  0.4139  0.0430
 5893TIP3    H217686   5.185   2.912   3.205 -0.2339 -0.1722 -0.6873
 5894TIP3   OH217687   5.426   5.820   2.136  0.4136 -0.2608 -0.0019
 5894TIP3    H117688   5.443   5.838   2.044 -1.3177 -1.6388 -0.6531
 5894TIP3    H217689   5.478   5.885   2.184 -1.1646  2.6692 -1.9806
 5895TIP3   OH217690   3.510   0.769   5.043 -0.3853  0.0668  0.2164
 5895TIP3    H117691   3.545   0.687   5.006 -0.4964  0.5481 -0.9982
 5895TIP3    H217692   3.463   0.809   4.970  0.7785  1.8598  0.3987
 5896TIP3   OH217693   2.679   2.066   3.811 -0.4535  0.0969 -0.1790
 5896TIP3    H117694   2.690   2.036   3.901  0.0841 -0.7572 -0.5132
 5896TIP3    H217695   2.586   2.056   3.793 -0.4141 -0.6530 -0.0197
 5897TIP3   OH217696   5.738   4.505   2.039 -0.0888 -0.3412  0.0744
 5897TIP3    H117697   5.799   4.443   1.999  0.3107  0.1319 -0.0572
 5897TIP3    H217698   5.667   4.450   2.073  1.2638 -1.1115  1.8666
 5898TIP3   OH217699   4.331   5.128   2.126 -0.0368 -0.5957 -0.3579
 5898TIP3    H117700   4.388   5.180   2.069 -2.4180  1.6591 -0.9017
 5898TIP3    H217701   4.301   5.056   2.070  0.8437 -0.7725 -0.6180
 5899TIP3   OH217702   3.716   1.280   0.706 -0.3415  0.6855  0.4207
 5899TIP3    H117703   3.655   1.352   0.722 -1.7765 -0.5304  0.6102
 5899TIP3    H217704   3.682   1.207   0.756  2.3151  0.4122  2.0192
 5900TIP3   OH217705   5.315   1.018   3.054  0.5307  0.2338 -0.0494
 5900TIP3    H117706   5.324   1.102   3.098  0.0465 -0.0942  0.6906
 5900TIP3    H217707   5.358   1.031   2.969  2.2613  0.6306  0.8258
 5901TIP3   OH217708   1.719   4.217   2.187 -0.5078  0.0111 -0.8637
 5901TIP3    H117709   1.744   4.275   2.116  1.6217 -1.3236 -1.2994
 5901TIP3    H217710   1.758   4.256   2.265  1.4025 -1.0127 -1.2376
 5902TIP3   OH217711   1.701   4.812   0.277  0.6581  0.1184 -0.1130
 5902TIP3    H117712   1.740   4.779   0.358  1.4431  0.0045 -0.5276
 5902TIP3    H217713   1.656   4.736   0.240  2.0827 -0.4280 -0.8350
 5903TIP3   OH217714   5.897   4.203   0.010  0.1718  0.0080 -0.5755
 5903TIP3    H117715   5.843   4.124   0.016 -1.2417  0.8377 -1.8627
 5903TIP3    H217716   5.876   4.253   0.088  0.1003 -0.2793 -0.4090
 5904TIP3   OH217717   2.272   2.101   2.850 -0.0344  0.3348  0.4438
 5904TIP3    H117718   2.197   2.050   2.819 -0.2878  0.3933  0.9505
 5904TIP3    H217719   2.345   2.038   2.852  0.4596  0.7288 -1.9894
 5905TIP3   OH217720   3.330   2.502   2.084  0.3178  0.0455 -0.1406
 5905TIP3    H117721   3.408   2.553   2.061  1.4146 -1.3085  0.4328
 5905TIP3    H217722   3.365   2.421   2.121 -1.3615  0.0598  1.6335
 5906TIP3   OH217723   4.544   5.717   2.620 -0.0150  0.4717  0.0978
 5906TIP3    H117724   4.639   5.719   2.635 -0.0707 -0.4196  0.6609
 5906TIP3    H217725   4.531   5.772   2.543  0.9558  0.6661  0.0571
 5907TIP3   OH217726   3.221   0.278   0.838 -0.1023  0.0770  0.0900
 5907TIP3    H117727   3.277   0.201   0.836  1.3527  1.1201 -0.7225
 5907TIP3    H217728   3.252   0.329   0.913 -0.4380  0.3207  0.0669
 5908TIP3   OH217729   5.702   2.878   2.866 -1.1235  0.2152  0.2516
 5908TIP3    H117730   5.721   2.821   2.791 -2.8510  0.4650 -0.4261
 5908TIP3    H217731   5.765   2.949   2.859 -0.3312 -0.5011 -0.1248
 5909TIP3   OH217732   4.189   4.791   3.450  0.5757  0.1403 -0.2005
 5909TIP3    H117733   4.258   4.733   3.481  0.5209  0.1198 -0.1165
 5909TIP3    H217734   4.220   4.879   3.473  0.1856  0.0782  0.6125
 5910TIP3   OH217735   3.837   1.935   0.441 -0.5021  0.0435 -0.2840
 5910TIP3    H117736   3.762   1.876   0.431 -0.0875 -0.6063  0.3677
 5910TIP3    H217737   3.909   1.877   0.466 -0.0164  0.7954  0.0586
 5911TIP3   OH217738   5.399   3.804   2.227 -0.6790  0.2175  0.4109
 5911TIP3    H117739   5.371   3.714   2.241 -0.3741  0.1569  0.6487
 5911TIP3    H217740   5.459   3.823   2.300 -1.1510  0.7908  0.6622
 5912TIP3   OH217741   4.904   0.501   3.512  0.1982 -0.2980  0.2707
 5912TIP3    H117742   4.875   0.558   3.583 -0.7516 -0.3814 -0.0367
 5912TIP3    H217743   4.894   0.555   3.433  0.9764 -0.3001  0.1609
 5913TIP3   OH217744   3.673   3.976   3.797 -0.0079 -0.5915 -0.5408
 5913TIP3    H117745   3.716   4.052   3.759 -0.5508  1.5012  2.6442
 5913TIP3    H217746   3.745   3.922   3.830  0.3526  0.2298  0.0622
 5914TIP3   OH217747   5.200   5.591   1.871 -0.2703  1.0790 -0.6515
 5914TIP3    H117748   5.219   5.526   1.804 -0.7325  0.0833  0.1568
 5914TIP3    H217749   5.198   5.541   1.953  0.9804  2.3644  0.2160
 5915TIP3   OH217750   0.169   4.241   2.520  0.0628 -0.4835 -0.1031
 5915TIP3    H117751   0.200   4.205   2.603  0.7855  0.2044 -0.0614
 5915TIP3    H217752   0.159   4.165   2.463  2.2206 -0.7404 -0.2294
 5916TIP3   OH217753   2.948   4.382   5.076  0.4644 -0.8902 -0.3234
 5916TIP3    H117754   2.994   4.314   5.125  0.0623  1.0461  3.0841
 5916TIP3    H217755   2.861   4.345   5.059  0.4417 -1.4712  0.9508
 5917TIP3   OH217756   4.110   3.536   0.279  0.0202 -0.1895 -0.7740
 5917TIP3    H117757   4.032   3.484   0.298 -0.1748  0.0960 -0.7770
 5917TIP3    H217758   4.183   3.474   0.286 -0.2491 -0.5714 -1.2601
 5918TIP3   OH217759   4.589   0.561   0.140 -0.3953  0.6156 -0.9334
 5918TIP3    H117760   4.639   0.480   0.144 -0.2600  0.7188 -0.3283
 5918TIP3    H217761   4.623   0.614   0.213 -1.6362  0.5327 -0.2601
 5919TIP3   OH217762   1.040   1.961   1.461  0.1161 -0.2022  0.3419
 5919TIP3    H117763   1.070   1.955   1.552  0.1624 -0.6056  0.3058
 5919TIP3    H217764   1.088   1.891   1.416  0.5210  0.3532 -0.1125
 5920TIP3   OH217765   5.674   5.716   4.614  0.2549 -0.5806  0.6464
 5920TIP3    H117766   5.688   5.646   4.550  1.5495 -0.4257  0.7316
 5920TIP3    H217767   5.628   5.784   4.565  2.3406  0.0863 -0.5599
 5921TIP3   OH217768   6.198   1.705   4.410  0.1387 -0.1690 -0.2678
 5921TIP3    H117769   6.246   1.703   4.328  2.4784  1.8080  0.9019
 5921TIP3    H217770   6.262   1.736   4.474 -2.1492  0.4285  1.8953
 5922TIP3   OH217771   3.177   2.248   2.677  0.6342  0.6405  0.5770
 5922TIP3    H117772   3.202   2.341   2.682  1.2676  0.4688  0.6598
 5922TIP3    H217773   3.260   2.201   2.684  0.4428  0.0852 -0.6509
 5923TIP3   OH217774   5.534   3.508   3.254  0.8388 -1.3178  0.4086
 5923TIP3    H117775   5.469   3.551   3.199  0.8749 -1.7933 -0.0077
 5923TIP3    H217776   5.494   3.505   3.341  0.0337 -2.1838  0.0206
 5924TIP3   OH217777   4.710   2.680   0.611  0.8022 -0.3913  0.1709
 5924TIP3    H117778   4.654   2.625   0.555 -2.8301  1.3910  1.7301
 5924TIP3    H217779   4.728   2.625   0.687  0.1036 -0.5789  0.2062
 5925TIP3   OH217780   5.673   1.660   4.158  0.1600  0.4148  0.2627
 5925TIP3    H117781   5.739   1.600   4.123  1.1370  0.9907  1.0636
 5925TIP3    H217782   5.661   1.633   4.249  0.9819  1.6968  0.7893
 5926TIP3   OH217783   5.147   4.769   3.131  0.5011 -0.4803 -0.1951
 5926TIP3    H117784   5.184   4.856   3.146  0.3944  0.1140 -2.8291
 5926TIP3    H217785   5.072   4.785   3.074 -1.2631 -2.0911  1.5237
 5927TIP3   OH217786   4.639   0.927   3.162 -0.7300  0.3253 -0.0249
 5927TIP3    H117787   4.544   0.935   3.150 -1.1151 -0.6017  2.0499
 5927TIP3    H217788   4.676   0.975   3.088 -2.7948 -0.2577 -1.5438
 5928TIP3   OH217789   4.360   5.899   1.442  0.3818  0.2927  0.4249
 5928TIP3    H117790   4.422   5.842   1.487  0.8009  0.4321  0.0233
 5928TIP3    H217791   4.392   5.904   1.352 -2.9966 -3.8989 -1.3599
 5929TIP3   OH217792   5.034   2.401   3.191  0.0714  0.6112  0.0742
 5929TIP3    H117793   5.039   2.479   3.246 -0.1987 -0.1066  1.1339
 5929TIP3    H217794   4.984   2.338   3.243 -0.0659 -0.1364 -0.9337
 5930TIP3   OH217795   4.436   2.501   1.840  0.0308 -0.2760 -0.3118
 5930TIP3    H117796   4.473   2.589   1.842 -0.2014 -0.1862  0.1758
 5930TIP3    H217797   4.351   2.510   1.884  0.6588 -1.0446  1.1221
 5931TIP3   OH217798   5.502   5.926   1.853  0.3487 -0.0288  0.9673
 5931TIP3    H117799   5.591   5.962   1.859 -0.0346  0.8789  1.3582
 5931TIP3    H217800   5.461   5.977   1.783  0.0382 -0.2530  0.9876
 5932TIP3   OH217801   0.255   3.252   1.506 -0.1825  0.0881  0.4367
 5932TIP3    H117802   0.344   3.278   1.531  0.5218 -1.8863  0.1583
 5932TIP3    H217803   0.204   3.332   1.513  1.8692  1.5650 -0.6171
 5933TIP3   OH217804   5.161   1.610   2.063  0.0661  0.1756 -0.3174
 5933TIP3    H117805   5.217   1.676   2.103 -0.6299  1.3354 -1.1976
 5933TIP3    H217806   5.140   1.550   2.135  3.9022 -1.4532 -0.2833
 5934TIP3   OH217807   0.759   1.170   5.092  0.5229  0.2943  0.0926
 5934TIP3    H117808   0.793   1.234   5.029 -1.9094  0.9334 -0.7031
 5934TIP3    H217809   0.752   1.219   5.174  1.5630  0.1222  0.2942
 5935TIP3   OH217810   3.033   2.223   2.139  0.4420 -0.4669 -0.2090
 5935TIP3    H117811   3.098   2.243   2.206  1.7606 -1.5379 -1.1168
 5935TIP3    H217812   3.038   2.297   2.079  0.0972 -0.0640  0.2571
 5936TIP3   OH217813   0.806   1.181   3.155 -0.8216 -0.2212  0.4748
 5936TIP3    H117814   0.739   1.133   3.204 -0.4621 -1.7381 -0.4600
 5936TIP3    H217815   0.889   1.147   3.187 -0.5575 -0.2918 -0.2655
 5937TIP3   OH217816   3.737   4.184   4.005  0.2428  0.0075  0.0984
 5937TIP3    H117817   3.697   4.102   3.974  1.1338  0.3060 -1.9988
 5937TIP3    H217818   3.778   4.222   3.927  1.0864  1.7514  1.3235
 5938TIP3   OH217819   5.149   5.647   1.561 -0.2323 -0.4977 -0.1415
 5938TIP3    H117820   5.144   5.693   1.477  1.1231 -0.1329 -0.0488
 5938TIP3    H217821   5.237   5.666   1.593 -0.5444 -1.0796  1.1139
 5939TIP3   OH217822   4.836   5.481   2.876  0.2699 -0.4470 -0.3954
 5939TIP3    H117823   4.793   5.419   2.815  1.4912 -0.5951 -1.1466
 5939TIP3    H217824   4.900   5.427   2.923  1.5845  0.2605 -1.2930
 5940TIP3   OH217825   0.649   2.872   1.767 -0.5417  0.2741 -0.2560
 5940TIP3    H117826   0.673   2.780   1.781 -3.4857 -0.7325 -1.0565
 5940TIP3    H217827   0.689   2.895   1.683 -1.6509 -1.0709 -1.1954
 5941TIP3   OH217828   6.211   5.006   2.380  0.3014  0.1333  0.5176
 5941TIP3    H117829   6.148   5.078   2.375  1.4949  1.1580 -2.0984
 5941TIP3    H217830   6.294   5.049   2.403  0.6605 -0.7005  0.7998
 5942TIP3   OH217831   3.949   2.989   4.820 -0.2805 -0.5954 -0.3536
 5942TIP3    H117832   4.041   3.013   4.830 -0.8012  0.8465  1.4082
 5942TIP3    H217833   3.947   2.894   4.832  0.8208 -0.4712  1.0460
 5943TIP3   OH217834   4.874   5.398   4.203 -0.0883  0.6086  0.3770
 5943TIP3    H117835   4.916   5.331   4.257 -0.1052  1.2763  1.2436
 5943TIP3    H217836   4.872   5.360   4.115 -1.2266 -1.0497  1.0614
 5944TIP3   OH217837   6.061   4.440   2.783  0.3929 -0.0151 -0.1867
 5944TIP3    H117838   6.059   4.344   2.774  0.3606  0.0171 -0.5487
 5944TIP3    H217839   6.082   4.455   2.875  1.9034 -0.3771 -0.4437
 5945TIP3   OH217840   5.598   1.376   0.706  0.4484 -0.2043 -1.0601
 5945TIP3    H117841   5.585   1.436   0.779  0.7360 -0.1071 -1.0885
 5945TIP3    H217842   5.573   1.290   0.740  1.3856 -0.3042 -0.5875
 5946TIP3   OH217843   1.097   5.404   0.615 -0.8747  0.0963 -0.3471
 5946TIP3    H117844   1.127   5.360   0.536 -0.5242  0.6870 -0.5542
 5946TIP3    H217845   1.048   5.337   0.663  0.5047 -0.7951 -0.1561
 5947TIP3   OH217846   1.866   5.645   4.659  0.4670  0.1477  0.4801
 5947TIP3    H117847   1.826   5.599   4.585  0.1305  1.6870 -0.3361
 5947TIP3    H217848   1.817   5.615   4.735  0.8789 -1.5352  0.1191
 5948TIP3   OH217849   3.019   3.478   4.003  0.5416  0.6117 -0.6965
 5948TIP3    H117850   3.051   3.399   4.046  0.0829 -0.2397 -1.8577
 5948TIP3    H217851   3.000   3.538   4.075  1.2605 -0.1869  0.1937
 5949TIP3   OH217852   2.886   1.254   1.587 -0.0752  0.5222  0.0183
 5949TIP3    H117853   2.966   1.209   1.613 -0.5120 -0.3570 -0.1365
 5949TIP3    H217854   2.840   1.192   1.531  0.0854  1.7684 -1.5732
 5950TIP3   OH217855   0.487   4.638   1.641  0.7452 -0.2113 -0.2015
 5950TIP3    H117856   0.501   4.644   1.547  1.1134 -0.8054 -0.1907
 5950TIP3    H217857   0.392   4.633   1.651  0.6525  0.9107 -0.4709
 5951TIP3   OH217858   4.044   3.602   1.897 -0.1934  0.5246 -0.0776
 5951TIP3    H117859   3.961   3.649   1.896 -0.0372  1.0059  2.7106
 5951TIP3    H217860   4.031   3.531   1.960  1.2631  0.1313 -0.1830
 5952TIP3   OH217861   0.028   5.246   0.018 -0.2671  0.1996 -0.0235
 5952TIP3    H117862  -0.044   5.308   0.030 -0.5290  0.1807 -1.3230
 5952TIP3    H217863   0.086   5.289  -0.044  0.2011 -0.3186  0.0510
 5953TIP3   OH217864   4.198   0.709   4.271  0.7841 -0.1240  0.3962
 5953TIP3    H117865   4.264   0.678   4.209  1.9025 -1.4222  2.1379
 5953TIP3    H217866   4.201   0.646   4.343 -4.1394 -1.8041 -0.4304
 5954TIP3   OH217867   1.150   3.498   4.747 -0.2335  0.0402  0.1361
 5954TIP3    H117868   1.219   3.504   4.681 -3.2528  1.9866 -3.1632
 5954TIP3    H217869   1.180   3.553   4.819  1.5562  0.9792 -1.2631
 5955TIP3   OH217870   2.190   3.320   0.669 -0.0068  0.6458 -0.8167
 5955TIP3    H117871   2.096   3.306   0.675 -0.0316  0.8945 -0.6471
 5955TIP3    H217872   2.202   3.414   0.675  0.2267  0.6479 -1.2067
 5956TIP3   OH217873   5.129   2.734   4.235 -0.2024 -0.5285  0.2403
 5956TIP3    H117874   5.170   2.703   4.316  0.7387 -0.3111 -0.1370
 5956TIP3    H217875   5.036   2.713   4.246 -0.0186 -0.9365  1.1690
 5957TIP3   OH217876   0.401   0.461   0.412 -0.9230  0.0468 -0.0024
 5957TIP3    H117877   0.391   0.401   0.485  0.2217  0.0596  0.1809
 5957TIP3    H217878   0.415   0.547   0.452 -2.3667  0.4437 -0.2610
 5958TIP3   OH217879  -0.016   5.574   4.408 -0.2937 -0.3722  0.0294
 5958TIP3    H117880   0.038   5.606   4.336  0.2698  1.1636  1.0986
 5958TIP3    H217881  -0.005   5.479   4.406  0.0081 -0.3257 -1.6536
 5959TIP3   OH217882   0.281   3.466   3.207  0.0940  0.2552  0.6384
 5959TIP3    H117883   0.337   3.431   3.138 -1.0027 -0.0157 -0.1432
 5959TIP3    H217884   0.229   3.392   3.236  0.6980  0.3161  1.9381
 5960TIP3   OH217885   2.034   1.940   1.247  0.1981  0.4637  0.1316
 5960TIP3    H117886   2.072   2.004   1.187  1.0770  1.6589  1.8561
 5960TIP3    H217887   1.958   1.985   1.285  2.1140  1.5715  3.0746
 5961TIP3   OH217888   2.910   5.629   0.773  0.1422  0.5386 -0.1140
 5961TIP3    H117889   2.881   5.637   0.864  0.2410  1.2302 -0.1350
 5961TIP3    H217890   2.861   5.697   0.727  1.5414  1.5325 -0.2105
 5962TIP3   OH217891   2.828   2.572   3.186  0.1714 -0.3077  0.0193
 5962TIP3    H117892   2.734   2.576   3.169  0.0980 -0.7206  0.3191
 5962TIP3    H217893   2.867   2.626   3.117 -0.3407  0.6103  0.4282
 5963TIP3   OH217894   4.400   5.404   3.087 -0.1873  0.0694 -0.3750
 5963TIP3    H117895   4.491   5.435   3.081 -0.7719  2.0833  0.3699
 5963TIP3    H217896   4.393   5.338   3.018  2.3219 -1.4972  0.7370
 5964TIP3   OH217897   2.337   4.468   4.550 -0.2961 -0.2246 -0.3971
 5964TIP3    H117898   2.394   4.522   4.604 -1.1073  0.2917 -0.0340
 5964TIP3    H217899   2.250   4.478   4.590 -0.6621 -0.8851 -1.0111
 5965TIP3   OH217900   3.562   0.775   1.637  0.1075  0.7657  0.2296
 5965TIP3    H117901   3.519   0.713   1.696  0.7659 -1.1879 -1.2350
 5965TIP3    H217902   3.493   0.836   1.613 -0.9542 -0.2277  0.6495
 5966TIP3   OH217903   4.958   1.878   0.916 -0.2360  0.4227  0.2350
 5966TIP3    H117904   5.013   1.843   0.847 -0.5049  1.4576 -0.5336
 5966TIP3    H217905   5.005   1.859   0.997 -1.0702 -3.0108  0.0406
 5967TIP3   OH217906   5.489   1.434   4.058  1.0319  0.0873  0.1217
 5967TIP3    H117907   5.439   1.498   4.108  0.8477 -0.3829  0.5488
 5967TIP3    H217908   5.580   1.461   4.069  0.9594  0.2395  0.3553
 5968TIP3   OH217909   3.572   5.112   3.415 -0.2188  0.3928  0.0200
 5968TIP3    H117910   3.585   5.184   3.477  1.5458 -1.9411  2.6124
 5968TIP3    H217911   3.575   5.154   3.329  1.6814  3.3103  1.3327
 5969TIP3   OH217912   1.054   5.000   2.433 -0.2497  0.1147 -0.2168
 5969TIP3    H117913   1.023   5.091   2.437  0.3957  0.3132  2.9752
 5969TIP3    H217914   0.979   4.950   2.402 -1.3285  1.4735  0.1166
 5970TIP3   OH217915   0.793   5.226   2.913 -0.3317  0.5446 -0.5638
 5970TIP3    H117916   0.716   5.234   2.968 -0.2757  3.1236 -0.7223
 5970TIP3    H217917   0.762   5.185   2.833 -0.8626 -1.2070  0.4953
 5971TIP3   OH217918   4.288   0.384   1.699 -0.0146 -0.0548  0.2344
 5971TIP3    H117919   4.252   0.346   1.619  0.9020  0.4358 -0.4333
 5971TIP3    H217920   4.217   0.437   1.735 -0.4462 -0.3172 -0.2262
 5972TIP3   OH217921   1.492   4.394   3.418  0.8792 -0.3324 -0.5236
 5972TIP3    H117922   1.447   4.364   3.339 -0.3678  2.5978 -1.0323
 5972TIP3    H217923   1.580   4.416   3.389  0.6425  0.0569 -0.9482
 5973TIP3   OH217924   5.787   3.075   2.516  0.4191 -0.5082  0.3222
 5973TIP3    H117925   5.826   3.132   2.450 -0.7388 -0.7203 -0.5891
 5973TIP3    H217926   5.693   3.093   2.510  0.1039 -1.9983  0.5190
 5974TIP3   OH217927   1.310   5.923   4.074 -0.3646 -0.1324 -0.4685
 5974TIP3    H117928   1.295   5.831   4.053  0.3633 -0.5448  0.6700
 5974TIP3    H217929   1.230   5.951   4.118 -0.7325 -0.1160 -1.1519
 5975TIP3   OH217930   2.495   4.400   2.425 -0.2536  0.1186  0.0383
 5975TIP3    H117931   2.509   4.493   2.444 -0.1754  0.8852 -3.2051
 5975TIP3    H217932   2.405   4.396   2.391 -0.0962 -0.9165 -0.2914
 5976TIP3   OH217933   0.738   2.322   4.508  0.0177 -0.2926 -0.1260
 5976TIP3    H117934   0.819   2.372   4.516  1.7618 -2.6439 -1.6990
 5976TIP3    H217935   0.727   2.309   4.414 -1.8388 -0.6444  0.0891
 5977TIP3   OH217936   5.804   2.301   5.107 -0.1993 -0.0465  0.5075
 5977TIP3    H117937   5.731   2.317   5.166  1.0701  0.8029  1.9224
 5977TIP3    H217938   5.866   2.248   5.157  1.2605  1.3432  0.2679
 5978TIP3   OH217939   2.028   3.593   0.425  0.3764  0.3989  0.4666
 5978TIP3    H117940   1.962   3.659   0.444 -0.1887 -0.3424  1.1752
 5978TIP3    H217941   2.066   3.572   0.511  1.1017  0.3699  0.1465
 5979TIP3   OH217942   3.537   4.499   4.427 -0.2895  0.1557 -0.4658
 5979TIP3    H117943   3.476   4.543   4.486 -0.9860 -1.6116  0.2001
 5979TIP3    H217944   3.490   4.494   4.343 -0.6471 -0.2518 -0.2460
 5980TIP3   OH217945   0.167   3.935   3.505  0.0264 -0.5537 -0.5696
 5980TIP3    H117946   0.225   4.011   3.496 -0.9256  0.2558 -0.0970
 5980TIP3    H217947   0.225   3.860   3.499  0.7315  0.0956 -3.4664
 5981TIP3   OH217948   0.404   4.528   3.583  0.3332  0.5433  0.4797
 5981TIP3    H117949   0.365   4.459   3.529  1.9452 -0.2415  0.2487
 5981TIP3    H217950   0.340   4.544   3.652 -0.8286  0.0481 -0.4530
 5982TIP3   OH217951   3.540   5.955   4.678 -0.8612 -0.2066  0.1618
 5982TIP3    H117952   3.520   6.041   4.640 -1.6952 -0.3126  0.3283
 5982TIP3    H217953   3.546   5.896   4.603 -1.8303 -0.2875  0.1372
 5983TIP3   OH217954   5.892   2.018   0.319 -0.0096 -0.0640 -0.0841
 5983TIP3    H117955   5.833   2.076   0.270  0.6104  2.5935  2.0188
 5983TIP3    H217956   5.980   2.043   0.290  0.2239 -1.5268 -0.6950
 5984TIP3   OH217957   6.324   0.661   5.068 -0.6160  0.1193  0.3035
 5984TIP3    H117958   6.384   0.654   5.142 -0.4933  0.2935  0.2218
 5984TIP3    H217959   6.262   0.589   5.080  1.2322 -1.8018 -1.0741
 5985TIP3   OH217960   0.522   3.104   0.014  0.1989  0.4200  0.4550
 5985TIP3    H117961   0.604   3.074   0.054  1.1123  1.2699 -0.6969
 5985TIP3    H217962   0.548   3.177  -0.043 -1.2068  0.0693 -0.7171
 5986TIP3   OH217963   4.492   3.773   4.923  0.0918 -0.5484  0.3777
 5986TIP3    H117964   4.443   3.816   4.994  0.4643  0.2942  0.1302
 5986TIP3    H217965   4.579   3.759   4.959 -0.0750 -1.2723  0.5172
 5987TIP3   OH217966   1.470   2.212   2.582 -0.2733  1.1601 -0.1385
 5987TIP3    H117967   1.385   2.186   2.547 -0.0296  0.5804 -0.3111
 5987TIP3    H217968   1.458   2.303   2.609 -1.1334  0.8836  0.4478
 5988TIP3   OH217969   3.184   1.860   2.276 -0.1691  0.1826  0.2704
 5988TIP3    H117970   3.089   1.873   2.283  0.2176  3.8523  0.5830
 5988TIP3    H217971   3.196   1.766   2.291 -3.6518 -0.3086  0.9543
 5989TIP3   OH217972   4.010   4.330   5.161  0.0421 -0.2281  0.0229
 5989TIP3    H117973   4.061   4.411   5.159  2.3203 -1.5781 -1.1796
 5989TIP3    H217974   3.945   4.341   5.092  0.2888  0.5943 -0.0879
 5990TIP3   OH217975   4.169   0.994   4.767  0.4088 -0.5816  0.2406
 5990TIP3    H117976   4.206   0.954   4.688  0.9067 -0.5158  0.4381
 5990TIP3    H217977   4.143   0.920   4.821 -1.0049 -0.6306 -0.4728
 5991TIP3   OH217978   2.469   6.000   4.813 -0.6909  0.1946 -0.0378
 5991TIP3    H117979   2.422   5.940   4.755 -0.5642 -0.0121  0.0698
 5991TIP3    H217980   2.432   5.983   4.900  0.2672 -0.6872  0.2183
 5992TIP3   OH217981   5.782   4.441   2.936 -0.4555  0.6172  0.3455
 5992TIP3    H117982   5.740   4.404   2.858 -0.3790  0.0738  0.5539
 5992TIP3    H217983   5.866   4.396   2.942 -0.4048  0.7512  0.6643
 5993TIP3   OH217984   5.449   0.168   1.096 -0.1588  0.0204  0.1560
 5993TIP3    H117985   5.441   0.120   1.014  1.1686 -2.2798  1.2684
 5993TIP3    H217986   5.489   0.251   1.072  0.8667 -0.8981 -1.4376
 5994TIP3   OH217987   5.701   3.343   1.927  0.3129 -0.3967  0.6123
 5994TIP3    H117988   5.658   3.425   1.901 -0.5834 -0.0334  2.9917
 5994TIP3    H217989   5.690   3.285   1.851  2.2105  2.0412 -1.7063
 5995TIP3   OH217990   3.360   2.766   5.043  0.1796 -0.4697  0.1012
 5995TIP3    H117991   3.453   2.783   5.031  0.4136 -0.9260  1.1510
 5995TIP3    H217992   3.353   2.670   5.041 -0.4011 -0.4244 -0.8295
 5996TIP3   OH217993   6.211   0.462   3.696  0.0831  0.0224 -0.2575
 5996TIP3    H117994   6.291   0.511   3.715  1.2481 -1.0781 -2.0424
 5996TIP3    H217995   6.160   0.519   3.639  1.0868 -0.4689 -1.7039
 5997TIP3   OH217996   1.229   1.290   3.891 -0.4123 -0.5323 -0.0141
 5997TIP3    H117997   1.301   1.229   3.873  0.6243  0.6507 -0.0412
 5997TIP3    H217998   1.250   1.327   3.976  0.8197  2.2028 -1.3841
 5998TIP3   OH217999   0.354   0.183   2.778  0.6871 -0.1769 -0.3345
 5998TIP3    H118000   0.422   0.249   2.769  2.6589 -2.3709 -3.1271
 5998TIP3    H218001   0.322   0.169   2.689 -2.1423 -0.6352  0.6391
 5999TIP3   OH218002   0.815   4.774   1.685 -0.0021  0.6658 -0.2065
 5999TIP3    H118003   0.875   4.703   1.709  0.8044  0.1072 -3.4445
 5999TIP3    H218004   0.729   4.732   1.678  0.2284  0.2833 -0.7885
 6000TIP3   OH218005   0.977   4.923   1.529  0.3127  0.7886 -0.0354
 6000TIP3    H118006   0.916   4.884   1.591 -0.5849 -0.0324 -1.3974
 6000TIP3    H218007   1.012   5.000   1.575 -0.4676  0.3176  1.3951
 6001TIP3   OH218008   3.756   3.494   1.470  0.3023  0.0621 -0.0418
 6001TIP3    H118009   3.754   3.401   1.446 -0.9180 -0.1897  0.9093
 6001TIP3    H218010   3.840   3.506   1.513 -0.2645 -1.1015  1.5348
 6002TIP3   OH218011   1.692   3.239   3.716  0.3329  0.2635  0.2518
 6002TIP3    H118012   1.739   3.218   3.796 -0.6755  1.5052  1.2125
 6002TIP3    H218013   1.745   3.308   3.675 -0.0146  0.8246  0.7306
 6003TIP3   OH218014   2.824   3.417   0.314  0.1345  0.2635 -0.5304
 6003TIP3    H118015   2.879   3.477   0.264  0.0268 -0.2668 -1.3160
 6003TIP3    H218016   2.880   3.340   0.328  0.3982  0.6745  0.7885
 6004TIP3   OH218017   2.285   0.748   5.040  0.2824 -0.3168 -0.0087
 6004TIP3    H118018   2.316   0.688   4.973 -2.5459 -0.8522 -0.9685
 6004TIP3    H218019   2.193   0.764   5.018 -0.0246  1.6137  2.2267
 6005TIP3   OH218020   4.610   0.778   3.682  0.1352  0.1882 -0.4739
 6005TIP3    H118021   4.554   0.855   3.694  0.5544  0.4398 -0.0971
 6005TIP3    H218022   4.577   0.737   3.603 -0.4718  0.4309 -0.3526
 6006TIP3   OH218023   0.560   3.760   2.176 -0.4377 -0.4589 -0.4898
 6006TIP3    H118024   0.482   3.810   2.150 -0.1255 -0.2527 -1.0587
 6006TIP3    H218025   0.554   3.678   2.126  0.2977  0.0468 -1.4683
 6007TIP3   OH218026   4.599   5.515   2.342 -1.0421  0.3717 -0.4100
 6007TIP3    H118027   4.688   5.543   2.319 -1.3413  0.4423 -1.5480
 6007TIP3    H218028   4.563   5.588   2.392 -0.2224  0.0460  0.6854
 6008TIP3   OH218029   1.488   3.839   2.276  0.3749 -0.1107 -0.1358
 6008TIP3    H118030   1.462   3.841   2.368 -0.6724 -0.4591 -0.4009
 6008TIP3    H218031   1.583   3.831   2.277  0.4186  0.4552  0.9104
 6009TIP3   OH218032   0.322   4.378   1.011 -0.3463  0.3260 -0.2622
 6009TIP3    H118033   0.228   4.379   1.030 -0.3850  1.6318 -0.4305
 6009TIP3    H218034   0.335   4.449   0.947  0.8664  0.6989  0.3601
 6010TIP3   OH218035   2.379   5.548   4.964  0.9282 -0.7071  0.3212
 6010TIP3    H118036   2.321   5.621   4.984  2.3418  0.5302  0.1417
 6010TIP3    H218037   2.403   5.512   5.050  0.5780 -0.6788  0.4319
 6011TIP3   OH218038   5.479   1.176   0.851 -0.0858  0.0312 -0.4935
 6011TIP3    H118039   5.439   1.244   0.905 -0.2854  0.1995 -0.8532
 6011TIP3    H218040   5.434   1.095   0.877  0.1142  0.0432 -0.1058
 6012TIP3   OH218041   1.417   3.723   3.654 -0.1216  0.3057  0.6944
 6012TIP3    H118042   1.361   3.676   3.717  0.1152 -0.5362  0.2912
 6012TIP3    H218043   1.396   3.684   3.570  0.2544  0.7783  0.3778
 6013TIP3   OH218044   1.471   4.347   0.347 -0.6555 -0.0179  0.3598
 6013TIP3    H118045   1.441   4.438   0.353 -0.5783 -0.0609  1.7275
 6013TIP3    H218046   1.542   4.341   0.412  1.9946 -0.0778 -2.3185
 6014TIP3   OH218047   2.307   3.144   5.065  0.2512  0.8217 -0.3275
 6014TIP3    H118048   2.221   3.106   5.082 -1.0692  3.3232 -0.8931
 6014TIP3    H218049   2.368   3.084   5.107 -1.7318 -1.0842  0.0500
 6015TIP3   OH218050   0.947   1.681   0.178  0.1004  0.4582 -0.6223
 6015TIP3    H118051   1.015   1.620   0.150 -1.4893 -1.0119 -1.4385
 6015TIP3    H218052   0.980   1.718   0.260  1.1394 -1.5037 -0.1074
 6016TIP3   OH218053   0.050   2.357   3.171 -0.0213  0.0085  0.4720
 6016TIP3    H118054   0.087   2.435   3.212  0.8946 -0.3149  0.2859
 6016TIP3    H218055  -0.037   2.384   3.142  0.5517  1.1799 -0.2334
 6017TIP3   OH218056   2.352   1.609   2.968  0.7290  0.1727 -0.5206
 6017TIP3    H118057   2.325   1.608   2.876 -0.7281 -0.7729 -0.1192
 6017TIP3    H218058   2.271   1.627   3.016  1.5269  0.9595  0.5702
 6018TIP3   OH218059   4.801   3.461   0.031 -0.0840  0.2841 -0.4341
 6018TIP3    H118060   4.782   3.549   0.066 -0.8641  0.0364 -0.2014
 6018TIP3    H218061   4.739   3.450  -0.041  2.7547  1.5495 -3.3148
 6019TIP3   OH218062   0.174   0.397   2.888 -0.3985 -0.4920 -0.5141
 6019TIP3    H118063   0.123   0.350   2.822 -1.3798 -1.8147  1.1200
 6019TIP3    H218064   0.118   0.398   2.966  2.0397 -2.1168  1.4236
 6020TIP3   OH218065   2.599   1.014   4.886  0.1745 -0.3728  0.3099
 6020TIP3    H118066   2.599   0.921   4.907 -0.1118 -0.6231 -0.7318
 6020TIP3    H218067   2.520   1.027   4.834  0.0355  0.5254  0.7124
 6021TIP3   OH218068   1.814   0.831   0.818 -0.4144  1.2973  0.0265
 6021TIP3    H118069   1.753   0.901   0.796 -0.1988  1.5968  0.3638
 6021TIP3    H218070   1.900   0.874   0.818 -0.0637  0.6592 -1.4884
 6022TIP3   OH218071   2.082   3.097   3.010  0.2257 -0.2279 -0.4539
 6022TIP3    H118072   2.014   3.148   2.966  0.8707  1.4711  0.4290
 6022TIP3    H218073   2.039   3.013   3.029 -0.8826 -0.0480 -1.9138
 6023TIP3   OH218074   1.964   4.527   1.556  0.2978  0.1407 -0.5173
 6023TIP3    H118075   1.987   4.460   1.620  1.0894  0.9790  0.1020
 6023TIP3    H218076   1.883   4.564   1.589  0.5440  0.3651 -0.1539
 6024TIP3   OH218077   1.493   1.602   1.453  0.2311 -0.1288  0.9217
 6024TIP3    H118078   1.548   1.593   1.376 -0.9432  2.3595 -0.3340
 6024TIP3    H218079   1.437   1.524   1.451  1.9143 -1.3903  0.7768
 6025TIP3   OH218080   3.574   5.656   2.655  0.2302 -0.1385  0.6033
 6025TIP3    H118081   3.498   5.706   2.624  0.8782  0.7114  0.3511
 6025TIP3    H218082   3.639   5.722   2.677  0.6246 -0.8268  1.5757
 6026TIP3   OH218083   5.012   1.038   2.666 -0.0071 -0.0185 -0.4066
 6026TIP3    H118084   5.092   1.051   2.614 -1.0425  2.0322 -1.5803
 6026TIP3    H218085   4.960   0.976   2.614 -0.1585  0.4234 -0.7819
 6027TIP3   OH218086   0.983   2.666   3.475 -0.2621 -0.2118 -0.7952
 6027TIP3    H118087   0.929   2.744   3.462 -0.1646 -0.1101 -0.6015
 6027TIP3    H218088   0.925   2.605   3.521 -0.1804 -0.0597 -0.4837
 6028TIP3   OH218089   4.537   1.807   0.151  0.7366 -0.6910 -0.1135
 6028TIP3    H118090   4.461   1.802   0.208  0.8182  1.2720  0.2214
 6028TIP3    H218091   4.550   1.900   0.136  0.8282 -1.0988 -3.2031
 6029TIP3   OH218092   0.273   2.973   2.013  0.1632 -0.0459  0.1968
 6029TIP3    H118093   0.345   2.917   1.983  0.8808  0.0709  1.6113
 6029TIP3    H218094   0.203   2.911   2.037 -0.1699 -0.1668 -1.0320
 6030TIP3   OH218095   5.228   5.798   5.016  0.7421  0.0896 -0.3371
 6030TIP3    H118096   5.221   5.894   5.023  0.3429 -0.0057  0.6656
 6030TIP3    H218097   5.206   5.766   5.103 -0.6467 -1.0047 -1.0536
 6031TIP3   OH218098   2.392   4.908   2.056  0.3263  0.0037 -0.3731
 6031TIP3    H118099   2.344   4.828   2.082  0.4899  0.0262  0.0142
 6031TIP3    H218100   2.374   4.970   2.127  0.1815  0.3195 -0.6860
 6032TIP3   OH218101   2.639   0.786   2.078 -0.2818 -0.0462  0.2924
 6032TIP3    H118102   2.600   0.751   1.998 -0.0650 -0.8953  0.5507
 6032TIP3    H218103   2.727   0.813   2.052 -0.1834 -0.3956  0.2635
 6033TIP3   OH218104   2.783   0.529   1.974  0.2219 -0.0316  0.1548
 6033TIP3    H118105   2.864   0.483   1.996  0.2034 -0.6382 -0.9930
 6033TIP3    H218106   2.729   0.464   1.930 -0.5031  0.6344  0.0413
 6034TIP3   OH218107   0.390   1.235   4.472  0.0112 -0.1643 -0.2300
 6034TIP3    H118108   0.447   1.305   4.441  0.2692 -0.4115 -0.3153
 6034TIP3    H218109   0.416   1.222   4.563 -0.1543 -0.0351 -0.1623
 6035TIP3   OH218110   4.468   4.517   2.244  0.0412 -0.1981 -0.1983
 6035TIP3    H118111   4.559   4.522   2.270  0.6432 -0.8887 -2.0164
 6035TIP3    H218112   4.463   4.567   2.162 -0.9663 -1.0330 -0.6760
 6036TIP3   OH218113   2.836   4.279   0.145 -0.5083 -0.2919 -0.1896
 6036TIP3    H118114   2.780   4.250   0.217 -1.4035  0.7027 -0.4598
 6036TIP3    H218115   2.891   4.347   0.184  1.2555 -1.9172  0.3234
 6037TIP3   OH218116   0.409   2.241   4.912 -0.0029  1.0238  0.4130
 6037TIP3    H118117   0.397   2.324   4.865 -3.0267  0.4452 -0.0706
 6037TIP3    H218118   0.324   2.198   4.906  0.9918 -1.4044  2.0882
 6038TIP3   OH218119   4.942   6.000   2.493 -0.2854  0.2534  0.5001
 6038TIP3    H118120   4.915   5.920   2.537  0.9222 -0.1917  0.4594
 6038TIP3    H218121   5.008   6.038   2.551 -0.1084  0.6823  0.0257
 6039TIP3   OH218122   2.769   3.111   0.213 -0.2083  0.1647 -0.1584
 6039TIP3    H118123   2.793   3.169   0.140 -0.0958 -1.1408 -1.2029
 6039TIP3    H218124   2.708   3.048   0.175 -0.4470 -0.3230  0.9828
 6040TIP3   OH218125   6.263   5.910   2.979  0.1534 -0.4429  0.8851
 6040TIP3    H118126   6.235   5.858   3.054  1.6907 -1.5423  0.7523
 6040TIP3    H218127   6.352   5.937   3.001  0.1167  0.4005  0.0477
 6041TIP3   OH218128   2.705   1.913   4.765 -0.5368  0.1978 -0.9542
 6041TIP3    H118129   2.799   1.895   4.760 -0.7577 -0.7903 -2.2193
 6041TIP3    H218130   2.697   2.007   4.748  0.1774  0.1549 -1.5518
 6042TIP3   OH218131   3.819   3.773   1.855  0.0586  0.0832  0.0543
 6042TIP3    H118132   3.737   3.744   1.815  0.3704 -0.4708 -0.1954
 6042TIP3    H218133   3.814   3.869   1.854 -1.3855  0.0575  1.7159
 6043TIP3   OH218134   5.057   1.093   2.924  0.7812  0.4601  0.0324
 6043TIP3    H118135   5.035   1.058   2.838 -0.4530  0.6269  0.2619
 6043TIP3    H218136   5.133   1.043   2.952  1.7364  0.9829 -1.5092
 6044TIP3   OH218137   5.021   0.097   3.869  0.0628 -0.0642 -0.0753
 6044TIP3    H118138   5.056   0.053   3.792  1.5086 -0.2988  0.6712
 6044TIP3    H218139   5.004   0.187   3.841 -0.3340 -0.4007 -0.9115
 6045TIP3   OH218140   2.534   3.808   3.096  0.4529  0.1018 -0.3835
 6045TIP3    H118141   2.580   3.794   3.014  1.2133 -0.8202  0.1832
 6045TIP3    H218142   2.481   3.729   3.107 -1.0802  1.0158 -0.8801
 6046TIP3   OH218143   6.060   1.586   0.464  0.3198 -0.5892 -0.1925
 6046TIP3    H118144   6.011   1.518   0.418  0.9817 -0.5308 -1.0113
 6046TIP3    H218145   6.123   1.538   0.518  0.2219 -0.6485 -0.1329
 6047TIP3   OH218146   4.509   1.905   0.757 -0.3105 -0.3553 -0.4679
 6047TIP3    H118147   4.496   1.831   0.816  0.8502 -0.4930 -0.3705
 6047TIP3    H218148   4.427   1.955   0.764 -0.8848 -1.3125 -0.1134
 6048TIP3   OH218149   0.590   2.732   1.366 -0.4217  0.8143  0.0834
 6048TIP3    H118150   0.665   2.766   1.415 -0.7791  1.8078 -0.0456
 6048TIP3    H218151   0.545   2.810   1.333 -0.4400  0.1955 -1.4553
 6049TIP3   OH218152   5.055   0.988   1.064  0.1641  0.6727  0.4943
 6049TIP3    H118153   5.126   1.008   1.126 -0.0530 -1.5318  1.5455
 6049TIP3    H218154   4.984   0.956   1.119 -2.2806  4.0279 -0.3695
 6050TIP3   OH218155   3.069   2.795   4.169  0.6471  0.0878 -0.3683
 6050TIP3    H118156   3.082   2.858   4.098  1.3954  0.0157 -0.3062
 6050TIP3    H218157   3.120   2.718   4.141 -2.3702 -1.5948 -1.7764
 6051TIP3   OH218158   0.352   4.289   3.020  0.3234  0.4173 -0.0446
 6051TIP3    H118159   0.440   4.265   3.050  0.4033  0.2601 -0.4038
 6051TIP3    H218160   0.362   4.378   2.987 -0.4164  1.9002  3.2953
 6052TIP3   OH218161   3.365   5.263   1.865  0.2885  0.7209  0.0250
 6052TIP3    H118162   3.446   5.305   1.893 -0.5327  1.8302  0.8226
 6052TIP3    H218163   3.303   5.335   1.857 -1.2042 -0.3389  1.5216
 6053TIP3   OH218164   0.899   2.288   0.625 -0.5278  0.2450 -0.2003
 6053TIP3    H118165   0.933   2.375   0.606  1.1128 -0.5939 -1.3862
 6053TIP3    H218166   0.948   2.260   0.703  0.6461 -0.4640 -1.1563
 6054TIP3   OH218167   5.713   5.990   3.279  0.3084  0.3406  0.2508
 6054TIP3    H118168   5.753   6.053   3.338  0.7483  1.1904 -0.9091
 6054TIP3    H218169   5.728   5.905   3.320  1.2184  0.8469  1.0001
 6055TIP3   OH218170   5.517   3.098   0.891 -0.3960 -0.1201 -0.5707
 6055TIP3    H118171   5.483   3.083   0.979 -1.3449  1.4614 -0.6356
 6055TIP3    H218172   5.610   3.120   0.904  0.2878 -2.8540 -0.2648
 6056TIP3   OH218173   5.224   4.796   4.988 -0.3144  0.2023  0.0880
 6056TIP3    H118174   5.248   4.784   5.080 -1.3376  1.1181  0.5008
 6056TIP3    H218175   5.131   4.771   4.984 -0.0004 -0.8977 -0.9409
 6057TIP3   OH218176   5.965   4.694   4.584  0.2470  0.3115  0.1735
 6057TIP3    H118177   5.914   4.635   4.640  1.0147 -0.3515  0.1880
 6057TIP3    H218178   6.017   4.746   4.644  0.9918 -0.3262  0.0945
 6058TIP3   OH218179   2.170   5.722   0.980 -0.1914  0.1595  0.1636
 6058TIP3    H118180   2.146   5.815   0.971  0.1400  0.2014 -0.2922
 6058TIP3    H218181   2.134   5.680   0.902 -3.1598 -0.7127  1.8381
 6059TIP3   OH218182   3.426   0.995   1.989 -0.3381 -0.1134 -0.3570
 6059TIP3    H118183   3.514   1.001   2.026 -1.1427  0.8171  1.5626
 6059TIP3    H218184   3.438   1.011   1.895  1.7489 -2.1452 -0.5011
 6060TIP3   OH218185   3.921   3.400   3.718  0.1903 -0.0299  0.4460
 6060TIP3    H118186   3.878   3.390   3.633 -0.6984 -0.6379  0.9498
 6060TIP3    H218187   3.859   3.451   3.770 -0.0507 -1.1111  1.2577
 6061TIP3   OH218188   4.396   1.754   1.344  0.0015 -0.0591 -0.2340
 6061TIP3    H118189   4.413   1.847   1.362  1.6791 -0.4979  0.6918
 6061TIP3    H218190   4.456   1.732   1.273  0.3656 -0.6816  0.2612
 6062TIP3   OH218191   0.069   1.107   5.013 -0.3507 -0.2488 -0.0999
 6062TIP3    H118192   0.019   1.156   4.947 -0.6920 -0.4748 -0.0167
 6062TIP3    H218193   0.031   1.019   5.009 -1.1584  0.0140  1.1846
 6063TIP3   OH218194   0.553   1.568   4.153  0.4978  0.1183  0.1286
 6063TIP3    H118195   0.535   1.662   4.141  0.6930  0.2893  1.0692
 6063TIP3    H218196   0.530   1.551   4.244  1.1081 -0.6030  0.1582
 6064TIP3   OH218197   6.053   4.835   1.499 -0.0941 -0.1748 -0.0765
 6064TIP3    H118198   6.023   4.867   1.584  0.6589  1.3926 -0.3558
 6064TIP3    H218199   6.035   4.907   1.439  0.1460 -0.9360 -1.0847
 6065TIP3   OH218200   3.873   5.955   3.444  0.8158  0.3789 -0.1232
 6065TIP3    H118201   3.938   6.009   3.489  0.8624 -0.7494  1.2476
 6065TIP3    H218202   3.918   5.872   3.429 -0.0253 -0.1232  0.0706
 6066TIP3   OH218203   4.120   5.232   1.964 -0.3206  0.2034 -0.1277
 6066TIP3    H118204   4.039   5.229   1.913 -1.2905  1.4402  1.2621
 6066TIP3    H218205   4.098   5.187   2.046  1.3333 -2.1199 -0.8574
 6067TIP3   OH218206   3.429   3.119   5.035  0.4784 -0.6313  0.3111
 6067TIP3    H118207   3.473   3.139   5.118  2.6473 -1.6662 -0.4974
 6067TIP3    H218208   3.499   3.122   4.970 -0.9228 -1.0966 -1.2939
 6068TIP3   OH218209   1.190   2.295   4.892 -0.6129 -0.2588 -0.2319
 6068TIP3    H118210   1.267   2.347   4.916  0.4924 -1.8791 -0.1431
 6068TIP3    H218211   1.174   2.238   4.968  1.0355 -3.2556 -1.9661
 6069TIP3   OH218212   5.522   5.060   2.235 -0.1395  0.9115  0.2813
 6069TIP3    H118213   5.535   5.116   2.158 -0.3254  0.0132 -0.4357
 6069TIP3    H218214   5.572   4.980   2.213  0.3009  0.8783  1.3646
 6070TIP3   OH218215   0.670   0.526   4.065  0.4076  0.0646 -0.3224
 6070TIP3    H118216   0.722   0.446   4.074  0.2276 -0.1555 -1.1260
 6070TIP3    H218217   0.608   0.524   4.137 -0.2231 -1.0062 -0.8671
 6071TIP3   OH218218   3.735   1.483   2.006 -0.5923 -0.2616  0.3742
 6071TIP3    H118219   3.762   1.575   1.999  1.2899 -0.7904  0.2290
 6071TIP3    H218220   3.661   1.476   1.946 -0.0197  0.9011 -0.5122
 6072TIP3   OH218221   3.930   2.555   4.498 -0.3832 -0.1302  0.2845
 6072TIP3    H118222   3.922   2.500   4.420  1.3900  1.9328 -1.4905
 6072TIP3    H218223   3.862   2.622   4.487  0.0996  0.3707  0.3164
 6073TIP3   OH218224   5.365   1.583   0.821  0.3641 -0.1474  0.0547
 6073TIP3    H118225   5.408   1.582   0.907  0.1068  0.4528  0.1990
 6073TIP3    H218226   5.320   1.667   0.819 -0.9577 -0.8383 -0.0276
 6074TIP3   OH218227   3.664   5.494   0.456  0.0597 -0.4825  0.0109
 6074TIP3    H118228   3.723   5.449   0.516 -0.9829 -1.8562  0.0505
 6074TIP3    H218229   3.712   5.573   0.429  1.5497 -1.1316  0.6852
 6075TIP3   OH218230   3.922   5.522   4.973 -0.1839  0.0863 -0.2847
 6075TIP3    H118231   3.914   5.589   4.905  0.5849  0.8783  0.3729
 6075TIP3    H218232   3.990   5.556   5.031 -1.0609 -0.3984  1.0716
 6076TIP3   OH218233   5.928   2.572   4.254 -0.2564 -0.6266  0.4416
 6076TIP3    H118234   5.988   2.589   4.327  0.1221 -1.0462  0.2309
 6076TIP3    H218235   5.985   2.548   4.181 -0.6717 -0.8984  0.2005
 6077TIP3   OH218236   2.864   3.522   1.022 -0.4550  0.7222  0.2431
 6077TIP3    H118237   2.850   3.427   1.027  0.9764  0.4068 -1.0235
 6077TIP3    H218238   2.931   3.539   1.089 -0.1387  0.7004 -0.0650
 6078TIP3   OH218239   2.938   0.841   3.975 -0.1031  0.0640  0.0401
 6078TIP3    H118240   2.857   0.879   4.010  1.8157  2.8479  1.8330
 6078TIP3    H218241   2.983   0.804   4.050  0.9530 -0.1662 -0.6786
 6079TIP3   OH218242   3.066   5.988   0.466 -0.4817 -0.1318 -0.3733
 6079TIP3    H118243   3.104   6.015   0.382  1.3667 -0.9533  0.1566
 6079TIP3    H218244   3.138   5.948   0.514 -1.3799  0.6517  1.7904
 6080TIP3   OH218245   0.171   5.883   1.565  0.5466 -0.9865  0.3067
 6080TIP3    H118246   0.234   5.821   1.528  0.4722 -0.2011 -1.2437
 6080TIP3    H218247   0.217   5.967   1.564  0.1260 -0.7449  0.9325
 6081TIP3   OH218248   5.873   5.769   0.836 -0.2538 -0.2991 -0.3452
 6081TIP3    H118249   5.840   5.808   0.918 -1.6272 -1.5733 -0.2618
 6081TIP3    H218250   5.871   5.841   0.773  0.0131  0.4817  0.5117
 6082TIP3   OH218251   2.040   1.996   0.737 -0.4947  0.2329  0.1750
 6082TIP3    H118252   2.086   1.967   0.658 -0.8753  0.1718 -0.0308
 6082TIP3    H218253   2.049   1.923   0.798 -2.8035 -1.0855 -0.8927
 6083TIP3   OH218254   6.094   3.364   4.097  0.1354  0.0359 -0.0760
 6083TIP3    H118255   6.071   3.454   4.073 -0.2007  0.4705  1.7256
 6083TIP3    H218256   6.176   3.372   4.145 -0.3799 -0.4946  0.9213
 6084TIP3   OH218257   1.597   3.950   0.853 -0.2487  0.2601 -0.0411
 6084TIP3    H118258   1.656   3.955   0.928 -0.1550 -0.8938 -0.0117
 6084TIP3    H218259   1.510   3.941   0.891 -0.2386  0.0441 -0.0658
 6085TIP3   OH218260   3.069   5.892   1.271  0.2430 -0.1756  0.4932
 6085TIP3    H118261   3.145   5.924   1.320  1.2319  0.8385 -1.6099
 6085TIP3    H218262   2.994   5.935   1.313  0.8913 -0.3946  1.9445
 6086TIP3   OH218263   6.162   1.026   0.723 -0.1654  0.1101  0.8102
 6086TIP3    H118264   6.123   1.060   0.643  1.8443  2.4188  0.6953
 6086TIP3    H218265   6.188   1.105   0.772  2.5989 -1.2477  1.6945
 6087TIP3   OH218266   4.853   4.724   3.644 -0.0608  0.0538 -0.3019
 6087TIP3    H118267   4.930   4.687   3.602  0.7868 -0.7189  1.8399
 6087TIP3    H218268   4.887   4.796   3.698 -1.0544  0.6841 -0.4757
 6088TIP3   OH218269   3.072   5.918   2.680 -0.9455  0.3051  0.0976
 6088TIP3    H118270   3.147   5.977   2.681 -1.2966  0.7654  0.9032
 6088TIP3    H218271   3.021   5.946   2.604  0.0334 -0.4781 -0.8799
 6089TIP3   OH218272   2.254   1.849   1.859 -0.1403 -0.0551  0.6812
 6089TIP3    H118273   2.299   1.766   1.841  0.0750  0.2586 -0.2313
 6089TIP3    H218274   2.166   1.836   1.823 -0.1133  0.1103  0.5591
 6090TIP3   OH218275   0.332   1.786   0.603  0.3337 -0.0827 -0.3494
 6090TIP3    H118276   0.253   1.840   0.608  0.8864  0.8010 -1.0361
 6090TIP3    H218277   0.307   1.704   0.646  0.1414  1.4786  2.8321
 6091TIP3   OH218278   3.715   1.570   4.142 -0.3268 -0.3291  0.0344
 6091TIP3    H118279   3.773   1.631   4.187  0.9733 -1.3743 -0.1695
 6091TIP3    H218280   3.627   1.604   4.159  0.3634  2.4449 -1.2676
 6092TIP3   OH218281   2.181   4.654   5.140  0.3931  0.2264 -0.1731
 6092TIP3    H118282   2.218   4.581   5.088 -1.8081  0.4934 -2.2750
 6092TIP3    H218283   2.244   4.725   5.128  0.9975 -0.3801 -0.7209
 6093TIP3   OH218284   5.186   3.525   4.573 -0.2694  0.0160 -0.1826
 6093TIP3    H118285   5.136   3.566   4.503  2.2655  2.0758 -0.9520
 6093TIP3    H218286   5.275   3.516   4.538  0.9803  0.6203  2.5422
 6094TIP3   OH218287   1.255   1.701   4.976  0.0231 -0.4197 -0.0611
 6094TIP3    H118288   1.192   1.731   5.041  0.4663  2.0741 -0.6752
 6094TIP3    H218289   1.337   1.743   5.002 -0.0251  1.5669 -2.7701
 6095TIP3   OH218290   4.941   3.699   3.315 -0.0464  0.2413  0.5781
 6095TIP3    H118291   4.997   3.698   3.392  1.7784 -0.3696 -0.6804
 6095TIP3    H218292   4.999   3.672   3.243 -1.3315  1.9500 -1.2182
 6096TIP3   OH218293   2.227   5.657   3.610  0.4113  0.3542  0.0082
 6096TIP3    H118294   2.220   5.701   3.695  0.3349  0.7749 -0.2125
 6096TIP3    H218295   2.317   5.625   3.608  0.7659  1.3297 -0.2192
 6097TIP3   OH218296   2.950   2.796   1.428  0.5978  0.6481  0.9968
 6097TIP3    H118297   2.916   2.875   1.471 -0.3243  1.0058 -0.3032
 6097TIP3    H218298   2.887   2.728   1.451  0.7462  0.5653  1.1578
 6098TIP3   OH218299   2.789   4.218   3.407 -0.3119 -0.1916  0.0215
 6098TIP3    H118300   2.751   4.182   3.327  0.3505 -0.7550 -0.0559
 6098TIP3    H218301   2.800   4.311   3.389  1.1966 -0.5465 -1.1185
 6099TIP3   OH218302   0.459   5.839   2.972  0.3811  0.1687 -0.3904
 6099TIP3    H118303   0.521   5.767   2.964 -0.9509 -0.9265 -1.3792
 6099TIP3    H218304   0.513   5.916   2.990  2.3087 -0.2839 -3.5444
 6100TIP3   OH218305   4.647   0.742   3.958  0.0874  0.3729 -0.3521
 6100TIP3    H118306   4.707   0.670   3.979 -1.1092 -0.5962 -0.1952
 6100TIP3    H218307   4.627   0.731   3.865 -0.4318  0.2506 -0.2269
 6101TIP3   OH218308   5.065   0.897   2.012  0.7289  0.7240  0.0060
 6101TIP3    H118309   5.096   0.880   2.101  0.3508 -0.8761 -0.1345
 6101TIP3    H218310   5.138   0.872   1.955  0.4431  0.3099 -0.1842
 6102TIP3   OH218311   1.681   1.910   1.316 -0.0362 -0.2627 -0.0613
 6102TIP3    H118312   1.686   1.893   1.410  1.6438  0.0413 -0.0689
 6102TIP3    H218313   1.721   1.833   1.276  1.4971  0.6555 -0.3881
 6103TIP3   OH218314   4.260   4.052   0.114  0.2613  0.0300  0.0718
 6103TIP3    H118315   4.170   4.025   0.131  0.2319 -0.5983 -0.9885
 6103TIP3    H218316   4.256   4.096   0.029  0.8192  0.7495  0.4068
 6104TIP3   OH218317   3.025   0.728   2.586 -0.2095  0.1534  0.1037
 6104TIP3    H118318   2.990   0.644   2.617 -1.1753 -0.2694 -1.9632
 6104TIP3    H218319   2.954   0.765   2.533  0.5473  1.8588  0.2089
 6105TIP3   OH218320   6.180   4.798   0.872 -0.1027 -0.2572  0.4792
 6105TIP3    H118321   6.112   4.841   0.923 -0.4057  0.3892 -0.4417
 6105TIP3    H218322   6.137   4.721   0.834  0.5373 -1.6796  2.4348
 6106TIP3   OH218323   1.675   1.737   4.184 -0.1573  0.0409  0.2403
 6106TIP3    H118324   1.611   1.685   4.232 -0.5425  1.3834  1.2296
 6106TIP3    H218325   1.760   1.702   4.210 -0.3532 -3.0804 -2.5438
 6107TIP3   OH218326   4.037   4.897   0.844  0.0790 -0.3080 -0.1517
 6107TIP3    H118327   4.102   4.894   0.774  0.1233 -0.0897 -0.1200
 6107TIP3    H218328   3.976   4.826   0.823  0.0050 -0.1412 -0.4993
 6108TIP3   OH218329   1.862   5.681   5.099  0.2328  0.5087 -0.6474
 6108TIP3    H118330   1.805   5.634   5.160  1.2982  1.3803  1.1001
 6108TIP3    H218331   1.803   5.741   5.053 -0.3939  0.9664  0.6862
 6109TIP3   OH218332   5.295   5.020   3.166  0.2105 -0.4687  0.7295
 6109TIP3    H118333   5.282   5.085   3.236  0.4611 -0.2881  0.6113
 6109TIP3    H218334   5.364   4.963   3.199  1.0783  0.2477  0.1981
 6110TIP3   OH218335   0.159   5.716   3.282  0.3785 -0.1257  0.0801
 6110TIP3    H118336   0.218   5.649   3.317 -0.0946 -0.5358  0.1131
 6110TIP3    H218337   0.133   5.683   3.196  0.7784  0.4129 -0.2489
 6111TIP3   OH218338   5.935   5.258   4.011 -0.2069 -0.3778 -0.5413
 6111TIP3    H118339   6.017   5.236   4.054 -0.6814 -0.2864  0.4368
 6111TIP3    H218340   5.899   5.174   3.982 -1.0066 -0.7232  1.3286
 6112TIP3   OH218341   0.337   0.219   3.043 -0.1655  0.1090  0.2034
 6112TIP3    H118342   0.272   0.289   3.052  2.0028  2.1606  1.0625
 6112TIP3    H218343   0.346   0.206   2.949 -1.8391 -0.2903  0.0693
 6113TIP3   OH218344   1.603   1.723   0.475 -0.0059 -0.0402  0.3102
 6113TIP3    H118345   1.559   1.660   0.532 -0.2326  1.0163  1.3207
 6113TIP3    H218346   1.650   1.668   0.412 -0.5929 -1.2140  0.8573
 6114TIP3   OH218347   6.172   2.999   1.979 -0.4979  0.1721  0.1137
 6114TIP3    H118348   6.195   2.906   1.973 -1.2215 -0.1803  2.1183
 6114TIP3    H218349   6.252   3.042   2.008 -0.3989  0.0450  0.0286
 6115TIP3   OH218350   1.015   3.654   4.996 -0.1238 -0.3263  0.0982
 6115TIP3    H118351   0.986   3.579   5.048 -1.5002 -0.7917 -1.2558
 6115TIP3    H218352   0.948   3.663   4.928 -0.6452  2.9010  0.8981
 6116TIP3   OH218353   4.644   5.390   1.643  0.0796  0.1890 -0.8694
 6116TIP3    H118354   4.573   5.358   1.587  0.5233  0.3328 -1.5223
 6116TIP3    H218355   4.692   5.453   1.588  1.1703 -0.4700 -0.6981
 6117TIP3   OH218356   1.397   3.212   1.194  0.0592 -0.2844  0.0339
 6117TIP3    H118357   1.324   3.262   1.157 -1.3458 -2.2201 -0.0024
 6117TIP3    H218358   1.363   3.175   1.275  0.5256 -2.2103 -0.5738
 6118TIP3   OH218359   5.209   4.215   3.714  0.2530  0.4422  0.0760
 6118TIP3    H118360   5.168   4.140   3.671  1.5446 -1.7403  2.3761
 6118TIP3    H218361   5.146   4.243   3.780 -0.5106  1.9308 -1.2011
 6119TIP3   OH218362   5.946   1.314   2.818  0.6051  0.1144  0.0404
 6119TIP3    H118363   5.914   1.394   2.776  0.6318  0.1613  0.1094
 6119TIP3    H218364   6.018   1.343   2.873  0.7620  0.0095 -0.1066
 6120TIP3   OH218365   6.074   1.179   4.561 -0.0494  0.3392 -0.2210
 6120TIP3    H118366   6.104   1.269   4.549 -0.3086  0.3749 -0.6119
 6120TIP3    H218367   6.019   1.182   4.639  2.1639 -0.0147  1.4623
 6121TIP3   OH218368   4.142   0.914   2.965 -0.0487 -0.0634  0.6417
 6121TIP3    H118369   4.123   0.821   2.967 -1.6255  0.2153 -0.0691
 6121TIP3    H218370   4.086   0.952   3.032 -0.0564  0.4692  0.3428
 6122TIP3   OH218371   1.832   1.471   0.490  0.2059  0.1065 -0.2735
 6122TIP3    H118372   1.780   1.463   0.570 -1.2910  1.5233 -1.0429
 6122TIP3    H218373   1.916   1.507   0.519 -0.6633  1.5388  0.5850
 6123TIP3   OH218374   5.691   2.803   4.257 -0.0731 -0.2213  0.3985
 6123TIP3    H118375   5.730   2.834   4.175  1.8454 -1.4701  0.7724
 6123TIP3    H218376   5.749   2.836   4.325 -2.3319  1.8980  1.4638
 6124TIP3   OH218377   5.462   1.876   5.046  0.1901 -0.4145  0.0475
 6124TIP3    H118378   5.514   1.839   4.975  1.2119 -1.3667  1.2507
 6124TIP3    H218379   5.500   1.839   5.125  0.4786  2.2659  1.2634
 6125TIP3   OH218380   4.930   2.238   4.478  0.3289  0.2083  0.2887
 6125TIP3    H118381   5.008   2.260   4.428  0.6489 -1.1185  0.1608
 6125TIP3    H218382   4.874   2.191   4.416 -0.0277  0.0821  0.7017
 6126TIP3   OH218383   0.885   1.421   3.538 -0.1875 -0.0295 -0.6294
 6126TIP3    H118384   0.958   1.403   3.597  0.1283  0.1354 -0.9713
 6126TIP3    H218385   0.916   1.395   3.452 -1.2038 -1.8019 -0.5177
 6127TIP3   OH218386   1.447   3.928   1.471  0.0062  0.6138  0.2119
 6127TIP3    H118387   1.461   3.833   1.471  0.0749  0.6255 -0.0352
 6127TIP3    H218388   1.400   3.946   1.390 -0.2154  0.7603  0.3724
 6128TIP3   OH218389   4.071   2.446   0.984 -0.1772 -0.0103  0.1001
 6128TIP3    H118390   4.126   2.458   1.061  0.8094  0.0092 -0.5967
 6128TIP3    H218391   4.076   2.530   0.938 -0.0774 -0.2924 -0.4147
 6129TIP3   OH218392   2.300   3.853   4.507 -0.0235 -0.7505  0.3910
 6129TIP3    H118393   2.282   3.939   4.469  1.3505  0.6073  2.5483
 6129TIP3    H218394   2.339   3.803   4.436  0.7762  1.0497 -0.5087
 6130TIP3   OH218395   0.500   2.826   4.423  0.3661 -0.1594  0.4676
 6130TIP3    H118396   0.494   2.814   4.328 -0.7265 -0.8884  0.6118
 6130TIP3    H218397   0.594   2.828   4.441  0.7155 -3.4958 -0.2540
 6131TIP3   OH218398   2.449   1.887   2.813 -0.1782 -0.2640  0.1529
 6131TIP3    H118399   2.424   1.827   2.743  2.1099 -0.7410 -0.3343
 6131TIP3    H218400   2.448   1.835   2.893  2.4467 -1.2802 -0.3544
 6132TIP3   OH218401   3.386   4.517   0.694 -0.8024  0.4594 -0.1985
 6132TIP3    H118402   3.401   4.580   0.764  1.6071  1.5684 -1.5505
 6132TIP3    H218403   3.356   4.437   0.738  0.7426  1.0615  2.1051
 6133TIP3   OH218404   2.102   2.341   0.242  0.2978 -0.1387  0.1687
 6133TIP3    H118405   2.008   2.334   0.225  0.2508  0.0435  0.3516
 6133TIP3    H218406   2.116   2.288   0.320 -0.1253  1.9819  1.7988
 6134TIP3   OH218407   3.264   4.799   2.168 -0.3043 -0.2018 -0.3248
 6134TIP3    H118408   3.171   4.820   2.166  0.0779  1.5469 -1.4583
 6134TIP3    H218409   3.306   4.880   2.198  1.0279 -0.2091 -2.0574
 6135TIP3   OH218410   1.889   0.133   2.875 -0.5076 -0.5851  0.0862
 6135TIP3    H118411   1.800   0.118   2.907 -0.7619 -1.7447 -1.0610
 6135TIP3    H218412   1.938   0.056   2.905 -0.7115 -1.6084 -2.0687
 6136TIP3   OH218413   2.935   4.764   3.764 -0.3098  0.1267  0.3330
 6136TIP3    H118414   3.028   4.758   3.785  0.4482 -3.0125 -2.8846
 6136TIP3    H218415   2.927   4.841   3.708  0.3369  0.4258  0.6453
 6137TIP3   OH218416   3.303   0.061   1.115  0.3322  0.0732  0.0319
 6137TIP3    H118417   3.341   0.087   1.031 -2.1680  0.7499 -1.0012
 6137TIP3    H218418   3.282  -0.032   1.105  0.0353  0.1538 -0.1213
 6138TIP3   OH218419   4.074   1.642   3.258 -0.4289 -0.1491 -0.3736
 6138TIP3    H118420   4.036   1.730   3.257  2.2188  1.0755 -1.0651
 6138TIP3    H218421   4.142   1.645   3.325 -0.7994 -1.9386  0.1457
 6139TIP3   OH218422   2.140   5.504   4.404 -0.3297 -0.1330 -0.7063
 6139TIP3    H118423   2.048   5.493   4.380  0.1255 -0.0134 -2.7742
 6139TIP3    H218424   2.187   5.500   4.320  1.5392 -0.0472  0.2691
 6140TIP3   OH218425   6.165   0.192   3.733  0.0294 -0.1181  0.2225
 6140TIP3    H118426   6.163   0.192   3.638  0.8700 -0.8246  0.1938
 6140TIP3    H218427   6.167   0.285   3.757 -0.6882  0.0764 -0.4204
 6141TIP3   OH218428   1.263   0.492   0.080 -0.1659  0.0773  0.2306
 6141TIP3    H118429   1.219   0.408   0.065  0.4797 -0.3560  0.6870
 6141TIP3    H218430   1.239   0.517   0.169 -0.2425  0.3071  0.1464
 6142TIP3   OH218431   3.311   2.450   1.162 -0.2423 -0.0259 -0.5380
 6142TIP3    H118432   3.243   2.491   1.216 -1.6696 -1.3152 -1.2644
 6142TIP3    H218433   3.382   2.430   1.223 -0.4937  1.3544  0.2425
 6143TIP3   OH218434   1.316   1.010   0.121  0.2937  0.4676  0.7208
 6143TIP3    H118435   1.262   1.079   0.083  0.9441  0.5812 -0.0099
 6143TIP3    H218436   1.254   0.943   0.149 -0.1356 -0.4433 -2.1541
 6144TIP3   OH218437   1.604   4.804   0.786  0.2651  0.6036 -0.1144
 6144TIP3    H118438   1.686   4.852   0.774  1.5031 -1.3951 -0.1106
 6144TIP3    H218439   1.614   4.761   0.872 -0.8222  0.4018 -0.0775
 6145TIP3   OH218440   2.769   3.586   1.862  0.5623  0.0967 -0.0268
 6145TIP3    H118441   2.791   3.539   1.942 -1.0238 -2.9307 -1.2200
 6145TIP3    H218442   2.842   3.568   1.803 -0.7642 -2.4926 -1.0345
 6146TIP3   OH218443   2.377   2.864   0.533  0.0456  0.5068  0.0491
 6146TIP3    H118444   2.445   2.904   0.479  0.7063 -0.4176  0.1703
 6146TIP3    H218445   2.387   2.770   0.519 -1.4910  0.3558 -0.2599
 6147TIP3   OH218446   0.160   1.322   0.747 -0.1108 -0.1549 -0.1591
 6147TIP3    H118447   0.195   1.311   0.836 -0.2725  0.4302 -0.0216
 6147TIP3    H218448   0.228   1.284   0.691  0.5903  0.6168  0.1344
 6148TIP3   OH218449   0.557   3.770   0.743  0.2194  0.2882  0.6188
 6148TIP3    H118450   0.471   3.744   0.710  0.8051 -1.7908  0.6219
 6148TIP3    H218451   0.554   3.866   0.745 -1.7506  0.2828 -0.2681
 6149TIP3   OH218452   4.129   0.656   0.404 -0.2350 -0.5538  0.3246
 6149TIP3    H118453   4.222   0.653   0.427  0.2256 -0.6922 -1.4018
 6149TIP3    H218454   4.097   0.739   0.441  0.8143 -0.0480  0.1268
 6150TIP3   OH218455   2.721   4.651   4.973 -0.5809 -0.1212  0.2984
 6150TIP3    H118456   2.724   4.729   4.917 -0.7878 -1.4910 -1.7305
 6150TIP3    H218457   2.797   4.660   5.031  0.4572  0.7278 -1.1228
 6151TIP3   OH218458   3.857   0.342   0.660 -0.1012 -0.1438  0.0075
 6151TIP3    H118459   3.919   0.276   0.691  0.3441 -0.3949 -1.3747
 6151TIP3    H218460   3.903   0.389   0.590 -0.5756  1.3422  0.6350
 6152TIP3   OH218461   1.927   3.408   0.733  1.0525  0.1130 -0.0611
 6152TIP3    H118462   1.900   3.389   0.823  1.5151  0.3359  0.1344
 6152TIP3    H218463   1.877   3.348   0.679 -0.9675  1.5339  0.1456
 6153TIP3   OH218464   4.905   0.446   0.182  0.7024  0.7093  0.1979
 6153TIP3    H118465   4.958   0.368   0.199  1.6334  1.3400  0.2810
 6153TIP3    H218466   4.883   0.440   0.090  0.1350 -0.0238  0.3703
 6154TIP3   OH218467   1.414   1.164   4.640  0.1254  0.1731  0.5111
 6154TIP3    H118468   1.345   1.190   4.579  0.9813 -0.8123 -0.9447
 6154TIP3    H218469   1.376   1.090   4.689  0.2623 -0.6267 -0.5625
 6155TIP3   OH218470   0.334   3.604   1.224 -0.2003  0.1328  0.1303
 6155TIP3    H118471   0.256   3.556   1.199 -0.2974  0.2363  0.2327
 6155TIP3    H218472   0.368   3.640   1.142  0.3422 -0.7960 -0.0750
 6156TIP3   OH218473   3.547   0.221   5.038  0.6952 -0.5331  0.2953
 6156TIP3    H118474   3.488   0.248   5.108  0.0525 -1.2128  0.0411
 6156TIP3    H218475   3.633   0.253   5.064  0.0232  1.5735  0.0691
 6157TIP3   OH218476   2.508   2.013   1.985  0.1652  0.5867  0.2768
 6157TIP3    H118477   2.528   2.100   2.021  0.4463  1.0893 -1.0416
 6157TIP3    H218478   2.584   1.991   1.931 -0.1971 -0.1860  0.0656
 6158TIP3   OH218479   4.602   0.227   0.970  0.4291  0.7485  0.1318
 6158TIP3    H118480   4.538   0.208   0.901  1.3442 -1.9927 -0.0817
 6158TIP3    H218481   4.634   0.315   0.949 -1.2875  1.1084 -1.2944
 6159TIP3   OH218482   5.474   5.380   1.802 -0.6550  0.0626  0.4995
 6159TIP3    H118483   5.434   5.399   1.717 -0.0321 -0.3966  0.0917
 6159TIP3    H218484   5.563   5.414   1.794 -0.2806 -0.8621  0.6089
 6160TIP3   OH218485   0.910   4.767   3.478 -0.2737  0.1314  0.0728
 6160TIP3    H118486   0.855   4.690   3.494 -0.0549 -0.4667 -1.8575
 6160TIP3    H218487   0.999   4.738   3.500 -0.3244  0.1580  0.3165
 6161TIP3   OH218488   2.334   4.781   2.897 -0.5385  0.6793  0.5575
 6161TIP3    H118489   2.284   4.791   2.816  2.7331 -2.2808 -2.2174
 6161TIP3    H218490   2.273   4.741   2.959 -2.3821  0.0395 -1.5557
 6162TIP3   OH218491   1.079   4.884   3.789  0.7125 -0.3655 -0.3972
 6162TIP3    H118492   1.023   4.960   3.777  0.3043 -0.5663  0.1768
 6162TIP3    H218493   1.019   4.813   3.812  1.1637 -0.6763 -0.1609
 6163TIP3   OH218494   3.046   4.448   3.798  0.6692 -0.4754 -0.1746
 6163TIP3    H118495   3.063   4.354   3.789  0.1414 -0.5024 -1.1069
 6163TIP3    H218496   3.116   4.490   3.747 -0.7246 -0.5100 -2.2652
 6164TIP3   OH218497   0.692   4.067   5.118 -0.2488 -0.0678  0.0863
 6164TIP3    H118498   0.691   3.988   5.173  0.6973  0.5293  0.9850
 6164TIP3    H218499   0.740   4.041   5.040  2.3876  0.2696  1.4681
 6165TIP3   OH218500   4.746   1.947   2.955  0.5618  0.0965  0.5170
 6165TIP3    H118501   4.680   1.879   2.967 -1.3583  1.1188 -2.9396
 6165TIP3    H218502   4.804   1.913   2.886  0.7638  1.1323  0.1583
 6166TIP3   OH218503   5.480   1.129   0.192  0.1241  0.6696 -0.3097
 6166TIP3    H118504   5.400   1.153   0.239  0.2355  2.4818 -0.9804
 6166TIP3    H218505   5.449   1.093   0.109 -0.0096  1.6463 -0.6931
 6167TIP3   OH218506   3.083   0.609   3.287 -0.2669  0.1136  0.6209
 6167TIP3    H118507   3.175   0.581   3.283 -0.0945  0.7986 -1.4669
 6167TIP3    H218508   3.084   0.689   3.339 -0.0890 -1.1545  2.6787
 6168TIP3   OH218509   1.390   0.992   2.046  0.0614 -0.2573 -0.2391
 6168TIP3    H118510   1.335   0.970   1.971  1.2016 -1.3507 -0.7778
 6168TIP3    H218511   1.342   0.958   2.122 -1.5284  1.6165 -0.3070
 6169TIP3   OH218512   4.261   0.656   2.250  0.2186  0.2990 -0.2657
 6169TIP3    H118513   4.317   0.617   2.183  1.5414 -1.1742  1.5564
 6169TIP3    H218514   4.248   0.586   2.314 -1.4794  1.4444  0.7312
 6170TIP3   OH218515   0.285   1.716   3.307  0.1619  0.1225 -0.0643
 6170TIP3    H118516   0.318   1.649   3.367 -1.0607 -0.9227 -0.4945
 6170TIP3    H218517   0.296   1.678   3.220 -2.3619 -0.4474 -0.2209
 6171TIP3   OH218518   3.671   4.414   0.861  0.1832 -0.0248 -0.2069
 6171TIP3    H118519   3.653   4.346   0.926  0.0635 -0.4771 -0.7106
 6171TIP3    H218520   3.644   4.496   0.904  0.0814 -0.3225  0.3021
 6172TIP3   OH218521   5.064   0.237   0.222  0.0806  0.0527  0.2432
 6172TIP3    H118522   5.155   0.211   0.207  0.1627  0.7310 -0.5334
 6172TIP3    H218523   5.013   0.179   0.166  0.1416  0.4899 -0.2760
 6173TIP3   OH218524   2.459   1.902   1.112  0.1335 -0.4287  0.3290
 6173TIP3    H118525   2.422   1.850   1.183 -1.0201  0.4232  0.3865
 6173TIP3    H218526   2.493   1.981   1.154 -0.9114  0.2618 -0.0841
 6174TIP3   OH218527   4.178   2.062   1.269  0.1631 -0.1913 -0.1437
 6174TIP3    H118528   4.267   2.094   1.286  0.9865 -1.7727 -1.3033
 6174TIP3    H218529   4.131   2.078   1.352  1.4092  0.9585  0.3771
 6175TIP3   OH218530   5.108   5.168   5.055 -0.1932  0.4165  0.1255
 6175TIP3    H118531   5.174   5.224   5.095  1.0914 -0.1603 -1.1207
 6175TIP3    H218532   5.103   5.091   5.111  0.5090  0.2800  0.0091
 6176TIP3   OH218533   4.316   2.655   4.949  0.9318  0.5206  0.2264
 6176TIP3    H118534   4.363   2.581   4.910  0.3479  0.0028  0.4791
 6176TIP3    H218535   4.328   2.727   4.887  2.3169  0.5013  0.4338
 6177TIP3   OH218536   6.030   0.731   3.456  0.2011  0.5401  0.0046
 6177TIP3    H118537   6.090   0.800   3.484  0.6207 -0.3616  1.4206
 6177TIP3    H218538   5.947   0.754   3.497 -0.2527  1.3406 -1.2894
 6178TIP3   OH218539   6.287   2.247   0.600  0.3824 -0.3019 -0.0256
 6178TIP3    H118540   6.213   2.257   0.659 -0.1569 -1.1805 -0.5371
 6178TIP3    H218541   6.308   2.154   0.601 -0.0964 -0.4705 -1.7315
 6179TIP3   OH218542   2.517   0.448   4.607  0.3820  0.4227  0.1526
 6179TIP3    H118543   2.493   0.367   4.561  0.7853  0.2333  0.2733
 6179TIP3    H218544   2.597   0.426   4.654  1.6284  1.4661 -1.3996
 6180TIP3   OH218545   0.954   2.439  -0.029 -0.4406  0.3822  0.6565
 6180TIP3    H118546   0.881   2.473   0.023  0.1852  0.5940  1.4122
 6180TIP3    H218547   0.993   2.371   0.026  0.0281  0.3744  0.3191
 6181TIP3   OH218548   2.902   2.237   3.781  0.5172 -0.1164 -0.0705
 6181TIP3    H118549   2.967   2.194   3.726 -0.1837 -0.7145 -0.4676
 6181TIP3    H218550   2.820   2.192   3.759 -0.0897  0.8560  0.1473
 6182TIP3   OH218551   2.571   1.717   3.550  0.0966  0.2958 -0.4950
 6182TIP3    H118552   2.651   1.760   3.579 -0.4164  1.1592 -0.3252
 6182TIP3    H218553   2.592   1.684   3.463  0.6027  0.6294 -0.5024
 6183TIP3   OH218554   2.740   4.533   2.073  0.2974  0.4076  0.2785
 6183TIP3    H118555   2.745   4.577   2.158  1.0109 -1.0417  1.0275
 6183TIP3    H218556   2.823   4.555   2.030  0.8739 -0.5731  0.8599
 6184TIP3   OH218557   2.150   1.155   3.970  0.1163 -0.3060 -0.3773
 6184TIP3    H118558   2.207   1.107   4.031  1.2896  1.8817  0.3357
 6184TIP3    H218559   2.207   1.179   3.897 -0.1906  0.8413 -0.2521
 6185TIP3   OH218560   0.689   2.649   2.140  0.3096  0.3999  0.5023
 6185TIP3    H118561   0.772   2.688   2.171  0.6450  0.1658 -0.0904
 6185TIP3    H218562   0.621   2.703   2.182  0.7659  1.4260 -0.0317
 6186TIP3   OH218563   5.212   4.851   1.566 -0.0444 -0.3476 -0.9440
 6186TIP3    H118564   5.133   4.902   1.545 -1.1196 -1.0074  1.1250
 6186TIP3    H218565   5.185   4.797   1.640  2.3143 -0.7953 -0.3467
 6187TIP3   OH218566   2.100   0.936   3.134 -0.2451  0.5657  0.2394
 6187TIP3    H118567   2.013   0.917   3.099 -0.9597  1.5958  1.3835
 6187TIP3    H218568   2.140   0.991   3.067 -0.6762  0.5282 -0.0549
 6188TIP3   OH218569   0.176   4.807   1.487 -0.1262  0.2601  0.0038
 6188TIP3    H118570   0.203   4.874   1.424  1.6739 -1.1388 -0.8036
 6188TIP3    H218571   0.132   4.740   1.435 -0.3774 -0.0006  0.5357
 6189TIP3   OH218572   3.804   4.020   4.209 -0.4803  0.2722 -0.1289
 6189TIP3    H118573   3.878   4.042   4.265 -0.9947 -0.4027  0.8545
 6189TIP3    H218574   3.771   4.104   4.177  0.3611  0.6026 -0.1258
 6190TIP3   OH218575   3.421   1.264   5.076  0.2816 -0.1614  0.0351
 6190TIP3    H118576   3.427   1.356   5.101  2.4126 -0.5793  1.3327
 6190TIP3    H218577   3.471   1.257   4.995  0.4202 -0.2504  0.1292
 6191TIP3   OH218578   2.667   2.176   4.691  0.0316 -0.3734  0.3106
 6191TIP3    H118579   2.596   2.231   4.726 -2.4212 -2.8892 -0.3373
 6191TIP3    H218580   2.702   2.226   4.617 -1.4686  0.7221  0.2896
 6192TIP3   OH218581   1.050   4.971   4.853 -0.2894 -0.3930 -0.0310
 6192TIP3    H118582   1.005   5.055   4.842  2.0315  0.8300 -0.7527
 6192TIP3    H218583   1.093   4.955   4.769  0.4973 -1.5757  0.5625
 6193TIP3   OH218584   3.733   5.093   2.089  0.5483  0.4514 -0.1141
 6193TIP3    H118585   3.649   5.073   2.049  0.8831 -0.5367 -0.3755
 6193TIP3    H218586   3.755   5.181   2.058  0.6602 -0.1616 -1.9222
 6194TIP3   OH218587   3.099   1.461   3.882  0.0203 -0.0731 -0.1548
 6194TIP3    H118588   3.134   1.538   3.928 -0.9732  0.4394 -0.2458
 6194TIP3    H218589   3.164   1.443   3.814  0.8522 -0.0446  0.6066
 6195TIP3   OH218590   4.676   1.654   1.415  0.1933  0.1516 -0.1628
 6195TIP3    H118591   4.644   1.667   1.326 -2.0340  1.4542  0.7353
 6195TIP3    H218592   4.726   1.573   1.411  0.7284  0.5168 -2.7071
 6196TIP3   OH218593   1.572   0.775   4.903 -0.1114 -1.2951 -0.1322
 6196TIP3    H118594   1.492   0.759   4.853 -1.7378  1.8236  1.1618
 6196TIP3    H218595   1.549   0.751   4.993 -0.0266  0.5575  0.4307
 6197TIP3   OH218596   4.710   4.677   3.960 -0.2574 -0.0229  0.2053
 6197TIP3    H118597   4.804   4.662   3.972 -0.0959  1.0710  0.4162
 6197TIP3    H218598   4.704   4.718   3.874 -0.1839  2.6902  1.3924
 6198TIP3   OH218599   3.826   5.906   1.193  0.0192  0.6470  0.1434
 6198TIP3    H118600   3.881   5.867   1.261 -0.5137 -2.7981 -1.1675
 6198TIP3    H218601   3.761   5.957   1.241 -0.8416 -2.2767  2.4205
 6199TIP3   OH218602   3.764   2.913   1.760 -0.1225  0.6222 -0.1436
 6199TIP3    H118603   3.758   2.836   1.704  0.5408 -0.6373  1.4453
 6199TIP3    H218604   3.849   2.905   1.804 -1.0532  0.9823  1.8316
 6200TIP3   OH218605   3.421   0.098   0.872  0.5648  0.2361 -0.0801
 6200TIP3    H118606   3.430   0.035   0.801 -0.3515  1.0495 -0.9513
 6200TIP3    H218607   3.493   0.159   0.859  2.1424 -1.2008  1.4326
 6201TIP3   OH218608   5.181   2.950   2.249  0.0901  0.2226  0.2996
 6201TIP3    H118609   5.243   2.889   2.290  0.1246  0.8159  1.1486
 6201TIP3    H218610   5.178   3.025   2.308  0.5012  1.3252 -1.0307
 6202TIP3   OH218611   3.104   0.179   3.987 -0.1724 -0.2176  0.2590
 6202TIP3    H118612   3.127   0.122   4.060  2.2718 -1.1345 -1.1074
 6202TIP3    H218613   3.167   0.251   3.991 -0.4204  0.0638 -0.5420
 6203TIP3   OH218614   1.249   2.512   0.100  0.4039  0.2275 -0.4047
 6203TIP3    H118615   1.217   2.423   0.114  1.4352 -0.0594  0.2640
 6203TIP3    H218616   1.172   2.561   0.069 -0.4888 -0.5957  0.4330
 6204TIP3   OH218617   2.094   3.412   4.920 -0.6096  0.1867 -0.1122
 6204TIP3    H118618   2.152   3.466   4.973 -1.0643 -0.4794  1.1099
 6204TIP3    H218619   2.101   3.448   4.832 -2.0698  3.2785  0.8949
 6205TIP3   OH218620   0.364   5.610   2.474 -0.3988  0.5789 -0.1112
 6205TIP3    H118621   0.317   5.529   2.455 -0.3423  0.7285 -0.9537
 6205TIP3    H218622   0.373   5.611   2.569 -0.0439 -0.6022 -0.1139
 6206TIP3   OH218623   4.442   3.812   4.209  0.4075 -0.4053 -0.2733
 6206TIP3    H118624   4.459   3.812   4.115  1.2618 -0.8938 -0.1317
 6206TIP3    H218625   4.523   3.845   4.248 -0.1261  0.3025  0.2681
 6207TIP3   OH218626   1.757   4.413   3.617  0.0708 -0.1864 -0.4876
 6207TIP3    H118627   1.818   4.400   3.690  1.4844  0.6912 -1.4451
 6207TIP3    H218628   1.690   4.472   3.652  0.1365 -0.6269  0.4028
 6208TIP3   OH218629   2.522   4.056   0.970  0.2151  0.2287 -0.0989
 6208TIP3    H118630   2.479   4.047   0.885  0.3733  1.6732 -0.3467
 6208TIP3    H218631   2.455   4.032   1.034 -0.9391  2.2118 -0.4880
 6209TIP3   OH218632   3.266   0.471   0.622 -0.2103  0.1664 -0.5268
 6209TIP3    H118633   3.261   0.407   0.693 -0.4083  0.7597 -0.0019
 6209TIP3    H218634   3.265   0.556   0.665 -2.0172  0.5867 -1.3074
 6210TIP3   OH218635   0.745   2.203   4.206  0.4678 -0.5143  0.3183
 6210TIP3    H118636   0.797   2.276   4.238  0.5075 -1.0799  1.6304
 6210TIP3    H218637   0.809   2.132   4.192  0.1737 -0.9721  1.2018
 6211TIP3   OH218638   1.731   4.311   1.772  0.0463 -0.2053 -0.4050
 6211TIP3    H118639   1.775   4.237   1.814  1.1110 -0.3746 -1.7499
 6211TIP3    H218640   1.740   4.383   1.834  1.5114 -0.4637 -0.2820
 6212TIP3   OH218641   0.550   2.457   2.003  0.1327 -0.4329 -0.2037
 6212TIP3    H118642   0.585   2.460   1.914 -2.2697  0.3609 -1.2129
 6212TIP3    H218643   0.605   2.517   2.053  1.1165 -0.3769 -1.3128
 6213TIP3   OH218644   5.924   1.349   3.530 -1.2122 -0.0923 -0.2208
 6213TIP3    H118645   5.955   1.424   3.479 -1.4165  0.8112  0.9433
 6213TIP3    H218646   5.995   1.330   3.591 -1.4573 -0.3924 -0.0228
 6214TIP3   OH218647   4.810   5.912   0.701 -0.0493 -0.3806 -0.0539
 6214TIP3    H118648   4.769   5.989   0.661  1.5329 -0.0862 -1.1595
 6214TIP3    H218649   4.738   5.850   0.711 -0.9202  0.3827 -1.2653
 6215TIP3   OH218650   3.404   5.412   3.794 -0.2618  0.5641  0.2289
 6215TIP3    H118651   3.467   5.451   3.855 -0.2557  1.5808 -0.4109
 6215TIP3    H218652   3.333   5.380   3.850  0.4340  0.1485  0.8906
 6216TIP3   OH218653   2.066   5.018   4.255 -0.1551 -0.8164  0.0079
 6216TIP3    H118654   2.121   4.977   4.188  0.3824  0.7702 -0.5828
 6216TIP3    H218655   2.090   4.974   4.336 -0.5935 -2.5633 -0.7764
 6217TIP3   OH218656   0.341   1.074  -0.005  0.2611  0.0337  0.6714
 6217TIP3    H118657   0.364   0.982  -0.021  0.3550  0.3509 -1.2390
 6217TIP3    H218658   0.386   1.095   0.077  4.0923 -0.3803 -1.0919
 6218TIP3   OH218659   2.064   5.117   1.398 -0.5270  1.0711  0.1745
 6218TIP3    H118660   2.009   5.192   1.376 -2.3670 -0.5733 -1.1144
 6218TIP3    H218661   2.047   5.054   1.329  0.0822 -1.0014  1.8288
 6219TIP3   OH218662   1.057   2.191   5.121 -0.3921 -0.5664  0.4250
 6219TIP3    H118663   1.014   2.263   5.168 -1.3123 -0.0534 -1.1293
 6219TIP3    H218664   1.006   2.114   5.144  0.0298 -0.5873  1.3581
 6220TIP3   OH218665   2.666   1.071   0.196  0.1313  0.1928  0.0991
 6220TIP3    H118666   2.699   1.075   0.286  0.5363 -0.8794  0.0208
 6220TIP3    H218667   2.736   1.107   0.143  0.1634  0.2204  0.1601
 6221TIP3   OH218668   0.335   3.037   4.510  0.0148 -0.0854  0.2839
 6221TIP3    H118669   0.395   2.968   4.481  0.2749 -0.9139  2.5318
 6221TIP3    H218670   0.256   2.990   4.536  0.6250  0.1955  3.0054
 6222TIP3   OH218671   1.950   1.703   4.310  0.6097 -0.3146 -0.4451
 6222TIP3    H118672   2.022   1.641   4.313 -0.4114 -1.6536 -1.9479
 6222TIP3    H218673   1.919   1.708   4.401  2.2392 -0.0676  0.1357
 6223TIP3   OH218674   3.936   4.959   3.333  0.0507  0.3476 -0.2697
 6223TIP3    H118675   4.015   4.917   3.366 -1.3735 -2.8890 -0.6138
 6223TIP3    H218676   3.867   4.935   3.395 -1.1638  0.9264 -1.3355
 6224TIP3   OH218677   3.112   2.831   1.961  0.3559 -0.3177 -0.6409
 6224TIP3    H118678   3.140   2.876   2.040  0.0637  1.9223 -1.7424
 6224TIP3    H218679   3.025   2.796   1.983  0.6765 -0.5364  0.3043
 6225TIP3   OH218680   3.222   2.303   3.004  0.3115 -0.0158  0.7521
 6225TIP3    H118681   3.314   2.319   3.025  1.0925 -2.5580 -0.3787
 6225TIP3    H218682   3.199   2.370   2.940  1.8959 -0.3702 -0.2137
 6226TIP3   OH218683   0.093   3.090   3.911 -0.4760  0.0909 -0.0828
 6226TIP3    H118684   0.063   3.011   3.865 -1.8467 -0.1173  1.0917
 6226TIP3    H218685   0.098   3.157   3.843 -0.3999 -0.7345 -0.9065
 6227TIP3   OH218686   0.325   2.644   4.962 -0.8384  0.2330  0.5495
 6227TIP3    H118687   0.405   2.594   4.981 -1.5415 -1.1625  0.0211
 6227TIP3    H218688   0.352   2.735   4.963  0.2701 -0.0643  2.7654
 6228TIP3   OH218689   1.850   4.724   2.954 -0.0166 -0.6153  0.3365
 6228TIP3    H118690   1.778   4.676   2.914 -0.4338  0.8198 -0.7206
 6228TIP3    H218691   1.819   4.746   3.042 -1.4791  1.1538 -0.5619
 6229TIP3   OH218692   6.013   1.148   0.518 -1.0357 -0.2508 -0.2059
 6229TIP3    H118693   5.967   1.193   0.589 -0.9925 -1.1059  0.3737
 6229TIP3    H218694   6.022   1.215   0.450 -0.6284  0.7256  0.7801
 6230TIP3   OH218695   5.720   5.535   2.783 -0.1899  0.3264 -0.3298
 6230TIP3    H118696   5.737   5.628   2.798 -0.1852  0.5349 -1.5179
 6230TIP3    H218697   5.628   5.532   2.754 -0.8083 -0.2699  1.5662
 6231TIP3   OH218698   1.562   2.983   1.901  0.6638 -0.0279 -0.4962
 6231TIP3    H118699   1.504   2.915   1.936  0.6974  0.3928  0.4001
 6231TIP3    H218700   1.611   2.939   1.832 -0.4069 -0.5059 -0.9824
 6232TIP3   OH218701   4.121   4.323   1.077  0.4434 -0.0025  0.2099
 6232TIP3    H118702   4.093   4.252   1.020  1.1592 -1.9143  2.0918
 6232TIP3    H218703   4.040   4.358   1.114  0.1465 -1.2593  0.8130
 6233TIP3   OH218704   2.660   1.390   3.737 -0.2016 -0.3998  0.7213
 6233TIP3    H118705   2.590   1.373   3.674 -1.6283 -0.6705  2.3105
 6233TIP3    H218706   2.692   1.477   3.714 -1.1541 -0.2217  0.0320
 6234TIP3   OH218707   1.324   2.605   1.367 -0.0454  0.2183  0.4918
 6234TIP3    H118708   1.268   2.544   1.319 -1.6346  0.1933  2.2860
 6234TIP3    H218709   1.413   2.583   1.338 -0.8433 -0.3889 -1.7089
 6235TIP3   OH218710   4.629   5.768   0.054 -0.3045  0.1020 -0.2517
 6235TIP3    H118711   4.675   5.725  -0.018 -0.6051 -0.0970 -0.3289
 6235TIP3    H218712   4.683   5.844   0.075  1.2592 -1.3110  1.1591
 6236TIP3   OH218713   5.641   2.384   0.770 -0.2420 -0.0221  0.1069
 6236TIP3    H118714   5.591   2.448   0.820  0.6415 -0.0510  1.0456
 6236TIP3    H218715   5.720   2.369   0.821  0.4457 -0.4519 -1.0395
 6237TIP3   OH218716   4.229  -0.003   1.018  0.2599  0.4831  0.2452
 6237TIP3    H118717   4.140   0.030   1.032 -0.4046 -0.4865 -1.4197
 6237TIP3    H218718   4.281   0.037   1.088 -1.5199  0.8781  1.3984
 6238TIP3   OH218719   0.110   2.645   2.013 -0.3576  0.0727  0.0078
 6238TIP3    H118720   0.173   2.578   2.040 -0.6483  0.2595  1.2211
 6238TIP3    H218721   0.029   2.596   1.994 -0.6281  0.0808  1.0840
 6239TIP3   OH218722   6.287   2.461   0.332  0.2760  0.1935  0.7249
 6239TIP3    H118723   6.218   2.491   0.274  0.9605 -1.4791 -1.0693
 6239TIP3    H218724   6.243   2.401   0.392  0.0860 -0.6540 -0.2349
 6240TIP3   OH218725   5.136   3.248   0.053 -0.0582  0.3863 -0.0671
 6240TIP3    H118726   5.062   3.215   0.104  1.8186 -0.3284  2.4452
 6240TIP3    H218727   5.128   3.343   0.058  0.7582  0.4200  2.9650
 6241TIP3   OH218728   0.896   4.248   4.438  0.6904 -0.2187 -1.0240
 6241TIP3    H118729   0.871   4.262   4.346 -0.4465  0.1612 -0.6770
 6241TIP3    H218730   0.923   4.335   4.468  1.2062 -0.3731 -1.0362
 6242TIP3   OH218731   6.272   0.885   4.937  0.5458 -0.1083  0.0217
 6242TIP3    H118732   6.189   0.861   4.895  0.5718 -1.3807  0.6490
 6242TIP3    H218733   6.285   0.818   5.004  1.6552  0.5763  0.5146
 6243TIP3   OH218734   0.460   5.374   4.685 -0.7731 -0.3488  0.2006
 6243TIP3    H118735   0.444   5.454   4.636  0.8292 -0.6846 -0.9630
 6243TIP3    H218736   0.381   5.321   4.673 -0.0521 -0.8767 -3.0153
 6244TIP3   OH218737   5.042   4.950   3.482 -0.5503 -0.0210  0.0166
 6244TIP3    H118738   5.069   4.943   3.391 -1.3180  0.4433 -0.2615
 6244TIP3    H218739   5.098   4.888   3.529  0.4487  0.3676 -0.6297
 6245TIP3   OH218740   6.093   4.526   1.105 -0.0349 -0.1602 -0.3958
 6245TIP3    H118741   6.016   4.564   1.063  0.8289  1.0859 -0.9073
 6245TIP3    H218742   6.065   4.509   1.195 -1.3076 -1.0019 -0.9239
 6246TIP3   OH218743   6.075   2.722   1.857  0.3162  0.0201  0.2549
 6246TIP3    H118744   6.151   2.665   1.846 -0.2139 -0.1901 -3.3261
 6246TIP3    H218745   6.000   2.664   1.845 -0.2825  0.9770 -0.7830
 6247TIP3   OH218746   0.930   2.019   3.168  0.1656 -0.4468 -0.0986
 6247TIP3    H118747   0.872   2.055   3.101  0.3876 -1.3059 -0.7679
 6247TIP3    H218748   1.018   2.048   3.143  0.2659 -0.8816 -0.2624
 6248TIP3   OH218749   3.624   1.797   4.295  0.1503 -0.3425 -0.2811
 6248TIP3    H118750   3.651   1.877   4.341  0.9372 -0.9323  0.3141
 6248TIP3    H218751   3.600   1.736   4.365  0.8540 -1.0749 -0.6584
 6249TIP3   OH218752   4.167   0.071   4.179 -0.0010  0.3664 -0.1998
 6249TIP3    H118753   4.159  -0.023   4.196 -1.4349  0.5336  0.1593
 6249TIP3    H218754   4.241   0.098   4.233 -0.0319 -0.4226  0.2578
 6250TIP3   OH218755   4.041   5.824   0.586 -0.3036 -0.1914 -0.0202
 6250TIP3    H118756   4.072   5.824   0.495 -1.3983  1.8469 -0.4520
 6250TIP3    H218757   3.967   5.884   0.586 -1.9706 -2.0728  1.7255
 6251TIP3   OH218758   1.919   4.409   0.608 -0.2904 -0.1282  0.2827
 6251TIP3    H118759   1.948   4.324   0.575 -0.4606  0.1330 -0.5567
 6251TIP3    H218760   1.861   4.387   0.681 -0.5767 -0.7549 -0.1192
 6252TIP3   OH218761   2.523   1.709   1.874  0.0505  0.1031  0.2227
 6252TIP3    H118762   2.465   1.643   1.836  0.2408  0.4298 -0.6470
 6252TIP3    H218763   2.595   1.659   1.911 -0.9938 -0.3538  1.7531
 6253TIP3   OH218764   5.174   5.555   0.321 -0.2562  0.1916 -0.0109
 6253TIP3    H118765   5.238   5.483   0.322  0.5699  0.8826 -1.0750
 6253TIP3    H218766   5.089   5.511   0.333  0.3737 -0.7522  1.2718
 6254TIP3   OH218767   2.677   2.356   0.655  0.4848  0.2919  0.3121
 6254TIP3    H118768   2.729   2.401   0.588 -0.3995  0.8824  0.0080
 6254TIP3    H218769   2.587   2.385   0.639  0.4281  1.7038  2.7282
 6255TIP3   OH218770   1.445   0.712   2.484 -0.2590  0.2900 -0.5650
 6255TIP3    H118771   1.439   0.768   2.562  1.6275 -0.2008 -0.0179
 6255TIP3    H218772   1.424   0.770   2.411  0.5121  1.4162  0.0837
 6256TIP3   OH218773   2.770   0.048   2.958 -0.3869 -0.2424 -0.8879
 6256TIP3    H118774   2.814   0.055   2.874  0.6804  1.8513 -0.2380
 6256TIP3    H218775   2.826  -0.009   3.010 -1.5944 -2.4136 -1.8477
 6257TIP3   OH218776   4.096   0.748   2.479 -0.3795  0.2193  0.1339
 6257TIP3    H118777   4.084   0.832   2.523 -2.7865  0.9478 -1.6879
 6257TIP3    H218778   4.139   0.769   2.396  0.9159 -0.6764  0.5362
 6258TIP3   OH218779   2.825   0.749   1.761 -0.2443 -0.2114 -0.4152
 6258TIP3    H118780   2.881   0.706   1.697  1.2827  0.5557  0.3384
 6258TIP3    H218781   2.823   0.690   1.836 -0.3061 -0.1579 -0.3737
 6259TIP3   OH218782   4.707   1.021   2.746 -0.1449  0.0110 -0.7658
 6259TIP3    H118783   4.631   0.965   2.735  0.2509 -0.2772 -2.1714
 6259TIP3    H218784   4.722   1.060   2.660  0.5990  0.9792 -0.2297
 6260TIP3   OH218785   3.825   0.406   3.401 -0.0845  0.3479  0.1238
 6260TIP3    H118786   3.756   0.452   3.450  0.4916 -1.4357  2.8142
 6260TIP3    H218787   3.777   0.342   3.348 -0.6128  0.4457  0.4687
 6261TIP3   OH218788   5.743   4.171   3.800 -0.6414 -0.5046  0.2328
 6261TIP3    H118789   5.814   4.171   3.736 -0.2979 -0.9461  0.6036
 6261TIP3    H218790   5.772   4.232   3.868 -1.5785  0.9471 -0.6393
 6262TIP3   OH218791   1.590   5.574   4.494 -0.0925 -0.4794  0.3387
 6262TIP3    H118792   1.539   5.528   4.561 -0.8404 -1.6347 -0.9481
 6262TIP3    H218793   1.659   5.512   4.470 -0.3500 -0.4531 -0.5309
 6263TIP3   OH218794   1.790   4.345   2.413 -0.0772  0.2788  0.1713
 6263TIP3    H118795   1.766   4.436   2.428  1.3505  0.5613  0.9055
 6263TIP3    H218796   1.854   4.325   2.481 -0.0488 -1.1519 -0.2320
 6264TIP3   OH218797   2.168   2.743   3.347  0.2482 -0.2549  0.3855
 6264TIP3    H118798   2.196   2.656   3.319  0.5737  0.2705 -0.9720
 6264TIP3    H218799   2.233   2.769   3.412  0.8101 -0.5437 -0.0537
 6265TIP3   OH218800   1.060   2.189   1.294  0.1725  0.6775  0.4627
 6265TIP3    H118801   0.985   2.217   1.243  0.7672 -1.1956 -1.5901
 6265TIP3    H218802   1.030   2.112   1.342  0.8813 -0.5012 -0.8977
 6266TIP3   OH218803   0.171   0.338   5.125 -0.0093 -1.0410 -0.2421
 6266TIP3    H118804   0.215   0.402   5.181 -1.1499  0.0404 -0.5199
 6266TIP3    H218805   0.085   0.325   5.167  0.2358 -2.4833 -0.1430
 6267TIP3   OH218806   0.174   1.892   1.984 -0.1629  0.5868 -0.0259
 6267TIP3    H118807   0.188   1.804   2.020 -1.3241  1.0167  1.5961
 6267TIP3    H218808   0.260   1.933   1.984  0.1411 -0.0364  0.6627
 6268TIP3   OH218809   5.454   3.922   3.003  0.4902  0.1460  0.2504
 6268TIP3    H118810   5.523   3.988   3.003 -1.0827  1.8816 -0.3406
 6268TIP3    H218811   5.373   3.972   2.990 -0.7086 -1.9673 -0.9971
 6269TIP3   OH218812   0.073   2.867   3.734 -0.7895 -0.2780 -0.7417
 6269TIP3    H118813   0.121   2.911   3.664 -0.1558  0.1373 -0.0584
 6269TIP3    H218814   0.141   2.832   3.792 -1.2171  2.1136  1.3635
 6270TIP3   OH218815   1.081   1.292   3.330  0.6087 -0.4007 -0.0092
 6270TIP3    H118816   1.167   1.318   3.297  1.6499 -0.5435  2.3603
 6270TIP3    H218817   1.080   1.196   3.321  0.0636 -0.2969 -1.3410
 6271TIP3   OH218818   5.676   0.753   1.887 -0.1044  0.0810 -0.4084
 6271TIP3    H118819   5.658   0.659   1.891  0.6093 -0.0992 -1.0024
 6271TIP3    H218820   5.744   0.760   1.820  0.9662  0.8482  0.7241
 6272TIP3   OH218821   3.467   3.768   1.026  0.6901 -0.2831 -0.2940
 6272TIP3    H118822   3.430   3.692   1.071  0.2822  0.3493  0.4671
 6272TIP3    H218823   3.393   3.826   1.011  1.2116  0.6039  0.4511
 6273TIP3   OH218824   1.750   2.524   0.496  0.1624 -0.7096  1.0034
 6273TIP3    H118825   1.832   2.510   0.449  1.1889  1.6273  1.8953
 6273TIP3    H218826   1.777   2.564   0.579 -1.8884  0.8809  0.9904
 6274TIP3   OH218827   4.278   2.325   4.314  0.2944  0.9388  0.3051
 6274TIP3    H118828   4.307   2.296   4.228 -0.7476  1.3902 -0.2096
 6274TIP3    H218829   4.194   2.367   4.298  1.0279  2.8585  1.2314
 6275TIP3   OH218830   2.697   3.240   5.151 -0.3736 -0.1479 -0.3903
 6275TIP3    H118831   2.785   3.211   5.174  0.5740  1.4842 -1.7078
 6275TIP3    H218832   2.668   3.179   5.083 -0.5515 -1.0931  0.5232
 6276TIP3   OH218833   5.644   3.511   4.749 -0.1951  0.3526  0.0967
 6276TIP3    H118834   5.604   3.433   4.788 -0.8641  0.2653 -0.7213
 6276TIP3    H218835   5.578   3.579   4.757 -0.8139  0.0397 -1.8382
 6277TIP3   OH218836   3.676   0.738   2.468  0.3431 -0.3775  0.3567
 6277TIP3    H118837   3.584   0.730   2.496  0.0196  0.5860 -0.4048
 6277TIP3    H218838   3.686   0.830   2.444  1.4010 -0.5701  0.0256
 6278TIP3   OH218839   5.413   1.276   3.182 -0.1581 -0.5183  0.2780
 6278TIP3    H118840   5.377   1.334   3.114  0.0993 -1.7428 -0.9416
 6278TIP3    H218841   5.506   1.299   3.185  0.0492 -1.1689 -0.5672
 6279TIP3   OH218842   3.544   4.591   2.607  0.5193  0.4304 -0.5261
 6279TIP3    H118843   3.478   4.660   2.616  0.3868  0.1940  0.4197
 6279TIP3    H218844   3.538   4.541   2.689  0.3728 -0.9104 -1.3156
 6280TIP3   OH218845   5.607   1.441   1.244 -0.0887 -0.0498  0.2998
 6280TIP3    H118846   5.543   1.377   1.274  0.6311 -1.6889 -1.4694
 6280TIP3    H218847   5.691   1.408   1.277  0.2232  0.3259 -0.1035
 6281TIP3   OH218848   6.026   3.554   2.868 -0.0015  0.1590 -0.2744
 6281TIP3    H118849   5.983   3.525   2.949  0.1595  1.1031  0.1662
 6281TIP3    H218850   5.965   3.616   2.829  0.9705  1.6318  0.4321
 6282TIP3   OH218851   2.004   3.961   0.669 -0.0712 -0.4237 -0.8556
 6282TIP3    H118852   2.036   3.896   0.731  0.7237 -0.0195 -0.8262
 6282TIP3    H218853   1.960   4.027   0.723  1.5992  0.5111 -0.5676
 6283TIP3   OH218854   4.213   5.607   3.181  0.1160  0.2048  0.1653
 6283TIP3    H118855   4.287   5.546   3.184 -1.1760 -1.5609 -1.6319
 6283TIP3    H218856   4.136   5.552   3.171 -1.3069  2.0769  0.2560
 6284TIP3   OH218857   6.272   2.433   1.518  0.4189  0.4855 -0.7941
 6284TIP3    H118858   6.331   2.360   1.537  1.2027  0.6069 -2.5734
 6284TIP3    H218859   6.187   2.405   1.552  1.2301 -0.2059  0.7248
 6285TIP3   OH218860   0.785   3.908   0.161  0.1151  0.4927  0.5085
 6285TIP3    H118861   0.766   3.815   0.171  0.3380  0.4503  0.5433
 6285TIP3    H218862   0.703   3.952   0.184 -0.1844  0.2820 -0.1277
 6286TIP3   OH218863   5.402   0.239   2.369  0.3621 -0.3456  0.0691
 6286TIP3    H118864   5.439   0.158   2.334 -0.2742 -1.7408  2.3701
 6286TIP3    H218865   5.309   0.221   2.379 -0.0541  1.2188 -0.7168
 6287TIP3   OH218866   2.791   4.401   4.298 -0.2762 -0.1138 -0.1901
 6287TIP3    H118867   2.719   4.341   4.318 -1.3395  1.4075  0.7705
 6287TIP3    H218868   2.757   4.457   4.228 -0.6318  1.5560  1.2517
 6288TIP3   OH218869   4.413   4.744   0.369  0.3999 -0.1995 -0.4686
 6288TIP3    H118870   4.507   4.731   0.364  0.2597 -1.1798 -0.7652
 6288TIP3    H218871   4.375   4.659   0.346 -0.5397 -0.0999  0.5912
 6289TIP3   OH218872   1.655   0.207   4.587 -0.1356  0.0915  0.4892
 6289TIP3    H118873   1.585   0.162   4.539  0.0652 -0.2865  0.5431
 6289TIP3    H218874   1.679   0.145   4.656  1.3299 -0.4680 -0.4749
 6290TIP3   OH218875   5.444   0.102   0.840  0.1815  0.4789 -0.0967
 6290TIP3    H118876   5.431   0.038   0.770  0.9586 -1.5327  1.4777
 6290TIP3    H218877   5.519   0.154   0.811 -0.1019  0.3233 -1.1679
 6291TIP3   OH218878   4.443   1.078   5.050  0.2140  0.3384  0.0592
 6291TIP3    H118879   4.357   1.073   5.092  0.7921 -1.2699  1.1555
 6291TIP3    H218880   4.431   1.142   4.980 -2.6553 -1.7187 -1.5912
 6292TIP3   OH218881   2.205   5.806   3.872  0.1526  0.3347 -0.0135
 6292TIP3    H118882   2.278   5.759   3.914  0.8197 -0.2560 -1.7379
 6292TIP3    H218883   2.236   5.896   3.866  0.1317  0.3851  0.5766
 6293TIP3   OH218884   5.173   3.755   4.799 -0.1869 -0.0696 -0.7810
 6293TIP3    H118885   5.160   3.763   4.893  2.2560  0.7232 -0.4655
 6293TIP3    H218886   5.148   3.664   4.780  2.1982 -1.2782  1.2253
 6294TIP3   OH218887   6.089   2.974   4.142  0.2220 -0.4377  0.0528
 6294TIP3    H118888   6.185   2.977   4.149  0.1724  1.0435  0.3852
 6294TIP3    H218889   6.071   2.891   4.098  1.5523 -1.5687  1.5352
 6295TIP3   OH218890   2.239   5.867   0.489 -0.0607 -0.2512  0.2742
 6295TIP3    H118891   2.242   5.917   0.408  1.2853  0.1179  0.5356
 6295TIP3    H218892   2.185   5.791   0.467 -0.5853  0.3627 -0.6565
 6296TIP3   OH218893   2.096   2.652   4.910 -0.3817  0.1755  0.0187
 6296TIP3    H118894   2.139   2.718   4.855  2.2969 -0.7852  0.8099
 6296TIP3    H218895   2.116   2.679   5.000  0.8703 -1.7156  0.3551
 6297TIP3   OH218896   6.229   0.508   3.417 -0.1699  0.2789 -0.0863
 6297TIP3    H118897   6.202   0.599   3.427  0.1649  0.2163  1.7913
 6297TIP3    H218898   6.317   0.505   3.454 -0.1683 -0.8044 -0.1372
 6298TIP3   OH218899   1.513   3.272   2.999  0.2683  0.4535  0.0811
 6298TIP3    H118900   1.593   3.255   2.949 -1.4383  0.2014 -2.8027
 6298TIP3    H218901   1.481   3.356   2.966 -0.2541  0.9907  1.8258
 6299TIP3   OH218902   0.215   2.701   1.578  0.0715  0.1654  0.2254
 6299TIP3    H118903   0.236   2.663   1.664 -1.2408 -0.4060  0.3095
 6299TIP3    H218904   0.265   2.647   1.516  0.0096 -0.2542  0.5319
 6300TIP3   OH218905   1.268   4.869   2.656 -0.1741 -0.1331  0.3778
 6300TIP3    H118906   1.272   4.857   2.561  1.1093 -0.4363  0.4502
 6300TIP3    H218907   1.231   4.787   2.689  0.1979 -0.3786  0.1955
 6301TIP3   OH218908   3.785   3.843   4.741  0.0640  0.5735  0.3816
 6301TIP3    H118909   3.802   3.934   4.719  2.4469 -0.2407 -1.6543
 6301TIP3    H218910   3.742   3.807   4.663 -0.9770 -0.0544  1.2120
 6302TIP3   OH218911   4.902   4.030   3.810 -0.4990 -0.0459 -0.6084
 6302TIP3    H118912   4.958   4.014   3.734  0.5518  0.1630  0.0937
 6302TIP3    H218913   4.835   3.962   3.805  1.2579 -1.9109 -0.1496
 6303TIP3   OH218914   4.440   1.285   0.877 -0.2774 -0.1773  0.2518
 6303TIP3    H118915   4.377   1.348   0.843 -0.6543 -1.2460 -1.1589
 6303TIP3    H218916   4.524   1.313   0.841  0.1542  1.3618  2.2931
 6304TIP3   OH218917   1.499   2.550   4.371  0.3799  0.7759  0.5625
 6304TIP3    H118918   1.458   2.595   4.297 -0.9616 -0.4271  0.5413
 6304TIP3    H218919   1.454   2.586   4.448  0.0239  0.2262  0.6138
 6305TIP3   OH218920   5.483   4.363   2.878  0.5758 -0.3641  0.2949
 6305TIP3    H118921   5.429   4.435   2.846  2.5014  1.4136  0.8029
 6305TIP3    H218922   5.516   4.319   2.800 -0.1566 -0.3338 -0.0298
 6306TIP3   OH218923   3.649   2.582   4.745  0.1771  0.0326  0.2013
 6306TIP3    H118924   3.595   2.525   4.800 -0.4724  0.8685  0.4659
 6306TIP3    H218925   3.623   2.560   4.656 -1.2783  0.9998  0.3377
 6307TIP3   OH218926   3.201   4.950   4.032  0.2630  0.1655  0.6624
 6307TIP3    H118927   3.140   4.934   4.104 -2.7698  0.9705 -1.5334
 6307TIP3    H218928   3.199   4.869   3.981 -1.8410  1.3180 -1.2806
 6308TIP3   OH218929   1.240   0.312   2.269 -0.0960  0.1543  0.0427
 6308TIP3    H118930   1.325   0.354   2.256  0.8458 -1.5617  0.3915
 6308TIP3    H218931   1.210   0.290   2.181 -0.9156  2.0414 -0.2088
 6309TIP3   OH218932   6.232   4.857   2.850 -0.0472  0.1593 -0.0681
 6309TIP3    H118933   6.303   4.915   2.823  0.6626 -1.2632 -1.3529
 6309TIP3    H218934   6.238   4.782   2.792 -1.9134 -0.5232  0.5415
 6310TIP3   OH218935   5.543   5.611   3.727  0.0151 -0.4609 -0.0501
 6310TIP3    H118936   5.453   5.588   3.748 -0.2332  0.7497  0.3294
 6310TIP3    H218937   5.592   5.590   3.806 -0.1012 -0.2927  0.0693
 6311TIP3   OH218938   5.250   3.373   2.615 -0.5252 -0.0018 -0.1715
 6311TIP3    H118939   5.280   3.333   2.533  0.2818 -0.0119  0.1225
 6311TIP3    H218940   5.301   3.454   2.622  1.7837 -1.4988  1.8699
 6312TIP3   OH218941   1.369   4.393   1.243  0.7742 -0.0119 -0.3496
 6312TIP3    H118942   1.297   4.451   1.270  0.7919  0.4370 -1.2183
 6312TIP3    H218943   1.379   4.331   1.315  1.8093  2.0276  1.3812
 6313TIP3   OH218944   1.952   1.295   1.219 -0.2009  0.1367 -0.3633
 6313TIP3    H118945   1.972   1.375   1.170  1.2681  0.2393  0.3608
 6313TIP3    H218946   1.944   1.324   1.310  2.4673 -0.7629  0.2635
 6314TIP3   OH218947   5.772   0.451   2.145  0.0327 -0.0513  0.0998
 6314TIP3    H118948   5.734   0.437   2.059 -1.2328 -1.1112  0.8018
 6314TIP3    H218949   5.734   0.534   2.175 -0.9999 -0.6111  0.3876
 6315TIP3   OH218950   6.102   1.782   3.125 -0.5099  0.1535  0.4803
 6315TIP3    H118951   6.074   1.869   3.152  0.0377  0.1433  1.1152
 6315TIP3    H218952   6.192   1.795   3.095 -0.7694 -0.0170 -0.3882
 6316TIP3   OH218953   3.760   0.274   2.180 -0.5380  0.5260 -0.2062
 6316TIP3    H118954   3.684   0.241   2.132 -0.1233  0.0006 -0.5254
 6316TIP3    H218955   3.745   0.368   2.189 -0.2380  0.7994 -2.1315
 6317TIP3   OH218956   1.008   5.422   1.383 -0.7232  0.9658 -0.6088
 6317TIP3    H118957   1.076   5.410   1.317 -0.6589 -3.0532 -0.0398
 6317TIP3    H218958   1.054   5.452   1.461  0.3498 -0.8369 -0.4973
 6318TIP3   OH218959   3.978   0.204   2.011  0.0352  0.2046 -0.3539
 6318TIP3    H118960   3.911   0.233   2.073 -0.0088  0.5033 -0.5412
 6318TIP3    H218961   3.976   0.108   2.018  1.2885  0.2703  1.4268
 6319TIP3   OH218962   1.982   5.478   4.939  0.5074  0.0300 -0.6567
 6319TIP3    H118963   2.018   5.416   4.876  1.2591  0.1915 -0.3894
 6319TIP3    H218964   1.888   5.481   4.919  0.6588 -0.3077 -1.4281
 6320TIP3   OH218965   4.711   5.335   3.394 -0.5613 -0.1844 -0.6447
 6320TIP3    H118966   4.698   5.241   3.381 -0.8257 -0.1069 -0.9562
 6320TIP3    H218967   4.637   5.363   3.448 -0.6950 -0.0874 -0.8734
 6321TIP3   OH218968   2.093   5.682   3.371 -0.5193 -0.6789  0.2039
 6321TIP3    H118969   2.153   5.651   3.439 -1.0930 -0.6377  0.7351
 6321TIP3    H218970   2.007   5.648   3.397 -1.1374  1.1272  0.6725
 6322TIP3   OH218971   1.022   4.323   3.235  0.5987  0.9498  0.3584
 6322TIP3    H118972   0.987   4.412   3.242 -0.9461  0.4696 -0.9262
 6322TIP3    H218973   1.048   4.314   3.144 -1.0846 -0.5571 -0.0156
 6323TIP3   OH218974   1.949   5.512   1.537 -0.4089 -0.7062 -0.8247
 6323TIP3    H118975   1.967   5.601   1.508  0.2312 -0.5007  0.1576
 6323TIP3    H218976   1.859   5.495   1.510  0.3262 -0.7995 -3.5276
 6324TIP3   OH218977   4.595   3.427   1.990 -0.7740  0.4177  0.4226
 6324TIP3    H118978   4.626   3.419   1.900  0.9099  1.0398  0.9224
 6324TIP3    H218979   4.666   3.470   2.037 -0.5866 -1.9742  2.5726
 6325TIP3   OH218980   5.742   2.363   2.564  0.2033  0.4091 -0.1246
 6325TIP3    H118981   5.688   2.313   2.503 -2.9627  0.0620  2.6230
 6325TIP3    H218982   5.680   2.425   2.605  2.5114  1.8885  1.4021
 6326TIP3   OH218983   4.282   3.336   2.435  0.2675 -0.1138  0.0456
 6326TIP3    H118984   4.324   3.255   2.466  1.2441  0.6561  0.8013
 6326TIP3    H218985   4.306   3.341   2.343  0.2237 -0.6728 -0.0006
 6327TIP3   OH218986   0.414   0.330   3.438  0.4122 -0.0890  0.0783
 6327TIP3    H118987   0.464   0.360   3.362  1.6485 -1.1496  0.4301
 6327TIP3    H218988   0.358   0.260   3.404  2.3202 -1.8709  0.4182
 6328TIP3   OH218989   1.971   1.902   1.899  0.2721  0.3759 -0.4994
 6328TIP3    H118990   2.009   1.990   1.904  2.0272 -0.2517 -1.5792
 6328TIP3    H218991   1.907   1.907   1.828  0.2306  0.8236 -0.4319
 6329TIP3   OH218992   1.351   3.162   4.844 -0.4193  0.3353 -0.3309
 6329TIP3    H118993   1.327   3.076   4.877 -2.2944  0.6050 -0.8648
 6329TIP3    H218994   1.330   3.223   4.915  2.0574  0.2915  0.5201
 6330TIP3   OH218995   5.900   4.187   5.043  0.6836  0.4466  0.0224
 6330TIP3    H118996   5.989   4.185   5.079  1.6017  1.8568 -1.9865
 6330TIP3    H218997   5.889   4.277   5.012 -1.7264  0.4841  0.7765
 6331TIP3   OH218998  -0.028   5.286   3.321  0.0167  0.3543  0.0130
 6331TIP3    H118999  -0.016   5.357   3.384 -1.4005  0.6181  0.0270
 6331TIP3    H219000   0.056   5.242   3.318 -0.0307 -0.0538  2.5757
 6332TIP3   OH219001   5.747   3.344   3.379 -0.1837  0.0243 -0.1009
 6332TIP3    H119002   5.813   3.321   3.313  0.4808  0.3020  0.4563
 6332TIP3    H219003   5.678   3.388   3.329 -0.3086 -0.9340 -0.8065
 6333TIP3   OH219004   5.123   4.014   3.981 -0.3246  0.0047  0.2506
 6333TIP3    H119005   5.047   4.030   3.926  0.5961  1.1617 -0.7470
 6333TIP3    H219006   5.118   4.080   4.050  0.7769  1.4644 -0.9687
 6334TIP3   OH219007   3.735   2.244   1.525 -0.4111 -0.2231 -0.1714
 6334TIP3    H119008   3.760   2.330   1.492 -2.1539  0.3826 -0.0366
 6334TIP3    H219009   3.765   2.182   1.459 -0.9918  0.6892 -1.3180
 6335TIP3   OH219010   4.185   1.947   4.425 -0.3420  0.3954 -0.3961
 6335TIP3    H119011   4.116   1.942   4.359 -0.4754 -0.5268 -0.1940
 6335TIP3    H219012   4.258   1.898   4.387 -0.8932 -1.3589  0.6853
 6336TIP3   OH219013   3.346   4.378   0.936 -0.1893  0.6970 -0.3134
 6336TIP3    H119014   3.393   4.461   0.936 -0.7473  1.0299  0.8722
 6336TIP3    H219015   3.260   4.398   0.973 -0.1385 -0.4940  0.5264
 6337TIP3   OH219016   1.209   4.302   4.113 -0.0367  0.0063 -0.1451
 6337TIP3    H119017   1.281   4.332   4.058  0.7281 -0.6978  0.4493
 6337TIP3    H219018   1.166   4.383   4.142 -0.2064  0.3889 -1.4237
 6338TIP3   OH219019   4.898   1.538   2.793 -0.2419 -0.4781 -0.1937
 6338TIP3    H119020   4.873   1.526   2.702  1.9615 -2.2089 -0.6686
 6338TIP3    H219021   4.989   1.508   2.797 -0.1138 -0.0133  2.4873
 6339TIP3   OH219022   4.776   5.768   2.902  0.1727 -0.0407 -0.1815
 6339TIP3    H119023   4.810   5.702   2.842 -0.2049 -0.1200 -0.3141
 6339TIP3    H219024   4.831   5.760   2.980 -0.1200 -0.7937 -0.0390
 6340TIP3   OH219025   1.657   5.396   4.117 -0.5744  0.3564  0.2229
 6340TIP3    H119026   1.627   5.325   4.060  0.5594 -2.5192  2.9717
 6340TIP3    H219027   1.636   5.366   4.205  1.5951  2.6463  1.6199
 6341TIP3   OH219028   6.309   5.974   5.042  0.3302  0.3305 -0.2558
 6341TIP3    H119029   6.398   6.000   5.018  0.5092  0.2957  0.3508
 6341TIP3    H219030   6.310   5.969   5.137 -0.6502  1.5312 -0.1548
 6342TIP3   OH219031   4.184   4.840   4.377  0.4746  0.3263  0.4304
 6342TIP3    H119032   4.112   4.881   4.423 -0.5938 -0.8295 -0.1465
 6342TIP3    H219033   4.151   4.824   4.289  1.5347  0.0489  0.0612
 6343TIP3   OH219034   5.123   4.444   5.030  0.0298  0.6730 -0.1941
 6343TIP3    H119035   5.114   4.350   5.017 -0.1929  0.6674  0.0098
 6343TIP3    H219036   5.217   4.461   5.017 -0.2282  0.7443 -2.4142
 6344TIP3   OH219037   4.756   3.746   0.212  0.3332  0.0577  0.2758
 6344TIP3    H119038   4.677   3.774   0.166 -0.0749 -0.8020  0.4459
 6344TIP3    H219039   4.827   3.793   0.167 -0.3763  1.9982  1.0686
 6345TIP3   OH219040   4.131   1.697   0.014 -0.1349 -0.0348  0.1115
 6345TIP3    H119041   4.066   1.628   0.011 -0.8048  0.5445  0.8357
 6345TIP3    H219042   4.098   1.759   0.080  1.4278 -0.0147  0.9209
 6346TIP3   OH219043   3.483   3.599   2.910 -0.2368 -0.3450 -0.0630
 6346TIP3    H119044   3.567   3.636   2.937 -0.3249 -0.2008  0.0143
 6346TIP3    H219045   3.458   3.541   2.982  1.0308 -2.4040 -1.1915
 6347TIP3   OH219046   3.581   2.721   0.477  0.1580  0.2781 -0.1476
 6347TIP3    H119047   3.566   2.786   0.408  1.3723  1.4898  0.6779
 6347TIP3    H219048   3.549   2.764   0.557  0.8501 -0.1886  0.3871
 6348TIP3   OH219049   0.170   3.017   1.420 -0.0594  0.3049 -0.5197
 6348TIP3    H119050   0.205   3.099   1.455 -2.5521  1.3742 -0.3245
 6348TIP3    H219051   0.125   2.977   1.494 -0.4123 -0.3458 -1.0735
 6349TIP3   OH219052   2.212   1.580   0.381 -0.8353  0.1030  0.0690
 6349TIP3    H119053   2.231   1.491   0.351 -0.9784  0.7925 -2.2457
 6349TIP3    H219054   2.296   1.626   0.376 -1.0618  0.4898 -0.2519
 6350TIP3   OH219055   0.536   3.883   4.192  0.2036 -0.2256 -0.2905
 6350TIP3    H119056   0.473   3.883   4.120  0.6453 -0.8664 -0.6932
 6350TIP3    H219057   0.622   3.892   4.150  0.5699 -1.8794  0.0258
 6351TIP3   OH219058   3.601   3.812   0.515 -0.0138  0.4253 -0.1519
 6351TIP3    H119059   3.546   3.888   0.533  0.9202  0.6855  1.8472
 6351TIP3    H219060   3.605   3.764   0.598  2.3103  0.1414 -0.3576
 6352TIP3   OH219061   1.487   2.155   4.382 -0.1368 -0.3179 -0.0908
 6352TIP3    H119062   1.540   2.076   4.390 -0.2445 -0.3178  0.6737
 6352TIP3    H219063   1.512   2.192   4.297  1.3991 -0.1046  0.4082
 6353TIP3   OH219064   0.453   5.092   2.940  0.0888  0.1030  0.2365
 6353TIP3    H119065   0.360   5.080   2.924 -0.1695  1.6898  0.3923
 6353TIP3    H219066   0.460   5.107   3.034  0.6454 -1.0542  0.3983
 6354TIP3   OH219067   5.267   4.806   1.953 -0.5234  0.5108  0.2764
 6354TIP3    H119068   5.357   4.780   1.971 -0.9493 -0.5285  1.0311
 6354TIP3    H219069   5.239   4.751   1.880 -1.4845 -1.3990  1.9920
 6355TIP3   OH219070   1.765   3.814   3.534  0.2772 -0.1890 -0.1958
 6355TIP3    H119071   1.704   3.752   3.494  0.8072 -1.4240  0.8418
 6355TIP3    H219072   1.741   3.816   3.627  0.5515  0.8287 -0.1358
 6356TIP3   OH219073   0.247   0.397   0.206  0.1254 -0.1504 -0.5082
 6356TIP3    H119074   0.170   0.431   0.251  0.1509 -0.5108 -0.1886
 6356TIP3    H219075   0.322   0.435   0.253  0.1445  0.5144 -1.0637
 6357TIP3   OH219076   4.615   5.369   1.295 -0.1010 -0.1749  0.0984
 6357TIP3    H119077   4.656   5.286   1.269  0.1920 -0.5745  1.7427
 6357TIP3    H219078   4.546   5.344   1.356 -1.1146  0.7042 -0.6348
 6358TIP3   OH219079   5.427   4.286   3.587  0.0741 -0.5728 -0.1372
 6358TIP3    H119080   5.364   4.329   3.529  0.7224 -0.4392 -0.7622
 6358TIP3    H219081   5.373   4.235   3.648 -0.6165 -0.8758 -0.9843
 6359TIP3   OH219082   5.027   4.217   2.772 -0.4432  0.5209 -0.2721
 6359TIP3    H119083   4.997   4.209   2.863  0.8728 -0.8695  0.0964
 6359TIP3    H219084   4.957   4.178   2.720  0.3157 -2.1810  0.5199
 6360TIP3   OH219085   6.290   5.873   3.771 -0.0118 -0.2435  0.5983
 6360TIP3    H119086   6.196   5.858   3.761  0.1810 -0.3364 -1.6639
 6360TIP3    H219087   6.324   5.788   3.800 -0.5993 -0.2559  1.2834
 6361TIP3   OH219088   4.579   4.967   4.018 -0.3358  0.3920  0.6041
 6361TIP3    H119089   4.570   4.999   3.928  0.5629 -1.1799 -0.0833
 6361TIP3    H219090   4.661   4.918   4.017 -0.7661 -0.3875  2.0676
 6362TIP3   OH219091   5.205   4.230   0.190 -0.6619  1.1564 -0.3403
 6362TIP3    H119092   5.219   4.226   0.095 -0.1547 -0.0899 -0.2367
 6362TIP3    H219093   5.257   4.157   0.225 -0.2057  2.0736  0.9746
 6363TIP3   OH219094   6.195   4.564   4.913  0.9130  0.0118  0.2237
 6363TIP3    H119095   6.152   4.625   4.854  1.9284  0.5833  0.0515
 6363TIP3    H219096   6.230   4.618   4.984  0.8783 -0.5046  0.6475
 6364TIP3   OH219097   0.477   0.529   4.675 -0.3950  0.1378  0.1494
 6364TIP3    H119098   0.424   0.453   4.654  0.2004 -0.3817  0.4984
 6364TIP3    H219099   0.458   0.592   4.605 -0.8406 -0.3505 -0.1721
 6365TIP3   OH219100   0.795   1.815   0.910 -0.1811 -0.3177 -0.1837
 6365TIP3    H119101   0.844   1.735   0.895  0.9473  0.1256  0.9406
 6365TIP3    H219102   0.827   1.876   0.844 -1.4080 -0.9029 -1.3734
 6366TIP3   OH219103   4.881   4.218   3.007  0.1524  0.8192 -0.0930
 6366TIP3    H119104   4.803   4.272   3.000  0.1444  0.8248  0.0276
 6366TIP3    H219105   4.914   4.236   3.095  0.3365  0.8817 -0.1756
 6367TIP3   OH219106   4.343   1.537   2.269 -0.3197  0.6930  0.2026
 6367TIP3    H119107   4.313   1.459   2.224 -0.1106  0.8895 -0.2865
 6367TIP3    H219108   4.340   1.514   2.362  3.2183 -1.2353  0.0103
 6368TIP3   OH219109   5.470   1.641   3.180  0.2625  0.0100  0.0973
 6368TIP3    H119110   5.419   1.586   3.120 -1.5895  0.0498  1.5451
 6368TIP3    H219111   5.470   1.727   3.138 -2.5473  0.4861  0.8692
 6369TIP3   OH219112   3.536   1.790   4.590 -0.8072 -0.3115  0.2241
 6369TIP3    H119113   3.581   1.710   4.561 -0.6543  0.3395 -1.4410
 6369TIP3    H219114   3.445   1.763   4.603 -0.7588 -0.7618 -0.3444
 6370TIP3   OH219115   6.255   4.397   1.487 -0.4145 -0.0281  0.3697
 6370TIP3    H119116   6.274   4.391   1.393 -0.4181  2.0939  0.1765
 6370TIP3    H219117   6.240   4.491   1.502 -1.6686 -0.4811  2.2655
 6371TIP3   OH219118   2.216   0.730   0.443  0.1275 -0.6126  0.3468
 6371TIP3    H119119   2.248   0.642   0.460 -1.2736 -1.0725  0.7761
 6371TIP3    H219120   2.130   0.716   0.402  0.6935  0.5371 -1.3251
 6372TIP3   OH219121   4.222   4.439   2.539 -0.3016 -0.0095 -0.6453
 6372TIP3    H119122   4.227   4.438   2.443 -0.7642 -2.2233 -0.7037
 6372TIP3    H219123   4.136   4.474   2.558 -0.8308 -1.0002 -1.1236
 6373TIP3   OH219124   4.088   2.262   3.724 -0.0990 -0.1778  0.0361
 6373TIP3    H119125   4.153   2.262   3.795 -0.1220  0.7622  0.0708
 6373TIP3    H219126   4.139   2.242   3.645  0.5678  2.0909 -0.1834
 6374TIP3   OH219127   4.162   0.016   1.658  0.4140  0.0523  0.4809
 6374TIP3    H119128   4.223   0.059   1.718 -0.2779  1.7930  0.0193
 6374TIP3    H219129   4.098   0.084   1.637 -1.0524 -1.3857  0.0745
 6375TIP3   OH219130   3.401   1.431   1.403  0.3958  0.0553  0.7324
 6375TIP3    H119131   3.475   1.387   1.444  1.7945  1.9592  0.3915
 6375TIP3    H219132   3.428   1.522   1.397 -1.0937  0.4242 -1.4358
 6376TIP3   OH219133   4.034   5.681   4.395 -0.3990  0.6171  0.3062
 6376TIP3    H119134   4.073   5.768   4.403  0.9654 -0.0188  0.7031
 6376TIP3    H219135   4.010   5.674   4.302 -3.7973  2.7395  0.8248
 6377TIP3   OH219136   3.997   0.575   4.101 -0.4115 -0.0187  1.1729
 6377TIP3    H119137   3.933   0.506   4.118 -0.8059  0.0398  0.0469
 6377TIP3    H219138   4.015   0.613   4.187 -3.1223  1.0211  1.3994
 6378TIP3   OH219139   1.679   5.172   4.897 -0.1255 -0.3325 -0.5261
 6378TIP3    H119140   1.650   5.213   4.816 -0.1123  0.5304 -0.1051
 6378TIP3    H219141   1.605   5.182   4.957  1.2793  2.8810  0.9148
 6379TIP3   OH219142   4.911   1.762   3.666  0.4087  0.1751 -0.3464
 6379TIP3    H119143   4.998   1.793   3.640  0.6185  0.0086  0.1459
 6379TIP3    H219144   4.860   1.764   3.586  0.4520  1.6826 -0.3633
 6380TIP3   OH219145   2.566   0.872   2.352 -0.1622 -0.2858 -0.3068
 6380TIP3    H119146   2.479   0.834   2.358 -0.6486  0.8401  0.1458
 6380TIP3    H219147   2.578   0.891   2.259 -1.0044  0.8630 -0.2016
 6381TIP3   OH219148   3.723   1.221   2.069  0.3801 -0.2392  0.2886
 6381TIP3    H119149   3.700   1.189   1.982 -1.1426  0.4205  0.4187
 6381TIP3    H219150   3.689   1.311   2.071 -0.7799 -0.6595  1.9819
 6382TIP3   OH219151   1.127   2.137   2.670 -0.5628  0.2128 -0.0688
 6382TIP3    H119152   1.159   2.099   2.588  0.7790 -0.8736  0.9134
 6382TIP3    H219153   1.043   2.092   2.686  0.3915 -1.4848  0.4243
 6383TIP3   OH219154   4.680   3.342   3.709 -0.2668  0.3613 -0.9617
 6383TIP3    H119155   4.771   3.371   3.715 -0.3725  0.8379 -1.5907
 6383TIP3    H219156   4.659   3.348   3.615 -0.8462 -0.0538 -0.8656
 6384TIP3   OH219157   1.043   5.636   4.980  0.1938  0.2797 -0.5767
 6384TIP3    H119158   1.014   5.712   4.930 -3.6830 -1.0228 -0.6468
 6384TIP3    H219159   1.067   5.572   4.912  0.3739  0.3744 -0.6031
 6385TIP3   OH219160   4.024   1.689   4.545  0.1776  0.0451  0.2066
 6385TIP3    H119161   4.004   1.599   4.519 -1.2865  0.5479 -0.5194
 6385TIP3    H219162   3.976   1.743   4.482 -1.8815  1.3450  2.6796
 6386TIP3   OH219163   4.561   0.282   0.372  0.2666  0.3204  0.5102
 6386TIP3    H119164   4.631   0.342   0.397  0.3480 -0.3582  1.9834
 6386TIP3    H219165   4.481   0.333   0.385  0.4419  1.0828 -1.1349
 6387TIP3   OH219166   2.337   4.502   1.410  0.1477 -0.3593 -0.3489
 6387TIP3    H119167   2.385   4.496   1.328 -0.0092 -0.3306 -0.4435
 6387TIP3    H219168   2.404   4.512   1.477  0.3334 -1.2581 -0.3814
 6388TIP3   OH219169   2.779   1.368   0.854 -0.0754  0.2765  0.4941
 6388TIP3    H119170   2.757   1.344   0.945 -0.1031  1.4961  0.8342
 6388TIP3    H219171   2.726   1.310   0.800 -0.5681 -0.0153  1.2760
 6389TIP3   OH219172   5.386   4.602   4.391  0.3291  0.5993 -0.3358
 6389TIP3    H119173   5.318   4.538   4.370 -0.7855  1.2108  1.1829
 6389TIP3    H219174   5.468   4.560   4.366 -0.5059 -0.7195 -0.9469
 6390TIP3   OH219175   2.706   3.009   4.852  0.1193  0.1866  0.1599
 6390TIP3    H119176   2.688   2.915   4.843 -1.2052  0.3463  0.9677
 6390TIP3    H219177   2.802   3.014   4.858  0.3645 -0.9236 -1.7332
 6391TIP3   OH219178   2.054   4.994   3.860 -0.9543  0.5169 -0.2527
 6391TIP3    H119179   2.075   5.070   3.913 -0.2029 -0.5326  1.0350
 6391TIP3    H219180   2.006   4.935   3.919 -1.4803 -0.0336 -1.1959
 6392TIP3   OH219181   1.264   0.620   2.116  0.0665 -0.1830 -0.4530
 6392TIP3    H119182   1.232   0.666   2.038 -0.2640 -1.8721 -1.3529
 6392TIP3    H219183   1.335   0.565   2.084  0.9673  0.2406  0.7486
 6393TIP3   OH219184   2.838   2.099   1.088  0.2029 -0.4389  0.2346
 6393TIP3    H119185   2.889   2.122   1.165  0.7103 -1.2784  0.1579
 6393TIP3    H219186   2.903   2.079   1.021 -0.2248  0.5731 -0.5207
 6394TIP3   OH219187   1.695   3.811   3.227  0.2303  0.4707  0.1313
 6394TIP3    H119188   1.779   3.804   3.181 -0.2302  0.5045 -0.7550
 6394TIP3    H219189   1.701   3.748   3.299  2.1085  2.5094  1.8816
 6395TIP3   OH219190   1.615   3.962   4.028 -0.1927  0.3459 -0.1516
 6395TIP3    H119191   1.628   3.942   3.935 -0.3726  1.1902 -0.3635
 6395TIP3    H219192   1.532   3.919   4.050 -1.3441  2.0041 -0.9916
 6396TIP3   OH219193   4.350   5.941   2.868  0.8228 -0.3496  0.1395
 6396TIP3    H119194   4.392   5.855   2.879  0.4852 -0.8520 -1.9317
 6396TIP3    H219195   4.418   5.995   2.828  0.2384 -0.4983 -1.1144
 6397TIP3   OH219196   3.783   5.121   4.766  0.2693 -0.4454  0.1508
 6397TIP3    H119197   3.796   5.046   4.824  2.6183  0.0919  0.4172
 6397TIP3    H219198   3.741   5.083   4.688 -0.2681 -1.6912  1.0119
 6398TIP3   OH219199   0.541   1.490   4.415  0.1893 -0.0866 -0.3892
 6398TIP3    H119200   0.547   1.582   4.439  1.1007 -0.0486 -0.7203
 6398TIP3    H219201   0.619   1.450   4.453 -0.6244 -0.9110  0.4859
 6399TIP3   OH219202   1.427   2.627   5.140 -0.2852  0.3613  0.1234
 6399TIP3    H119203   1.497   2.636   5.205 -0.1578 -0.0825  0.0497
 6399TIP3    H219204   1.369   2.702   5.156 -1.3233 -0.7799  2.0499
 6400TIP3   OH219205   4.737   5.953   3.753 -0.2891 -0.2010  0.1000
 6400TIP3    H119206   4.757   5.860   3.743  0.7064  0.1734 -1.7694
 6400TIP3    H219207   4.747   5.990   3.665  0.0100  1.8130  0.9247
 6401TIP3   OH219208   1.607   3.759   0.260  0.3319  0.3225  0.2397
 6401TIP3    H119209   1.700   3.779   0.257  0.0870  1.4880 -0.0924
 6401TIP3    H219210   1.600   3.673   0.218  1.1518  0.6601 -0.6397
 6402TIP3   OH219211   4.630   3.695   0.889  0.2121  0.0105 -0.2935
 6402TIP3    H119212   4.610   3.724   0.978 -0.6175 -0.3599 -0.3502
 6402TIP3    H219213   4.555   3.724   0.838  0.0674 -0.9374 -0.6290
 6403TIP3   OH219214   1.356   1.325   5.202 -0.6618 -0.0552 -0.1513
 6403TIP3    H119215   1.363   1.420   5.200 -0.5311  0.0169  2.0558
 6403TIP3    H219216   1.298   1.304   5.128 -1.4317  1.7999 -0.1296
 6404TIP3   OH219217   4.428   2.943   0.927 -0.2157 -0.7793  0.2904
 6404TIP3    H119218   4.425   3.004   0.854 -0.4307 -1.7104 -0.4905
 6404TIP3    H219219   4.521   2.934   0.948 -0.2331  0.5843  1.0946
 6405TIP3   OH219220   3.520   1.010   2.621 -0.3007 -0.4962  0.0435
 6405TIP3    H119221   3.457   1.081   2.606  0.2478 -0.2121 -1.0141
 6405TIP3    H219222   3.519   0.997   2.716  0.3065  1.5766  0.3791
 6406TIP3   OH219223   6.236   4.398   1.777  0.2528  0.0762 -1.0028
 6406TIP3    H119224   6.165   4.448   1.818  0.8744 -0.2390  0.5589
 6406TIP3    H219225   6.197   4.359   1.699 -0.7608  1.4365 -1.2072
 6407TIP3   OH219226   5.516   5.543   0.287  0.2397  0.1324  0.1298
 6407TIP3    H119227   5.560   5.470   0.242 -0.0703 -0.1812  0.3272
 6407TIP3    H219228   5.463   5.500   0.354  0.4503  0.5785  0.5809
 6408TIP3   OH219229   4.321   3.860   1.128 -0.0375  0.7591 -0.1246
 6408TIP3    H119230   4.252   3.916   1.094  1.2487  2.4221 -0.1738
 6408TIP3    H219231   4.303   3.854   1.222 -1.7799 -1.1710 -0.5265
 6409TIP3   OH219232   4.909   0.424   1.136 -0.2421  0.6386 -0.1512
 6409TIP3    H119233   4.986   0.402   1.083  0.0367 -2.0173  1.1839
 6409TIP3    H219234   4.842   0.449   1.073  0.6940 -0.4287 -1.6195
 6410TIP3   OH219235   6.248   2.120   1.370 -0.5079  0.3490  0.0773
 6410TIP3    H119236   6.200   2.165   1.300  0.2898  0.8374 -0.1630
 6410TIP3    H219237   6.339   2.121   1.341 -0.0881  1.0443  1.3679
 6411TIP3   OH219238   1.138   4.677   2.776 -0.6957 -0.3684 -0.4894
 6411TIP3    H119239   1.135   4.605   2.840 -2.6994 -0.6537 -0.8407
 6411TIP3    H219240   1.059   4.728   2.794  0.8653  1.9975 -0.0295
 6412TIP3   OH219241   3.493   3.928   1.831 -0.6255 -0.1040  0.6025
 6412TIP3    H119242   3.519   3.975   1.910 -0.1709 -1.2677  1.1688
 6412TIP3    H219243   3.553   3.853   1.827 -1.4101 -0.7104 -0.1962
 6413TIP3   OH219244   3.225   1.116   4.440  0.1199  0.4878  0.2540
 6413TIP3    H119245   3.160   1.090   4.505 -1.0274  1.5357 -0.4183
 6413TIP3    H219246   3.208   1.058   4.366  1.2758 -0.5520  0.7728
 6414TIP3   OH219247   2.581   2.778   2.073  1.0846  0.3458 -0.2621
 6414TIP3    H119248   2.502   2.752   2.025  0.0298  1.6723  0.6762
 6414TIP3    H219249   2.549   2.802   2.160  2.5342  0.9083  0.1429
 6415TIP3   OH219250   0.034   0.323   2.651  0.2294  0.2253  0.3106
 6415TIP3    H119251   0.075   0.240   2.625 -1.1116 -0.7798  1.2258
 6415TIP3    H219252  -0.059   0.310   2.633  0.2829  2.6483 -2.2193
 6416TIP3   OH219253   5.960   4.260   1.693  0.2103  0.5858 -0.5206
 6416TIP3    H119254   5.866   4.243   1.688  0.3384  0.0984 -1.4812
 6416TIP3    H219255   6.000   4.173   1.697  0.5328  0.7765  2.4289
 6417TIP3   OH219256   3.947   5.622   3.334  0.0100 -0.2112 -0.2028
 6417TIP3    H119257   3.984   5.542   3.297 -0.4763 -0.3344 -0.4292
 6417TIP3    H219258   3.872   5.592   3.386 -0.9226  0.2011 -1.2769
 6418TIP3   OH219259   4.534   2.345   1.332 -0.2760 -0.6732  1.0083
 6418TIP3    H119260   4.594   2.381   1.267  0.9299 -2.3784  1.0874
 6418TIP3    H219261   4.538   2.405   1.405  1.1977 -0.6185  0.9158
 6419TIP3   OH219262   2.729   4.593   3.609  0.1731  0.4621  0.3786
 6419TIP3    H119263   2.744   4.535   3.534 -0.7878  1.9331 -1.0111
 6419TIP3    H219264   2.810   4.643   3.618  0.0609  0.7344 -0.1054
 6420TIP3   OH219265   6.076   0.558   0.449  0.2394 -0.0463  0.4735
 6420TIP3    H119266   6.099   0.631   0.506  1.2409  0.2373 -0.2724
 6420TIP3    H219267   6.028   0.597   0.376  0.6807 -0.1311  0.1288
 6421TIP3   OH219268   0.551   4.020   0.796 -0.2363  0.2964 -0.1294
 6421TIP3    H119269   0.592   4.055   0.875 -1.1202  0.0589  0.4442
 6421TIP3    H219270   0.460   4.049   0.800 -0.6892 -1.0107 -0.2622
 6422TIP3   OH219271   5.100   2.939   4.758  0.3619 -0.4874 -0.4318
 6422TIP3    H119272   5.108   3.034   4.769 -2.6407 -0.1771 -0.1066
 6422TIP3    H219273   5.049   2.928   4.678 -0.2743 -1.7815  0.1267
 6423TIP3   OH219274   6.055   3.820   1.036 -0.2124  0.2734  1.3770
 6423TIP3    H119275   6.048   3.916   1.038  1.7372  0.4242  2.3316
 6423TIP3    H219276   5.964   3.790   1.036 -0.8846  2.1142  0.1922
 6424TIP3   OH219277   1.034   2.509   4.954  0.0527 -0.3357 -0.6869
 6424TIP3    H119278   0.977   2.474   5.022  0.0962  0.5780 -0.1564
 6424TIP3    H219279   1.082   2.434   4.920  1.4588 -0.5786  1.6378
 6425TIP3   OH219280   5.442   0.816   2.822  0.0055 -0.4234 -0.3998
 6425TIP3    H119281   5.506   0.747   2.802 -0.9569 -1.1385 -1.1045
 6425TIP3    H219282   5.362   0.788   2.779 -0.7518  0.5534  0.3173
 6426TIP3   OH219283   2.035   5.268   1.013 -0.3932  0.1698  0.5675
 6426TIP3    H119284   2.037   5.362   1.035 -0.9448  0.3895 -0.2758
 6426TIP3    H219285   2.123   5.237   1.032 -0.2487  0.8211  1.0138
 6427TIP3   OH219286   4.888   3.953   1.871 -0.5327  0.2554 -0.0719
 6427TIP3    H119287   4.835   3.976   1.947 -0.5899 -1.1086  0.3285
 6427TIP3    H219288   4.850   3.871   1.839  0.1166  0.2890 -0.9672
 6428TIP3   OH219289   2.097   2.201   3.965 -0.5303  0.3075  0.5151
 6428TIP3    H119290   2.136   2.159   3.889  1.0359  1.2557  0.7392
 6428TIP3    H219291   2.020   2.149   3.985 -0.2615 -0.7051 -0.9419
 6429TIP3   OH219292   3.835   0.786   3.436 -0.5058 -0.1669  0.3266
 6429TIP3    H119293   3.811   0.863   3.488  2.0950  1.0947 -0.1621
 6429TIP3    H219294   3.881   0.729   3.497  0.2805  0.1192  0.0099
 6430TIP3   OH219295   5.308   2.697   5.183  0.0555  0.2425 -0.8959
 6430TIP3    H119296   5.336   2.639   5.112  0.9779 -0.5517  0.0856
 6430TIP3    H219297   5.385   2.705   5.239 -0.5452  1.1611 -0.1791
 6431TIP3   OH219298   3.599   5.575   2.398  0.2408  0.1221  0.2197
 6431TIP3    H119299   3.585   5.564   2.492  0.1289 -1.4871  0.0368
 6431TIP3    H219300   3.643   5.495   2.370  1.4294  1.1027 -0.9001
 6432TIP3   OH219301   4.017   0.188   0.783  0.4171  0.0853  0.1239
 6432TIP3    H119302   3.996   0.156   0.871 -1.0971  0.0929 -0.1964
 6432TIP3    H219303   4.077   0.122   0.747  1.2045  0.1920  1.2305
 6433TIP3   OH219304   1.655   4.946   1.144  0.4432 -0.1915 -0.0291
 6433TIP3    H119305   1.600   5.001   1.089 -0.6707  1.0118  2.1355
 6433TIP3    H219306   1.677   4.871   1.089 -1.3809  0.4511 -1.7594
 6434TIP3   OH219307   5.138   2.094   3.020 -0.2417 -0.1159  0.5072
 6434TIP3    H119308   5.207   2.047   2.974  0.8417  0.6681  1.2902
 6434TIP3    H219309   5.080   2.126   2.950  0.9280  0.3761 -0.2722
 6435TIP3   OH219310   4.130   5.892   2.144  0.4723 -0.2257 -0.8627
 6435TIP3    H119311   4.149   5.927   2.057  2.2708 -1.6982 -1.1162
 6435TIP3    H219312   4.161   5.801   2.141 -1.2998 -0.9583  0.6931
 6436TIP3   OH219313   4.068   3.597   1.260  0.5495 -0.3141  0.8001
 6436TIP3    H119314   4.122   3.518   1.258  1.6628  0.4418 -0.3198
 6436TIP3    H219315   4.112   3.655   1.322  0.9118  0.2085  0.0715
 6437TIP3   OH219316   0.784   5.463   3.929  0.2979  0.2339 -0.4429
 6437TIP3    H119317   0.856   5.458   3.867  1.1888 -0.7771  0.6245
 6437TIP3    H219318   0.824   5.446   4.014 -1.3410 -1.5576  0.0647
 6438TIP3   OH219319   1.596   5.865   0.874  0.3223  0.3323  0.2954
 6438TIP3    H119320   1.687   5.882   0.849 -0.3996  0.2136 -2.8139
 6438TIP3    H219321   1.579   5.925   0.946  2.9643  0.0269  1.2745
 6439TIP3   OH219322   4.728   3.987   2.083 -0.1891  0.1274  0.2739
 6439TIP3    H119323   4.665   4.058   2.072  1.2437  1.7134  1.6504
 6439TIP3    H219324   4.691   3.933   2.153 -0.2231  0.8159  0.7961
 6440TIP3   OH219325   1.909   4.443   3.929 -0.0343  0.3630  0.6313
 6440TIP3    H119326   1.907   4.400   4.015 -1.1025 -1.1834 -0.1090
 6440TIP3    H219327   1.928   4.535   3.948  0.0069  0.0073  2.4950
 6441TIP3   OH219328   2.852   5.193   3.945 -0.4003  0.3675  0.1471
 6441TIP3    H119329   2.910   5.209   3.870  0.4441 -0.3034  0.6298
 6441TIP3    H219330   2.893   5.241   4.017  1.0287 -2.1234  1.1147
 6442TIP3   OH219331   1.249   5.114   0.545 -0.6874 -0.3601  0.0984
 6442TIP3    H119332   1.310   5.049   0.581 -1.7304 -0.1253  2.5476
 6442TIP3    H219333   1.293   5.198   0.558  0.0804 -0.4363 -1.7961
 6443TIP3   OH219334   2.694   4.394   4.930  0.2320  0.0205 -0.3793
 6443TIP3    H119335   2.679   4.484   4.959  1.8907  0.3228 -0.3993
 6443TIP3    H219336   2.615   4.347   4.958  0.3197  0.9907  1.6796
 6444TIP3   OH219337   5.442   3.307   1.390  0.0075 -0.2348 -0.1866
 6444TIP3    H119338   5.428   3.213   1.406  1.4283 -0.3714  0.4328
 6444TIP3    H219339   5.516   3.310   1.329 -1.0532  0.4723 -1.4719
 6445TIP3   OH219340   2.503   3.023   4.695 -0.0432  0.2752 -0.0842
 6445TIP3    H119341   2.577   3.026   4.756 -1.1355 -2.0955  1.4860
 6445TIP3    H219342   2.526   2.954   4.632  0.2153  1.3799 -1.2432
 6446TIP3   OH219343   1.887   1.443   3.355  0.2289  0.1708  0.1616
 6446TIP3    H119344   1.871   1.356   3.318 -1.1692 -1.5060  4.2415
 6446TIP3    H219345   1.936   1.427   3.436 -0.4720  3.1489  1.2986
 6447TIP3   OH219346   4.885   2.761   2.802 -0.5033 -0.8571 -0.1034
 6447TIP3    H119347   4.896   2.841   2.853  1.0875 -0.8659 -0.3730
 6447TIP3    H219348   4.866   2.694   2.867 -0.1676 -0.5654  0.2989
 6448TIP3   OH219349   4.538   2.844   4.987  0.2272  0.1439 -0.3161
 6448TIP3    H119350   4.560   2.763   5.032  1.9800  0.2597 -0.8629
 6448TIP3    H219351   4.598   2.847   4.913  1.2142  2.6031  0.4696
 6449TIP3   OH219352   0.796   0.878   0.953 -0.2829 -0.6002  0.0660
 6449TIP3    H119353   0.857   0.906   0.885 -0.0591  0.8224  0.8050
 6449TIP3    H219354   0.844   0.812   1.002  0.0676 -0.6401 -0.3235
 6450TIP3   OH219355   5.655   3.275   3.871 -0.6303 -0.1993  0.7815
 6450TIP3    H119356   5.661   3.223   3.950 -0.9940 -1.3865  0.0491
 6450TIP3    H219357   5.743   3.275   3.835 -0.7582 -0.8825  0.4455
 6451TIP3   OH219358   4.580   2.451   2.378  0.0568 -0.5739 -0.4213
 6451TIP3    H119359   4.511   2.431   2.441  0.7858 -0.0385  0.5835
 6451TIP3    H219360   4.545   2.424   2.294 -1.0087 -1.1704  0.1953
 6452TIP3   OH219361   2.280   1.475   2.488  0.1146  0.0418 -1.0172
 6452TIP3    H119362   2.296   1.490   2.395 -0.9686  0.0494 -1.2122
 6452TIP3    H219363   2.190   1.506   2.502 -0.9385 -2.8191 -0.6657
 6453TIP3   OH219364   1.276   4.826   4.114  0.2880  0.3782  0.1688
 6453TIP3    H119365   1.297   4.733   4.119 -0.4453  0.1817 -0.1691
 6453TIP3    H219366   1.317   4.865   4.191 -0.8808 -0.5296  1.2908
 6454TIP3   OH219367   4.547   2.527   0.977 -0.5118  0.1025  0.3702
 6454TIP3    H119368   4.628   2.529   0.926 -0.2335  0.0828  0.7966
 6454TIP3    H219369   4.573   2.562   1.063 -1.5086  2.4789 -0.2249
 6455TIP3   OH219370   0.539   1.559   3.808 -0.0110  0.2739  0.0918
 6455TIP3    H119371   0.458   1.543   3.856  0.0912  1.1483  0.5695
 6455TIP3    H219372   0.540   1.654   3.793  0.3123  0.1125 -1.0124
 6456TIP3   OH219373   6.276   0.141   3.029  0.4002  0.0794 -0.6582
 6456TIP3    H119374   6.369   0.141   3.053  0.2771  2.7413  0.1466
 6456TIP3    H219375   6.244   0.056   3.059  2.4696 -0.7361 -0.5747
 6457TIP3   OH219376   2.578   5.558   2.459 -0.2165 -0.5794 -0.0144
 6457TIP3    H119377   2.551   5.638   2.414 -2.5334 -2.2974 -2.0096
 6457TIP3    H219378   2.639   5.587   2.527 -1.1980  2.8679 -0.4215
 6458TIP3   OH219379   2.806   2.667   2.315  0.3031 -0.0716  0.1515
 6458TIP3    H119380   2.766   2.583   2.338 -1.0538  0.4150 -0.3053
 6458TIP3    H219381   2.898   2.657   2.339  0.4609 -2.1328 -1.0980
 6459TIP3   OH219382   4.822   1.447   1.487 -0.0714  0.1927  0.2500
 6459TIP3    H119383   4.914   1.468   1.503 -0.0637  0.1589  0.2485
 6459TIP3    H219384   4.793   1.401   1.566  0.5389 -1.8617 -0.6645
 6460TIP3   OH219385   4.048   1.483   4.117 -0.2419 -0.5711 -0.0372
 6460TIP3    H119386   4.050   1.468   4.212 -0.3830 -1.6188 -0.1814
 6460TIP3    H219387   4.032   1.576   4.107  1.4641 -0.1277  0.9846
 6461TIP3   OH219388   3.660   3.061   4.027  0.7488 -0.5089  0.2458
 6461TIP3    H119389   3.701   3.146   4.041  0.1220 -0.1675  0.0699
 6461TIP3    H219390   3.693   3.033   3.941 -0.0287  0.1640 -0.2965
 6462TIP3   OH219391   4.040   2.920   1.622 -0.7943  0.2730  0.2690
 6462TIP3    H119392   3.979   2.990   1.596 -1.2644 -0.3103 -0.2067
 6462TIP3    H219393   4.032   2.854   1.554  0.8365  0.4465 -0.1249
 6463TIP3   OH219394   5.657   4.953   2.517 -0.2685 -0.0768 -0.2096
 6463TIP3    H119395   5.665   4.978   2.609  3.3130 -0.2532 -0.3469
 6463TIP3    H219396   5.618   4.866   2.520  0.7818 -0.5416  1.2629
 6464TIP3   OH219397   3.760   4.926   1.481 -0.1549 -0.3823 -0.0452
 6464TIP3    H119398   3.687   4.892   1.429 -1.5857  1.8746  0.3320
 6464TIP3    H219399   3.757   4.874   1.562 -1.0777 -0.6362 -0.2226
 6465TIP3   OH219400   0.921   1.358   1.856 -0.5908  0.2966  0.0631
 6465TIP3    H119401   0.980   1.391   1.789 -0.5762  1.0926  0.4593
 6465TIP3    H219402   0.962   1.383   1.939 -0.9591 -0.0660  0.3579
 6466TIP3   OH219403   2.180   1.825   4.961  0.0712 -0.0026 -0.8146
 6466TIP3    H119404   2.086   1.819   4.977  0.2327 -0.0209  0.1817
 6466TIP3    H219405   2.193   1.783   4.876 -0.6968 -0.8476 -0.5265
 6467TIP3   OH219406   5.394   0.670   4.060  0.3290 -0.0425 -0.5028
 6467TIP3    H119407   5.451   0.611   4.108 -0.0300 -0.9160 -1.1223
 6467TIP3    H219408   5.390   0.750   4.113  2.0906  0.0305 -0.4332
 6468TIP3   OH219409   1.353   3.402   5.062 -0.0733  0.5724 -0.0279
 6468TIP3    H119410   1.355   3.498   5.053  1.1297  0.4733 -1.1682
 6468TIP3    H219411   1.425   3.372   5.007 -0.1981 -0.9825  0.6265
 6469TIP3   OH219412   2.031   3.078   1.503  0.4249 -0.7365  0.5932
 6469TIP3    H119413   2.057   3.153   1.450 -0.0298  0.0579  1.4747
 6469TIP3    H219414   2.043   3.107   1.593 -2.7771 -0.5634  1.0649
 6470TIP3   OH219415   4.214   1.234   3.200  0.4858  0.1903  0.0857
 6470TIP3    H119416   4.309   1.244   3.201  0.4554  1.1994 -1.8527
 6470TIP3    H219417   4.184   1.278   3.279  1.5042  1.8653 -0.4234
 6471TIP3   OH219418   3.023   2.270   0.675  0.5290  0.1512  0.0897
 6471TIP3    H119419   2.978   2.329   0.616  0.6543  0.4355  0.2763
 6471TIP3    H219420   3.028   2.187   0.627 -1.1254 -0.2040  0.4819
 6472TIP3   OH219421   3.194   0.467   4.584  0.9090 -0.6307 -0.2595
 6472TIP3    H119422   3.265   0.433   4.639  0.4747  0.0862  0.7666
 6472TIP3    H219423   3.203   0.562   4.589  0.0365 -0.5328 -0.3144
 6473TIP3   OH219424   2.425   0.368   2.877  0.2285 -0.1799 -0.5617
 6473TIP3    H119425   2.517   0.373   2.901 -0.0931  1.7758  0.4862
 6473TIP3    H219426   2.395   0.284   2.915  1.0270  0.3099  1.2681
 6474TIP3   OH219427   1.911   4.902   2.761 -0.2467  0.1611  0.0012
 6474TIP3    H119428   1.978   4.957   2.802 -1.6442  2.0302 -0.1093
 6474TIP3    H219429   1.883   4.842   2.831  0.6125  0.2210  0.4103
 6475TIP3   OH219430   2.527   2.996   1.505  0.4420 -0.0993  0.3456
 6475TIP3    H119431   2.514   3.078   1.457 -0.1463 -0.8535 -0.8102
 6475TIP3    H219432   2.621   2.991   1.519  0.5033  0.6627  0.2334
 6476TIP3   OH219433   6.312   1.157   2.481 -0.0198 -0.4159 -0.1885
 6476TIP3    H119434   6.288   1.223   2.547 -0.3654 -1.5105  0.8057
 6476TIP3    H219435   6.356   1.088   2.531  0.1858 -1.0248 -1.1899
 6477TIP3   OH219436   2.842   4.551   0.783  0.1649 -0.3915 -0.0905
 6477TIP3    H119437   2.842   4.489   0.856 -2.9856 -0.7193 -0.2071
 6477TIP3    H219438   2.924   4.535   0.737  0.9882 -2.0833  1.8320
 6478TIP3   OH219439   4.145   2.494   2.806  0.3882  0.7368 -0.4002
 6478TIP3    H119440   4.141   2.540   2.889 -0.5063  1.2688 -0.7234
 6478TIP3    H219441   4.119   2.404   2.827  0.1128  0.8832 -0.1147
 6479TIP3   OH219442   4.756   3.745   3.790  0.0880  0.5509  0.4959
 6479TIP3    H119443   4.817   3.686   3.834 -0.4553  0.2954  0.9266
 6479TIP3    H219444   4.765   3.723   3.697  0.8348  0.6988  0.5259
 6480TIP3   OH219445   1.152   0.874   1.007 -0.0137 -0.2478  0.1474
 6480TIP3    H119446   1.166   0.877   1.101  1.7873 -1.9832 -0.0028
 6480TIP3    H219447   1.127   0.784   0.989 -0.9198  0.2012 -0.9909
 6481TIP3   OH219448   3.770   1.014   4.746  0.3786  0.2868  0.5695
 6481TIP3    H119449   3.750   1.106   4.761 -1.9771 -0.3280  1.6762
 6481TIP3    H219450   3.846   0.997   4.803 -0.3105  1.1320  1.7986
 6482TIP3   OH219451   3.976   4.956   4.537 -0.2255  0.3442 -0.2346
 6482TIP3    H119452   3.901   4.896   4.541 -0.9769  1.2649 -0.3060
 6482TIP3    H219453   3.953   5.019   4.469  1.6974 -0.7819 -2.0535
 6483TIP3   OH219454   0.032   5.947   4.594 -0.2958  0.4272 -0.3629
 6483TIP3    H119455  -0.042   5.889   4.578  1.5714 -1.7637 -1.6941
 6483TIP3    H219456   0.063   5.971   4.507  1.3796  0.1536  0.1303
 6484TIP3   OH219457   0.621   4.892   1.453  0.3267 -0.2893 -0.9234
 6484TIP3    H119458   0.571   4.811   1.443 -1.0096  0.6890 -3.0390
 6484TIP3    H219459   0.691   4.885   1.389  0.7966 -0.1635 -0.4288
 6485TIP3   OH219460   6.081   3.573   1.466  0.6513 -0.2708 -0.2305
 6485TIP3    H119461   6.098   3.636   1.396 -1.8356 -0.1969 -0.8594
 6485TIP3    H219462   6.015   3.615   1.521  0.0655 -1.7140  0.2136
 6486TIP3   OH219463   2.177   2.663   2.439  0.3725 -0.1942  0.2896
 6486TIP3    H119464   2.175   2.714   2.520 -1.4456 -1.2477  0.9584
 6486TIP3    H219465   2.173   2.728   2.369 -0.0600  0.6547  1.0922
 6487TIP3   OH219466   6.058   1.153   1.318 -0.1101 -0.2452  0.0064
 6487TIP3    H119467   6.007   1.081   1.282  0.9278  0.0806 -2.3122
 6487TIP3    H219468   6.148   1.120   1.320  0.2502  0.6781 -0.2848
 6488TIP3   OH219469   6.276   3.322   1.345 -0.3634  0.4026  0.4651
 6488TIP3    H119470   6.278   3.309   1.440 -0.3711 -0.0714  0.4034
 6488TIP3    H219471   6.257   3.235   1.310 -1.0465  0.7173  0.0579
 6489TIP3   OH219472   5.848   4.037   3.137  0.1512 -0.6345  0.2286
 6489TIP3    H119473   5.813   3.978   3.203 -2.0805 -0.5458 -0.7611
 6489TIP3    H219474   5.771   4.064   3.086  1.3575  1.6167 -0.5528
 6490TIP3   OH219475   5.038   4.476   3.079  0.2335 -0.4533  0.3628
 6490TIP3    H119476   5.067   4.458   2.990 -1.8022 -0.3457 -0.3820
 6490TIP3    H219477   4.982   4.553   3.070 -1.8913 -1.7991  1.3183
 6491TIP3   OH219478   5.377   4.659   0.120  0.4223 -0.3251 -0.2956
 6491TIP3    H119479   5.328   4.605   0.182  1.3444 -0.7054  0.1293
 6491TIP3    H219480   5.315   4.678   0.050 -0.5096 -0.2518  0.5298
 6492TIP3   OH219481   2.133   0.567   0.999  0.5201 -0.2739  0.0878
 6492TIP3    H119482   2.139   0.483   1.044  1.6432  0.4364  1.3270
 6492TIP3    H219483   2.143   0.632   1.069 -0.9750  0.9200 -0.7416
 6493TIP3   OH219484   2.092   4.536   2.832  0.0784  0.2318 -0.0746
 6493TIP3    H119485   2.116   4.592   2.758 -1.0266 -0.8192 -1.2867
 6493TIP3    H219486   2.121   4.584   2.909 -2.2680  3.2633 -0.9149
 6494TIP3   OH219487   5.419   1.168   2.417 -0.7744 -0.5423  0.8668
 6494TIP3    H119488   5.496   1.124   2.380 -1.0666  0.0901 -0.5360
 6494TIP3    H219489   5.348   1.105   2.404 -0.7982 -0.4827  0.7027
 6495TIP3   OH219490   3.649   3.618   0.241 -0.0926  0.4201  0.2027
 6495TIP3    H119491   3.572   3.574   0.204  0.4172 -0.0784 -0.2979
 6495TIP3    H219492   3.628   3.711   0.238 -1.1827  0.2418  1.2359
 6496TIP3   OH219493   1.241   0.102   5.076 -0.0266  0.0785  0.2262
 6496TIP3    H119494   1.287   0.093   4.992 -0.5470  0.1075 -0.0694
 6496TIP3    H219495   1.148   0.094   5.053 -0.2039  0.6195  0.7324
 6497TIP3   OH219496   3.207   3.230   2.968 -0.3345 -0.0887  1.2512
 6497TIP3    H119497   3.173   3.317   2.990  0.7267  0.4062  0.9697
 6497TIP3    H219498   3.168   3.211   2.883 -0.9643 -0.1119  1.5373
 6498TIP3   OH219499   4.570   3.402   0.247  0.4166 -0.3364 -0.7933
 6498TIP3    H119500   4.643   3.427   0.303 -1.0295  0.7399  0.7168
 6498TIP3    H219501   4.524   3.484   0.229 -1.1425 -1.1327 -0.6199
 6499TIP3   OH219502   4.000   1.485   1.758  0.4702  0.2926  0.3578
 6499TIP3    H119503   3.979   1.395   1.732 -0.6980  0.9436 -1.1201
 6499TIP3    H219504   4.049   1.476   1.840 -0.7586 -1.6077  0.9431
 6500TIP3   OH219505   3.905   2.991   3.482  0.0350  0.8423 -0.1398
 6500TIP3    H119506   3.884   2.898   3.496 -0.4430  1.0116  0.2987
 6500TIP3    H219507   3.860   3.013   3.401  1.4450  0.2920 -1.1123
 6501TIP3   OH219508   4.860   2.148   3.639  0.3230 -0.0096  0.0806
 6501TIP3    H119509   4.843   2.062   3.677  0.5109  0.3046  0.8917
 6501TIP3    H219510   4.795   2.205   3.679  1.4565  0.6238  1.0781
 6502TIP3   OH219511   0.192   0.622   4.264  0.1489  0.3502  0.0583
 6502TIP3    H119512   0.141   0.657   4.337 -0.8205  0.5725 -0.7047
 6502TIP3    H219513   0.156   0.534   4.250 -0.9298  0.9752 -1.2990
 6503TIP3   OH219514   3.462   5.044   2.004 -0.9435 -0.3070 -0.1864
 6503TIP3    H119515   3.422   5.037   2.091 -0.7938 -0.5285 -0.1352
 6503TIP3    H219516   3.418   5.119   1.964 -0.0948  0.6296  0.5760
 6504TIP3   OH219517   5.918   3.125   3.731  0.0956  0.0310 -0.6109
 6504TIP3    H119518   5.978   3.121   3.805  1.0064  0.1845 -1.3325
 6504TIP3    H219519   5.942   3.051   3.675  1.9827  2.0447 -2.6508
 6505TIP3   OH219520   2.530   3.355   3.577  0.0533  0.1133 -0.1419
 6505TIP3    H119521   2.503   3.296   3.647 -1.5932  0.3140 -0.5735
 6505TIP3    H219522   2.556   3.296   3.505  1.8405 -0.0930  0.6223
 6506TIP3   OH219523   4.075   4.576   3.875  0.1404 -0.4883 -0.0610
 6506TIP3    H119524   4.043   4.607   3.791 -0.5033  2.2527  1.0616
 6506TIP3    H219525   4.168   4.596   3.875 -0.0418  0.4187  0.1940
 6507TIP3   OH219526   4.858   5.062   3.123  0.5374 -0.1220  0.3127
 6507TIP3    H119527   4.885   5.004   3.052 -0.1389 -0.3923  0.2666
 6507TIP3    H219528   4.794   5.120   3.084  0.6832  0.1903  0.5362
 6508TIP3   OH219529   1.030   5.980   4.202  0.7038  0.0317 -0.0758
 6508TIP3    H119530   1.083   5.958   4.278  0.4769  0.0101  0.0750
 6508TIP3    H219531   0.939   5.975   4.232  0.4620 -2.6802 -1.0087
 6509TIP3   OH219532   0.486   2.702   0.445  0.4075  0.0728 -0.3136
 6509TIP3    H119533   0.434   2.632   0.405  0.1762  1.4378 -2.5868
 6509TIP3    H219534   0.527   2.661   0.521 -0.6641 -2.1794 -0.8564
 6510TIP3   OH219535   0.548   6.010   3.594 -0.5841  0.1886 -0.2735
 6510TIP3    H119536   0.528   5.930   3.545  1.0896 -1.1940  1.1839
 6510TIP3    H219537   0.492   6.005   3.671 -1.5337  1.2011 -0.8661
 6511TIP3   OH219538   0.475  -0.025   3.471  0.0527  0.1135  0.6869
 6511TIP3    H119539   0.547   0.022   3.429  0.0749 -0.5083  0.0096
 6511TIP3    H219540   0.396   0.015   3.435  0.0635 -1.0804 -0.7684
 6512TIP3   OH219541   6.243   1.860   2.064 -0.7013 -0.2782  0.0571
 6512TIP3    H119542   6.191   1.837   1.987 -0.3021 -1.6200  0.1614
 6512TIP3    H219543   6.332   1.873   2.030 -1.0327  1.8927 -0.1035
 6513TIP3   OH219544   6.233   1.569   4.793 -0.5022  0.2669  0.3487
 6513TIP3    H119545   6.192   1.498   4.745 -0.9862  0.6804  0.1344
 6513TIP3    H219546   6.183   1.575   4.875 -1.8664  1.7201 -0.5293
 6514TIP3   OH219547   3.462   4.276   0.482  0.5597  0.5039  0.2279
 6514TIP3    H119548   3.544   4.305   0.521  0.4810  0.1807  0.6446
 6514TIP3    H219549   3.484   4.254   0.392  0.3995  2.9198 -0.4601
 6515TIP3   OH219550   3.044   2.241   3.542 -0.8765  0.0225  0.3214
 6515TIP3    H119551   3.038   2.281   3.455 -0.7869  1.2899  0.8730
 6515TIP3    H219552   3.133   2.258   3.571 -1.1036  0.1983  0.9323
 6516TIP3   OH219553   5.737   4.174   1.138  0.2723 -0.0216 -0.2847
 6516TIP3    H119554   5.653   4.175   1.091  0.1536 -0.2363 -0.0758
 6516TIP3    H219555   5.714   4.196   1.228  0.3690 -0.6276 -0.1077
 6517TIP3   OH219556   1.246   0.099   3.552 -0.4223 -0.1859  0.7874
 6517TIP3    H119557   1.247   0.004   3.542  2.8953 -0.1634 -0.5200
 6517TIP3    H219558   1.247   0.133   3.463 -1.1096  1.0629  1.2380
 6518TIP3   OH219559   3.816   2.870   1.263 -0.2463 -0.0656 -0.0271
 6518TIP3    H119560   3.818   2.964   1.281  0.5174 -0.1085  0.1396
 6518TIP3    H219561   3.903   2.838   1.288 -0.0138 -0.5749 -1.4045
 6519TIP3   OH219562   3.210   5.230   0.948  0.0944  0.2372  0.2828
 6519TIP3    H119563   3.146   5.221   1.019 -0.1666  0.8244  0.1289
 6519TIP3    H219564   3.249   5.316   0.961  2.0134 -0.7240  1.3024
 6520TIP3   OH219565   5.044   3.985   3.576 -0.6544 -0.0861  0.0802
 6520TIP3    H119566   5.090   3.902   3.562 -0.5134 -0.2268  1.2502
 6520TIP3    H219567   4.986   3.993   3.501 -0.6585 -1.2511 -0.0607
 6521TIP3   OH219568   5.386   0.749   1.355  0.4734  0.4180 -0.5073
 6521TIP3    H119569   5.328   0.673   1.343  0.1814  0.4010  0.8353
 6521TIP3    H219570   5.474   0.714   1.341  0.4342 -0.4487  1.0688
 6522TIP3   OH219571   4.715   2.621   1.183 -0.2659  0.0157  0.0131
 6522TIP3    H119572   4.715   2.706   1.228  0.4988  0.1171 -0.1618
 6522TIP3    H219573   4.805   2.590   1.191 -0.7448 -1.2349  0.9014
 6523TIP3   OH219574   1.354   4.565   0.725 -0.5386  0.1977  1.1786
 6523TIP3    H119575   1.268   4.536   0.755 -0.5170 -0.8892  0.2715
 6523TIP3    H219576   1.383   4.628   0.791 -2.0308  0.5945  1.4803
 6524TIP3   OH219577   6.100   1.056   2.340  0.1914  0.0345 -0.2042
 6524TIP3    H119578   6.022   1.111   2.336  0.1479  0.1271  1.2956
 6524TIP3    H219579   6.167   1.112   2.380  0.5064 -0.5986  0.1809
 6525TIP3   OH219580   2.960   0.913   2.256  0.0575 -0.0491 -0.0418
 6525TIP3    H119581   3.020   0.923   2.330  1.0618 -0.8724 -0.7311
 6525TIP3    H219582   3.013   0.931   2.179 -0.2366 -1.9489 -0.7484
 6526TIP3   OH219583   5.075   3.203   2.405  0.0849 -0.4195 -0.5147
 6526TIP3    H119584   5.140   3.267   2.377  1.4722 -2.1693 -1.5023
 6526TIP3    H219585   5.001   3.217   2.347  0.2425  0.4954 -0.5038
 6527TIP3   OH219586   5.185   5.692   1.050 -0.2796  0.2361 -0.0167
 6527TIP3    H119587   5.243   5.660   0.981  0.2060  0.6485  0.1938
 6527TIP3    H219588   5.097   5.671   1.019 -0.0317 -0.1702 -0.4561
 6528TIP3   OH219589   0.280   5.192   4.765  0.0299 -0.7610  0.6321
 6528TIP3    H119590   0.326   5.117   4.803  1.9896  0.6077  1.1083
 6528TIP3    H219591   0.202   5.154   4.725 -0.1330 -2.7781  2.6561
 6529TIP3   OH219592   2.561   4.818   3.480  0.2519 -0.3963  0.1371
 6529TIP3    H119593   2.621   4.811   3.406  1.7473 -0.6447  1.3271
 6529TIP3    H219594   2.583   4.745   3.538 -2.6585 -1.8066 -0.3337
 6530TIP3   OH219595   5.060   4.675   2.642 -0.1036  0.0228  0.2238
 6530TIP3    H119596   5.087   4.755   2.688  2.0535  0.0023 -0.8996
 6530TIP3    H219597   4.993   4.705   2.581  0.5961  0.9735 -0.1001
 6531TIP3   OH219598   4.702   3.681   1.773  0.1597 -0.2788  0.6175
 6531TIP3    H119599   4.743   3.676   1.687  0.2543 -0.2431  0.6604
 6531TIP3    H219600   4.633   3.746   1.763 -1.6066 -2.1775 -0.1618
 6532TIP3   OH219601   4.776   2.518   0.814 -0.0309 -0.3320  0.0549
 6532TIP3    H119602   4.851   2.569   0.843 -0.0874 -0.2161 -0.0037
 6532TIP3    H219603   4.804   2.427   0.821 -0.4548 -0.3604  1.6417
 6533TIP3   OH219604   3.896   5.591   2.586  0.3622 -0.5874  0.6679
 6533TIP3    H119605   3.829   5.592   2.655 -2.5591  0.6633 -1.9544
 6533TIP3    H219606   3.950   5.515   2.607 -0.9048 -0.7917  3.7991
 6534TIP3   OH219607   4.846   2.456   2.466 -0.0353  0.4828  0.3118
 6534TIP3    H119608   4.820   2.463   2.558  2.2754 -0.3115  1.0982
 6534TIP3    H219609   4.764   2.444   2.418 -1.2621  0.5972  2.3039
 6535TIP3   OH219610   1.240   2.096   2.424  0.3457 -0.5606 -0.2602
 6535TIP3    H119611   1.291   2.164   2.381 -0.1104 -0.5366 -0.7666
 6535TIP3    H219612   1.208   2.041   2.353  2.1706 -2.3786  0.2181
 6536TIP3   OH219613   6.217   3.045   4.696  0.0850 -0.0623  0.3192
 6536TIP3    H119614   6.281   2.984   4.660  2.3255  2.2015  0.1673
 6536TIP3    H219615   6.166   3.074   4.620 -0.9221 -1.5944  0.3808
 6537TIP3   OH219616   6.260   4.096   4.800 -0.1967 -0.1321  0.1188
 6537TIP3    H119617   6.224   4.103   4.711  1.1629  1.3639 -0.3572
 6537TIP3    H219618   6.352   4.075   4.787 -0.0070 -0.0053  1.1815
 6538TIP3   OH219619   1.396   2.615   4.639 -0.0125 -0.3509  0.5189
 6538TIP3    H119620   1.372   2.522   4.647  0.9172 -0.6266  0.1943
 6538TIP3    H219621   1.482   2.621   4.680  0.5008  0.1120 -0.6014
 6539TIP3   OH219622   5.861   1.113   4.758 -0.2372  0.2797  0.0773
 6539TIP3    H119623   5.899   1.128   4.844 -0.7053 -0.7056  0.4694
 6539TIP3    H219624   5.798   1.184   4.746 -0.5409  0.1311  0.7762
 6540TIP3   OH219625   0.641   5.254   0.351 -0.2080 -1.0615  0.0712
 6540TIP3    H119626   0.689   5.233   0.271 -1.3003 -0.4132 -0.7803
 6540TIP3    H219627   0.672   5.342   0.374 -0.5151 -0.8964 -0.1330
 6541TIP3   OH219628   0.838   3.756   0.459 -0.1082 -0.1632 -0.2831
 6541TIP3    H119629   0.921   3.709   0.457  0.5381  0.9554 -1.4903
 6541TIP3    H219630   0.847   3.823   0.392 -2.2121 -0.3639 -0.8307
 6542TIP3   OH219631   5.623   0.693   3.716 -0.2673 -0.0917 -0.0292
 6542TIP3    H119632   5.678   0.752   3.666 -1.4198  1.6256  0.6313
 6542TIP3    H219633   5.678   0.661   3.787  0.3797  0.1379 -0.4269
 6543TIP3   OH219634   6.119   5.466   0.375 -0.5523 -0.4178 -0.0190
 6543TIP3    H119635   6.193   5.526   0.384  0.0005 -1.2401  1.5072
 6543TIP3    H219636   6.070   5.498   0.300 -0.0085  1.6150  0.4380
 6544TIP3   OH219637   1.938   2.038   4.392  0.1941 -0.2713  0.2736
 6544TIP3    H119638   1.982   2.021   4.475  0.2940 -0.1848  0.2381
 6544TIP3    H219639   1.931   2.134   4.388 -0.8555 -0.3015  0.7361
 6545TIP3   OH219640   1.010   0.557   3.879 -0.3765  0.3747  0.0090
 6545TIP3    H119641   1.040   0.591   3.795  0.4522 -1.2921 -0.4280
 6545TIP3    H219642   0.937   0.614   3.904 -1.9620 -0.2262 -2.8126
 6546TIP3   OH219643   1.769   2.191   2.517  0.1204  0.1823 -0.0463
 6546TIP3    H119644   1.754   2.096   2.515 -0.2363  0.2221  0.5004
 6546TIP3    H219645   1.687   2.229   2.485 -0.5423  0.3622  1.7591
 6547TIP3   OH219646   5.029   4.658   3.407 -0.0831  0.2813  0.4153
 6547TIP3    H119647   4.933   4.666   3.402  0.0374  1.0817 -1.5968
 6547TIP3    H219648   5.060   4.696   3.325  1.8827 -1.4927  0.2566
 6548TIP3   OH219649   2.991   4.079   1.400  0.1808  0.2552 -0.2580
 6548TIP3    H119650   2.912   4.092   1.348 -1.5435  0.8620  2.3346
 6548TIP3    H219651   2.973   4.001   1.452  2.1981 -0.8400 -1.0954
 6549TIP3   OH219652   5.765   4.963   0.558  0.3177  0.1524  0.5591
 6549TIP3    H119653   5.672   4.939   0.550 -0.1625  0.8707  3.0390
 6549TIP3    H219654   5.813   4.882   0.543 -0.7177 -0.2936 -0.4587
 6550TIP3   OH219655   3.419   3.908   3.865 -0.4582 -0.0003 -0.0237
 6550TIP3    H119656   3.497   3.918   3.811 -0.1387 -1.4766  0.1224
 6550TIP3    H219657   3.364   3.983   3.841  0.8024  0.8294 -0.4410
 6551TIP3   OH219658   2.964   1.038   2.663  0.5231 -0.4850  0.0509
 6551TIP3    H119659   3.009   0.965   2.621  1.0589  0.1747 -0.5558
 6551TIP3    H219660   2.916   1.081   2.592 -0.8240 -0.9906  0.6374
 6552TIP3   OH219661   1.768   1.040   1.999 -0.1309  0.3345 -0.6634
 6552TIP3    H119662   1.699   1.060   1.936 -2.3647 -0.2630  1.4597
 6552TIP3    H219663   1.730   0.974   2.056  2.0187  0.3905  0.9609
 6553TIP3   OH219664   0.449   1.637   0.829  0.1643 -0.1915  0.3909
 6553TIP3    H119665   0.529   1.644   0.777  0.1109 -3.1019 -0.2950
 6553TIP3    H219666   0.398   1.714   0.805  1.6603  0.3790 -1.1768
 6554TIP3   OH219667   4.390   1.015   0.784  0.5785 -0.4878 -0.2571
 6554TIP3    H119668   4.306   0.990   0.822 -1.0799  1.9879 -1.9647
 6554TIP3    H219669   4.399   1.108   0.806  2.5078 -0.5035 -0.8155
 6555TIP3   OH219670   2.744   5.400   3.665  0.4029 -0.4641  0.4263
 6555TIP3    H119671   2.839   5.405   3.658  0.3736  0.0174  0.3486
 6555TIP3    H219672   2.724   5.308   3.648  0.7921 -0.4208 -0.3037
 6556TIP3   OH219673   5.435   3.053   4.104  0.5439 -0.2365  0.1353
 6556TIP3    H119674   5.369   3.071   4.172  1.6461  1.6917  0.7830
 6556TIP3    H219675   5.509   3.109   4.127  2.4716 -2.3820 -0.5449
 6557TIP3   OH219676   2.929   1.967   2.220 -0.0302 -0.1043 -0.1058
 6557TIP3    H119677   2.971   2.051   2.200  1.3427 -0.5816  0.7003
 6557TIP3    H219678   2.883   1.983   2.303  0.4142 -0.2076  0.1619
 6558TIP3   OH219679   5.805   4.109   4.704 -0.3340 -0.6915  0.0882
 6558TIP3    H119680   5.839   4.027   4.740 -0.0318  0.4044  2.4913
 6558TIP3    H219681   5.882   4.153   4.668 -0.2276 -0.7824  0.2043
 6559TIP3   OH219682   2.033   3.696   2.623 -0.2989  0.2090 -0.2898
 6559TIP3    H119683   1.971   3.635   2.582 -1.4650  0.9151  0.3772
 6559TIP3    H219684   1.980   3.770   2.650  1.0176  1.2855 -0.5656
 6560TIP3   OH219685   0.182   4.862   4.339  0.3784  0.5415 -0.7914
 6560TIP3    H119686   0.223   4.777   4.357 -0.6552 -0.1680 -1.6514
 6560TIP3    H219687   0.203   4.880   4.248 -0.7982  0.4003 -1.1032
 6561TIP3   OH219688   2.175   0.305   1.836 -0.0673  0.5834  0.5438
 6561TIP3    H119689   2.160   0.314   1.742  0.2129 -2.3268  0.1353
 6561TIP3    H219690   2.197   0.213   1.849 -1.9204  0.4282  3.7289
 6562TIP3   OH219691   1.649   1.394   0.665  0.4790  0.1751 -0.5027
 6562TIP3    H119692   1.665   1.326   0.730 -2.0361  0.8369  0.9537
 6562TIP3    H219693   1.631   1.345   0.584  1.1991 -0.7573 -0.1187
 6563TIP3   OH219694   3.366   3.842   4.462  0.3492  0.1197 -0.3632
 6563TIP3    H119695   3.435   3.858   4.398  1.1959 -0.7971  0.2861
 6563TIP3    H219696   3.401   3.879   4.544  0.8351 -1.7857  0.3526
 6564TIP3   OH219697   3.096   1.814   1.017  0.2062  0.0567 -0.2022
 6564TIP3    H119698   3.150   1.809   1.096 -0.0623 -2.0357 -0.0971
 6564TIP3    H219699   3.067   1.724   1.002 -1.0493  0.6786 -1.7964
 6565TIP3   OH219700   3.880   5.339   2.966  0.5423 -0.0379 -0.5420
 6565TIP3    H119701   3.872   5.432   2.945 -3.1872 -0.4588 -1.5922
 6565TIP3    H219702   3.832   5.294   2.897  0.8672 -2.6530  0.8092
 6566TIP3   OH219703   2.046   0.331   1.600 -0.5067  0.3335 -0.3944
 6566TIP3    H119704   1.964   0.361   1.560 -1.2966 -2.1143 -0.8120
 6566TIP3    H219705   2.028   0.240   1.625  1.7906  0.0439  0.4295
 6567TIP3   OH219706   3.527   4.146   4.509 -0.7300  0.6479  0.6945
 6567TIP3    H119707   3.598   4.208   4.525  0.6588 -0.5305 -0.6800
 6567TIP3    H219708   3.467   4.193   4.452 -0.6723  1.3726  1.2093
 6568TIP3   OH219709   0.332   5.453   3.661  0.0933  0.5244  0.0530
 6568TIP3    H119710   0.409   5.483   3.612  0.8334 -1.2207  0.0605
 6568TIP3    H219711   0.363   5.376   3.710 -1.8166 -0.7236 -0.5565
 6569TIP3   OH219712   2.818   2.987   3.867 -0.0894  0.1678  0.0971
 6569TIP3    H119713   2.788   2.896   3.866  0.3602 -0.0227  1.4691
 6569TIP3    H219714   2.800   3.017   3.956  2.0689  0.6179  0.4360
 6570TIP3   OH219715   4.734   4.337   3.987 -0.1864  0.2776 -0.0830
 6570TIP3    H119716   4.781   4.358   4.067 -1.5821  0.5488  0.6920
 6570TIP3    H219717   4.693   4.419   3.960 -0.4115 -0.0006 -0.6135
 6571TIP3   OH219718   0.570   5.068   4.317  0.0262 -0.0002 -0.2755
 6571TIP3    H119719   0.606   4.980   4.308  2.5263  0.8931  0.1012
 6571TIP3    H219720   0.571   5.085   4.411  1.4477  1.0917 -0.4549
 6572TIP3   OH219721   5.196   3.348   4.006 -0.7045 -0.3565  0.9148
 6572TIP3    H119722   5.285   3.370   3.977 -1.3757  0.3168 -0.7174
 6572TIP3    H219723   5.165   3.283   3.943 -2.1078  0.9555  0.1913
 6573TIP3   OH219724   2.096   3.331   1.352  0.4664 -0.3883 -0.0589
 6573TIP3    H119725   2.080   3.374   1.268  3.2972  0.3017 -0.3670
 6573TIP3    H219726   2.144   3.397   1.404  0.6905 -1.5368  1.2641
 6574TIP3   OH219727   4.647   1.257   4.320 -0.2913  0.1827  0.5859
 6574TIP3    H119728   4.555   1.270   4.344 -0.1532  3.6004 -0.1342
 6574TIP3    H219729   4.644   1.229   4.228 -0.5973 -0.5690  0.8170
 6575TIP3   OH219730   2.088   2.097   4.797  0.0668  0.3922 -0.2042
 6575TIP3    H119731   2.117   2.012   4.764  0.6582 -0.4095  2.1860
 6575TIP3    H219732   2.144   2.161   4.753  0.4125 -0.5464 -1.1570
 6576TIP3   OH219733   6.284   2.513   1.854 -0.2363  0.2041  0.4188
 6576TIP3    H119734   6.332   2.443   1.811 -0.5820 -0.6947  1.4417
 6576TIP3    H219735   6.219   2.468   1.908 -0.1215  1.2848  1.5139
 6577TIP3   OH219736   3.814   3.040   0.908  0.6357 -0.0805  0.2325
 6577TIP3    H119737   3.767   3.062   0.828  0.9828 -1.1610 -0.2762
 6577TIP3    H219738   3.833   2.947   0.901  0.7830 -0.1693  1.5149
 6578TIP3   OH219739   1.244   0.457   3.199 -0.0257 -0.4689  0.5193
 6578TIP3    H119740   1.247   0.375   3.249  2.9067 -1.2375 -0.7433
 6578TIP3    H219741   1.211   0.521   3.262 -0.6264 -2.2284  2.1032
 6579TIP3   OH219742   4.090   4.220   0.488 -0.1493  0.1484  0.1984
 6579TIP3    H119743   4.011   4.215   0.542 -0.9657  0.7814 -0.9040
 6579TIP3    H219744   4.126   4.132   0.490 -2.3110 -0.8581 -1.3468
 6580TIP3   OH219745   3.328   5.969   2.220 -0.2548 -0.0132 -0.3996
 6580TIP3    H119746   3.376   5.891   2.244  0.6817  0.5433 -0.4273
 6580TIP3    H219747   3.375   6.005   2.145 -0.6088  0.6347 -0.3247
 6581TIP3   OH219748   3.617   0.166   4.089 -1.0074  0.4208 -0.4443
 6581TIP3    H119749   3.563   0.127   4.158 -0.6818 -1.6342 -1.2975
 6581TIP3    H219750   3.564   0.162   4.010 -0.7008  1.1128 -0.7017
 6582TIP3   OH219751   0.861   1.923   1.169 -0.0671  0.0357  0.4472
 6582TIP3    H119752   0.867   2.019   1.177 -1.9900  0.1644  0.7295
 6582TIP3    H219753   0.872   1.906   1.075  1.0330  0.4469  0.4873
 6583TIP3   OH219754   3.343   2.218   0.667  0.1247  0.2716  0.3256
 6583TIP3    H119755   3.298   2.296   0.634 -0.8812 -1.4151 -2.6971
 6583TIP3    H219756   3.282   2.146   0.650  1.1748 -1.2961  2.6411
 6584TIP3   OH219757   2.226   0.487   3.204  0.6194  0.5084 -0.3326
 6584TIP3    H119758   2.296   0.534   3.159 -0.6390  0.4066 -2.5721
 6584TIP3    H219759   2.161   0.471   3.135 -1.4884  0.3877  1.5952
 6585TIP3   OH219760   1.495   4.254   3.068  0.2798 -0.0447  0.1168
 6585TIP3    H119761   1.460   4.260   2.979  0.5956  1.3371  0.0687
 6585TIP3    H219762   1.502   4.160   3.084 -1.3396 -0.3363 -0.6983
 6586TIP3   OH219763   0.876   2.752   0.753 -0.0159 -0.2280  0.3503
 6586TIP3    H119764   0.935   2.684   0.785  0.1756  0.4586  1.5091
 6586TIP3    H219765   0.932   2.829   0.743 -0.5889  0.2530  0.8324
 6587TIP3   OH219766   3.081   2.073   0.302 -0.8396  0.2149 -0.5737
 6587TIP3    H119767   3.172   2.084   0.276 -1.0273 -1.5004 -2.1036
 6587TIP3    H219768   3.071   1.979   0.318 -2.8700 -0.0526 -2.7602
 6588TIP3   OH219769   1.821   5.405   4.485 -0.2575  0.1818  0.2537
 6588TIP3    H119770   1.853   5.349   4.413 -0.7825  0.0537  0.1112
 6588TIP3    H219771   1.770   5.345   4.540  0.3798  0.2183  0.8970
 6589TIP3   OH219772   0.421   0.447   1.479 -0.8743 -0.8218 -0.3284
 6589TIP3    H119773   0.470   0.521   1.444  0.7260 -2.2163 -1.1822
 6589TIP3    H219774   0.379   0.481   1.557  1.2375  0.5695  0.2927
 6590TIP3   OH219775   3.444   4.033   1.548  0.4565 -0.2023  0.1734
 6590TIP3    H119776   3.449   4.002   1.458 -1.2085  0.1752 -0.0908
 6590TIP3    H219777   3.524   4.083   1.561  0.5210  0.1016 -1.2398
 6591TIP3   OH219778   2.366   3.698   1.356  0.7859  0.2289 -0.2042
 6591TIP3    H119779   2.440   3.740   1.399  1.1668 -0.0143 -0.6093
 6591TIP3    H219780   2.395   3.608   1.341 -0.8848 -0.9420  2.8557
 6592TIP3   OH219781   2.121   4.170   4.600  0.3214  0.2259 -0.0743
 6592TIP3    H119782   2.086   4.090   4.561  0.9907  0.9970 -2.4093
 6592TIP3    H219783   2.047   4.230   4.604  0.1557  0.0024  0.2914
 6593TIP3   OH219784   3.526   2.611   4.007 -0.1710 -0.4931  0.2787
 6593TIP3    H119785   3.581   2.586   4.081 -0.5181 -2.8405 -0.1999
 6593TIP3    H219786   3.566   2.571   3.931 -1.2497 -0.3044 -0.4183
 6594TIP3   OH219787   2.681   0.387   3.001 -0.7883  0.4213  0.1138
 6594TIP3    H119788   2.770   0.411   3.028  0.0811 -0.7725 -1.5328
 6594TIP3    H219789   2.640   0.355   3.081  0.6225  0.0379  0.7191
 6595TIP3   OH219790   2.403   3.659   3.933  0.0164  0.3246 -0.4754
 6595TIP3    H119791   2.459   3.696   4.002  1.1576 -0.6719 -0.8194
 6595TIP3    H219792   2.465   3.631   3.865 -1.0844  1.4632 -2.0271
 6596TIP3   OH219793   0.800   2.944   4.909 -0.1772  0.1213  0.3453
 6596TIP3    H119794   0.865   2.874   4.910 -2.0300 -1.7151 -0.3143
 6596TIP3    H219795   0.805   2.980   4.820 -0.3503 -0.3281  0.1500
 6597TIP3   OH219796   3.604   4.725   3.291  0.0470 -0.6243  0.4747
 6597TIP3    H119797   3.659   4.648   3.278 -0.6991 -1.3949  1.6752
 6597TIP3    H219798   3.546   4.725   3.215  1.3822 -0.0335 -0.5924
 6598TIP3   OH219799   4.940   1.052   4.525 -0.2864 -0.0652  0.0903
 6598TIP3    H119800   4.896   1.022   4.445  0.5235  0.6141 -0.6364
 6598TIP3    H219801   4.994   1.126   4.496  1.2299 -0.7874  0.9594
 6599TIP3   OH219802   0.612   3.830   3.021 -0.1282  0.4127  0.2248
 6599TIP3    H119803   0.575   3.830   3.109  0.1309  0.5737  0.3345
 6599TIP3    H219804   0.597   3.918   2.988  0.8885  0.7287  0.5814
 6600TIP3   OH219805   2.558   4.540   1.587  0.3685 -0.1354  0.2033
 6600TIP3    H119806   2.617   4.478   1.544  1.1667  0.9872 -0.3854
 6600TIP3    H219807   2.613   4.616   1.607 -0.2287 -0.1876  2.2915
 6601TIP3   OH219808   5.331   0.481   4.589  0.0927 -0.3158  0.4433
 6601TIP3    H119809   5.327   0.455   4.497  0.9372 -0.5043  0.4493
 6601TIP3    H219810   5.424   0.471   4.613 -0.0872 -0.1109  1.2668
 6602TIP3   OH219811   2.376   2.712   1.920 -0.5552  0.3198  0.0473
 6602TIP3    H119812   2.292   2.706   1.966  0.4004 -0.4005  1.7759
 6602TIP3    H219813   2.369   2.647   1.850 -1.5718  0.5789 -0.1228
 6603TIP3   OH219814   5.234   4.167   2.426  0.1321  0.3427 -0.4375
 6603TIP3    H119815   5.321   4.205   2.442 -1.7839  4.8478  0.9891
 6603TIP3    H219816   5.220   4.179   2.332 -0.0434  2.7792 -0.1839
 6604TIP3   OH219817   1.651   3.326   3.296  0.6149  0.3985 -0.0113
 6604TIP3    H119818   1.574   3.305   3.348  0.6179  0.4183  0.0014
 6604TIP3    H219819   1.688   3.241   3.272  0.9280  0.3867  0.4907
 6605TIP3   OH219820   4.175   1.219   4.066  0.0135 -0.7905 -0.3840
 6605TIP3    H119821   4.211   1.305   4.087  1.3390 -0.7714 -2.3940
 6605TIP3    H219822   4.094   1.214   4.116 -1.0481  2.3801 -1.4852
 6606TIP3   OH219823   3.712   1.988   1.689  0.4547  0.4314 -0.4935
 6606TIP3    H119824   3.729   2.073   1.649 -0.0039  0.3653 -0.8309
 6606TIP3    H219825   3.731   1.925   1.620  0.5280  0.2757 -0.3295
 6607TIP3   OH219826   2.457   4.463   3.453  0.2969  0.5334 -0.1873
 6607TIP3    H119827   2.369   4.502   3.455  0.5421  1.1359 -0.7958
 6607TIP3    H219828   2.464   4.418   3.537 -0.8343 -0.0758 -0.3906
 6608TIP3   OH219829   1.641   2.690   4.738  0.3009 -0.9569 -0.4182
 6608TIP3    H119830   1.675   2.736   4.661  1.5120 -0.1147  0.5801
 6608TIP3    H219831   1.628   2.759   4.803  2.3007 -1.9661  1.1757
 6609TIP3   OH219832   0.121   1.730   1.268 -0.2788 -0.0207 -0.1599
 6609TIP3    H119833   0.120   1.674   1.345 -1.3217 -0.0221 -0.1610
 6609TIP3    H219834   0.138   1.670   1.195  1.2643  0.0553  0.0949
 6610TIP3   OH219835   2.543   0.426   2.418 -0.3498 -0.2430 -0.6328
 6610TIP3    H119836   2.481   0.489   2.456  2.1182  1.6171  0.6377
 6610TIP3    H219837   2.599   0.479   2.363  2.9026 -0.8454  1.8040
 6611TIP3   OH219838   5.006   3.401   2.203  0.9183 -0.0276 -0.4129
 6611TIP3    H119839   5.039   3.355   2.125 -0.9595 -4.3266  0.9760
 6611TIP3    H219840   4.944   3.465   2.168  1.4409 -0.5644 -2.4975
 6612TIP3   OH219841   4.121   3.341   4.810  0.2139 -0.1731  0.0189
 6612TIP3    H119842   4.078   3.422   4.837  1.4457  1.2984 -2.1399
 6612TIP3    H219843   4.125   3.288   4.890 -1.3156  1.5513  1.3215
 6613TIP3   OH219844   3.245   2.818   1.729  0.1672  0.0320 -0.2231
 6613TIP3    H119845   3.312   2.879   1.758  0.0405  0.4600 -0.8238
 6613TIP3    H219846   3.188   2.806   1.806  0.1943  0.6630 -0.0990
 6614TIP3   OH219847   4.835   3.411   1.785  0.6805  0.3441 -0.5708
 6614TIP3    H119848   4.796   3.378   1.704 -1.2417 -0.4152  0.5946
 6614TIP3    H219849   4.812   3.504   1.788  0.3968  0.2771 -0.6920
 6615TIP3   OH219850   6.071   2.382   3.606  0.2983 -0.5368  0.6212
 6615TIP3    H119851   6.003   2.449   3.604  1.9837  1.2358 -0.5057
 6615TIP3    H219852   6.084   2.362   3.699  0.6850  1.7186  1.0964
 6616TIP3   OH219853   4.465   3.122   4.978 -0.0794 -0.9554 -0.1250
 6616TIP3    H119854   4.498   3.143   4.891  0.0311 -0.6988 -0.0237
 6616TIP3    H219855   4.501   3.035   4.997 -0.1139 -1.0171 -0.3380
 6617TIP3   OH219856   5.715   2.764   4.978 -0.0025 -0.2358  0.2427
 6617TIP3    H119857   5.651   2.771   4.908 -0.5469  0.5832  0.8093
 6617TIP3    H219858   5.739   2.854   4.999  1.6426 -0.5385 -0.2231
 6618TIP3   OH219859   1.117   1.164   0.979 -0.3368  0.1318 -0.2659
 6618TIP3    H119860   1.135   1.071   0.961  0.9103  0.5820 -1.6236
 6618TIP3    H219861   1.036   1.164   1.028 -0.3326 -1.6948 -0.1873
 6619TIP3   OH219862   4.464   2.497   4.754  0.4893 -0.0307 -0.5397
 6619TIP3    H119863   4.404   2.435   4.712 -2.6420  1.7014  0.9790
 6619TIP3    H219864   4.548   2.451   4.758 -1.0028 -3.1397 -1.7383
 6620TIP3   OH219865   5.511   2.150   4.165  0.4912  0.3464  0.3755
 6620TIP3    H119866   5.538   2.112   4.249 -0.0139 -1.2818 -0.1632
 6620TIP3    H219867   5.415   2.139   4.165  0.3708  1.3217  0.0351
 6621TIP3   OH219868   3.921   3.768   4.140 -0.5435 -0.1513 -0.4630
 6621TIP3    H119869   3.913   3.858   4.109  1.4211 -0.0970 -0.9119
 6621TIP3    H219870   3.834   3.730   4.126 -1.3443  1.6022 -0.4312
 6622TIP3   OH219871   5.143   5.726   2.216 -0.5394 -0.4670  0.1182
 6622TIP3    H119872   5.235   5.726   2.188 -0.4839 -0.2667  0.3013
 6622TIP3    H219873   5.094   5.755   2.140 -0.2978  1.1105  0.5335
 6623TIP3   OH219874   1.191   1.542   3.451  0.0108 -0.9413 -0.0206
 6623TIP3    H119875   1.228   1.604   3.388  1.1928  0.2806  1.8009
 6623TIP3    H219876   1.206   1.456   3.412  0.5184 -0.2186 -1.4827
 6624TIP3   OH219877   1.389   5.381   0.660  0.0449  0.0961  0.7484
 6624TIP3    H119878   1.419   5.448   0.599 -1.2397 -0.5226 -0.6455
 6624TIP3    H219879   1.303   5.412   0.690 -0.8949 -1.1766 -0.4617
 6625TIP3   OH219880   0.071   4.478   3.115 -0.2711  0.0469  0.2611
 6625TIP3    H119881   0.031   4.391   3.120 -1.9463  0.7316 -0.3206
 6625TIP3    H219882   0.106   4.483   3.026 -2.5224  0.8539 -0.6671
 6626TIP3   OH219883   3.006   2.619   1.748  0.5848 -0.0679  0.3330
 6626TIP3    H119884   3.007   2.548   1.683 -0.1154  0.0632  0.1660
 6626TIP3    H219885   3.093   2.617   1.787  0.8667 -0.4436 -0.2982
 6627TIP3   OH219886   3.734   5.641   3.530 -0.2428  0.1324  0.1999
 6627TIP3    H119887   3.648   5.602   3.549 -0.7028 -0.1739 -2.2358
 6627TIP3    H219888   3.765   5.671   3.615 -1.3803 -2.4896  1.6734
 6628TIP3   OH219889   1.544   0.851   1.487  0.3570  0.3456 -0.2210
 6628TIP3    H119890   1.588   0.766   1.494  1.1884  0.7302 -0.5952
 6628TIP3    H219891   1.600   0.902   1.428 -0.6849  0.8052 -0.8323
 6629TIP3   OH219892   5.491   2.727   3.182  0.0686 -0.3430  0.0695
 6629TIP3    H119893   5.531   2.646   3.215 -0.8365 -0.7407  0.2179
 6629TIP3    H219894   5.459   2.704   3.095  0.7703  0.1724 -0.3352
 6630TIP3   OH219895   4.569   1.952   2.078 -0.6351 -0.3550 -0.0837
 6630TIP3    H119896   4.510   1.887   2.115 -1.1192 -1.3894 -2.4734
 6630TIP3    H219897   4.654   1.934   2.118 -1.2002 -1.1010  0.8132
 6631TIP3   OH219898   5.486   2.548   0.943  0.2203  0.1394 -0.2537
 6631TIP3    H119899   5.413   2.610   0.945  0.5272  0.4906  1.0712
 6631TIP3    H219900   5.473   2.493   1.020  0.2308 -1.1418 -1.1402
 6632TIP3   OH219901   0.642   1.028   2.728 -0.4489 -0.2375  0.1684
 6632TIP3    H119902   0.661   1.096   2.793 -0.1290 -0.6446  0.5104
 6632TIP3    H219903   0.571   0.977   2.766 -1.6995  0.7632 -0.7329
 6633TIP3   OH219904   5.672   4.471   2.471  0.1695 -0.3274 -1.1450
 6633TIP3    H119905   5.707   4.557   2.447 -0.6178 -0.0483 -1.2974
 6633TIP3    H219906   5.715   4.410   2.411  1.5063 -0.1833 -0.3751
 6634TIP3   OH219907   4.531   0.856   1.508 -0.0089  0.1848  0.1946
 6634TIP3    H119908   4.522   0.923   1.576  1.2330  0.4562  0.1125
 6634TIP3    H219909   4.493   0.777   1.547  0.5048  0.3888  1.1401
 6635TIP3   OH219910   2.317   2.272   3.385  0.2971  0.7078 -0.1614
 6635TIP3    H119911   2.358   2.203   3.438  2.2864  0.7986 -1.4925
 6635TIP3    H219912   2.302   2.231   3.300  1.9219  1.9886 -1.1170
 6636TIP3   OH219913   0.115   0.853   2.269 -0.4322  0.0103 -0.1466
 6636TIP3    H119914   0.093   0.879   2.358 -0.7342  0.3315 -0.3086
 6636TIP3    H219915   0.191   0.796   2.278 -0.4376  0.0719  0.3117
 6637TIP3   OH219916   0.437   0.693   0.581 -0.2782 -0.1939 -0.0766
 6637TIP3    H119917   0.342   0.682   0.576 -0.3676  0.5353 -0.1403
 6637TIP3    H219918   0.454   0.710   0.674 -0.1173 -1.0600  0.0595
 6638TIP3   OH219919   3.775   2.370   1.973 -0.0634  0.5455 -0.4489
 6638TIP3    H119920   3.739   2.362   2.062 -1.6907 -3.2009 -1.2246
 6638TIP3    H219921   3.861   2.330   1.979 -0.8649 -1.3625 -0.7714
 6639TIP3   OH219922   0.907   0.236   3.260  0.1055  0.4025 -0.2861
 6639TIP3    H119923   1.001   0.218   3.268 -0.3445 -1.8781  0.5434
 6639TIP3    H219924   0.897   0.325   3.292  1.5687 -0.4864  3.0619
 6640TIP3   OH219925   4.942   1.903   4.598  0.0916 -0.2958 -0.1583
 6640TIP3    H119926   4.960   1.911   4.505  0.2184 -0.6795 -0.1682
 6640TIP3    H219927   5.021   1.862   4.634  0.9263  1.6875  0.4486
 6641TIP3   OH219928   3.176   1.679   1.443  0.9695  0.5513 -0.1644
 6641TIP3    H119929   3.195   1.714   1.531  0.5444  0.7952 -0.1681
 6641TIP3    H219930   3.186   1.755   1.385 -0.1521  0.7218 -0.1487
 6642TIP3   OH219931   0.072   2.139   0.173  0.2575 -0.0463  0.1105
 6642TIP3    H119932   0.082   2.225   0.213  0.1666 -0.7962  1.8024
 6642TIP3    H219933   0.158   2.099   0.180  0.1677 -0.2991 -0.2025
 6643TIP3   OH219934   2.808   1.440   2.710  0.0951  0.1969  0.1758
 6643TIP3    H119935   2.765   1.391   2.639 -0.7406 -0.0460  0.8277
 6643TIP3    H219936   2.808   1.531   2.679 -1.4439  0.3023  0.3771
 6644TIP3   OH219937   4.653   3.751   2.248  0.1006 -0.7242 -0.0991
 6644TIP3    H119938   4.563   3.721   2.243 -0.5699  1.1027  0.5454
 6644TIP3    H219939   4.689   3.708   2.326 -0.8414  0.1222  0.8203
 6645TIP3   OH219940   5.829   0.384   4.197 -0.2934 -1.0389 -0.4440
 6645TIP3    H119941   5.744   0.339   4.194 -1.1761  0.6004 -1.2928
 6645TIP3    H219942   5.830   0.439   4.119  0.8944  0.1452  0.3600
   6.35072   5.98751   5.18533   0.00000   0.00000  -2.11691   0.00000  -2.11691  -2.99376
