         4  EXT
         1         1  GLY       N               7.0380000000        9.9410000000       25.0020000000  PROA      1              97.6500000000
         2         1  GLY       CA              5.8930000000       10.2120000000       24.1480000000  PROA      1              98.0700000000
         3         1  GLY       C               5.4450000000        9.0010000000       23.3500000000  PROA      1              98.2400000000
         4         1  GLY       O               6.1570000000        7.9970000000       23.2830000000  PROA      1              97.8900000000
