PSF EXT CMAP XPLOR

         3 !NTITLE
* GENERATED BY CHARMM-GUI (HTTP://WWW.CHARMM-GUI.ORG) V3.7 ON JUN, 13. 2026. JOB
* READ PDB, MANIPULATE STRUCTURE IF NEEDED, AND GENERATE TOPOLOGY FILE          
*  DATE:     6/13/26      7:27:16      CREATED BY USER: charmm-gui              

       204 !NATOM
         1 PROA     1        GLY      N        NH3     -0.300000       14.0070           0
         2 PROA     1        GLY      HT1      HC       0.330000       1.00800           0
         3 PROA     1        GLY      HT2      HC       0.330000       1.00800           0
         4 PROA     1        GLY      HT3      HC       0.330000       1.00800           0
         5 PROA     1        GLY      CA       CT2      0.130000       12.0110           0
         6 PROA     1        GLY      HA1      HB2      0.900000E-01   1.00800           0
         7 PROA     1        GLY      HA2      HB2      0.900000E-01   1.00800           0
         8 PROA     1        GLY      C        CC       0.340000       12.0110           0
         9 PROA     1        GLY      OT1      OC      -0.670000       15.9994           0
        10 PROA     1        GLY      OT2      OC      -0.670000       15.9994           0
        11 PROB     2        PRO      N        NP      -0.700000E-01   14.0070           0
        12 PROB     2        PRO      HN1      HC       0.240000       1.00800           0
        13 PROB     2        PRO      HN2      HC       0.240000       1.00800           0
        14 PROB     2        PRO      CD       CP3      0.160000       12.0110           0
        15 PROB     2        PRO      HD1      HA2      0.900000E-01   1.00800           0
        16 PROB     2        PRO      HD2      HA2      0.900000E-01   1.00800           0
        17 PROB     2        PRO      CA       CP1      0.160000       12.0110           0
        18 PROB     2        PRO      HA       HB1      0.900000E-01   1.00800           0
        19 PROB     2        PRO      CB       CP2     -0.180000       12.0110           0
        20 PROB     2        PRO      HB1      HA2      0.900000E-01   1.00800           0
        21 PROB     2        PRO      HB2      HA2      0.900000E-01   1.00800           0
        22 PROB     2        PRO      CG       CP2     -0.180000       12.0110           0
        23 PROB     2        PRO      HG1      HA2      0.900000E-01   1.00800           0
        24 PROB     2        PRO      HG2      HA2      0.900000E-01   1.00800           0
        25 PROB     2        PRO      C        C        0.510000       12.0110           0
        26 PROB     2        PRO      O        O       -0.510000       15.9994           0
        27 PROB     3        GLY      N        NH1     -0.470000       14.0070           0
        28 PROB     3        GLY      HN       H        0.310000       1.00800           0
        29 PROB     3        GLY      CA       CT2     -0.200000E-01   12.0110           0
        30 PROB     3        GLY      HA1      HB2      0.900000E-01   1.00800           0
        31 PROB     3        GLY      HA2      HB2      0.900000E-01   1.00800           0
        32 PROB     3        GLY      C        C        0.510000       12.0110           0
        33 PROB     3        GLY      O        O       -0.510000       15.9994           0
        34 PROB     4        ASP      N        NH1     -0.470000       14.0070           0
        35 PROB     4        ASP      HN       H        0.310000       1.00800           0
        36 PROB     4        ASP      CA       CT1      0.700000E-01   12.0110           0
        37 PROB     4        ASP      HA       HB1      0.900000E-01   1.00800           0
        38 PROB     4        ASP      CB       CT2A    -0.280000       12.0110           0
        39 PROB     4        ASP      HB1      HA2      0.900000E-01   1.00800           0
        40 PROB     4        ASP      HB2      HA2      0.900000E-01   1.00800           0
        41 PROB     4        ASP      CG       CC       0.620000       12.0110           0
        42 PROB     4        ASP      OD1      OC      -0.760000       15.9994           0
        43 PROB     4        ASP      OD2      OC      -0.760000       15.9994           0
        44 PROB     4        ASP      C        C        0.510000       12.0110           0
        45 PROB     4        ASP      O        O       -0.510000       15.9994           0
        46 PROB     5        PRO      N        N       -0.290000       14.0070           0
        47 PROB     5        PRO      CD       CP3       0.00000       12.0110           0
        48 PROB     5        PRO      HD1      HA2      0.900000E-01   1.00800           0
        49 PROB     5        PRO      HD2      HA2      0.900000E-01   1.00800           0
        50 PROB     5        PRO      CA       CP1      0.200000E-01   12.0110           0
        51 PROB     5        PRO      HA       HB1      0.900000E-01   1.00800           0
        52 PROB     5        PRO      CB       CP2     -0.180000       12.0110           0
        53 PROB     5        PRO      HB1      HA2      0.900000E-01   1.00800           0
        54 PROB     5        PRO      HB2      HA2      0.900000E-01   1.00800           0
        55 PROB     5        PRO      CG       CP2     -0.180000       12.0110           0
        56 PROB     5        PRO      HG1      HA2      0.900000E-01   1.00800           0
        57 PROB     5        PRO      HG2      HA2      0.900000E-01   1.00800           0
        58 PROB     5        PRO      C        C        0.510000       12.0110           0
        59 PROB     5        PRO      O        O       -0.510000       15.9994           0
        60 PROB     6        GLY      N        NH1     -0.470000       14.0070           0
        61 PROB     6        GLY      HN       H        0.310000       1.00800           0
        62 PROB     6        GLY      CA       CT2     -0.200000E-01   12.0110           0
        63 PROB     6        GLY      HA1      HB2      0.900000E-01   1.00800           0
        64 PROB     6        GLY      HA2      HB2      0.900000E-01   1.00800           0
        65 PROB     6        GLY      C        C        0.510000       12.0110           0
        66 PROB     6        GLY      O        O       -0.510000       15.9994           0
        67 PROB     7        SER      N        NH1     -0.470000       14.0070           0
        68 PROB     7        SER      HN       H        0.310000       1.00800           0
        69 PROB     7        SER      CA       CT1      0.700000E-01   12.0110           0
        70 PROB     7        SER      HA       HB1      0.900000E-01   1.00800           0
        71 PROB     7        SER      CB       CT2      0.500000E-01   12.0110           0
        72 PROB     7        SER      HB1      HA2      0.900000E-01   1.00800           0
        73 PROB     7        SER      HB2      HA2      0.900000E-01   1.00800           0
        74 PROB     7        SER      OG       OH1     -0.660000       15.9994           0
        75 PROB     7        SER      HG1      H        0.430000       1.00800           0
        76 PROB     7        SER      C        C        0.510000       12.0110           0
        77 PROB     7        SER      O        O       -0.510000       15.9994           0
        78 PROB     8        GLY      N        NH1     -0.470000       14.0070           0
        79 PROB     8        GLY      HN       H        0.310000       1.00800           0
        80 PROB     8        GLY      CA       CT2     -0.200000E-01   12.0110           0
        81 PROB     8        GLY      HA1      HB2      0.900000E-01   1.00800           0
        82 PROB     8        GLY      HA2      HB2      0.900000E-01   1.00800           0
        83 PROB     8        GLY      C        C        0.510000       12.0110           0
        84 PROB     8        GLY      O        O       -0.510000       15.9994           0
        85 PROB     9        PRO      N        N       -0.290000       14.0070           0
        86 PROB     9        PRO      CD       CP3       0.00000       12.0110           0
        87 PROB     9        PRO      HD1      HA2      0.900000E-01   1.00800           0
        88 PROB     9        PRO      HD2      HA2      0.900000E-01   1.00800           0
        89 PROB     9        PRO      CA       CP1      0.200000E-01   12.0110           0
        90 PROB     9        PRO      HA       HB1      0.900000E-01   1.00800           0
        91 PROB     9        PRO      CB       CP2     -0.180000       12.0110           0
        92 PROB     9        PRO      HB1      HA2      0.900000E-01   1.00800           0
        93 PROB     9        PRO      HB2      HA2      0.900000E-01   1.00800           0
        94 PROB     9        PRO      CG       CP2     -0.180000       12.0110           0
        95 PROB     9        PRO      HG1      HA2      0.900000E-01   1.00800           0
        96 PROB     9        PRO      HG2      HA2      0.900000E-01   1.00800           0
        97 PROB     9        PRO      C        C        0.510000       12.0110           0
        98 PROB     9        PRO      O        O       -0.510000       15.9994           0
        99 PROB     10       GLY      N        NH1     -0.470000       14.0070           0
       100 PROB     10       GLY      HN       H        0.310000       1.00800           0
       101 PROB     10       GLY      CA       CT2     -0.200000E-01   12.0110           0
       102 PROB     10       GLY      HA1      HB2      0.900000E-01   1.00800           0
       103 PROB     10       GLY      HA2      HB2      0.900000E-01   1.00800           0
       104 PROB     10       GLY      C        C        0.510000       12.0110           0
       105 PROB     10       GLY      O        O       -0.510000       15.9994           0
       106 PROB     11       ASP      N        NH1     -0.470000       14.0070           0
       107 PROB     11       ASP      HN       H        0.310000       1.00800           0
       108 PROB     11       ASP      CA       CT1      0.700000E-01   12.0110           0
       109 PROB     11       ASP      HA       HB1      0.900000E-01   1.00800           0
       110 PROB     11       ASP      CB       CT2A    -0.280000       12.0110           0
       111 PROB     11       ASP      HB1      HA2      0.900000E-01   1.00800           0
       112 PROB     11       ASP      HB2      HA2      0.900000E-01   1.00800           0
       113 PROB     11       ASP      CG       CC       0.620000       12.0110           0
       114 PROB     11       ASP      OD1      OC      -0.760000       15.9994           0
       115 PROB     11       ASP      OD2      OC      -0.760000       15.9994           0
       116 PROB     11       ASP      C        C        0.510000       12.0110           0
       117 PROB     11       ASP      O        O       -0.510000       15.9994           0
       118 PROB     12       PRO      N        N       -0.290000       14.0070           0
       119 PROB     12       PRO      CD       CP3       0.00000       12.0110           0
       120 PROB     12       PRO      HD1      HA2      0.900000E-01   1.00800           0
       121 PROB     12       PRO      HD2      HA2      0.900000E-01   1.00800           0
       122 PROB     12       PRO      CA       CP1      0.200000E-01   12.0110           0
       123 PROB     12       PRO      HA       HB1      0.900000E-01   1.00800           0
       124 PROB     12       PRO      CB       CP2     -0.180000       12.0110           0
       125 PROB     12       PRO      HB1      HA2      0.900000E-01   1.00800           0
       126 PROB     12       PRO      HB2      HA2      0.900000E-01   1.00800           0
       127 PROB     12       PRO      CG       CP2     -0.180000       12.0110           0
       128 PROB     12       PRO      HG1      HA2      0.900000E-01   1.00800           0
       129 PROB     12       PRO      HG2      HA2      0.900000E-01   1.00800           0
       130 PROB     12       PRO      C        C        0.510000       12.0110           0
       131 PROB     12       PRO      O        O       -0.510000       15.9994           0
       132 PROB     13       GLY      N        NH1     -0.470000       14.0070           0
       133 PROB     13       GLY      HN       H        0.310000       1.00800           0
       134 PROB     13       GLY      CA       CT2     -0.200000E-01   12.0110           0
       135 PROB     13       GLY      HA1      HB2      0.900000E-01   1.00800           0
       136 PROB     13       GLY      HA2      HB2      0.900000E-01   1.00800           0
       137 PROB     13       GLY      C        C        0.510000       12.0110           0
       138 PROB     13       GLY      O        O       -0.510000       15.9994           0
       139 PROB     14       SER      N        NH1     -0.470000       14.0070           0
       140 PROB     14       SER      HN       H        0.310000       1.00800           0
       141 PROB     14       SER      CA       CT1      0.700000E-01   12.0110           0
       142 PROB     14       SER      HA       HB1      0.900000E-01   1.00800           0
       143 PROB     14       SER      CB       CT2      0.500000E-01   12.0110           0
       144 PROB     14       SER      HB1      HA2      0.900000E-01   1.00800           0
       145 PROB     14       SER      HB2      HA2      0.900000E-01   1.00800           0
       146 PROB     14       SER      OG       OH1     -0.660000       15.9994           0
       147 PROB     14       SER      HG1      H        0.430000       1.00800           0
       148 PROB     14       SER      C        C        0.510000       12.0110           0
       149 PROB     14       SER      O        O       -0.510000       15.9994           0
       150 PROB     15       GLY      N        NH1     -0.470000       14.0070           0
       151 PROB     15       GLY      HN       H        0.310000       1.00800           0
       152 PROB     15       GLY      CA       CT2     -0.200000E-01   12.0110           0
       153 PROB     15       GLY      HA1      HB2      0.900000E-01   1.00800           0
       154 PROB     15       GLY      HA2      HB2      0.900000E-01   1.00800           0
       155 PROB     15       GLY      C        C        0.510000       12.0110           0
       156 PROB     15       GLY      O        O       -0.510000       15.9994           0
       157 PROB     16       PRO      N        N       -0.290000       14.0070           0
       158 PROB     16       PRO      CD       CP3       0.00000       12.0110           0
       159 PROB     16       PRO      HD1      HA2      0.900000E-01   1.00800           0
       160 PROB     16       PRO      HD2      HA2      0.900000E-01   1.00800           0
       161 PROB     16       PRO      CA       CP1      0.200000E-01   12.0110           0
       162 PROB     16       PRO      HA       HB1      0.900000E-01   1.00800           0
       163 PROB     16       PRO      CB       CP2     -0.180000       12.0110           0
       164 PROB     16       PRO      HB1      HA2      0.900000E-01   1.00800           0
       165 PROB     16       PRO      HB2      HA2      0.900000E-01   1.00800           0
       166 PROB     16       PRO      CG       CP2     -0.180000       12.0110           0
       167 PROB     16       PRO      HG1      HA2      0.900000E-01   1.00800           0
       168 PROB     16       PRO      HG2      HA2      0.900000E-01   1.00800           0
       169 PROB     16       PRO      C        C        0.510000       12.0110           0
       170 PROB     16       PRO      O        O       -0.510000       15.9994           0
       171 PROB     17       GLY      N        NH1     -0.470000       14.0070           0
       172 PROB     17       GLY      HN       H        0.310000       1.00800           0
       173 PROB     17       GLY      CA       CT2     -0.200000E-01   12.0110           0
       174 PROB     17       GLY      HA1      HB2      0.900000E-01   1.00800           0
       175 PROB     17       GLY      HA2      HB2      0.900000E-01   1.00800           0
       176 PROB     17       GLY      C        C        0.510000       12.0110           0
       177 PROB     17       GLY      O        O       -0.510000       15.9994           0
       178 PROB     18       ASP      N        NH1     -0.470000       14.0070           0
       179 PROB     18       ASP      HN       H        0.310000       1.00800           0
       180 PROB     18       ASP      CA       CT1      0.700000E-01   12.0110           0
       181 PROB     18       ASP      HA       HB1      0.900000E-01   1.00800           0
       182 PROB     18       ASP      CB       CT2A    -0.280000       12.0110           0
       183 PROB     18       ASP      HB1      HA2      0.900000E-01   1.00800           0
       184 PROB     18       ASP      HB2      HA2      0.900000E-01   1.00800           0
       185 PROB     18       ASP      CG       CC       0.620000       12.0110           0
       186 PROB     18       ASP      OD1      OC      -0.760000       15.9994           0
       187 PROB     18       ASP      OD2      OC      -0.760000       15.9994           0
       188 PROB     18       ASP      C        C        0.510000       12.0110           0
       189 PROB     18       ASP      O        O       -0.510000       15.9994           0
       190 PROB     19       PRO      N        N       -0.290000       14.0070           0
       191 PROB     19       PRO      CD       CP3       0.00000       12.0110           0
       192 PROB     19       PRO      HD1      HA2      0.900000E-01   1.00800           0
       193 PROB     19       PRO      HD2      HA2      0.900000E-01   1.00800           0
       194 PROB     19       PRO      CA       CP1      0.200000E-01   12.0110           0
       195 PROB     19       PRO      HA       HB1      0.900000E-01   1.00800           0
       196 PROB     19       PRO      CB       CP2     -0.180000       12.0110           0
       197 PROB     19       PRO      HB1      HA2      0.900000E-01   1.00800           0
       198 PROB     19       PRO      HB2      HA2      0.900000E-01   1.00800           0
       199 PROB     19       PRO      CG       CP2     -0.180000       12.0110           0
       200 PROB     19       PRO      HG1      HA2      0.900000E-01   1.00800           0
       201 PROB     19       PRO      HG2      HA2      0.900000E-01   1.00800           0
       202 PROB     19       PRO      C        CC       0.340000       12.0110           0
       203 PROB     19       PRO      OT1      OC      -0.670000       15.9994           0
       204 PROB     19       PRO      OT2      OC      -0.670000       15.9994           0

       208 !NBOND: bonds
         2         1         3         1         4         1         1         5
         8         5         5         6         5         7         8        10
         8         9        12        11        13        11        25        17
        25        27        11        17        17        19        19        22
        22        14        11        14        18        17        23        22
        24        22        15        14        16        14        20        19
        21        19        26        25        27        28        27        29
        32        29        32        34        29        30        29        31
        33        32        38        36        41        38        43        41
        34        35        34        36        44        36        44        46
        36        37        38        39        38        40        45        44
        41        42        58        50        58        60        46        50
        50        52        52        55        55        47        46        47
        51        50        56        55        57        55        48        47
        49        47        53        52        54        52        59        58
        60        61        60        62        65        62        65        67
        62        63        62        64        66        65        71        69
        74        71        67        68        67        69        76        69
        76        78        69        70        71        72        71        73
        74        75        77        76        78        79        78        80
        83        80        83        85        80        81        80        82
        84        83        97        89        97        99        85        89
        89        91        91        94        94        86        85        86
        90        89        95        94        96        94        87        86
        88        86        92        91        93        91        98        97
        99       100        99       101       104       101       104       106
       101       102       101       103       105       104       110       108
       113       110       115       113       106       107       106       108
       116       108       116       118       108       109       110       111
       110       112       117       116       113       114       130       122
       130       132       118       122       122       124       124       127
       127       119       118       119       123       122       128       127
       129       127       120       119       121       119       125       124
       126       124       131       130       132       133       132       134
       137       134       137       139       134       135       134       136
       138       137       143       141       146       143       139       140
       139       141       148       141       148       150       141       142
       143       144       143       145       146       147       149       148
       150       151       150       152       155       152       155       157
       152       153       152       154       156       155       169       161
       169       171       157       161       161       163       163       166
       166       158       157       158       162       161       167       166
       168       166       159       158       160       158       164       163
       165       163       170       169       171       172       171       173
       176       173       176       178       173       174       173       175
       177       176       182       180       185       182       187       185
       178       179       178       180       188       180       188       190
       180       181       182       183       182       184       189       188
       185       186       202       194       190       194       194       196
       196       199       199       191       190       191       195       194
       200       199       201       199       192       191       193       191
       197       196       198       196       202       204       202       203

       383 !NTHETA: angles
         2         1         3         2         1         4         2         1         5
         3         1         4         3         1         5         4         1         5
         1         5         6         1         5         7         1         5         8
         6         5         7         6         5         8         7         5         8
         5         8         9         5         8        10         9         8        10
        12        11        13        12        11        14        12        11        17
        13        11        14        13        11        17        14        11        17
        11        14        15        11        14        16        11        14        22
        15        14        16        15        14        22        16        14        22
        11        17        18        11        17        19        11        17        25
        18        17        19        18        17        25        19        17        25
        17        19        20        17        19        21        17        19        22
        20        19        21        20        19        22        21        19        22
        14        22        19        14        22        23        14        22        24
        19        22        23        19        22        24        23        22        24
        17        25        26        17        25        27        26        25        27
        25        27        28        25        27        29        28        27        29
        27        29        30        27        29        31        27        29        32
        30        29        31        30        29        32        31        29        32
        29        32        33        29        32        34        33        32        34
        32        34        35        32        34        36        35        34        36
        34        36        37        34        36        38        34        36        44
        37        36        38        37        36        44        38        36        44
        36        38        39        36        38        40        36        38        41
        39        38        40        39        38        41        40        38        41
        38        41        42        38        41        43        42        41        43
        36        44        45        36        44        46        45        44        46
        44        46        47        44        46        50        47        46        50
        46        47        48        46        47        49        46        47        55
        48        47        49        48        47        55        49        47        55
        46        50        51        46        50        52        46        50        58
        51        50        52        51        50        58        52        50        58
        50        52        53        50        52        54        50        52        55
        53        52        54        53        52        55        54        52        55
        47        55        52        47        55        56        47        55        57
        52        55        56        52        55        57        56        55        57
        50        58        59        50        58        60        59        58        60
        58        60        61        58        60        62        61        60        62
        60        62        63        60        62        64        60        62        65
        63        62        64        63        62        65        64        62        65
        62        65        66        62        65        67        66        65        67
        65        67        68        65        67        69        68        67        69
        67        69        70        67        69        71        67        69        76
        70        69        71        70        69        76        71        69        76
        69        71        72        69        71        73        69        71        74
        72        71        73        72        71        74        73        71        74
        71        74        75        69        76        77        69        76        78
        77        76        78        76        78        79        76        78        80
        79        78        80        78        80        81        78        80        82
        78        80        83        81        80        82        81        80        83
        82        80        83        80        83        84        80        83        85
        84        83        85        83        85        86        83        85        89
        86        85        89        85        86        87        85        86        88
        85        86        94        87        86        88        87        86        94
        88        86        94        85        89        90        85        89        91
        85        89        97        90        89        91        90        89        97
        91        89        97        89        91        92        89        91        93
        89        91        94        92        91        93        92        91        94
        93        91        94        86        94        91        86        94        95
        86        94        96        91        94        95        91        94        96
        95        94        96        89        97        98        89        97        99
        98        97        99        97        99       100        97        99       101
       100        99       101        99       101       102        99       101       103
        99       101       104       102       101       103       102       101       104
       103       101       104       101       104       105       101       104       106
       105       104       106       104       106       107       104       106       108
       107       106       108       106       108       109       106       108       110
       106       108       116       109       108       110       109       108       116
       110       108       116       108       110       111       108       110       112
       108       110       113       111       110       112       111       110       113
       112       110       113       110       113       114       110       113       115
       114       113       115       108       116       117       108       116       118
       117       116       118       116       118       119       116       118       122
       119       118       122       118       119       120       118       119       121
       118       119       127       120       119       121       120       119       127
       121       119       127       118       122       123       118       122       124
       118       122       130       123       122       124       123       122       130
       124       122       130       122       124       125       122       124       126
       122       124       127       125       124       126       125       124       127
       126       124       127       119       127       124       119       127       128
       119       127       129       124       127       128       124       127       129
       128       127       129       122       130       131       122       130       132
       131       130       132       130       132       133       130       132       134
       133       132       134       132       134       135       132       134       136
       132       134       137       135       134       136       135       134       137
       136       134       137       134       137       138       134       137       139
       138       137       139       137       139       140       137       139       141
       140       139       141       139       141       142       139       141       143
       139       141       148       142       141       143       142       141       148
       143       141       148       141       143       144       141       143       145
       141       143       146       144       143       145       144       143       146
       145       143       146       143       146       147       141       148       149
       141       148       150       149       148       150       148       150       151
       148       150       152       151       150       152       150       152       153
       150       152       154       150       152       155       153       152       154
       153       152       155       154       152       155       152       155       156
       152       155       157       156       155       157       155       157       158
       155       157       161       158       157       161       157       158       159
       157       158       160       157       158       166       159       158       160
       159       158       166       160       158       166       157       161       162
       157       161       163       157       161       169       162       161       163
       162       161       169       163       161       169       161       163       164
       161       163       165       161       163       166       164       163       165
       164       163       166       165       163       166       158       166       163
       158       166       167       158       166       168       163       166       167
       163       166       168       167       166       168       161       169       170
       161       169       171       170       169       171       169       171       172
       169       171       173       172       171       173       171       173       174
       171       173       175       171       173       176       174       173       175
       174       173       176       175       173       176       173       176       177
       173       176       178       177       176       178       176       178       179
       176       178       180       179       178       180       178       180       181
       178       180       182       178       180       188       181       180       182
       181       180       188       182       180       188       180       182       183
       180       182       184       180       182       185       183       182       184
       183       182       185       184       182       185       182       185       186
       182       185       187       186       185       187       180       188       189
       180       188       190       189       188       190       188       190       191
       188       190       194       191       190       194       190       191       192
       190       191       193       190       191       199       192       191       193
       192       191       199       193       191       199       190       194       195
       190       194       196       190       194       202       195       194       196
       195       194       202       196       194       202       194       196       197
       194       196       198       194       196       199       197       196       198
       197       196       199       198       196       199       191       199       196
       191       199       200       191       199       201       196       199       200
       196       199       201       200       199       201       194       202       203
       194       202       204       203       202       204

       572 !NPHI: dihedrals
         1         5         8         9         1         5         8        10
         2         1         5         6         2         1         5         7
         2         1         5         8         3         1         5         6
         3         1         5         7         3         1         5         8
         4         1         5         6         4         1         5         7
         4         1         5         8         6         5         8         9
         6         5         8        10         7         5         8         9
         7         5         8        10        11        14        22        19
        11        14        22        23        11        14        22        24
        11        17        19        20        11        17        19        21
        11        17        19        22        11        17        25        26
        11        17        25        27        12        11        14        15
        12        11        14        16        12        11        14        22
        12        11        17        18        12        11        17        19
        12        11        17        25        13        11        14        15
        13        11        14        16        13        11        14        22
        13        11        17        18        13        11        17        19
        13        11        17        25        14        11        17        18
        14        11        17        19        14        11        17        25
        14        22        19        17        14        22        19        20
        14        22        19        21        15        14        11        17
        15        14        22        19        15        14        22        23
        15        14        22        24        16        14        11        17
        16        14        22        19        16        14        22        23
        16        14        22        24        17        11        14        22
        17        19        22        23        17        19        22        24
        17        25        27        28        17        25        27        29
        18        17        19        20        18        17        19        21
        18        17        19        22        18        17        25        26
        18        17        25        27        19        17        25        26
        19        17        25        27        20        19        17        25
        20        19        22        23        20        19        22        24
        21        19        17        25        21        19        22        23
        21        19        22        24        22        19        17        25
        25        27        29        30        25        27        29        31
        25        27        29        32        26        25        27        28
        26        25        27        29        27        29        32        33
        27        29        32        34        28        27        29        30
        28        27        29        31        28        27        29        32
        29        32        34        35        29        32        34        36
        30        29        32        33        30        29        32        34
        31        29        32        33        31        29        32        34
        32        34        36        37        32        34        36        38
        32        34        36        44        33        32        34        35
        33        32        34        36        34        36        38        39
        34        36        38        40        34        36        38        41
        34        36        44        45        34        36        44        46
        35        34        36        37        35        34        36        38
        35        34        36        44        36        38        41        42
        36        38        41        43        36        44        46        47
        36        44        46        50        37        36        38        39
        37        36        38        40        37        36        38        41
        37        36        44        45        37        36        44        46
        38        36        44        45        38        36        44        46
        39        38        36        44        39        38        41        42
        39        38        41        43        40        38        36        44
        40        38        41        42        40        38        41        43
        41        38        36        44        44        46        47        48
        44        46        47        49        44        46        47        55
        44        46        50        51        44        46        50        52
        44        46        50        58        45        44        46        47
        45        44        46        50        46        47        55        52
        46        47        55        56        46        47        55        57
        46        50        52        53        46        50        52        54
        46        50        52        55        46        50        58        59
        46        50        58        60        47        46        50        51
        47        46        50        52        47        46        50        58
        47        55        52        50        47        55        52        53
        47        55        52        54        48        47        46        50
        48        47        55        52        48        47        55        56
        48        47        55        57        49        47        46        50
        49        47        55        52        49        47        55        56
        49        47        55        57        50        46        47        55
        50        52        55        56        50        52        55        57
        50        58        60        61        50        58        60        62
        51        50        52        53        51        50        52        54
        51        50        52        55        51        50        58        59
        51        50        58        60        52        50        58        59
        52        50        58        60        53        52        50        58
        53        52        55        56        53        52        55        57
        54        52        50        58        54        52        55        56
        54        52        55        57        55        52        50        58
        58        60        62        63        58        60        62        64
        58        60        62        65        59        58        60        61
        59        58        60        62        60        62        65        66
        60        62        65        67        61        60        62        63
        61        60        62        64        61        60        62        65
        62        65        67        68        62        65        67        69
        63        62        65        66        63        62        65        67
        64        62        65        66        64        62        65        67
        65        67        69        70        65        67        69        71
        65        67        69        76        66        65        67        68
        66        65        67        69        67        69        71        72
        67        69        71        73        67        69        71        74
        67        69        76        77        67        69        76        78
        68        67        69        70        68        67        69        71
        68        67        69        76        69        71        74        75
        69        76        78        79        69        76        78        80
        70        69        71        72        70        69        71        73
        70        69        71        74        70        69        76        77
        70        69        76        78        71        69        76        77
        71        69        76        78        72        71        69        76
        72        71        74        75        73        71        69        76
        73        71        74        75        74        71        69        76
        76        78        80        81        76        78        80        82
        76        78        80        83        77        76        78        79
        77        76        78        80        78        80        83        84
        78        80        83        85        79        78        80        81
        79        78        80        82        79        78        80        83
        80        83        85        86        80        83        85        89
        81        80        83        84        81        80        83        85
        82        80        83        84        82        80        83        85
        83        85        86        87        83        85        86        88
        83        85        86        94        83        85        89        90
        83        85        89        91        83        85        89        97
        84        83        85        86        84        83        85        89
        85        86        94        91        85        86        94        95
        85        86        94        96        85        89        91        92
        85        89        91        93        85        89        91        94
        85        89        97        98        85        89        97        99
        86        85        89        90        86        85        89        91
        86        85        89        97        86        94        91        89
        86        94        91        92        86        94        91        93
        87        86        85        89        87        86        94        91
        87        86        94        95        87        86        94        96
        88        86        85        89        88        86        94        91
        88        86        94        95        88        86        94        96
        89        85        86        94        89        91        94        95
        89        91        94        96        89        97        99       100
        89        97        99       101        90        89        91        92
        90        89        91        93        90        89        91        94
        90        89        97        98        90        89        97        99
        91        89        97        98        91        89        97        99
        92        91        89        97        92        91        94        95
        92        91        94        96        93        91        89        97
        93        91        94        95        93        91        94        96
        94        91        89        97        97        99       101       102
        97        99       101       103        97        99       101       104
        98        97        99       100        98        97        99       101
        99       101       104       105        99       101       104       106
       100        99       101       102       100        99       101       103
       100        99       101       104       101       104       106       107
       101       104       106       108       102       101       104       105
       102       101       104       106       103       101       104       105
       103       101       104       106       104       106       108       109
       104       106       108       110       104       106       108       116
       105       104       106       107       105       104       106       108
       106       108       110       111       106       108       110       112
       106       108       110       113       106       108       116       117
       106       108       116       118       107       106       108       109
       107       106       108       110       107       106       108       116
       108       110       113       114       108       110       113       115
       108       116       118       119       108       116       118       122
       109       108       110       111       109       108       110       112
       109       108       110       113       109       108       116       117
       109       108       116       118       110       108       116       117
       110       108       116       118       111       110       108       116
       111       110       113       114       111       110       113       115
       112       110       108       116       112       110       113       114
       112       110       113       115       113       110       108       116
       116       118       119       120       116       118       119       121
       116       118       119       127       116       118       122       123
       116       118       122       124       116       118       122       130
       117       116       118       119       117       116       118       122
       118       119       127       124       118       119       127       128
       118       119       127       129       118       122       124       125
       118       122       124       126       118       122       124       127
       118       122       130       131       118       122       130       132
       119       118       122       123       119       118       122       124
       119       118       122       130       119       127       124       122
       119       127       124       125       119       127       124       126
       120       119       118       122       120       119       127       124
       120       119       127       128       120       119       127       129
       121       119       118       122       121       119       127       124
       121       119       127       128       121       119       127       129
       122       118       119       127       122       124       127       128
       122       124       127       129       122       130       132       133
       122       130       132       134       123       122       124       125
       123       122       124       126       123       122       124       127
       123       122       130       131       123       122       130       132
       124       122       130       131       124       122       130       132
       125       124       122       130       125       124       127       128
       125       124       127       129       126       124       122       130
       126       124       127       128       126       124       127       129
       127       124       122       130       130       132       134       135
       130       132       134       136       130       132       134       137
       131       130       132       133       131       130       132       134
       132       134       137       138       132       134       137       139
       133       132       134       135       133       132       134       136
       133       132       134       137       134       137       139       140
       134       137       139       141       135       134       137       138
       135       134       137       139       136       134       137       138
       136       134       137       139       137       139       141       142
       137       139       141       143       137       139       141       148
       138       137       139       140       138       137       139       141
       139       141       143       144       139       141       143       145
       139       141       143       146       139       141       148       149
       139       141       148       150       140       139       141       142
       140       139       141       143       140       139       141       148
       141       143       146       147       141       148       150       151
       141       148       150       152       142       141       143       144
       142       141       143       145       142       141       143       146
       142       141       148       149       142       141       148       150
       143       141       148       149       143       141       148       150
       144       143       141       148       144       143       146       147
       145       143       141       148       145       143       146       147
       146       143       141       148       148       150       152       153
       148       150       152       154       148       150       152       155
       149       148       150       151       149       148       150       152
       150       152       155       156       150       152       155       157
       151       150       152       153       151       150       152       154
       151       150       152       155       152       155       157       158
       152       155       157       161       153       152       155       156
       153       152       155       157       154       152       155       156
       154       152       155       157       155       157       158       159
       155       157       158       160       155       157       158       166
       155       157       161       162       155       157       161       163
       155       157       161       169       156       155       157       158
       156       155       157       161       157       158       166       163
       157       158       166       167       157       158       166       168
       157       161       163       164       157       161       163       165
       157       161       163       166       157       161       169       170
       157       161       169       171       158       157       161       162
       158       157       161       163       158       157       161       169
       158       166       163       161       158       166       163       164
       158       166       163       165       159       158       157       161
       159       158       166       163       159       158       166       167
       159       158       166       168       160       158       157       161
       160       158       166       163       160       158       166       167
       160       158       166       168       161       157       158       166
       161       163       166       167       161       163       166       168
       161       169       171       172       161       169       171       173
       162       161       163       164       162       161       163       165
       162       161       163       166       162       161       169       170
       162       161       169       171       163       161       169       170
       163       161       169       171       164       163       161       169
       164       163       166       167       164       163       166       168
       165       163       161       169       165       163       166       167
       165       163       166       168       166       163       161       169
       169       171       173       174       169       171       173       175
       169       171       173       176       170       169       171       172
       170       169       171       173       171       173       176       177
       171       173       176       178       172       171       173       174
       172       171       173       175       172       171       173       176
       173       176       178       179       173       176       178       180
       174       173       176       177       174       173       176       178
       175       173       176       177       175       173       176       178
       176       178       180       181       176       178       180       182
       176       178       180       188       177       176       178       179
       177       176       178       180       178       180       182       183
       178       180       182       184       178       180       182       185
       178       180       188       189       178       180       188       190
       179       178       180       181       179       178       180       182
       179       178       180       188       180       182       185       186
       180       182       185       187       180       188       190       191
       180       188       190       194       181       180       182       183
       181       180       182       184       181       180       182       185
       181       180       188       189       181       180       188       190
       182       180       188       189       182       180       188       190
       183       182       180       188       183       182       185       186
       183       182       185       187       184       182       180       188
       184       182       185       186       184       182       185       187
       185       182       180       188       188       190       191       192
       188       190       191       193       188       190       191       199
       188       190       194       195       188       190       194       196
       188       190       194       202       189       188       190       191
       189       188       190       194       190       191       199       196
       190       191       199       200       190       191       199       201
       190       194       196       197       190       194       196       198
       190       194       196       199       190       194       202       203
       190       194       202       204       191       190       194       195
       191       190       194       196       191       190       194       202
       191       199       196       194       191       199       196       197
       191       199       196       198       192       191       190       194
       192       191       199       196       192       191       199       200
       192       191       199       201       193       191       190       194
       193       191       199       196       193       191       199       200
       193       191       199       201       194       190       191       199
       194       196       199       200       194       196       199       201
       195       194       196       197       195       194       196       198
       195       194       196       199       195       194       202       203
       195       194       202       204       196       194       202       203
       196       194       202       204       197       196       194       202
       197       196       199       200       197       196       199       201
       198       196       194       202       198       196       199       200
       198       196       199       201       199       196       194       202

        39 !NIMPHI: impropers
         8         5        10         9        25        17        27        26
        27        25        29        28        32        29        34        33
        34        32        36        35        44        36        46        45
        41        38        43        42        46        44        50        47
        58        50        60        59        60        58        62        61
        65        62        67        66        67        65        69        68
        76        69        78        77        78        76        80        79
        83        80        85        84        85        83        89        86
        97        89        99        98        99        97       101       100
       104       101       106       105       106       104       108       107
       116       108       118       117       113       110       115       114
       118       116       122       119       130       122       132       131
       132       130       134       133       137       134       139       138
       139       137       141       140       148       141       150       149
       150       148       152       151       155       152       157       156
       157       155       161       158       169       161       171       170
       171       169       173       172       176       173       178       177
       178       176       180       179       188       180       190       189
       185       182       187       186       190       188       194       191
       202       194       204       203

        19 !NDON: donors
         1         2         1         3         1         4        11        12
        11        13        27        28        34        35        60        61
        67        68        74        75        78        79        99       100
       106       107       132       133       139       140       146       147
       150       151       171       172       178       179

        29 !NACC: acceptors
         9         8        10         8        26        25        33        32
        42        41        43        41        45        44        59        58
        66        65        74         0        77        76        84        83
        98        97       105       104       114       113       115       113
       117       116       131       130       138       137       146         0
       149       148       156       155       170       169       177       176
       186       185       187       185       189       188       203       202
       204       202

         0 !NNB

         0         0         0         0         0         0         0         0
         0         0         0         0         0         0         0         0
         0         0         0         0         0         0         0         0
         0         0         0         0         0         0         0         0
         0         0         0         0         0         0         0         0
         0         0         0         0         0         0         0         0
         0         0         0         0         0         0         0         0
         0         0         0         0         0         0         0         0
         0         0         0         0         0         0         0         0
         0         0         0         0         0         0         0         0
         0         0         0         0         0         0         0         0
         0         0         0         0         0         0         0         0
         0         0         0         0         0         0         0         0
         0         0         0         0         0         0         0         0
         0         0         0         0         0         0         0         0
         0         0         0         0         0         0         0         0
         0         0         0         0         0         0         0         0
         0         0         0         0         0         0         0         0
         0         0         0         0         0         0         0         0
         0         0         0         0         0         0         0         0
         0         0         0         0         0         0         0         0
         0         0         0         0         0         0         0         0
         0         0         0         0         0         0         0         0
         0         0         0         0         0         0         0         0
         0         0         0         0         0         0         0         0
         0         0         0         0

        55         0 !NGRP NST2
         0         2         0         7         2         0        10         2         0
        18         1         0        21         1         0        24         1         0
        26         1         0        31         1         0        33         1         0
        37         2         0        43         1         0        45         1         0
        51         1         0        54         1         0        57         1         0
        59         1         0        64         1         0        66         1         0
        70         1         0        75         1         0        77         1         0
        82         1         0        84         1         0        90         1         0
        93         1         0        96         1         0        98         1         0
       103         1         0       105         1         0       109         2         0
       115         1         0       117         1         0       123         1         0
       126         1         0       129         1         0       131         1         0
       136         1         0       138         1         0       142         1         0
       147         1         0       149         1         0       154         1         0
       156         1         0       162         1         0       165         1         0
       168         1         0       170         1         0       175         1         0
       177         1         0       181         2         0       187         1         0
       189         1         0       195         1         0       198         1         0
       201         2         0

         0         0 !NUMLP NUMLPH

        16 !NCRTERM: cross-terms
        25        27        29        32        27        29        32        34
        32        34        36        44        34        36        44        46
        44        46        50        58        46        50        58        60
        58        60        62        65        60        62        65        67
        65        67        69        76        67        69        76        78
        76        78        80        83        78        80        83        85
        83        85        89        97        85        89        97        99
        97        99       101       104        99       101       104       106
       104       106       108       116       106       108       116       118
       116       118       122       130       118       122       130       132
       130       132       134       137       132       134       137       139
       137       139       141       148       139       141       148       150
       148       150       152       155       150       152       155       157
       155       157       161       169       157       161       169       171
       169       171       173       176       171       173       176       178
       176       178       180       188       178       180       188       190
