* SET NIONTYPES = 1
* SET NPOSTOT = 68
* SET NNEGTOT = 65
* SET NIONTOT = 133
*  DATE:     6/13/26      7:29:36      CREATED BY USER: charmm-gui
*
       133  EXT
         1         1  LIT       LIT            23.1093408558       23.0224322774       27.8321670367  IONS      1               1.0000000000
         2         2  LIT       LIT             9.7777205670      -18.1037892163       41.1173744044  IONS      2               1.0000000000
         3         3  LIT       LIT            28.4008508016       33.6185329925        1.8997200302  IONS      3               1.0000000000
         4         4  LIT       LIT           -27.0442877308       10.8411185756      -28.7148509932  IONS      4               1.0000000000
         5         5  LIT       LIT             4.6703256962      -30.6429489932      -38.1535292388  IONS      5               1.0000000000
         6         6  LIT       LIT            23.8807727644       30.8869194449       11.7675601040  IONS      6               1.0000000000
         7         7  LIT       LIT            -9.7539870924       -7.6407370073      -42.1033090262  IONS      7               1.0000000000
         8         8  LIT       LIT            -8.9625679368       29.7633071244      -12.6968192279  IONS      8               1.0000000000
         9         9  LIT       LIT            32.4582457992       16.8312818861      -34.6477601418  IONS      9               1.0000000000
        10        10  LIT       LIT           -27.8603421002      -39.7317306495      -11.5115096037  IONS      10              1.0000000000
        11        11  LIT       LIT           -11.1031040734       26.9435876989      -37.2574224788  IONS      11              1.0000000000
        12        12  LIT       LIT            -8.8716517185       18.1526275194       25.4875883684  IONS      12              1.0000000000
        13        13  LIT       LIT            14.4301220545        0.9984533019      -20.2614297710  IONS      13              1.0000000000
        14        14  LIT       LIT           -24.9425028755       39.5349461735       27.8525188019  IONS      14              1.0000000000
        15        15  LIT       LIT            45.7180219806      -12.8349004224       13.7630495932  IONS      15              1.0000000000
        16        16  LIT       LIT            39.6309686964        6.2930627884      -27.9052377631  IONS      16              1.0000000000
        17        17  LIT       LIT           -22.3494696121      -10.8964011847      -46.4993422238  IONS      17              1.0000000000
        18        18  LIT       LIT            16.9493952608       20.2833036355       31.3765384709  IONS      18              1.0000000000
        19        19  LIT       LIT           -28.5132831419       44.3843796909       16.1047985892  IONS      19              1.0000000000
        20        20  LIT       LIT            27.2902570466      -15.3716401143       18.2229164876  IONS      20              1.0000000000
        21        21  LIT       LIT            34.9646056049        6.6184528085       24.4466504313  IONS      21              1.0000000000
        22        22  LIT       LIT           -23.1002088930       29.0386116101      -13.1074325801  IONS      22              1.0000000000
        23        23  LIT       LIT           -26.7198588490        9.1496948679        9.3148350325  IONS      23              1.0000000000
        24        24  LIT       LIT            33.0980906927       17.3172553906       10.0504933236  IONS      24              1.0000000000
        25        25  LIT       LIT           -25.8349693861        5.1168442190       23.1335447863  IONS      25              1.0000000000
        26        26  LIT       LIT            18.2640646596       27.1957262430        6.2897411408  IONS      26              1.0000000000
        27        27  LIT       LIT           -22.3416434676      -48.8750877237       16.1311315747  IONS      27              1.0000000000
        28        28  LIT       LIT           -22.6079474111       35.5751342754        0.7461030897  IONS      28              1.0000000000
        29        29  LIT       LIT            15.7376426847       -2.8529970109       -5.1033393162  IONS      29              1.0000000000
        30        30  LIT       LIT            -2.7086794018      -15.9400075330       39.3755366662  IONS      30              1.0000000000
        31        31  LIT       LIT             7.0021149419      -41.3821194981      -24.3285481425  IONS      31              1.0000000000
        32        32  LIT       LIT           -18.0914446873      -16.5807671264      -19.1894507787  IONS      32              1.0000000000
        33        33  LIT       LIT           -19.6538220759       -3.6680824021      -23.4150106660  IONS      33              1.0000000000
        34        34  LIT       LIT            -7.3609819419      -14.8923189998      -53.3875648857  IONS      34              1.0000000000
        35        35  LIT       LIT             6.6168695226      -27.1915754239      -23.7217044855  IONS      35              1.0000000000
        36        36  LIT       LIT            25.1253754803      -12.3272952114      -33.3425805239  IONS      36              1.0000000000
        37        37  LIT       LIT           -30.8165202965       30.2463796669      -15.6750628062  IONS      37              1.0000000000
        38        38  LIT       LIT           -32.7180642198      -10.1037883069      -15.5067962342  IONS      38              1.0000000000
        39        39  LIT       LIT           -27.8860478105       18.7742856341       48.6065670403  IONS      39              1.0000000000
        40        40  LIT       LIT            15.2135599391       46.4779196704       14.0197213993  IONS      40              1.0000000000
        41        41  LIT       LIT           -18.4447033662      -40.2101335959       15.5686901223  IONS      41              1.0000000000
        42        42  LIT       LIT            28.5137933223       11.7632853042       38.8144278653  IONS      42              1.0000000000
        43        43  LIT       LIT            39.4184408181      -12.9865593662      -18.1849466352  IONS      43              1.0000000000
        44        44  LIT       LIT            51.7991858020       19.8972886573       11.8142183197  IONS      44              1.0000000000
        45        45  LIT       LIT           -41.7977122966       16.8220121293       -6.8398663450  IONS      45              1.0000000000
        46        46  LIT       LIT           -17.3960782235       27.0177502814       -4.2436028395  IONS      46              1.0000000000
        47        47  LIT       LIT            28.0135787406        2.2322218927       22.1426626882  IONS      47              1.0000000000
        48        48  LIT       LIT             2.5657800137       41.4162764694       14.0080884965  IONS      48              1.0000000000
        49        49  LIT       LIT             8.2240183115       30.1500001943       42.7724526712  IONS      49              1.0000000000
        50        50  LIT       LIT            17.4972588969      -33.6805810018       40.2855949443  IONS      50              1.0000000000
        51        51  LIT       LIT           -37.9880019807        5.2128926143        7.1746405719  IONS      51              1.0000000000
        52        52  LIT       LIT            31.8559169839       -3.5191401739        9.3353742856  IONS      52              1.0000000000
        53        53  LIT       LIT            21.6782001998      -24.5487486310      -47.3779110095  IONS      53              1.0000000000
        54        54  LIT       LIT            12.0254549006       -7.2520554647       13.5079543632  IONS      54              1.0000000000
        55        55  LIT       LIT            -4.2491710274       10.7659009322        0.9522956228  IONS      55              1.0000000000
        56        56  LIT       LIT            37.0209495849        8.8642453516        9.4377892811  IONS      56              1.0000000000
        57        57  LIT       LIT            35.7835951005       -0.5579610796      -21.9419216651  IONS      57              1.0000000000
        58        58  LIT       LIT           -21.2038486777      -35.1562559791      -10.9016292168  IONS      58              1.0000000000
        59        59  LIT       LIT            28.0687235991      -25.9613542260       32.2654897028  IONS      59              1.0000000000
        60        60  LIT       LIT            35.3749842068       43.2015198872       -4.8692869407  IONS      60              1.0000000000
        61        61  LIT       LIT           -43.5541045106      -17.5132612126       -3.5513915662  IONS      61              1.0000000000
        62        62  LIT       LIT            33.2606986795       32.4812310937       -0.4725101722  IONS      62              1.0000000000
        63        63  LIT       LIT            12.5661554342      -31.7490434968      -14.3800386191  IONS      63              1.0000000000
        64        64  LIT       LIT            -9.5135859148      -30.1429954631      -39.7032401455  IONS      64              1.0000000000
        65        65  LIT       LIT             1.0097051222      -17.8045255340       -3.6278052743  IONS      65              1.0000000000
        66        66  LIT       LIT            36.7510520499      -19.9004038921        9.4349384187  IONS      66              1.0000000000
        67        67  LIT       LIT            40.5386769063      -17.2294003008      -23.9910187409  IONS      67              1.0000000000
        68        68  LIT       LIT            -2.8691074593      -28.6984185146      -18.0940640519  IONS      68              1.0000000000
        69        69  CLA       CLA           -10.5712855951      -43.0124422664      -20.7603527097  IONS      69             -1.0000000000
        70        70  CLA       CLA            33.4132937907       47.2415599420       -7.1673134166  IONS      70             -1.0000000000
        71        71  CLA       CLA           -22.3198781388       23.6368295886       -7.6237594577  IONS      71             -1.0000000000
        72        72  CLA       CLA            31.8882251007      -19.3939960806      -45.7591510104  IONS      72             -1.0000000000
        73        73  CLA       CLA            32.9349438643        0.6378193702       15.7269371621  IONS      73             -1.0000000000
        74        74  CLA       CLA            38.4808134802       -0.4108960500      -35.8934104743  IONS      74             -1.0000000000
        75        75  CLA       CLA             4.7186756139       34.7880896081        3.2027779698  IONS      75             -1.0000000000
        76        76  CLA       CLA            33.2705369025       25.4682367105        9.4501795080  IONS      76             -1.0000000000
        77        77  CLA       CLA            27.7773934036      -24.6281510079      -37.5699162338  IONS      77             -1.0000000000
        78        78  CLA       CLA            46.4319111389      -13.0965165991       10.0309204036  IONS      78             -1.0000000000
        79        79  CLA       CLA            -9.2160348365      -28.2902702745      -36.3013888967  IONS      79             -1.0000000000
        80        80  CLA       CLA           -13.5969143900       23.0093513319      -30.4957418187  IONS      80             -1.0000000000
        81        81  CLA       CLA            -9.6444622283       14.4849325811       -0.0447653490  IONS      81             -1.0000000000
        82        82  CLA       CLA            29.9702617257       37.1859376825       -7.4797837914  IONS      82             -1.0000000000
        83        83  CLA       CLA           -14.1850265870      -39.0689539080       14.3415599805  IONS      83             -1.0000000000
        84        84  CLA       CLA            22.2132294980      -32.9117084426       36.5290661127  IONS      84             -1.0000000000
        85        85  CLA       CLA            53.9997887734       26.5898216308       -6.2913181820  IONS      85             -1.0000000000
        86        86  CLA       CLA            32.4334119569       27.8041973756       -7.6850104899  IONS      86             -1.0000000000
        87        87  CLA       CLA            -9.8558222934      -21.1988540325      -18.4165220055  IONS      87             -1.0000000000
        88        88  CLA       CLA            45.6688730704       15.7911157354       -0.9190780080  IONS      88             -1.0000000000
        89        89  CLA       CLA           -19.0632142927       12.9275061878       28.1873661518  IONS      89             -1.0000000000
        90        90  CLA       CLA            41.0362685665        1.1442813162      -22.9975387958  IONS      90             -1.0000000000
        91        91  CLA       CLA           -21.6591230462      -40.4244345330      -10.5009112856  IONS      91             -1.0000000000
        92        92  CLA       CLA             4.7419211122       47.2730878822      -15.7754276741  IONS      92             -1.0000000000
        93        93  CLA       CLA           -21.2526058194       12.3238320101       -2.7453987446  IONS      93             -1.0000000000
        94        94  CLA       CLA             8.2332990000      -33.9943572640      -30.5276301095  IONS      94             -1.0000000000
        95        95  CLA       CLA            17.2014428939       40.3016734753       14.1050790511  IONS      95             -1.0000000000
        96        96  CLA       CLA            28.2644173704        6.6609742249       28.6768697257  IONS      96             -1.0000000000
        97        97  CLA       CLA           -31.1936881540        4.3743854221      -24.4094155743  IONS      97             -1.0000000000
        98        98  CLA       CLA            17.4725808482       -2.6468973452      -11.4405667322  IONS      98             -1.0000000000
        99        99  CLA       CLA             6.1009802155      -46.2197728592       15.8216413099  IONS      99             -1.0000000000
       100       100  CLA       CLA            33.7280044148      -20.2685400288       -9.5789696810  IONS      100            -1.0000000000
       101       101  CLA       CLA           -27.0846812848       36.0013020276      -18.2128713636  IONS      101            -1.0000000000
       102       102  CLA       CLA            -5.3970059192       39.9526472068       27.3075360987  IONS      102            -1.0000000000
       103       103  CLA       CLA            29.6714392436       20.4804451403        9.5779599905  IONS      103            -1.0000000000
       104       104  CLA       CLA           -40.9970187946       -7.6173958348        2.7715584817  IONS      104            -1.0000000000
       105       105  CLA       CLA           -30.1655404585        1.7480637566        0.9918593228  IONS      105            -1.0000000000
       106       106  CLA       CLA             4.9059984369      -20.0878630261       -1.6503986917  IONS      106            -1.0000000000
       107       107  CLA       CLA           -24.2704014361        2.8700516898      -35.0737653034  IONS      107            -1.0000000000
       108       108  CLA       CLA            13.6332698652      -27.9512814147      -23.1320963686  IONS      108            -1.0000000000
       109       109  CLA       CLA            19.4857313053       16.4921656052       33.4606619207  IONS      109            -1.0000000000
       110       110  CLA       CLA           -20.8021027129      -10.9065261042      -38.2001708859  IONS      110            -1.0000000000
       111       111  CLA       CLA           -43.0456532861      -29.9990151136       11.6828955087  IONS      111            -1.0000000000
       112       112  CLA       CLA           -34.3184629408       14.1797381262       46.6194196288  IONS      112            -1.0000000000
       113       113  CLA       CLA           -34.2410729171       36.0132002913       15.0553512371  IONS      113            -1.0000000000
       114       114  CLA       CLA            21.4568488958       -6.4322599632       -3.3482010763  IONS      114            -1.0000000000
       115       115  CLA       CLA            24.7249749722      -45.9685964220      -13.6786321261  IONS      115            -1.0000000000
       116       116  CLA       CLA            -4.5950683141      -30.3435611134      -24.2142112681  IONS      116            -1.0000000000
       117       117  CLA       CLA           -11.7299624805      -46.2668295982       -1.1140724997  IONS      117            -1.0000000000
       118       118  CLA       CLA           -40.9992139403       10.8389691783      -28.0744948414  IONS      118            -1.0000000000
       119       119  CLA       CLA           -49.2781517292      -15.5322217932       -5.5515529111  IONS      119            -1.0000000000
       120       120  CLA       CLA            -3.9056700710      -18.4330194572       24.3172926116  IONS      120            -1.0000000000
       121       121  CLA       CLA            35.7371059136      -17.6536484513      -17.0825347852  IONS      121            -1.0000000000
       122       122  CLA       CLA           -34.5581959610      -24.5796786454        1.4233013263  IONS      122            -1.0000000000
       123       123  CLA       CLA            -8.7763259799        8.9650794986        1.7541297392  IONS      123            -1.0000000000
       124       124  CLA       CLA            10.5706004912      -36.1922907773      -13.1505466363  IONS      124            -1.0000000000
       125       125  CLA       CLA           -18.4836325436      -37.8641339097       20.1367292632  IONS      125            -1.0000000000
       126       126  CLA       CLA            27.8565410258       -1.1674097052        5.9918715489  IONS      126            -1.0000000000
       127       127  CLA       CLA             7.7238633312      -24.0132455123       39.9483349231  IONS      127            -1.0000000000
       128       128  CLA       CLA             3.0213275561       47.0614174152       22.4841626402  IONS      128            -1.0000000000
       129       129  CLA       CLA            41.2472029585        9.4599495740       18.7525489347  IONS      129            -1.0000000000
       130       130  CLA       CLA            30.2685592647       31.0879228671       17.7207165782  IONS      130            -1.0000000000
       131       131  CLA       CLA            35.6778003803       24.8366324441      -32.5594623270  IONS      131            -1.0000000000
       132       132  CLA       CLA            19.7219703154      -41.4666970190      -30.6515516203  IONS      132            -1.0000000000
       133       133  CLA       CLA            12.2114059341        0.0762710076       20.6995034442  IONS      133            -1.0000000000
