* GENERATED BY CHARMM-GUI (HTTP://WWW.CHARMM-GUI.ORG) V3.7 ON JUN, 13. 2026. JOB
* GENERATES IONS
*  DATE:     6/13/26     13:30:55      CREATED BY USER: charmm-gui
*
       201  EXT
         1         1  GLY       N              28.2848202808        0.4080456202       -0.4519242612  PROA      1              97.6500000000
         2         1  GLY       HT1            29.0503839900        0.6243952255        0.2179302419  PROA      1               0.0000000000
         3         1  GLY       HT2            27.8645985381        1.2948458705       -0.7963057926  PROA      1               0.0000000000
         4         1  GLY       HT3            28.6689585499       -0.1281562971       -1.2559920010  PROA      1               0.0000000000
         5         1  GLY       CA             27.2649955591       -0.3841807108        0.2159956274  PROA      1              98.0700000000
         6         1  GLY       HA1            27.0153299898        0.1177135371        1.1390744269  PROA      1               0.0000000000
         7         1  GLY       HA2            27.6888461901       -1.3565649993        0.4187877394  PROA      1               0.0000000000
         8         1  GLY       C              26.0050254240       -0.5547141162       -0.6131139048  PROA      1              98.2400000000
         9         1  GLY       O              25.8233561753        0.1275074706       -1.6235687483  PROA      1              97.8900000000
        10         2  PRO       N              25.0382934560       -1.4748696789       -0.3107911595  PROA      2              98.4500000000
        11         2  PRO       CD             25.4094724870       -2.5181495799        0.4746304949  PROA      2              94.3500000000
        12         2  PRO       HD1            25.5119216545       -2.1746773719        1.5257598296  PROA      2               0.0000000000
        13         2  PRO       HD2            26.3763457695       -2.9293168417        0.1148536108  PROA      2               0.0000000000
        14         2  PRO       CA             23.7668315731       -1.6334635848       -1.0209789188  PROA      2              98.4900000000
        15         2  PRO       HA             23.9342712607       -1.6853187360       -2.0848458359  PROA      2               0.0000000000
        16         2  PRO       CB             23.1748958038       -2.9035767184       -0.4035887076  PROA      2              98.3300000000
        17         2  PRO       HB1            22.7967164321       -3.5866635815       -1.1938102871  PROA      2               0.0000000000
        18         2  PRO       HB2            22.3398444189       -2.6546704527        0.2854775444  PROA      2               0.0000000000
        19         2  PRO       CG             24.3084071004       -3.5308548998        0.3416946101  PROA      2              97.0100000000
        20         2  PRO       HG1            23.9666443881       -3.8516682768        1.3489546281  PROA      2               0.0000000000
        21         2  PRO       HG2            24.6781381085       -4.4203617328       -0.2118144630  PROA      2               0.0000000000
        22         2  PRO       C              22.8288417648       -0.4450883357       -0.8237547150  PROA      2              98.5700000000
        23         2  PRO       O              22.9730287306        0.3068552396        0.1435797558  PROA      2              98.4600000000
        24         3  GLY       N              21.9450124876       -0.2356469860       -1.9471349400  PROA      3              98.4300000000
        25         3  GLY       HN             21.9838258691       -0.7613177611       -2.7932122216  PROA      3               0.0000000000
        26         3  GLY       CA             20.9372123785        0.8063708578       -1.8355788855  PROA      3              98.4200000000
        27         3  GLY       HA1            20.4047309073        0.8521620382       -2.7740105230  PROA      3               0.0000000000
        28         3  GLY       HA2            21.4472367851        1.7401802360       -1.6507480507  PROA      3               0.0000000000
        29         3  GLY       C              19.9428513491        0.5581208041       -0.7164479486  PROA      3              98.5600000000
        30         3  GLY       O              19.8669788015       -0.5494388069       -0.1808202192  PROA      3              98.4800000000
        31         4  ASP       N              19.2613187572        1.5677437279       -0.3835096989  PROA      4              98.3400000000
        32         4  ASP       HN             19.4333126315        2.4753522044       -0.7584223622  PROA      4               0.0000000000
        33         4  ASP       CA             18.1706471679        1.4601439972        0.5805607250  PROA      4              98.3500000000
        34         4  ASP       HA             18.5505232575        0.9655574568        1.4621743938  PROA      4               0.0000000000
        35         4  ASP       CB             17.6316464632        2.8463582739        0.9391429603  PROA      4              98.1500000000
        36         4  ASP       HB1            16.6893265341        2.7277975870        1.5150353775  PROA      4               0.0000000000
        37         4  ASP       HB2            17.4188834080        3.4029158079        0.0017790208  PROA      4               0.0000000000
        38         4  ASP       CG             18.6037885064        3.6633370010        1.7723065741  PROA      4              95.9600000000
        39         4  ASP       OD1            19.5183216798        3.0775337513        2.3912157980  PROA      4              94.5100000000
        40         4  ASP       OD2            18.4510760101        4.9036625554        1.8148320096  PROA      4              95.1000000000
        41         4  ASP       C              17.0438489182        0.5826419321        0.0393566690  PROA      4              98.5400000000
        42         4  ASP       O              16.7858875085        0.5686213435       -1.1658476018  PROA      4              98.4500000000
        43         5  PRO       N              16.2308267276       -0.1445901303        0.8548653722  PROA      5              98.3800000000
        44         5  PRO       CD             16.5229922524       -0.2709170576        2.2238306067  PROA      5              97.1800000000
        45         5  PRO       HD1            16.3287289771        0.6900433320        2.7447913357  PROA      5               0.0000000000
        46         5  PRO       HD2            17.5836529908       -0.5689528430        2.3607854909  PROA      5               0.0000000000
        47         5  PRO       CA             15.0507221552       -0.8805829188        0.3940575885  PROA      5              98.3600000000
        48         5  PRO       HA             15.3287142791       -1.6077890143       -0.3518816544  PROA      5               0.0000000000
        49         5  PRO       CB             14.4795872019       -1.4742087600        1.6850933067  PROA      5              98.2900000000
        50         5  PRO       HB1            14.1997641312       -2.5393351813        1.5392195212  PROA      5               0.0000000000
        51         5  PRO       HB2            13.5819281921       -0.9092583775        2.0154170460  PROA      5               0.0000000000
        52         5  PRO       CG             15.5837065438       -1.3478618318        2.6851182727  PROA      5              97.5900000000
        53         5  PRO       HG1            15.1644368789       -1.0830482710        3.6792926312  PROA      5               0.0000000000
        54         5  PRO       HG2            16.1280007260       -2.3125911882        2.7707748031  PROA      5               0.0000000000
        55         5  PRO       C              14.0261824842        0.0176662867       -0.2929772196  PROA      5              98.5200000000
        56         5  PRO       O              13.9726999456        1.2203763943       -0.0221636029  PROA      5              98.4600000000
        57         6  GLY       N              13.3563000069       -0.5804557622       -1.2001604874  PROA      6              98.5000000000
        58         6  GLY       HN             13.5277833196       -1.5213025395       -1.4817944617  PROA      6               0.0000000000
        59         6  GLY       CA             12.2818377139        0.1362465161       -1.8679483468  PROA      6              98.4700000000
        60         6  GLY       HA1            11.8584238488       -0.5222831165       -2.6118214793  PROA      6               0.0000000000
        61         6  GLY       HA2            12.7105959457        1.0067854150       -2.3418852831  PROA      6               0.0000000000
        62         6  GLY       C              11.1827677789        0.5816658228       -0.9213539673  PROA      6              98.6100000000
        63         6  GLY       O              11.1330097137        0.1422779020        0.2297074516  PROA      6              98.5500000000
        64         7  SER       N              10.3714535901        1.2766111058       -1.5173316016  PROA      7              98.5000000000
        65         7  SER       HN             10.4715077107        1.5742216230       -2.4632722896  PROA      7               0.0000000000
        66         7  SER       CA              9.1817214431        1.6902514199       -0.7810808908  PROA      7              98.4600000000
        67         7  SER       HA              9.4891258144        1.9935701231        0.2086984972  PROA      7               0.0000000000
        68         7  SER       CB              8.4808367017        2.8454763516       -1.4971667350  PROA      7              98.2600000000
        69         7  SER       HB1             7.5745968508        3.1423866835       -0.9272533876  PROA      7               0.0000000000
        70         7  SER       HB2             8.1865606694        2.5264761110       -2.5198436631  PROA      7               0.0000000000
        71         7  SER       OG              9.3399259960        3.9680023717       -1.6011759589  PROA      7              94.5900000000
        72         7  SER       HG1             9.5630273150        4.2148100121       -0.7006695513  PROA      7               0.0000000000
        73         7  SER       C               8.2108451053        0.5283348558       -0.6019914301  PROA      7              98.6200000000
        74         7  SER       O               8.2290593191       -0.4290339535       -1.3789490901  PROA      7              98.5700000000
        75         8  GLY       N               7.4639778968        0.5780773062        0.5375668446  PROA      8              98.2400000000
        76         8  GLY       HN              7.5720604258        1.2757701408        1.2413851388  PROA      8               0.0000000000
        77         8  GLY       CA              6.4490830167       -0.4426899113        0.7447495415  PROA      8              98.1500000000
        78         8  GLY       HA1             6.0909557887       -0.3506624035        1.7594232481  PROA      8               0.0000000000
        79         8  GLY       HA2             6.9156605479       -1.4058805363        0.6003330190  PROA      8               0.0000000000
        80         8  GLY       C               5.2734394529       -0.3174244808       -0.2057728321  PROA      8              98.3400000000
        81         8  GLY       O               5.1945232219        0.6365874973       -0.9812600171  PROA      8              98.1800000000
        82         9  PRO       N               4.4884628661       -1.1436676514       -0.1641557522  PROA      9              98.6000000000
        83         9  PRO       CD              4.4971961945       -2.2497636827        0.8450252516  PROA      9              97.6600000000
        84         9  PRO       HD1             4.5852055692       -1.8336974051        1.8703693161  PROA      9               0.0000000000
        85         9  PRO       HD2             5.3379119386       -2.9462854526        0.6444218883  PROA      9               0.0000000000
        86         9  PRO       CA              3.2663525697       -1.1223359892       -0.9720891551  PROA      9              98.6100000000
        87         9  PRO       HA              3.5013705097       -0.9161788751       -2.0039793662  PROA      9               0.0000000000
        88         9  PRO       CB              2.6526662676       -2.5020066209       -0.7188954142  PROA      9              98.5400000000
        89         9  PRO       HB1             2.9738307125       -3.2254032829       -1.4983991412  PROA      9               0.0000000000
        90         9  PRO       HB2             1.5432108801       -2.4456173867       -0.7168004156  PROA      9               0.0000000000
        91         9  PRO       CG              3.1654630494       -2.9076956399        0.6244637636  PROA      9              97.9600000000
        92         9  PRO       HG1             2.4513204452       -2.5885953225        1.4134313884  PROA      9               0.0000000000
        93         9  PRO       HG2             3.2780621083       -4.0121073699        0.6679467206  PROA      9               0.0000000000
        94         9  PRO       C               2.3031442205       -0.0138215500       -0.5572959365  PROA      9              98.7400000000
        95         9  PRO       O               2.3787076034        0.4845001476        0.5688615396  PROA      9              98.7100000000
        96        10  GLY       N               1.4757498968        0.3043250343       -1.4545893020  PROA      10             98.4700000000
        97        10  GLY       HN              1.4719219580       -0.1018376608       -2.3650801439  PROA      10              0.0000000000
        98        10  GLY       CA              0.4677802975        1.3119289302       -1.1691463549  PROA      10             98.4200000000
        99        10  GLY       HA1             0.0101438597        1.5953146474       -2.1053885013  PROA      10              0.0000000000
       100        10  GLY       HA2             0.9664638159        2.1612618387       -0.7261607011  PROA      10              0.0000000000
       101        10  GLY       C              -0.6120258171        0.8243781528       -0.2203776822  PROA      10             98.6100000000
       102        10  GLY       O              -0.7070792506       -0.3732821813        0.0573354231  PROA      10             98.5600000000
       103        11  ASP       N              -1.3423343763        1.7517467082        0.3014709270  PROA      11             98.5400000000
       104        11  ASP       HN             -1.1527048920        2.7185781428        0.1501554321  PROA      11              0.0000000000
       105        11  ASP       CA             -2.4938973116        1.4534839446        1.1473853020  PROA      11             98.5300000000
       106        11  ASP       HA             -2.1663128933        0.7974146583        1.9401196048  PROA      11              0.0000000000
       107        11  ASP       CB             -3.0795057400        2.7412473326        1.7304583893  PROA      11             98.4000000000
       108        11  ASP       HB1            -4.0541671634        2.5082917000        2.2094573241  PROA      11              0.0000000000
       109        11  ASP       HB2            -3.2423890239        3.4675833999        0.9060930881  PROA      11              0.0000000000
       110        11  ASP       CG             -2.1778735205        3.3863422292        2.7668221841  PROA      11             96.9900000000
       111        11  ASP       OD1            -1.3340200432        2.6840420607        3.3638488017  PROA      11             96.0500000000
       112        11  ASP       OD2            -2.3135807524        4.6089405946        2.9916950017  PROA      11             95.6900000000
       113        11  ASP       C              -3.5664925132        0.6946852630        0.3691147230  PROA      11             98.6800000000
       114        11  ASP       O              -3.7241293832        0.8947756405       -0.8367830579  PROA      11             98.6300000000
       115        12  PRO       N              -4.4475988712       -0.1504044777        1.1022394846  PROA      12             98.6000000000
       116        12  PRO       CD             -4.2711978658       -0.5076760782        2.4181280395  PROA      12             97.4100000000
       117        12  PRO       HD1            -4.5327176867        0.3448898818        3.0796309647  PROA      12              0.0000000000
       118        12  PRO       HD2            -3.2168717922       -0.8108108772        2.5894560208  PROA      12              0.0000000000
       119        12  PRO       CA             -5.5687631558       -0.7898125116        0.4092971976  PROA      12             98.5700000000
       120        12  PRO       HA             -5.2173708989       -1.3327028986       -0.4534554462  PROA      12              0.0000000000
       121        12  PRO       CB             -6.2045560656       -1.6592906376        1.4973381731  PROA      12             98.5200000000
       122        12  PRO       HB1            -6.3809362559       -2.6908255002        1.1246421768  PROA      12              0.0000000000
       123        12  PRO       HB2            -7.1722787515       -1.2279188372        1.8312657445  PROA      12              0.0000000000
       124        12  PRO       CG             -5.2117009142       -1.6614786929        2.6137591783  PROA      12             97.9000000000
       125        12  PRO       HG1            -5.7376783975       -1.5589981483        3.5869697818  PROA      12              0.0000000000
       126        12  PRO       HG2            -4.6435434185       -2.6161969313        2.6118620452  PROA      12              0.0000000000
       127        12  PRO       C              -6.5746979181        0.2167600606       -0.1411143855  PROA      12             98.6900000000
       128        12  PRO       O              -6.6772634841        1.3355452230        0.3698064155  PROA      12             98.6500000000
       129        13  GLY       N              -7.2209152301       -0.2094937115       -1.2313092798  PROA      13             98.4800000000
       130        13  GLY       HN             -7.0309477626       -1.0780633405       -1.6822752651  PROA      13              0.0000000000
       131        13  GLY       CA             -8.2608672419        0.6330590851       -1.7993089258  PROA      13             98.4600000000
       132        13  GLY       HA1            -8.6435737848        0.1368463152       -2.6788505483  PROA      13              0.0000000000
       133        13  GLY       HA2            -7.8098543204        1.5761684682       -2.0702644808  PROA      13              0.0000000000
       134        13  GLY       C              -9.4078806349        0.8929572368       -0.8426484703  PROA      13             98.6300000000
       135        13  GLY       O              -9.5285418004        0.2243893517        0.1869086510  PROA      13             98.5900000000
       136        14  SER       N             -10.2495060135        1.6982139271       -1.2959810024  PROA      14             98.5500000000
       137        14  SER       HN            -10.1354168565        2.1913813164       -2.1548471658  PROA      14              0.0000000000
       138        14  SER       CA            -11.4715917696        1.9380965656       -0.5341859351  PROA      14             98.5100000000
       139        14  SER       HA            -11.2057066728        2.0169296475        0.5094882955  PROA      14              0.0000000000
       140        14  SER       CB            -12.1555031177        3.2214789941       -1.0069108130  PROA      14             98.3700000000
       141        14  SER       HB1           -13.0684705024        3.4024965122       -0.4003220238  PROA      14              0.0000000000
       142        14  SER       HB2           -12.4363299005        3.1217152012       -2.0771492211  PROA      14              0.0000000000
       143        14  SER       OG            -11.2890972310        4.3343949255       -0.8666433215  PROA      14             94.9400000000
       144        14  SER       HG1           -11.0780064489        4.3892281906        0.0682545310  PROA      14              0.0000000000
       145        14  SER       C             -12.4369500521        0.7638418828       -0.6537657261  PROA      14             98.6600000000
       146        14  SER       O             -12.3966211740        0.0184927290       -1.6349355486  PROA      14             98.6200000000
       147        15  GLY       N             -13.1812177824        0.4126859555        0.4599133391  PROA      15             98.1500000000
       148        15  GLY       HN            -13.0575397934        0.8601375647        1.3420967880  PROA      15              0.0000000000
       149        15  GLY       CA            -14.1908820427       -0.6330200843        0.4091101919  PROA      15             98.1100000000
       150        15  GLY       HA1           -14.6001066983       -0.7451960929        1.4022070670  PROA      15              0.0000000000
       151        15  GLY       HA2           -13.7044676382       -1.5467627515        0.1012708762  PROA      15              0.0000000000
       152        15  GLY       C             -15.3197809846       -0.3257962427       -0.5573833105  PROA      15             98.3000000000
       153        15  GLY       O             -15.4048336885        0.7832641916       -1.0878331108  PROA      15             98.1900000000
       154        16  PRO       N             -16.1274209070       -1.0818562624       -0.8945731716  PROA      16             98.5500000000
       155        16  PRO       CD            -16.0916121000       -2.4144095512       -0.2424846334  PROA      16             97.2100000000
       156        16  PRO       HD1           -16.0350826866       -2.3001230442        0.8602564444  PROA      16              0.0000000000
       157        16  PRO       HD2           -15.2207110281       -2.9971561732       -0.6088622564  PROA      16              0.0000000000
       158        16  PRO       CA            -17.3328713323       -0.8670891833       -1.6981261405  PROA      16             98.5300000000
       159        16  PRO       HA            -17.0835677499       -0.3791333611       -2.6267068246  PROA      16              0.0000000000
       160        16  PRO       CB            -17.9107437053       -2.2767805123       -1.8511910859  PROA      16             98.4600000000
       161        16  PRO       HB1           -17.5672779004       -2.7429169983       -2.7992526011  PROA      16              0.0000000000
       162        16  PRO       HB2           -19.0213057239       -2.2503835136       -1.8459165787  PROA      16              0.0000000000
       163        16  PRO       CG            -17.3925038692       -3.0322361296       -0.6704716939  PROA      16             97.7400000000
       164        16  PRO       HG1           -18.1265011678       -2.9817367917        0.1619899914  PROA      16              0.0000000000
       165        16  PRO       HG2           -17.2329259025       -4.0971627328       -0.9438960479  PROA      16              0.0000000000
       166        16  PRO       C             -18.3364084032        0.0622601257       -1.0197168178  PROA      16             98.6700000000
       167        16  PRO       O             -18.3127324512        0.2149441591        0.2039203978  PROA      16             98.6400000000
       168        17  GLY       N             -19.2388382526        0.8178856561       -1.8014600140  PROA      17             98.5200000000
       169        17  GLY       HN            -19.1736759094        0.7967166982       -2.7946586608  PROA      17              0.0000000000
       170        17  GLY       CA            -20.3071894929        1.6669996002       -1.2985682392  PROA      17             98.5100000000
       171        17  GLY       HA1           -20.7429703988        2.1830510616       -2.1412279331  PROA      17              0.0000000000
       172        17  GLY       HA2           -19.8692841599        2.3770922248       -0.6127863117  PROA      17              0.0000000000
       173        17  GLY       C             -21.3949190294        0.8932713106       -0.5785738021  PROA      17             98.6500000000
       174        17  GLY       O             -21.4731881521       -0.3317319952       -0.6938640667  PROA      17             98.6300000000
       175        18  ASP       N             -22.1042328249        1.4106586473        0.1448799167  PROA      18             98.5500000000
       176        18  ASP       HN            -21.9559801904        2.3695360920        0.3635873871  PROA      18              0.0000000000
       177        18  ASP       CA            -23.2582011027        0.8399732365        0.8321938012  PROA      18             98.5200000000
       178        18  ASP       HA            -22.9430341644       -0.0737179408        1.3138608188  PROA      18              0.0000000000
       179        18  ASP       CB            -23.8082777037        1.8242274542        1.8666986915  PROA      18             98.3500000000
       180        18  ASP       HB1           -24.7933341711        1.4564212448        2.2245433447  PROA      18              0.0000000000
       181        18  ASP       HB2           -23.9423086973        2.8155287812        1.3839691405  PROA      18              0.0000000000
       182        18  ASP       CG            -22.8950082777        1.9949442142        3.0673517403  PROA      18             97.0200000000
       183        18  ASP       OD1           -22.0429822594        1.1159098055        3.3156704315  PROA      18             95.9400000000
       184        18  ASP       OD2           -23.0311469959        3.0168561184        3.7746100449  PROA      18             95.5900000000
       185        18  ASP       C             -24.3530845605        0.4539673612       -0.1595287800  PROA      18             98.6300000000
       186        18  ASP       O             -24.5322552199        1.1166383940       -1.1834198763  PROA      18             98.5700000000
       187        19  PRO       N             -24.9033803148       -0.9326407828       -0.0271262199  PROA      19             98.2300000000
       188        19  PRO       CD            -24.5691919914       -1.7661101196        1.0202481301  PROA      19             96.1500000000
       189        19  PRO       HD1           -24.9926357024       -1.3748981065        1.9690146810  PROA      19              0.0000000000
       190        19  PRO       HD2           -23.4653260476       -1.8500266604        1.1035990506  PROA      19              0.0000000000
       191        19  PRO       CA            -25.9701893403       -1.4120524373       -0.9087525402  PROA      19             98.0300000000
       192        19  PRO       HA            -25.6461008619       -1.3914262046       -1.9368982490  PROA      19              0.0000000000
       193        19  PRO       CB            -26.2767503715       -2.8084432768       -0.3625255202  PROA      19             97.8200000000
       194        19  PRO       HB1           -26.2571554216       -3.5633549443       -1.1772682699  PROA      19              0.0000000000
       195        19  PRO       HB2           -27.2753327462       -2.8309281974        0.1236935715  PROA      19              0.0000000000
       196        19  PRO       CG            -25.1952414959       -3.0759654182        0.6345123206  PROA      19             96.4700000000
       197        19  PRO       HG1           -25.6233997515       -3.5692948469        1.5331801332  PROA      19              0.0000000000
       198        19  PRO       HG2           -24.4279953292       -3.7449095465        0.1893782650  PROA      19              0.0000000000
       199        19  PRO       C             -27.2123395787       -0.5260476610       -0.8666654690  PROA      19             98.0700000000
       200        19  PRO       OT1           -27.1942852342        0.4824424993       -0.1115352568  PROA      19              0.0000000000
       201        19  PRO       OT2           -28.1931865313       -0.8477941224       -1.5891739258  PROA      19              0.0000000000
